 vasp.6.4.3 19Mar24 (build Oct 22 2024 11:23:12) complex                        
  
 executed on             LinuxIFC date 2025.06.04  06:11:12
 running   64 mpi-ranks, on    4 nodes
 distrk:  each k-point on   64 cores,    1 groups
 distr:  one band on NCORE=  16 cores,    4 groups


--------------------------------------------------------------------------------------------------------


 INCAR:
   SYSTEM = Si and Ge interface calculation
   ISTART = 0
   ICHARG = 2
   LWAVE = .FALSE.
   LREAL = AUTO
   ENCUT = 700
   ENAUG = 900
   ADDGRID = .TRUE.
   LMAXMIX = 6
   LASPH = .TRUE.
   LMIXTAU = .TRUE.
   NCORE = 16
   NELM = 100
   NBANDS = 231
   EDIFF = 1d-7
   AMIX = 0.6
   ISMEAR = 0
   SIGMA = 0.01
   NELECT = 384
   ISPIN = 2
   NUPDOWN = 1
   LVTOT = .FALSE.
   LVHAR = .TRUE.

 POTCAR:    PAW_PBE Ge 05Jan2001                  
 -----------------------------------------------------------------------------
|                                                                             |
|           W    W    AA    RRRRR   N    N  II  N    N   GGGG   !!!           |
|           W    W   A  A   R    R  NN   N  II  NN   N  G    G  !!!           |
|           W    W  A    A  R    R  N N  N  II  N N  N  G       !!!           |
|           W WW W  AAAAAA  RRRRR   N  N N  II  N  N N  G  GGG   !            |
|           WW  WW  A    A  R   R   N   NN  II  N   NN  G    G                |
|           W    W  A    A  R    R  N    N  II  N    N   GGGG   !!!           |
|                                                                             |
|     You use a magnetic or noncollinear calculation, but did not specify     |
|     the initial magnetic moment with the MAGMOM tag. Note that a            |
|     default of 0.01 will be used for all atoms. This ferromagnetic          |
|     setup may break the symmetry of the crystal, in particular it may       |
|     rule out finding an antiferromagnetic solution. Thence, we              |
|     recommend setting the initial magnetic moment manually or verifying     |
|     carefully that this magnetic setup is desired.                          |
|                                                                             |
 -----------------------------------------------------------------------------

 POTCAR:    PAW_PBE Ge 05Jan2001                  
   VRHFIN =Ge: s2p2                                                                                 
   LEXCH  = PE                                                                                      
   EATOM  =   104.9960 eV,    7.7170 Ry                                                             
                                                                                                    
   TITEL  = PAW_PBE Ge 05Jan2001                                                                    
   LULTRA =        F    use ultrasoft PP ?                                                          
   IUNSCR =        1    unscreen: 0-lin 1-nonlin 2-no                                               
   RPACOR =    2.170    partial core radius                                                         
   POMASS =   72.610; ZVAL   =    4.000    mass and valenz                                          
   RCORE  =    2.300    outmost cutoff radius                                                       
   RWIGS  =    2.300; RWIGS  =    1.217    wigner-seitz radius (au A)                               
   ENMAX  =  173.807; ENMIN  =  130.355 eV                                                          
   ICORE  =        3    local potential                                                             
   LCOR   =        T    correct aug charges                                                         
   LPAW   =        T    paw PP                                                                      
   EAUG   =  385.843                                                                                
   DEXC   =    0.000                                                                                
   RMAX   =    2.342    core radius for proj-oper                                                   
   RAUG   =    1.300    factor for augmentation sphere                                              
   RDEP   =    2.318    radius for radial grids                                                     
   RDEPT  =    2.103    core radius for aug-charge                                                  
                                                                                                    
   Atomic configuration                                                                             
   10 entries                                                                                       
     n  l   j            E        occ.                                                              
     1  0  0.50    -10959.8463   2.0000                                                             
     2  0  0.50     -1371.6056   2.0000                                                             
     2  1  1.50     -1198.4791   6.0000                                                             
     3  0  0.50      -168.4733   2.0000                                                             
     3  1  1.50      -115.6019   6.0000                                                             
     3  2  2.50       -29.3106  10.0000                                                             
     4  0  0.50       -11.7309   2.0000                                                             
     4  1  0.50        -3.8952   2.0000                                                             
     4  2  1.50        -4.0817   0.0000                                                             
     4  3  2.50        -4.0817   0.0000                                                             
   Description                                                                                      
     l       E           TYP  RCUT    TYP  RCUT                                                     
     0    -11.7309493     23  2.300                                                                 
     0     -7.4578696     23  2.300                                                                 
     1     -3.8952261     23  2.300                                                                 
     1      6.1178114     23  2.300                                                                 
     2     -4.0817478     23  2.300                                                                 
     3     -1.3605826      7  2.300                                                                 
  local pseudopotential read in
  partial core-charges read in
  partial kinetic energy density read in
  atomic valenz-charges read in
  non local Contribution for L=           0  read in
    real space projection operators read in
  non local Contribution for L=           0  read in
    real space projection operators read in
  non local Contribution for L=           1  read in
    real space projection operators read in
  non local Contribution for L=           1  read in
    real space projection operators read in
  non local Contribution for L=           2  read in
    real space projection operators read in
    PAW grid and wavefunctions read in
 
   number of l-projection  operators is LMAX  =           5
   number of lm-projection operators is LMMAX =          13
 
 Optimization of the real space projectors (new method)

 maximal supplied QI-value         = 16.25
 optimisation between [QCUT,QGAM] = [ 13.49, 26.98] = [ 50.95,203.80] Ry 
 Optimized for a Real-space Cutoff    1.25 Angstroem

   l    n(q)    QCUT    max X(q) W(low)/X(q) W(high)/X(q)  e(spline) 
   0     10    13.489    65.336    0.91E-04    0.11E-03    0.34E-06
   0     10    13.489    52.220    0.89E-04    0.11E-03    0.34E-06
   1     10    13.489    36.409    0.22E-03    0.27E-03    0.14E-06
   1     10    13.489    21.334    0.21E-03    0.27E-03    0.14E-06
   2      9    13.489     4.673    0.11E-03    0.12E-03    0.19E-06
  PAW_PBE Ge 05Jan2001                  :
 energy of atom  1       EATOM= -104.9960
 kinetic energy error for atom=    0.0001 (will be added to EATOM!!)
 
 
 POSCAR: Ge+Ge
  positions in direct lattice
  No initial velocities read in


 exchange-correlation table for PE
   RHO(1)=    0.500       N(1)  =     2000
   RHO(2)=  100.500       N(2)  =     4000
 


--------------------------------------------------------------------------------------------------------


 ion  position               nearest neighbor table
   1  0.885  0.786  0.500-  51 2.44  93 2.45  63 2.45  31 2.45
   2  0.993  0.948  0.000-  49 2.07  38 2.45  21 2.45  39 2.45  79 2.78
   3  0.951  0.656  0.083-  22 2.45  39 2.45  40 2.45
   4  0.909  0.365  0.166-  20 2.45  41 2.45  81 2.45  40 2.45
   5  0.868  0.073  0.249-  21 2.45  41 2.45  58 2.45  74 2.45
   6  0.760  0.161  0.500-  19 0.00  52 2.45  35 2.45  58 2.47
   7  0.385  0.286  0.500-  94 2.44  69 2.45  25 2.45  12 2.47
   8  0.493  0.448  0.000-  55 2.07  45 2.45  15 2.45  44 2.45  73 2.78
   9  0.451  0.156  0.083-  45 2.45  16 2.45  46 2.45
  10  0.409  0.865  0.166-  14 2.45  47 2.45  17 2.45  46 2.45
  11  0.368  0.573  0.249-  15 2.45  47 2.45  18 2.45  88 2.45
  12  0.326  0.281  0.332-  16 2.45  94 2.45  88 2.45  62 2.45   7 2.47
  13  0.260  0.661  0.500-  42 2.45  24 2.45  18 2.47
  14  0.368  0.823  0.000-  67 2.07  10 2.45  26 2.45  79 2.69  91 2.78  84 2.79
  15  0.326  0.531  0.083-  11 2.45  27 2.45   8 2.45  26 2.45  55 2.79
  16  0.284  0.240  0.166-  12 2.45  28 2.45   9 2.45  27 2.45
  17  0.243  0.948  0.249-  28 2.45  50 2.45  87 2.45  10 2.45  57 2.45
  18  0.201  0.656  0.332-  11 2.45  57 2.45  30 2.45  13 2.47
  19  0.760  0.161  0.500-   6 0.00  52 2.45  35 2.45  58 2.47
  20  0.868  0.323  0.000-  61 2.07   4 2.45  32 2.45  73 2.69  85 2.78  78 2.79
  21  0.826  0.031  0.083-   5 2.45   2 2.45  32 2.45  33 2.45  49 2.79
  22  0.784  0.740  0.166-   3 2.45  34 2.45  33 2.45
  23  0.343  0.995  0.583-  69 2.45  70 2.45  43 2.45  50 2.47  87 2.47
  24  0.301  0.703  0.666-  43 2.45  65 2.45  95 2.45  13 2.45
  25  0.510  0.411  0.500-   7 2.45  76 2.45  88 2.47
  26  0.243  0.698  0.000-  79 2.07  14 2.45  39 2.45  15 2.45  55 2.78
  27  0.201  0.406  0.083-  15 2.45  40 2.45  16 2.45
  28  0.159  0.115  0.166-  17 2.45  38 2.45  16 2.45  41 2.45
  29  0.593  0.745  0.583-  93 2.45  43 2.45  64 2.45  92 2.47
  30  0.076  0.531  0.332-  40 2.45  51 2.45  62 2.45  18 2.45  42 2.47
  31  0.010  0.911  0.500-   1 2.45  82 2.45  74 2.47
  32  0.743  0.198  0.000-  73 2.07  21 2.45  20 2.45  45 2.45  49 2.78
  33  0.701  0.906  0.083-  46 2.45  21 2.45  22 2.45
  34  0.659  0.615  0.166-  81 2.45  44 2.45  22 2.45  47 2.45
  35  0.635  0.036  0.500-  68 2.44  19 2.45   6 2.45  69 2.45  93 2.45  36 2.47
  36  0.576  0.031  0.332-  46 2.45  58 2.45  68 2.45  94 2.45  35 2.47
  37  0.093  0.245  0.583-  48 2.45  70 2.45  86 2.47
  38  0.118  0.073  0.000-  85 2.07   2 2.45  28 2.45  49 2.69  67 2.78  54 2.79
  39  0.076  0.781  0.083-  57 2.45   3 2.45  26 2.45   2 2.45  79 2.79
  40  0.034  0.490  0.166-  30 2.45  27 2.45   4 2.45   3 2.45
  41  0.993  0.198  0.249-  86 2.45   5 2.45   4 2.45  28 2.45
  42  0.135  0.536  0.500-  62 2.44  63 2.45  13 2.45  30 2.47
  43  0.426  0.828  0.666-  84 2.45  24 2.45  29 2.45  23 2.45
  44  0.618  0.573  0.000-  91 2.07  34 2.45   8 2.45  55 2.69  61 2.78  60 2.79
  45  0.576  0.281  0.083-   8 2.45   9 2.45  80 2.45  32 2.45  73 2.79
  46  0.534  0.990  0.166-  36 2.45  33 2.45  10 2.45   9 2.45
  47  0.493  0.698  0.249-  92 2.45  11 2.45  10 2.45  34 2.45
  48  0.926  0.328  0.666-  78 2.45  37 2.45  75 2.45  52 2.45
  49  0.926  0.078  0.914-   2 2.07  71 2.45  85 2.45  38 2.69  32 2.78  21 2.79
  50  0.284  0.990  0.414-  87 0.00  17 2.45  94 2.45  23 2.47
  51  0.909  0.615  0.414-   1 2.44  56 2.45  30 2.45  63 2.47
  52  0.801  0.203  0.666-  71 2.45  89 2.45   6 2.45  19 2.45  48 2.45
  53  0.510  0.161  0.749-  72 2.45  90 2.45  69 2.45  89 2.45
  54  0.218  0.120  0.832-  67 2.45  70 2.45  90 2.45  85 2.45  38 2.79
  55  0.426  0.578  0.914-   8 2.07  65 2.45  91 2.45  44 2.69  26 2.78  15 2.79
  56  0.784  0.490  0.414-  81 2.45  51 2.45  75 2.47
  57  0.118  0.823  0.249-  74 2.45  39 2.45  17 2.45  18 2.45
  58  0.701  0.156  0.332-  36 2.45   5 2.45  80 2.45   6 2.47  19 2.47
  59  0.010  0.661  0.749-  95 2.45  96 2.45  66 2.45  63 2.45
  60  0.718  0.620  0.832-  64 2.45  91 2.45  61 2.45  96 2.45  44 2.79
  61  0.801  0.453  0.914-  20 2.07  60 2.45  73 2.45  78 2.45  44 2.78
  62  0.159  0.365  0.414-  42 2.44  86 2.45  12 2.45  30 2.45
  63  0.968  0.620  0.583-  42 2.45  75 2.45   1 2.45  59 2.45  51 2.47
  64  0.676  0.578  0.666-  60 2.45  76 2.45  75 2.45  29 2.45
  65  0.385  0.536  0.749-  55 2.45  76 2.45  24 2.45  77 2.45
  66  0.093  0.495  0.832-  77 2.45  59 2.45  78 2.45
  67  0.301  0.953  0.914-  14 2.07  54 2.45  79 2.45  84 2.45  38 2.78
  68  0.659  0.865  0.414-  35 2.44  92 2.45  36 2.45  93 2.47
  69  0.468  0.120  0.583-   7 2.45  23 2.45  53 2.45  35 2.45  94 2.47
  70  0.176  0.078  0.666-  54 2.45  82 2.45  37 2.45  23 2.45
  71  0.885  0.036  0.749-  49 2.45  52 2.45  82 2.45  83 2.45
  72  0.593  0.995  0.832-  53 2.45  84 2.45  83 2.45
  73  0.676  0.328  0.914-  32 2.07  61 2.45  89 2.45  20 2.69   8 2.78  45 2.79
  74  0.951  0.906  0.332-  57 2.45   5 2.45  31 2.47
  75  0.843  0.495  0.583-  63 2.45  64 2.45  48 2.45  56 2.47
  76  0.551  0.453  0.666-  89 2.45  65 2.45  64 2.45  25 2.45
  77  0.260  0.411  0.749-  66 2.45  90 2.45  65 2.45
  78  0.968  0.370  0.832-  48 2.45  66 2.45  61 2.45  85 2.45  20 2.79
  79  0.176  0.828  0.914-  26 2.07  67 2.45  95 2.45  14 2.69   2 2.78  39 2.79
  80  0.618  0.323  0.249-  81 2.45  58 2.45  45 2.45  88 2.45
  81  0.743  0.448  0.249-  80 2.45  34 2.45  56 2.45   4 2.45
  82  0.051  0.953  0.666-  70 2.45  95 2.45  71 2.45  31 2.45
  83  0.760  0.911  0.749-  72 2.45  71 2.45  96 2.45  93 2.45
  84  0.468  0.870  0.832-  43 2.45  72 2.45  67 2.45  91 2.45  14 2.79
  85  0.051  0.203  0.914-  38 2.07  49 2.45  54 2.45  78 2.45  20 2.78
  86  0.034  0.240  0.414-  41 2.45  62 2.45  37 2.47
  87  0.284  0.990  0.414-  50 0.00  17 2.45  94 2.45  23 2.47
  88  0.451  0.406  0.332-  12 2.45  11 2.45  80 2.45  25 2.47
  89  0.635  0.286  0.749-  76 2.45  52 2.45  53 2.45  73 2.45
  90  0.343  0.245  0.832-  53 2.45  54 2.45  77 2.45
  91  0.551  0.703  0.914-  44 2.07  60 2.45  84 2.45  55 2.45  14 2.78
  92  0.534  0.740  0.414-  68 2.45  47 2.45  29 2.47
  93  0.718  0.870  0.583-  29 2.45   1 2.45  83 2.45  35 2.45  68 2.47
  94  0.409  0.115  0.414-   7 2.44  12 2.45  50 2.45  87 2.45  36 2.45  69 2.47
  95  0.135  0.786  0.749-  79 2.45  82 2.45  59 2.45  24 2.45
  96  0.843  0.745  0.832-  59 2.45  60 2.45  83 2.45
 
 -----------------------------------------------------------------------------
|                                                                             |
|           W    W    AA    RRRRR   N    N  II  N    N   GGGG   !!!           |
|           W    W   A  A   R    R  NN   N  II  NN   N  G    G  !!!           |
|           W    W  A    A  R    R  N N  N  II  N N  N  G       !!!           |
|           W WW W  AAAAAA  RRRRR   N  N N  II  N  N N  G  GGG   !            |
|           WW  WW  A    A  R   R   N   NN  II  N   NN  G    G                |
|           W    W  A    A  R    R  N    N  II  N    N   GGGG   !!!           |
|                                                                             |
|     The distance between some ions is very small. Please check the          |
|     nearest-neighbor list in the OUTCAR file.                               |
|     I HOPE YOU KNOW WHAT YOU ARE DOING!                                     |
|                                                                             |
 -----------------------------------------------------------------------------

  LATTYP: Found a base centered orthorhombic cell.
 ALAT       =    16.0026764918
 B/A-ratio  =     1.2247448613
 C/A-ratio  =     0.8707237428
  
  Lattice vectors:
  
 A1 = (  -2.5302453040, -12.3956203460,   0.0000000000)
 A2 = (  12.6512260440,   0.0000000000,   0.0000000000)
 A3 = (   0.0000000000,   0.0000000000,  13.9339103700)


Analysis of symmetry for initial positions (statically):
=====================================================================
 Subroutine PRICEL returns:
 Original cell was already a primitive cell.
 

 Routine SETGRP: Setting up the symmetry group for a 
 base centered orthorhombic supercell.


 Subroutine GETGRP returns: Found  2 space group operations
 (whereof  1 operations were pure point group operations)
 out of a pool of  8 trial point group operations.


The static configuration has the point symmetry C_1 .
 The point group associated with its full space group is S_2 .


Analysis of symmetry for dynamics (positions and initial velocities):
=====================================================================
 Subroutine PRICEL returns:
 Original cell was already a primitive cell.
 

 Routine SETGRP: Setting up the symmetry group for a 
 base centered orthorhombic supercell.


 Subroutine GETGRP returns: Found  2 space group operations
 (whereof  1 operations were pure point group operations)
 out of a pool of  8 trial point group operations.


The dynamic configuration has the point symmetry C_1 .
 The point group associated with its full space group is S_2 .


Analysis of structural, dynamic, and magnetic symmetry:
=====================================================================
 Subroutine PRICEL returns:
 Original cell was already a primitive cell.
 

 Routine SETGRP: Setting up the symmetry group for a 
 base centered orthorhombic supercell.


 Subroutine GETGRP returns: Found  2 space group operations
 (whereof  1 operations were pure point group operations)
 out of a pool of  8 trial point group operations.


The overall configuration has the point symmetry C_1 .
 The point group associated with its full space group is S_2 .


 Subroutine INISYM returns: Found  2 space group operations
 (whereof  1 operations are pure point group operations),
 and found     1 'primitive' translations


----------------------------------------------------------------------------------------

                                     Primitive cell                                     

  volume of cell :    2185.1130

  direct lattice vectors                    reciprocal lattice vectors
    12.651226044  0.000000000  0.000000000     0.079043722 -0.016134732  0.000000000
     2.530245304 12.395620346  0.000000000     0.000000000  0.080673655  0.000000000
     0.000000000  0.000000000 13.933910370     0.000000000  0.000000000  0.071767363

  length of vectors
    12.651226044 12.651227018 13.933910370     0.080673661  0.080673655  0.071767363

  position of ions in fractional coordinates (direct lattice)
     0.884640455  0.786241174  0.500000000
     0.992590368  0.948132515  0.000000022
     0.950923562  0.656465769  0.082883760
     0.909256816  0.364798903  0.165767506
     0.867590070  0.073132217  0.248651221
     0.759640515  0.161241293  0.500000000
     0.384640455  0.286241174  0.500000000
     0.492590368  0.448132515  0.000000028
     0.450923622  0.156465769  0.082883760
     0.409256876  0.864798963  0.165767506
     0.367590129  0.573132277  0.248651221
     0.325923383  0.281465530  0.331534922
     0.259640574  0.661241174  0.500000000
     0.367590398  0.823132634  0.000000012
     0.325923622  0.531465828  0.082883760
     0.284256876  0.239799008  0.165767536
     0.242590174  0.948132396  0.248651192
     0.200923383  0.656465650  0.331534922
     0.759640515  0.161241293  0.500000000
     0.867590487  0.323132575  0.000000012
     0.825923681  0.031465776  0.082883760
     0.784256876  0.739798903  0.165767506
     0.342973709  0.994574487  0.582883716
     0.301306963  0.702907681  0.665767550
     0.509640455  0.411241174  0.500000000
     0.242590353  0.698132634  0.000000000
     0.200923592  0.406465799  0.082883753
     0.159256846  0.114798956  0.165767506
     0.592973650  0.744574428  0.582883716
     0.075923339  0.531465530  0.331534892
     0.009640455  0.911241293  0.500000000
     0.742590427  0.198132515  0.000000021
     0.700923622  0.906465709  0.082883768
     0.659256876  0.614798903  0.165767506
     0.634640455  0.036241293  0.500000000
     0.575923443  0.031465471  0.331534892
     0.092973590  0.244574308  0.582883716
     0.117590360  0.073132515  0.000000021
     0.075923599  0.781465769  0.082883760
     0.034256846  0.489798963  0.165767506
     0.992590070  0.198132217  0.248651221
     0.134640455  0.536241174  0.500000000
     0.426306963  0.827907741  0.665767550
     0.617590487  0.573132575  0.000000012
     0.575923622  0.281465828  0.082883753
     0.534256935  0.989799023  0.165767536
     0.492590189  0.698132277  0.248651251
     0.926306963  0.327907681  0.665767550
     0.926306605  0.077907324  0.914418697
     0.284256607  0.989798784  0.414418697
     0.909256577  0.614798784  0.414418697
     0.801306903  0.202907562  0.665767550
     0.509640157  0.161240816  0.748651266
     0.217973471  0.119574070  0.831534982
     0.426306605  0.577907443  0.914418697
     0.784256577  0.489798665  0.414418638
     0.117590085  0.823132396  0.248651177
     0.700923383  0.156465530  0.331534892
     0.009640217  0.661240935  0.748651266
     0.717973411  0.619574189  0.831534982
     0.801306725  0.452907443  0.914418697
     0.159256637  0.364798784  0.414418697
     0.967973769  0.619574428  0.582883716
     0.676307023  0.577907681  0.665767550
     0.384640336  0.536240995  0.748651266
     0.092973590  0.494574189  0.831534982
     0.301306605  0.952907443  0.914418578
     0.659256577  0.864798665  0.414418638
     0.467973709  0.119574547  0.582883716
     0.176306963  0.077907681  0.665767550
     0.884640276  0.036241055  0.748651266
     0.592973471  0.994574189  0.831534982
     0.676306665  0.327907383  0.914418697
     0.950923383  0.906465530  0.331534922
     0.842973709  0.494574398  0.582883716
     0.551306963  0.452907652  0.665767550
     0.259640217  0.411240906  0.748651147
     0.967973471  0.369574159  0.831534863
     0.176306605  0.827907503  0.914418697
     0.617590249  0.323132336  0.248651221
     0.742590129  0.448132336  0.248651192
     0.051306963  0.952907681  0.665767550
     0.759640217  0.911241055  0.748651266
     0.467973411  0.869574249  0.831534982
     0.051306605  0.202907324  0.914418697
     0.034256559  0.239798784  0.414418638
     0.284256607  0.989798784  0.414418697
     0.450923443  0.406465530  0.331534952
     0.634640157  0.286240935  0.748651147
     0.342973471  0.244574189  0.831534982
     0.551306725  0.702907503  0.914418697
     0.534256697  0.739798665  0.414418697
     0.717973709  0.869574428  0.582883716
     0.409256607  0.114798844  0.414418697
     0.134640217  0.786240995  0.748651266
     0.842973471  0.744574249  0.831534982

  ion indices of the primitive-cell ions
   primitive index   ion index
                 1           1
                 2           2
                 3           3
                 4           4
                 5           5
                 6           6
                 7           7
                 8           8
                 9           9
                10          10
                11          11
                12          12
                13          13
                14          14
                15          15
                16          16
                17          17
                18          18
                19          19
                20          20
                21          21
                22          22
                23          23
                24          24
                25          25
                26          26
                27          27
                28          28
                29          29
                30          30
                31          31
                32          32
                33          33
                34          34
                35          35
                36          36
                37          37
                38          38
                39          39
                40          40
                41          41
                42          42
                43          43
                44          44
                45          45
                46          46
                47          47
                48          48
                49          49
                50          50
                51          51
                52          52
                53          53
                54          54
                55          55
                56          56
                57          57
                58          58
                59          59
                60          60
                61          61
                62          62
                63          63
                64          64
                65          65
                66          66
                67          67
                68          68
                69          69
                70          70
                71          71
                72          72
                73          73
                74          74
                75          75
                76          76
                77          77
                78          78
                79          79
                80          80
                81          81
                82          82
                83          83
                84          84
                85          85
                86          86
                87          87
                88          88
                89          89
                90          90
                91          91
                92          92
                93          93
                94          94
                95          95
                96          96

----------------------------------------------------------------------------------------

 
 
 KPOINTS: Automatic KPOINTS generated             

Automatic generation of k-mesh.
 Grid dimensions read from file:
 generate k-points for:    3    3    2

 Generating k-lattice:

  Cartesian coordinates                     Fractional coordinates (reciprocal lattice)
     0.026347907 -0.005378244  0.000000000     0.333333333 -0.000000000  0.000000000
     0.000000000  0.026891218  0.000000000     0.000000000  0.333333333  0.000000000
     0.000000000  0.000000000  0.035883681     0.000000000  0.000000000  0.500000000

  Length of vectors
     0.026891220  0.026891218  0.035883681

  Shift w.r.t. Gamma in fractional coordinates (k-lattice)
     0.000000000  0.000000000  0.000000000

 
 Subroutine IBZKPT returns following result:
 ===========================================
 
 Found     10 irreducible k-points:
 
 Following reciprocal coordinates:
            Coordinates               Weight
  0.000000  0.000000  0.000000      1.000000
  0.333333  0.000000  0.000000      2.000000
  0.000000 -0.333333  0.000000      2.000000
  0.333333  0.333333  0.000000      2.000000
 -0.333333  0.333333  0.000000      2.000000
  0.000000  0.000000  0.500000      1.000000
  0.333333  0.000000  0.500000      2.000000
  0.000000 -0.333333  0.500000      2.000000
  0.333333  0.333333  0.500000      2.000000
 -0.333333  0.333333  0.500000      2.000000
 
 Following cartesian coordinates:
            Coordinates               Weight
  0.000000  0.000000  0.000000      1.000000
  0.026348 -0.005378  0.000000      2.000000
  0.000000 -0.026891  0.000000      2.000000
  0.026348  0.021513  0.000000      2.000000
 -0.026348  0.032269  0.000000      2.000000
  0.000000  0.000000  0.035884      1.000000
  0.026348 -0.005378  0.035884      2.000000
  0.000000 -0.026891  0.035884      2.000000
  0.026348  0.021513  0.035884      2.000000
 -0.026348  0.032269  0.035884      2.000000
 
 -----------------------------------------------------------------------------
|                                                                             |
|           W    W    AA    RRRRR   N    N  II  N    N   GGGG   !!!           |
|           W    W   A  A   R    R  NN   N  II  NN   N  G    G  !!!           |
|           W    W  A    A  R    R  N N  N  II  N N  N  G       !!!           |
|           W WW W  AAAAAA  RRRRR   N  N N  II  N  N N  G  GGG   !            |
|           WW  WW  A    A  R   R   N   NN  II  N   NN  G    G                |
|           W    W  A    A  R    R  N    N  II  N    N   GGGG   !!!           |
|                                                                             |
|     The number of bands has been changed from the values supplied in        |
|     the INCAR file. This is a result of running the parallel version.       |
|     The orbitals not found in the WAVECAR file will be initialized with     |
|     random numbers, which is usually adequate. For correlated               |
|     calculations, however, you should redo the groundstate calculation.     |
|     I found NBANDS = 231. Now, NBANDS = 232.                                |
|                                                                             |
 -----------------------------------------------------------------------------



--------------------------------------------------------------------------------------------------------




 Dimension of arrays:
   k-points           NKPTS =     10   k-points in BZ     NKDIM =     10   number of bands    NBANDS=    232
   number of dos      NEDOS =    301   number of ions     NIONS =     96
   non local maximal  LDIM  =      5   non local SUM 2l+1 LMDIM =     13
   total plane-waves  NPLWV = 635040
   max r-space proj   IRMAX =   2405   max aug-charges    IRDMAX= 126548
   dimension x,y,z NGX =    84 NGY =   84 NGZ =   90
   dimension x,y,z NGXF=   168 NGYF=  168 NGZF=  180
   support grid    NGXF=   336 NGYF=  336 NGZF=  360
   ions per type =              96
   NGX,Y,Z   is equivalent  to a cutoff of  11.04, 11.04, 10.74 a.u.
   NGXF,Y,Z  is equivalent  to a cutoff of  22.08, 22.08, 21.48 a.u.

 SYSTEM =  Si and Ge interface calculation         
 POSCAR =  Ge+Ge                                   

 Startparameter for this run:
   NWRITE =      2    write-flag & timer
   PREC   = normal    normal or accurate (medium, high low for compatibility)
   ISTART =      0    job   : 0-new  1-cont  2-samecut
   ICHARG =      2    charge: 1-file 2-atom 10-const
   ISPIN  =      2    spin polarized calculation?
   LNONCOLLINEAR =      F non collinear calculations
   LSORBIT =      F    spin-orbit coupling
   INIWAV =      1    electr: 0-lowe 1-rand  2-diag
   LASPH  =      T    aspherical Exc in radial PAW
 Electronic Relaxation 1
   ENCUT  =  700.0 eV  51.45 Ry    7.17 a.u.  27.29 27.29 30.06*2*pi/ulx,y,z
   ENINI  =  700.0     initial cutoff
   ENAUG  =  900.0 eV  augmentation charge cutoff
   NELM   =    100;   NELMIN=  2; NELMDL= -5     # of ELM steps 
   EDIFF  = 0.1E-06   stopping-criterion for ELM
   LREAL  =      T    real-space projection
   NLSPLINE    = F    spline interpolate recip. space projectors
   LCOMPAT=      F    compatible to vasp.4.4
   GGA_COMPAT  = T    GGA compatible to vasp.4.4-vasp.4.6
   LMAXPAW     = -100 max onsite density
   LMAXMIX     =    6 max onsite mixed and CHGCAR
   VOSKOWN=      0    Vosko Wilk Nusair interpolation
   ROPT   =   -0.00050
 Ionic relaxation
   EDIFFG = 0.1E-05   stopping-criterion for IOM
   NSW    =      0    number of steps for IOM
   NBLOCK =      1;   KBLOCK =      1    inner block; outer block 
   IBRION =     -1    ionic relax: 0-MD 1-quasi-New 2-CG
   NFREE  =      0    steps in history (QN), initial steepest desc. (CG)
   ISIF   =      2    stress and relaxation
   IWAVPR =     10    prediction:  0-non 1-charg 2-wave 3-comb
   ISYM   =      2    0-nonsym 1-usesym 2-fastsym
   LCORR  =      T    Harris-Foulkes like correction to forces

   POTIM  = 0.5000    time-step for ionic-motion
   TEIN   =    0.0    initial temperature
   TEBEG  =    0.0;   TEEND  =   0.0 temperature during run
   SMASS  =  -3.00    Nose mass-parameter (am)
   estimated Nose-frequenzy (Omega)   =  0.10E-29 period in steps = 0.13E+47 mass=  -0.366E-26a.u.
   SCALEE = 1.0000    scale energy and forces
   NPACO  =    256;   APACO  = 10.0  distance and # of slots for P.C.
   PSTRESS=    0.0 pullay stress

  Mass of Ions in am
   POMASS =  72.61
  Ionic Valenz
   ZVAL   =   4.00
  Atomic Wigner-Seitz radii
   RWIGS  =  -1.00
  virtual crystal weights 
   VCA    =   1.00
   NELECT =     384.0000    total number of electrons
   NUPDOWN=       1.0000    fix difference up-down

 DOS related values:
   EMIN   =  10.00;   EMAX   =-10.00  energy-range for DOS
   EFERMI =   0.00;   METHOD = LEGACY      
   ISMEAR =     0;   SIGMA  =   0.01  broadening in eV -4-tet -1-fermi 0-gaus

 Electronic relaxation 2 (details)
   IALGO  =     38    algorithm
   LDIAG  =      T    sub-space diagonalisation (order eigenvalues)
   LSUBROT=      F    optimize rotation matrix (better conditioning)
   TURBO    =      0    0=normal 1=particle mesh
   IRESTART =      0    0=no restart 2=restart with 2 vectors
   NREBOOT  =      0    no. of reboots
   NMIN     =      0    reboot dimension
   EREF     =   0.00    reference energy to select bands
   IMIX   =      4    mixing-type and parameters
     AMIX     =   0.60;   BMIX     =  1.00
     AMIX_MAG =   2.40;   BMIX_MAG =  1.00
     AMIN     =   0.10
     WC   =   100.;   INIMIX=   1;  MIXPRE=   1;  MAXMIX= -45

 Intra band minimization:
   WEIMIN = 0.0000     energy-eigenvalue tresh-hold
   EBREAK =  0.11E-09  absolut break condition
   DEPER  =   0.30     relativ break condition  

   TIME   =   0.40     timestep for ELM

  volume/ion in A,a.u.               =      22.76       153.60
  Fermi-wavevector in a.u.,A,eV,Ry     =   0.916982  1.732844 11.440530  0.840855
  Thomas-Fermi vector in A             =   2.041899
 
 Write flags
   LWAVE        =      F    write WAVECAR
   LDOWNSAMPLE  =      F    k-point downsampling of WAVECAR
   LCHARG       =      T    write CHGCAR
   LVTOT        =      F    write LOCPOT, total local potential
   LVHAR        =      T    write LOCPOT, Hartree potential only
   WRT_POTENTIAL=  hartree ionic  ! write potential to hdf5 file
   LELF         =      F    write electronic localiz. function (ELF)
   LORBIT       =      0    0 simple, 1 ext, 2 COOP (PROOUT), +10 PAW based schemes


 Dipole corrections
   LMONO      =      F    monopole corrections only (constant potential shift)
   LDIPOL     =      F    correct potential (dipole corrections)
   IDIPOL     =      0    1-x, 2-y, 3-z, 4-all directions 
   EPSILON    =  1.0000000 bulk dielectric constant
   LVACPOTAV  =      F  vacuum potentials using an averaging scheme for the charge density
   VACPOTFLAT =  0.1000000 required flatness to determine vacuum potential
 Exchange correlation treatment:
   GGA     = PE    functional components
   XC_C    = 1    coefficients multiplying the functional components
   LIBXC   =     F    Libxc                    
   VOSKOWN =     0    Vosko Wilk Nusair interpolation
   LHFCALC =     F    Hartree Fock is set to
   LHFONE  =     F    Hartree Fock one center treatment
   AEXX    =    0.0000 exact exchange contribution

 Parameters of functionals:
   PE:
     No parameter
 
 Van der Waals corrections
   IVDW    =     0    specifies the selected vdW correction

 Linear response parameters
   LEPSILON=     F    determine dielectric tensor
   LRPA    =     F    only Hartree local field effects (RPA)
   LNABLA  =     F    use nabla operator in PAW spheres
   LVEL    =     F    velocity operator in full k-point grid
   CSHIFT  =0.1000    complex shift for real part using Kramers Kronig
   OMEGAMAX=  -1.0    maximum frequency
   DEG_THRESHOLD= 0.2000000E-02 threshold for treating states as degnerate
   RTIME   =   -0.100 relaxation time in fs
  (WPLASMAI=    0.000 imaginary part of plasma frequency in eV, 0.658/RTIME)
   DFIELD  = 0.0000000 0.0000000 0.0000000 field for delta impulse in time
 
  Optional k-point grid parameters
   LKPOINTS_OPT  =     F    use optional k-point grid
   KPOINTS_OPT_MODE=     1    mode for optional k-point grid
 
 Orbital magnetization related:
   ORBITALMAG=     F  switch on orbital magnetization
   LCHIMAG   =     F  perturbation theory with respect to B field
   DQ        =  0.001000  dq finite difference perturbation B field
   LLRAUG    =     F  two centre corrections for induced B field
   LBONE     =     F  B-component reconstruction in AE one-centre
   LVGVCALC  =     T  calculate vGv susceptibility
   LVGVAPPL  =     F  apply vGv susceptibility instead of pGv for G=0

 Random number generation:
   RANDOM_GENERATOR = DEFAULT
   PCG_SEED         = not used


--------------------------------------------------------------------------------------------------------


 Static calculation
 charge density and potential will be updated during run
 spin polarized calculation
 Variant of blocked Davidson
 Davidson routine will perform the subspace rotation
 perform sub-space diagonalisation
    after iterative eigenvector-optimisation
 modified Broyden-mixing scheme, WC =      100.0
 initial mixing is a Kerker type mixing with AMIX =  0.6000 and BMIX =      1.0000
 Hartree-type preconditioning will be used
 using additional bands           40
 real space projection scheme for non local part
 use partial core corrections
 calculate Harris-corrections to forces 
   (improved forces if not selfconsistent)
 use gradient corrections 
 use of overlap-Matrix (Vanderbilt PP)
 Gauss-broadening in eV      SIGMA  =   0.01


--------------------------------------------------------------------------------------------------------


  energy-cutoff  :      700.00
  volume of cell :     2185.11
      direct lattice vectors                 reciprocal lattice vectors
    12.651226044  0.000000000  0.000000000     0.079043722 -0.016134732  0.000000000
     2.530245304 12.395620346  0.000000000     0.000000000  0.080673655  0.000000000
     0.000000000  0.000000000 13.933910370     0.000000000  0.000000000  0.071767363

  length of vectors
    12.651226044 12.651227018 13.933910370     0.080673661  0.080673655  0.071767363


 
 k-points in units of 2pi/SCALE and weight: Automatic KPOINTS generated             
   0.00000000  0.00000000  0.00000000       0.056
   0.02634791 -0.00537824  0.00000000       0.111
   0.00000000 -0.02689122  0.00000000       0.111
   0.02634791  0.02151297  0.00000000       0.111
  -0.02634791  0.03226946  0.00000000       0.111
   0.00000000  0.00000000  0.03588368       0.056
   0.02634791 -0.00537824  0.03588368       0.111
   0.00000000 -0.02689122  0.03588368       0.111
   0.02634791  0.02151297  0.03588368       0.111
  -0.02634791  0.03226946  0.03588368       0.111
 
 k-points in reciprocal lattice and weights: Automatic KPOINTS generated             
   0.00000000  0.00000000  0.00000000       0.056
   0.33333333  0.00000000  0.00000000       0.111
   0.00000000 -0.33333333  0.00000000       0.111
   0.33333333  0.33333333  0.00000000       0.111
  -0.33333333  0.33333333  0.00000000       0.111
   0.00000000  0.00000000  0.50000000       0.056
   0.33333333  0.00000000  0.50000000       0.111
   0.00000000 -0.33333333  0.50000000       0.111
   0.33333333  0.33333333  0.50000000       0.111
  -0.33333333  0.33333333  0.50000000       0.111
 
 position of ions in fractional coordinates (direct lattice) 
   0.88464046  0.78624117  0.50000000
   0.99259037  0.94813251  0.00000002
   0.95092356  0.65646577  0.08288376
   0.90925682  0.36479890  0.16576751
   0.86759007  0.07313222  0.24865122
   0.75964052  0.16124129  0.50000000
   0.38464046  0.28624117  0.50000000
   0.49259037  0.44813251  0.00000003
   0.45092362  0.15646577  0.08288376
   0.40925688  0.86479896  0.16576751
   0.36759013  0.57313228  0.24865122
   0.32592338  0.28146553  0.33153492
   0.25964057  0.66124117  0.50000000
   0.36759040  0.82313263  0.00000001
   0.32592362  0.53146583  0.08288376
   0.28425688  0.23979901  0.16576754
   0.24259017  0.94813240  0.24865119
   0.20092338  0.65646565  0.33153492
   0.75964052  0.16124129  0.50000000
   0.86759049  0.32313258  0.00000001
   0.82592368  0.03146578  0.08288376
   0.78425688  0.73979890  0.16576751
   0.34297371  0.99457449  0.58288372
   0.30130696  0.70290768  0.66576755
   0.50964046  0.41124117  0.50000000
   0.24259035  0.69813263  0.00000000
   0.20092359  0.40646580  0.08288375
   0.15925685  0.11479896  0.16576751
   0.59297365  0.74457443  0.58288372
   0.07592334  0.53146553  0.33153489
   0.00964046  0.91124129  0.50000000
   0.74259043  0.19813251  0.00000002
   0.70092362  0.90646571  0.08288377
   0.65925688  0.61479890  0.16576751
   0.63464046  0.03624129  0.50000000
   0.57592344  0.03146547  0.33153489
   0.09297359  0.24457431  0.58288372
   0.11759036  0.07313251  0.00000002
   0.07592360  0.78146577  0.08288376
   0.03425685  0.48979896  0.16576751
   0.99259007  0.19813222  0.24865122
   0.13464046  0.53624117  0.50000000
   0.42630696  0.82790774  0.66576755
   0.61759049  0.57313258  0.00000001
   0.57592362  0.28146583  0.08288375
   0.53425694  0.98979902  0.16576754
   0.49259019  0.69813228  0.24865125
   0.92630696  0.32790768  0.66576755
   0.92630661  0.07790732  0.91441870
   0.28425661  0.98979878  0.41441870
   0.90925658  0.61479878  0.41441870
   0.80130690  0.20290756  0.66576755
   0.50964016  0.16124082  0.74865127
   0.21797347  0.11957407  0.83153498
   0.42630661  0.57790744  0.91441870
   0.78425658  0.48979867  0.41441864
   0.11759009  0.82313240  0.24865118
   0.70092338  0.15646553  0.33153489
   0.00964022  0.66124094  0.74865127
   0.71797341  0.61957419  0.83153498
   0.80130673  0.45290744  0.91441870
   0.15925664  0.36479878  0.41441870
   0.96797377  0.61957443  0.58288372
   0.67630702  0.57790768  0.66576755
   0.38464034  0.53624099  0.74865127
   0.09297359  0.49457419  0.83153498
   0.30130661  0.95290744  0.91441858
   0.65925658  0.86479867  0.41441864
   0.46797371  0.11957455  0.58288372
   0.17630696  0.07790768  0.66576755
   0.88464028  0.03624105  0.74865127
   0.59297347  0.99457419  0.83153498
   0.67630666  0.32790738  0.91441870
   0.95092338  0.90646553  0.33153492
   0.84297371  0.49457440  0.58288372
   0.55130696  0.45290765  0.66576755
   0.25964022  0.41124091  0.74865115
   0.96797347  0.36957416  0.83153486
   0.17630661  0.82790750  0.91441870
   0.61759025  0.32313234  0.24865122
   0.74259013  0.44813234  0.24865119
   0.05130696  0.95290768  0.66576755
   0.75964022  0.91124105  0.74865127
   0.46797341  0.86957425  0.83153498
   0.05130661  0.20290732  0.91441870
   0.03425656  0.23979878  0.41441864
   0.28425661  0.98979878  0.41441870
   0.45092344  0.40646553  0.33153495
   0.63464016  0.28624094  0.74865115
   0.34297347  0.24457419  0.83153498
   0.55130673  0.70290750  0.91441870
   0.53425670  0.73979867  0.41441870
   0.71797371  0.86957443  0.58288372
   0.40925661  0.11479884  0.41441870
   0.13464022  0.78624099  0.74865127
   0.84297347  0.74457425  0.83153498
 
 position of ions in cartesian coordinates  (Angst):
  13.18116940  9.74594709  6.96695518
  14.95649296 11.75269069  0.00000031
  13.69136836  8.13730044  1.15489488
  12.42624422  4.52190870  2.30978957
  11.16112054  0.90651920  3.46468383
  10.01836389  1.99868585  6.96695518
   5.59043373  3.54813692  6.96695518
   7.36575728  5.55488052  0.00000039
   6.10063345  1.93949027  1.15489488
   7.36575476 10.71971962  2.30978957
   6.10063107  7.10433011  3.46468383
   4.83550723  3.48893985  4.61957789
   4.95787397  8.19649455  6.96695518
   6.73319670 10.20323963  0.00000017
   5.46807233  6.58784863  1.15489488
   4.20294831  2.97245746  2.30978999
   5.46807067 11.75268922  3.46468342
   4.20294626  8.13729897  4.61957789
  10.01836389  1.99868585  6.96695518
  11.79368805  4.00542872  0.00000017
  10.52856332  0.39003781  1.15489488
  11.79368372  9.17026633  2.30978957
   6.85555534 12.32836775  8.12184945
   5.59043136  8.71297675  9.27674537
   7.48811765  5.09758946  6.96695518
   4.83551221  8.65378708  0.00000000
   3.57038796  5.03839573  1.15489479
   2.30526388  1.42300427  2.30978957
   9.38579963  9.22946193  8.12184945
   2.30526149  6.58784494  4.61957747
   2.42762758 11.29540111  6.96695518
   9.89600322  2.45597543  0.00000029
  11.16112378 11.23620479  1.15489499
   9.89599980  7.62081379  2.30978957
   8.12067921  0.44923331  6.96695518
   7.36575302  0.39003403  4.61957747
   1.79506290  3.03165027  8.12184945
   1.67270543  0.90652289  0.00000029
   2.93782671  9.68675299  1.15489488
   1.67270263  6.07136199  2.30978957
  13.05880446  2.45597174  3.46468383
   3.06018854  6.64704201  6.96695518
   7.48811543 10.26243004  9.27674537
   9.26344286  7.10433381  0.00000017
   7.99831752  3.48894354  1.15489479
   9.26343958 12.26917291  2.30978999
   7.99831574  8.65378266  3.46468424
  12.54860565  4.06461912  9.27674537
  11.91603889  0.96570961 12.74142816
   6.10062831 12.26916995  5.77447298
  13.05880222  7.62081232  5.77447298
  10.65092067  2.51516510  9.27674537
   6.85555164  1.99867994 10.43163964
   3.06018338  1.48219477 11.58653391
   6.85554882  7.16352126 12.74142816
  11.16111800  6.07135830  5.77447216
   3.57038563 10.20323668  3.46468321
   9.26343633  1.93948731  4.61957747
   1.79506233  8.19649159 10.43163964
  10.65091860  7.68000642 11.58653391
  11.28347944  5.61406872 12.74142816
   2.93782212  4.52190723  5.77447298
  13.81373024  7.68000939  8.12184945
  10.01836122  7.16352421  9.27674537
   6.22299310  6.64703979 10.43163964
   2.42762392  6.13055388 11.58653391
   6.22298755 11.81187889 12.74142651
  10.52855674 10.71971593  5.77447216
   6.22299411  1.48220069  8.12184945
   2.42762479  0.96571404  9.27674537
  11.28348286  0.44923036 10.43163964
  10.01835809 12.32836405 11.58653391
   9.38579461  4.06461543 12.74142816
  14.32392682 11.23620257  4.61957789
  11.91604549  6.13055647  8.12184945
   8.12067647  5.61407131  9.27674537
   4.32530745  5.09758614 10.43163798
  13.18116447  4.58110096 11.58653225
   4.32530378 10.26242709 12.74142816
   8.63087792  4.00542576  3.46468383
  10.52856032  5.55487830  3.46468342
   3.06018617 11.81188184  9.27674537
  11.91604350 11.29539816 10.43163964
   8.12067357 10.77891225 11.58653391
   1.16249676  2.51516215 12.74142816
   1.04013722  2.97245469  5.77447216
   6.10062831 12.26916995  5.77447298
   6.73319190  5.03839239  4.61957831
   8.75323586  3.54813396 10.43163798
   4.95786760  3.03164879 11.58653391
   8.75323441  8.71297455 12.74142816
   8.63087434  9.17026338  5.77447298
  11.28348430 10.77891447  8.12184945
   5.46806708  1.42300289  5.77447298
   3.69274641  9.74594487 10.43163964
  12.54860343  9.22945971 11.58653391
 


--------------------------------------------------------------------------------------------------------


 k-point     1 :   0.0000 0.0000 0.0000  plane waves:   91969
 k-point     2 :   0.3333 0.0000 0.0000  plane waves:   91887
 k-point     3 :   0.0000-0.3333 0.0000  plane waves:   91887
 k-point     4 :   0.3333 0.3333 0.0000  plane waves:   91872
 k-point     5 :  -0.3333 0.3333 0.0000  plane waves:   91872
 k-point     6 :   0.0000 0.0000 0.5000  plane waves:   91840
 k-point     7 :   0.3333 0.0000 0.5000  plane waves:   91922
 k-point     8 :   0.0000-0.3333 0.5000  plane waves:   91922
 k-point     9 :   0.3333 0.3333 0.5000  plane waves:   91906
 k-point    10 :  -0.3333 0.3333 0.5000  plane waves:   91900

 maximum and minimum number of plane-waves per node :      5801     5702

 maximum number of plane-waves:     91969
 maximum index in each direction: 
   IXMAX=   27   IYMAX=   27   IZMAX=   30
   IXMIN=  -27   IYMIN=  -27   IZMIN=  -30


 real space projection operators:
  total allocation   :      22292.56 KBytes
  max/ min on nodes  :       1586.51       1318.69


 parallel 3D FFT for wavefunctions:
    minimum data exchange during FFTs selected (reduces bandwidth)
 parallel 3D FFT for charge:
    minimum data exchange during FFTs selected (reduces bandwidth)


 total amount of memory used by VASP MPI-rank0   168792. kBytes
=======================================================================

   base      :      30000. kBytes
   nonlr-proj:       5835. kBytes
   fftplans  :      14311. kBytes
   grid      :      10233. kBytes
   one-center:         97. kBytes
   wavefun   :     108316. kBytes
 
     INWAV:  cpu time      0.0000: real time      0.0003
 Broyden mixing: mesh for mixing (old mesh)
   NGX = 55   NGY = 55   NGZ = 61
  (NGX  =168   NGY  =168   NGZ  =180)
  gives a total of 184525 points

 initial charge density was supplied:
 charge density of overlapping atoms calculated
 number of electron     384.0000000 magnetization       1.0000000
 keeping initial charge density in first step


--------------------------------------------------------------------------------------------------------


 Maximum index for non-local projection operator          385
 Maximum index for augmentation-charges         5415 (set IRDMAX)


--------------------------------------------------------------------------------------------------------


 First call to EWALD:  gamma=   0.137
 Maximum number of real-space cells 3x 3x 3
 Maximum number of reciprocal cells 3x 3x 3

    FEWALD:  cpu time      0.0026: real time      0.0026


--------------------------------------- Ionic step        1  -------------------------------------------




--------------------------------------- Iteration      1(   1)  ---------------------------------------


    POTLOK:  cpu time      0.1813: real time      0.1827
    SETDIJ:  cpu time      1.4856: real time      1.4929
     EDDAV:  cpu time     19.3488: real time     19.5033
       DOS:  cpu time      0.0019: real time      0.0019
    --------------------------------------------
      LOOP:  cpu time     21.0177: real time     21.1808

 eigenvalue-minimisations  :  9280
 total energy-change (2. order) : 0.1667867E+04  (-0.1686321E+05)
 number of electron     384.0000000 magnetization       1.0000000
 augmentation part      384.0000000 magnetization       1.0000000

 Free energy of the ion-electron system (eV)
  ---------------------------------------------------
  alpha Z        PSCENC =       806.12556457
  Ewald energy   TEWEN  =    -10228.18375630
  -Hartree energ DENC   =     -1075.90856947
  -exchange      EXHF   =         0.00000000
  -V(xc)+E(xc)   XCENC  =      -728.23295230
  PAW double counting   =      8461.93788731    -7071.13096423
  entropy T*S    EENTRO =        -0.00114471
  eigenvalues    EBANDS =      1423.65339292
  atomic energy  EATOM  =     10079.60734648
  Solvation  Ediel_sol  =         0.00000000
  ---------------------------------------------------
  free energy    TOTEN  =      1667.86680428 eV

  energy without entropy =     1667.86794899  energy(sigma->0) =     1667.86737663


--------------------------------------------------------------------------------------------------------




--------------------------------------- Iteration      1(   2)  ---------------------------------------


     EDDAV:  cpu time     21.7263: real time     21.9046
       DOS:  cpu time      0.0017: real time      0.0017
    --------------------------------------------
      LOOP:  cpu time     21.7280: real time     21.9063

 eigenvalue-minimisations  : 10832
 total energy-change (2. order) :-0.2107460E+04  (-0.2039599E+04)
 number of electron     384.0000000 magnetization       1.0000000
 augmentation part      384.0000000 magnetization       1.0000000

 Free energy of the ion-electron system (eV)
  ---------------------------------------------------
  alpha Z        PSCENC =       806.12556457
  Ewald energy   TEWEN  =    -10228.18375630
  -Hartree energ DENC   =     -1075.90856947
  -exchange      EXHF   =         0.00000000
  -V(xc)+E(xc)   XCENC  =      -728.23295230
  PAW double counting   =      8461.93788731    -7071.13096423
  entropy T*S    EENTRO =        -0.00129848
  eigenvalues    EBANDS =      -683.80675912
  atomic energy  EATOM  =     10079.60734648
  Solvation  Ediel_sol  =         0.00000000
  ---------------------------------------------------
  free energy    TOTEN  =      -439.59350153 eV

  energy without entropy =     -439.59220305  energy(sigma->0) =     -439.59285229


--------------------------------------------------------------------------------------------------------




--------------------------------------- Iteration      1(   3)  ---------------------------------------


     EDDAV:  cpu time     22.8116: real time     22.9963
       DOS:  cpu time      0.0018: real time      0.0019
    --------------------------------------------
      LOOP:  cpu time     22.8134: real time     22.9981

 eigenvalue-minimisations  : 11504
 total energy-change (2. order) :-0.2214883E+03  (-0.2125223E+03)
 number of electron     384.0000000 magnetization       1.0000000
 augmentation part      384.0000000 magnetization       1.0000000

 Free energy of the ion-electron system (eV)
  ---------------------------------------------------
  alpha Z        PSCENC =       806.12556457
  Ewald energy   TEWEN  =    -10228.18375630
  -Hartree energ DENC   =     -1075.90856947
  -exchange      EXHF   =         0.00000000
  -V(xc)+E(xc)   XCENC  =      -728.23295230
  PAW double counting   =      8461.93788731    -7071.13096423
  entropy T*S    EENTRO =        -0.00218267
  eigenvalues    EBANDS =      -905.29413563
  atomic energy  EATOM  =     10079.60734648
  Solvation  Ediel_sol  =         0.00000000
  ---------------------------------------------------
  free energy    TOTEN  =      -661.08176223 eV

  energy without entropy =     -661.07957956  energy(sigma->0) =     -661.08067090


--------------------------------------------------------------------------------------------------------




--------------------------------------- Iteration      1(   4)  ---------------------------------------


     EDDAV:  cpu time     22.1120: real time     22.2878
       DOS:  cpu time      0.0018: real time      0.0018
    --------------------------------------------
      LOOP:  cpu time     22.1139: real time     22.2896

 eigenvalue-minimisations  : 11088
 total energy-change (2. order) :-0.9573558E+01  (-0.9255365E+01)
 number of electron     384.0000000 magnetization       1.0000000
 augmentation part      384.0000000 magnetization       1.0000000

 Free energy of the ion-electron system (eV)
  ---------------------------------------------------
  alpha Z        PSCENC =       806.12556457
  Ewald energy   TEWEN  =    -10228.18375630
  -Hartree energ DENC   =     -1075.90856947
  -exchange      EXHF   =         0.00000000
  -V(xc)+E(xc)   XCENC  =      -728.23295230
  PAW double counting   =      8461.93788731    -7071.13096423
  entropy T*S    EENTRO =        -0.00235341
  eigenvalues    EBANDS =      -914.86752241
  atomic energy  EATOM  =     10079.60734648
  Solvation  Ediel_sol  =         0.00000000
  ---------------------------------------------------
  free energy    TOTEN  =      -670.65531974 eV

  energy without entropy =     -670.65296634  energy(sigma->0) =     -670.65414304


--------------------------------------------------------------------------------------------------------




--------------------------------------- Iteration      1(   5)  ---------------------------------------


     EDDAV:  cpu time     23.4094: real time     23.5975
       DOS:  cpu time      0.0019: real time      0.0019
    CHARGE:  cpu time      1.0897: real time      1.0964
    MIXING:  cpu time      0.0050: real time      0.0051
    --------------------------------------------
      LOOP:  cpu time     24.5061: real time     24.7009

 eigenvalue-minimisations  : 11912
 total energy-change (2. order) :-0.4272189E+00  (-0.4221465E+00)
 number of electron     383.9999996 magnetization       1.0000000
 augmentation part      -63.5210661 magnetization      -0.0806957

 Broyden mixing:
  rms(total) = 0.49330E+01    rms(broyden)= 0.49330E+01
  rms(prec ) = 0.50670E+01
  weight for this iteration     100.00

 Free energy of the ion-electron system (eV)
  ---------------------------------------------------
  alpha Z        PSCENC =       806.12556457
  Ewald energy   TEWEN  =    -10228.18375630
  -Hartree energ DENC   =     -1075.90856947
  -exchange      EXHF   =         0.00000000
  -V(xc)+E(xc)   XCENC  =      -728.23295230
  PAW double counting   =      8461.93788731    -7071.13096423
  entropy T*S    EENTRO =        -0.00230441
  eigenvalues    EBANDS =      -915.29479030
  atomic energy  EATOM  =     10079.60734648
  Solvation  Ediel_sol  =         0.00000000
  ---------------------------------------------------
  free energy    TOTEN  =      -671.08253864 eV

  energy without entropy =     -671.08023423  energy(sigma->0) =     -671.08138643


--------------------------------------------------------------------------------------------------------




--------------------------------------- Iteration      1(   6)  ---------------------------------------


    POTLOK:  cpu time      0.1540: real time      0.1558
    SETDIJ:  cpu time      1.4773: real time      1.4835
     EDDAV:  cpu time     21.2549: real time     21.4256
       DOS:  cpu time      0.0017: real time      0.0017
    CHARGE:  cpu time      1.0846: real time      1.0914
    MIXING:  cpu time      0.0046: real time      0.0046
    --------------------------------------------
      LOOP:  cpu time     23.9771: real time     24.1627

 eigenvalue-minimisations  : 10544
 total energy-change (2. order) : 0.9738478E+01  (-0.5035884E+01)
 number of electron     383.9999996 magnetization       1.0000000
 augmentation part      -63.4810167 magnetization      -0.0950115

 Broyden mixing:
  rms(total) = 0.22185E+01    rms(broyden)= 0.22185E+01
  rms(prec ) = 0.25341E+01
  weight for this iteration     100.00

 eigenvalues of (default mixing * dielectric matrix)
  average eigenvalue GAMMA=   1.6120
  1.6120

 Free energy of the ion-electron system (eV)
  ---------------------------------------------------
  alpha Z        PSCENC =       806.12556457
  Ewald energy   TEWEN  =    -10228.18375630
  -Hartree energ DENC   =     -1170.18323654
  -exchange      EXHF   =         0.00000000
  -V(xc)+E(xc)   XCENC  =      -714.07457909
  PAW double counting   =     16199.86566325   -14825.85074456
  entropy T*S    EENTRO =        -0.00230712
  eigenvalues    EBANDS =      -808.64801149
  atomic energy  EATOM  =     10079.60734648
  Solvation  Ediel_sol  =         0.00000000
  ---------------------------------------------------
  free energy    TOTEN  =      -661.34406080 eV

  energy without entropy =     -661.34175368  energy(sigma->0) =     -661.34290724


--------------------------------------------------------------------------------------------------------




--------------------------------------- Iteration      1(   7)  ---------------------------------------


    POTLOK:  cpu time      0.1540: real time      0.1556
    SETDIJ:  cpu time      1.4760: real time      1.4821
     EDDAV:  cpu time     27.2786: real time     27.4980
       DOS:  cpu time      0.0018: real time      0.0018
    CHARGE:  cpu time      1.0859: real time      1.0925
    MIXING:  cpu time      0.0038: real time      0.0038
    --------------------------------------------
      LOOP:  cpu time     30.0002: real time     30.2339

 eigenvalue-minimisations  : 14360
 total energy-change (2. order) :-0.7372388E+01  (-0.4609796E+01)
 number of electron     383.9999997 magnetization       1.0000000
 augmentation part      -59.4625117 magnetization      -0.1111832

 Broyden mixing:
  rms(total) = 0.27687E+01    rms(broyden)= 0.27687E+01
  rms(prec ) = 0.49861E+01
  weight for this iteration     100.00

 eigenvalues of (default mixing * dielectric matrix)
  average eigenvalue GAMMA=   1.0345
  1.8034  0.2657

 Free energy of the ion-electron system (eV)
  ---------------------------------------------------
  alpha Z        PSCENC =       806.12556457
  Ewald energy   TEWEN  =    -10228.18375630
  -Hartree energ DENC   =     -1165.62353994
  -exchange      EXHF   =         0.00000000
  -V(xc)+E(xc)   XCENC  =      -705.46987993
  PAW double counting   =     22244.49504012   -20874.99821842
  entropy T*S    EENTRO =        -0.00161190
  eigenvalues    EBANDS =      -824.66739371
  atomic energy  EATOM  =     10079.60734648
  Solvation  Ediel_sol  =         0.00000000
  ---------------------------------------------------
  free energy    TOTEN  =      -668.71644904 eV

  energy without entropy =     -668.71483714  energy(sigma->0) =     -668.71564309


--------------------------------------------------------------------------------------------------------




--------------------------------------- Iteration      1(   8)  ---------------------------------------


    POTLOK:  cpu time      0.1540: real time      0.1566
    SETDIJ:  cpu time      1.4765: real time      1.4828
     EDDAV:  cpu time     26.5030: real time     26.7174
       DOS:  cpu time      0.0021: real time      0.0021
    CHARGE:  cpu time      1.1110: real time      1.1175
    MIXING:  cpu time      0.0043: real time      0.0043
    --------------------------------------------
      LOOP:  cpu time     29.2509: real time     29.4808

 eigenvalue-minimisations  : 13896
 total energy-change (2. order) : 0.1128450E+02  (-0.3519149E+02)
 number of electron     383.9999997 magnetization       1.0000000
 augmentation part      -62.8724638 magnetization      -0.1004805

 Broyden mixing:
  rms(total) = 0.63560E+00    rms(broyden)= 0.63559E+00
  rms(prec ) = 0.11797E+01
  weight for this iteration     100.00

 eigenvalues of (default mixing * dielectric matrix)
  average eigenvalue GAMMA=   0.9989
  1.9905  0.7612  0.2450

 Free energy of the ion-electron system (eV)
  ---------------------------------------------------
  alpha Z        PSCENC =       806.12556457
  Ewald energy   TEWEN  =    -10228.18375630
  -Hartree energ DENC   =     -1201.87562004
  -exchange      EXHF   =         0.00000000
  -V(xc)+E(xc)   XCENC  =      -702.64375641
  PAW double counting   =     26051.34537934   -24694.75237475
  entropy T*S    EENTRO =        -0.00191379
  eigenvalues    EBANDS =      -767.05281564
  atomic energy  EATOM  =     10079.60734648
  Solvation  Ediel_sol  =         0.00000000
  ---------------------------------------------------
  free energy    TOTEN  =      -657.43194653 eV

  energy without entropy =     -657.43003274  energy(sigma->0) =     -657.43098963


--------------------------------------------------------------------------------------------------------




--------------------------------------- Iteration      1(   9)  ---------------------------------------


    POTLOK:  cpu time      0.1547: real time      0.1573
    SETDIJ:  cpu time      1.4792: real time      1.4854
     EDDAV:  cpu time     21.2260: real time     21.3957
       DOS:  cpu time      0.0019: real time      0.0019
    CHARGE:  cpu time      1.0826: real time      1.0895
    MIXING:  cpu time      0.0040: real time      0.0040
    --------------------------------------------
      LOOP:  cpu time     23.9483: real time     24.1337

 eigenvalue-minimisations  : 10544
 total energy-change (2. order) :-0.2876223E+01  (-0.4424698E+01)
 number of electron     383.9999997 magnetization       1.0000000
 augmentation part      -63.1170668 magnetization      -0.1029307

 Broyden mixing:
  rms(total) = 0.71128E+00    rms(broyden)= 0.71127E+00
  rms(prec ) = 0.10841E+01
  weight for this iteration     100.00

 eigenvalues of (default mixing * dielectric matrix)
  average eigenvalue GAMMA=   0.7791
  1.9847  0.7477  0.2259  0.1582

 Free energy of the ion-electron system (eV)
  ---------------------------------------------------
  alpha Z        PSCENC =       806.12556457
  Ewald energy   TEWEN  =    -10228.18375630
  -Hartree energ DENC   =     -1203.33952539
  -exchange      EXHF   =         0.00000000
  -V(xc)+E(xc)   XCENC  =      -701.74214870
  PAW double counting   =     27457.74714018   -26101.82830867
  entropy T*S    EENTRO =        -0.00201178
  eigenvalues    EBANDS =      -768.69247035
  atomic energy  EATOM  =     10079.60734648
  Solvation  Ediel_sol  =         0.00000000
  ---------------------------------------------------
  free energy    TOTEN  =      -660.30816997 eV

  energy without entropy =     -660.30615819  energy(sigma->0) =     -660.30716408


--------------------------------------------------------------------------------------------------------




--------------------------------------- Iteration      1(  10)  ---------------------------------------


    POTLOK:  cpu time      0.1552: real time      0.1565
    SETDIJ:  cpu time      1.4777: real time      1.4839
     EDDAV:  cpu time     21.2855: real time     21.4560
       DOS:  cpu time      0.0018: real time      0.0018
    CHARGE:  cpu time      1.0865: real time      1.0931
    MIXING:  cpu time      0.0063: real time      0.0063
    --------------------------------------------
      LOOP:  cpu time     24.0129: real time     24.1976

 eigenvalue-minimisations  : 10528
 total energy-change (2. order) : 0.1101983E+01  (-0.2599221E+00)
 number of electron     383.9999997 magnetization       1.0000000
 augmentation part      -63.1702221 magnetization      -0.1021838

 Broyden mixing:
  rms(total) = 0.62362E+00    rms(broyden)= 0.62362E+00
  rms(prec ) = 0.96818E+00
  weight for this iteration     100.00

 eigenvalues of (default mixing * dielectric matrix)
  average eigenvalue GAMMA=   0.7438
  2.0336  0.6903  0.2457  0.3747  0.3747

 Free energy of the ion-electron system (eV)
  ---------------------------------------------------
  alpha Z        PSCENC =       806.12556457
  Ewald energy   TEWEN  =    -10228.18375630
  -Hartree energ DENC   =     -1201.10948188
  -exchange      EXHF   =         0.00000000
  -V(xc)+E(xc)   XCENC  =      -701.86802641
  PAW double counting   =     27479.26698625   -26122.51095720
  entropy T*S    EENTRO =        -0.00180393
  eigenvalues    EBANDS =      -770.53205812
  atomic energy  EATOM  =     10079.60734648
  Solvation  Ediel_sol  =         0.00000000
  ---------------------------------------------------
  free energy    TOTEN  =      -659.20618654 eV

  energy without entropy =     -659.20438261  energy(sigma->0) =     -659.20528457


--------------------------------------------------------------------------------------------------------




--------------------------------------- Iteration      1(  11)  ---------------------------------------


    POTLOK:  cpu time      0.1538: real time      0.1552
    SETDIJ:  cpu time      1.4765: real time      1.4824
     EDDAV:  cpu time     21.1722: real time     21.3413
       DOS:  cpu time      0.0018: real time      0.0018
    CHARGE:  cpu time      1.0943: real time      1.1007
    MIXING:  cpu time      0.0043: real time      0.0043
    --------------------------------------------
      LOOP:  cpu time     23.9030: real time     24.0858

 eigenvalue-minimisations  : 10456
 total energy-change (2. order) : 0.1062102E+01  (-0.5907010E-01)
 number of electron     383.9999997 magnetization       1.0000000
 augmentation part      -63.1584466 magnetization      -0.0996264

 Broyden mixing:
  rms(total) = 0.53163E+00    rms(broyden)= 0.53163E+00
  rms(prec ) = 0.83329E+00
  weight for this iteration     100.00

 eigenvalues of (default mixing * dielectric matrix)
  average eigenvalue GAMMA=   0.9100
  2.2129  0.9717  0.9717  0.2527  0.5256  0.5256

 Free energy of the ion-electron system (eV)
  ---------------------------------------------------
  alpha Z        PSCENC =       806.12556457
  Ewald energy   TEWEN  =    -10228.18375630
  -Hartree energ DENC   =     -1199.61956726
  -exchange      EXHF   =         0.00000000
  -V(xc)+E(xc)   XCENC  =      -701.73187719
  PAW double counting   =     27733.73884048   -26376.43882670
  entropy T*S    EENTRO =        -0.00172365
  eigenvalues    EBANDS =      -771.64008544
  atomic energy  EATOM  =     10079.60734648
  Solvation  Ediel_sol  =         0.00000000
  ---------------------------------------------------
  free energy    TOTEN  =      -658.14408501 eV

  energy without entropy =     -658.14236136  energy(sigma->0) =     -658.14322318


--------------------------------------------------------------------------------------------------------




--------------------------------------- Iteration      1(  12)  ---------------------------------------


    POTLOK:  cpu time      0.1557: real time      0.1581
    SETDIJ:  cpu time      1.4844: real time      1.4910
     EDDAV:  cpu time     20.6718: real time     20.8360
       DOS:  cpu time      0.0018: real time      0.0018
    CHARGE:  cpu time      1.0851: real time      1.0916
    MIXING:  cpu time      0.0074: real time      0.0074
    --------------------------------------------
      LOOP:  cpu time     23.4061: real time     23.5859

 eigenvalue-minimisations  : 10120
 total energy-change (2. order) : 0.2246729E+01  (-0.3657408E+00)
 number of electron     383.9999997 magnetization       1.0000000
 augmentation part      -63.0609871 magnetization      -0.0956995

 Broyden mixing:
  rms(total) = 0.24883E+00    rms(broyden)= 0.24883E+00
  rms(prec ) = 0.36552E+00
  weight for this iteration     100.00

 eigenvalues of (default mixing * dielectric matrix)
  average eigenvalue GAMMA=   0.9546
  2.2356  1.2656  1.2656  0.2525  0.5961  0.5332  0.5332

 Free energy of the ion-electron system (eV)
  ---------------------------------------------------
  alpha Z        PSCENC =       806.12556457
  Ewald energy   TEWEN  =    -10228.18375630
  -Hartree energ DENC   =     -1195.42106804
  -exchange      EXHF   =         0.00000000
  -V(xc)+E(xc)   XCENC  =      -701.54649558
  PAW double counting   =     28140.12369656   -26780.42781869
  entropy T*S    EENTRO =        -0.00154442
  eigenvalues    EBANDS =      -776.17328023
  atomic energy  EATOM  =     10079.60734648
  Solvation  Ediel_sol  =         0.00000000
  ---------------------------------------------------
  free energy    TOTEN  =      -655.89735564 eV

  energy without entropy =     -655.89581123  energy(sigma->0) =     -655.89658344


--------------------------------------------------------------------------------------------------------




--------------------------------------- Iteration      1(  13)  ---------------------------------------


    POTLOK:  cpu time      0.1536: real time      0.1554
    SETDIJ:  cpu time      1.4760: real time      1.4822
     EDDAV:  cpu time     22.7838: real time     22.9655
       DOS:  cpu time      0.0018: real time      0.0020
    CHARGE:  cpu time      1.0998: real time      1.1064
    MIXING:  cpu time      0.0058: real time      0.0058
    --------------------------------------------
      LOOP:  cpu time     25.5208: real time     25.7173

 eigenvalue-minimisations  : 11504
 total energy-change (2. order) : 0.2973602E+00  (-0.1536265E+00)
 number of electron     383.9999997 magnetization       1.0000000
 augmentation part      -62.9572111 magnetization      -0.0866180

 Broyden mixing:
  rms(total) = 0.10609E+00    rms(broyden)= 0.10609E+00
  rms(prec ) = 0.14242E+00
  weight for this iteration     100.00

 eigenvalues of (default mixing * dielectric matrix)
  average eigenvalue GAMMA=   0.9474
  2.1608  1.4268  1.4268  0.2525  0.5917  0.5917  0.5643  0.5643

 Free energy of the ion-electron system (eV)
  ---------------------------------------------------
  alpha Z        PSCENC =       806.12556457
  Ewald energy   TEWEN  =    -10228.18375630
  -Hartree energ DENC   =     -1193.40670231
  -exchange      EXHF   =         0.00000000
  -V(xc)+E(xc)   XCENC  =      -701.64671788
  PAW double counting   =     28112.56889899   -26751.48102992
  entropy T*S    EENTRO =        -0.00180478
  eigenvalues    EBANDS =      -779.18179429
  atomic energy  EATOM  =     10079.60734648
  Solvation  Ediel_sol  =         0.00000000
  ---------------------------------------------------
  free energy    TOTEN  =      -655.59999544 eV

  energy without entropy =     -655.59819066  energy(sigma->0) =     -655.59909305


--------------------------------------------------------------------------------------------------------




--------------------------------------- Iteration      1(  14)  ---------------------------------------


    POTLOK:  cpu time      0.1559: real time      0.1569
    SETDIJ:  cpu time      1.4738: real time      1.4800
     EDDAV:  cpu time     22.4089: real time     22.5877
       DOS:  cpu time      0.0018: real time      0.0018
    CHARGE:  cpu time      1.0888: real time      1.0952
    MIXING:  cpu time      0.0060: real time      0.0060
    --------------------------------------------
      LOOP:  cpu time     25.1351: real time     25.3276

 eigenvalue-minimisations  : 11280
 total energy-change (2. order) : 0.3324949E-01  (-0.6672495E-02)
 number of electron     383.9999997 magnetization       1.0000000
 augmentation part      -62.9556561 magnetization      -0.0912917

 Broyden mixing:
  rms(total) = 0.70413E-01    rms(broyden)= 0.70413E-01
  rms(prec ) = 0.97320E-01
  weight for this iteration     100.00

 eigenvalues of (default mixing * dielectric matrix)
  average eigenvalue GAMMA=   0.9687
  2.1158  1.5852  1.5852  0.7657  0.7657  0.2525  0.5496  0.5496  0.5485

 Free energy of the ion-electron system (eV)
  ---------------------------------------------------
  alpha Z        PSCENC =       806.12556457
  Ewald energy   TEWEN  =    -10228.18375630
  -Hartree energ DENC   =     -1192.52197360
  -exchange      EXHF   =         0.00000000
  -V(xc)+E(xc)   XCENC  =      -701.73106543
  PAW double counting   =     27937.55631112   -26576.04967867
  entropy T*S    EENTRO =        -0.00189788
  eigenvalues    EBANDS =      -780.36759623
  atomic energy  EATOM  =     10079.60734648
  Solvation  Ediel_sol  =         0.00000000
  ---------------------------------------------------
  free energy    TOTEN  =      -655.56674594 eV

  energy without entropy =     -655.56484806  energy(sigma->0) =     -655.56579700


--------------------------------------------------------------------------------------------------------




--------------------------------------- Iteration      1(  15)  ---------------------------------------


    POTLOK:  cpu time      0.1539: real time      0.1563
    SETDIJ:  cpu time      1.4767: real time      1.4830
     EDDAV:  cpu time     21.5823: real time     21.7528
       DOS:  cpu time      0.0020: real time      0.0020
    CHARGE:  cpu time      1.0885: real time      1.0950
    MIXING:  cpu time      0.0049: real time      0.0049
    --------------------------------------------
      LOOP:  cpu time     24.3083: real time     24.4940

 eigenvalue-minimisations  : 10704
 total energy-change (2. order) : 0.2478213E-01  (-0.6342831E-02)
 number of electron     383.9999997 magnetization       1.0000000
 augmentation part      -62.9466011 magnetization      -0.0857449

 Broyden mixing:
  rms(total) = 0.36336E-01    rms(broyden)= 0.36336E-01
  rms(prec ) = 0.46177E-01
  weight for this iteration     100.00

 eigenvalues of (default mixing * dielectric matrix)
  average eigenvalue GAMMA=   0.9923
  1.9334  1.6993  1.6993  0.9791  0.9791  0.2525  0.7284  0.5728  0.5728  0.5062

 Free energy of the ion-electron system (eV)
  ---------------------------------------------------
  alpha Z        PSCENC =       806.12556457
  Ewald energy   TEWEN  =    -10228.18375630
  -Hartree energ DENC   =     -1191.60332504
  -exchange      EXHF   =         0.00000000
  -V(xc)+E(xc)   XCENC  =      -701.78227897
  PAW double counting   =     27793.13707890   -26431.19250480
  entropy T*S    EENTRO =        -0.00194798
  eigenvalues    EBANDS =      -781.64814067
  atomic energy  EATOM  =     10079.60734648
  Solvation  Ediel_sol  =         0.00000000
  ---------------------------------------------------
  free energy    TOTEN  =      -655.54196381 eV

  energy without entropy =     -655.54001584  energy(sigma->0) =     -655.54098982


--------------------------------------------------------------------------------------------------------




--------------------------------------- Iteration      1(  16)  ---------------------------------------


    POTLOK:  cpu time      0.1541: real time      0.1551
    SETDIJ:  cpu time      1.4779: real time      1.4841
     EDDAV:  cpu time     22.8348: real time     23.0170
       DOS:  cpu time      0.0017: real time      0.0017
    CHARGE:  cpu time      1.1230: real time      1.1310
    MIXING:  cpu time      0.0059: real time      0.0059
    --------------------------------------------
      LOOP:  cpu time     25.5975: real time     25.7949

 eigenvalue-minimisations  : 11552
 total energy-change (2. order) : 0.3952826E-02  (-0.2676662E-02)
 number of electron     383.9999997 magnetization       1.0000000
 augmentation part      -62.9314799 magnetization      -0.0894173

 Broyden mixing:
  rms(total) = 0.14573E-01    rms(broyden)= 0.14573E-01
  rms(prec ) = 0.15525E-01
  weight for this iteration     100.00

 eigenvalues of (default mixing * dielectric matrix)
  average eigenvalue GAMMA=   0.9365
  1.6050  1.6050  1.6013  1.2204  1.2204  0.2525  0.5895  0.5895  0.6729  0.4727
  0.4727

 Free energy of the ion-electron system (eV)
  ---------------------------------------------------
  alpha Z        PSCENC =       806.12556457
  Ewald energy   TEWEN  =    -10228.18375630
  -Hartree energ DENC   =     -1191.02891892
  -exchange      EXHF   =         0.00000000
  -V(xc)+E(xc)   XCENC  =      -701.82910797
  PAW double counting   =     27710.36991458   -26348.14816553
  entropy T*S    EENTRO =        -0.00196447
  eigenvalues    EBANDS =      -782.44892343
  atomic energy  EATOM  =     10079.60734648
  Solvation  Ediel_sol  =         0.00000000
  ---------------------------------------------------
  free energy    TOTEN  =      -655.53801099 eV

  energy without entropy =     -655.53604652  energy(sigma->0) =     -655.53702875


--------------------------------------------------------------------------------------------------------




--------------------------------------- Iteration      1(  17)  ---------------------------------------


    POTLOK:  cpu time      0.1549: real time      0.1571
    SETDIJ:  cpu time      1.4762: real time      1.4823
     EDDAV:  cpu time     22.9257: real time     23.1153
       DOS:  cpu time      0.0019: real time      0.0019
    CHARGE:  cpu time      1.1072: real time      1.1138
    MIXING:  cpu time      0.0078: real time      0.0079
    --------------------------------------------
      LOOP:  cpu time     25.6737: real time     25.8782

 eigenvalue-minimisations  : 11392
 total energy-change (2. order) :-0.1624541E-03  (-0.1831259E-03)
 number of electron     383.9999997 magnetization       1.0000000
 augmentation part      -62.9283914 magnetization      -0.0881318

 Broyden mixing:
  rms(total) = 0.93307E-02    rms(broyden)= 0.93307E-02
  rms(prec ) = 0.11351E-01
  weight for this iteration     100.00

 eigenvalues of (default mixing * dielectric matrix)
  average eigenvalue GAMMA=   0.9494
  1.7129  1.7129  1.4835  1.4835  1.2751  0.7193  0.7193  0.2525  0.5606  0.5606
  0.4840  0.4283

 Free energy of the ion-electron system (eV)
  ---------------------------------------------------
  alpha Z        PSCENC =       806.12556457
  Ewald energy   TEWEN  =    -10228.18375630
  -Hartree energ DENC   =     -1190.97950561
  -exchange      EXHF   =         0.00000000
[...]
   0.835E+01 0.146E+02 -.351E+02   -.826E+01 -.143E+02 0.357E+02   0.951E-01 -.502E+00 0.146E+01   -.199E-03 0.605E-04 -.123E-03
   0.440E+01 0.109E+02 0.137E+02   -.430E+01 -.108E+02 -.132E+02   -.716E-01 0.113E-01 -.520E+00   -.951E-04 -.989E-04 0.246E-03
   -.178E+02 -.350E+02 -.354E+01   0.182E+02 0.344E+02 0.335E+01   -.160E+00 0.577E+00 -.614E-01   -.126E-03 0.701E-04 0.737E-04
   0.240E+02 0.419E+02 -.533E+01   -.236E+02 -.434E+02 0.622E+01   0.968E+00 -.376E+01 0.234E+01   -.117E-03 -.103E-03 -.648E-04
   0.923E+01 0.320E+01 0.338E+02   -.102E+02 -.406E+01 -.356E+02   0.381E+00 0.446E+00 0.947E+00   -.793E-04 0.147E-03 -.210E-03
   -.252E+01 -.903E+01 0.222E+01   0.235E+01 0.906E+01 -.303E+01   0.258E+00 0.118E+00 0.103E+01   -.143E-03 0.163E-03 -.334E-03
   0.982E+01 0.250E+02 0.693E+00   -.102E+02 -.254E+02 -.482E+00   -.104E-01 -.226E+00 -.145E-01   0.119E-03 -.140E-03 0.141E-03
   0.118E+02 -.356E+01 0.252E+02   -.122E+02 0.343E+01 -.264E+02   -.105E+00 0.817E+00 -.526E+00   -.353E-04 0.779E-04 -.478E-04
   -.226E+02 -.626E+01 0.264E+01   0.235E+02 0.591E+01 -.342E+01   -.268E+00 0.122E+00 0.458E+00   -.511E-04 -.717E-04 0.997E-05
   0.214E+02 0.390E+02 -.680E+01   -.211E+02 -.405E+02 0.766E+01   0.984E+00 -.375E+01 0.236E+01   0.116E-04 0.471E-04 -.729E-04
   0.352E+01 0.135E+02 0.267E+02   -.417E+01 -.146E+02 -.274E+02   0.143E+00 0.630E+00 0.201E+00   0.460E-04 -.675E-04 -.169E-03
   -.143E+02 -.891E+01 -.122E+02   0.144E+02 0.912E+01 0.115E+02   0.159E+00 -.496E-01 0.977E+00   0.466E-04 -.160E-04 -.221E-03
   0.289E+01 0.109E+02 -.200E+02   -.424E+01 -.107E+02 0.207E+02   -.611E-01 -.606E+00 0.158E+01   0.343E-03 0.169E-03 0.220E-04
   -.114E+01 0.134E+02 0.420E+02   0.107E+01 -.140E+02 -.430E+02   -.956E-01 0.680E+00 -.290E+00   0.116E-04 -.227E-03 -.225E-03
   -.121E+02 -.131E+02 -.859E+01   0.132E+02 0.139E+02 0.817E+01   -.426E+00 -.586E+00 0.209E+00   0.249E-04 0.164E-03 0.980E-04
   -.276E+02 -.126E+01 -.247E+02   0.289E+02 -.536E+00 0.266E+02   0.121E+01 -.259E+01 0.300E+01   -.316E-04 0.577E-04 -.694E-04
   0.266E+02 0.167E+02 -.872E+01   -.266E+02 -.177E+02 0.948E+01   -.667E+00 0.858E+00 0.183E+00   -.116E-03 -.156E-03 -.167E-03
   0.297E+01 -.655E+01 0.126E+02   -.254E+01 0.668E+01 -.133E+02   -.238E+00 -.488E-02 0.386E+00   0.367E-05 0.107E-03 -.251E-03
   0.305E+00 -.560E+01 -.864E+01   -.270E+00 0.557E+01 0.853E+01   0.646E-01 -.419E-01 0.101E+00   0.251E-04 0.912E-04 -.218E-03
   -.191E+02 0.977E+01 -.369E+02   0.200E+02 -.958E+01 0.385E+02   -.173E+00 -.444E+00 0.605E+00   -.116E-03 -.417E-05 0.568E-05
   0.423E+01 0.106E+02 0.275E+01   -.401E+01 -.108E+02 -.217E+01   -.250E+00 0.111E-03 -.752E+00   0.248E-04 -.190E-03 0.350E-03
   -.304E+02 -.166E+01 -.283E+02   0.316E+02 -.132E+00 0.304E+02   0.123E+01 -.262E+01 0.269E+01   0.511E-04 0.680E-05 -.828E-04
   0.206E+02 0.111E+02 -.390E+01   -.204E+02 -.121E+02 0.449E+01   -.906E+00 0.911E+00 0.506E+00   0.256E-04 0.123E-03 -.232E-03
   -.747E+01 0.619E+01 0.206E+02   0.771E+01 -.579E+01 -.212E+02   -.193E+00 -.231E+00 -.749E-01   0.434E-04 -.132E-03 -.211E-03
   -.805E+01 0.516E+01 -.137E+02   0.800E+01 -.541E+01 0.132E+02   -.897E-02 0.192E-01 0.525E+00   0.565E-04 -.521E-04 -.254E-03
   -.109E+02 -.695E+01 0.572E+01   0.113E+02 0.703E+01 -.548E+01   -.304E+00 -.123E+00 -.467E+00   0.257E-03 0.226E-03 0.226E-03
   0.276E+02 0.126E+01 0.247E+02   -.289E+02 0.536E+00 -.266E+02   -.121E+01 0.259E+01 -.300E+01   0.286E-04 -.575E-04 0.752E-04
   0.310E+02 0.210E+02 -.118E+01   -.341E+02 -.235E+02 0.123E+01   0.209E+01 0.162E+01 0.205E-01   -.780E-04 0.152E-03 0.102E-04
   0.191E+02 -.977E+01 0.369E+02   -.200E+02 0.958E+01 -.385E+02   0.173E+00 0.444E+00 -.605E+00   0.112E-03 0.226E-05 -.132E-04
   -.107E+02 -.101E+02 -.176E+02   0.109E+02 0.101E+02 0.185E+02   0.141E+00 -.527E-01 0.590E+00   -.949E-05 -.414E-04 -.354E-04
   0.747E+01 -.619E+01 -.206E+02   -.771E+01 0.579E+01 0.212E+02   0.193E+00 0.231E+00 0.749E-01   -.395E-04 0.131E-03 0.212E-03
   -.211E+02 -.193E+02 0.765E+01   0.211E+02 0.203E+02 -.848E+01   0.684E+00 -.917E+00 -.277E+00   -.808E-04 0.566E-04 0.204E-03
   0.304E+02 0.166E+01 0.283E+02   -.316E+02 0.132E+00 -.304E+02   -.123E+01 0.262E+01 -.269E+01   -.469E-04 -.647E-05 0.901E-04
   0.244E+02 0.733E+01 0.456E+01   -.250E+02 -.688E+01 -.432E+01   0.316E+00 -.337E+00 -.773E-01   0.163E-03 0.147E-03 -.501E-04
   0.109E+02 0.695E+01 -.572E+01   -.113E+02 -.703E+01 0.548E+01   0.304E+00 0.123E+00 0.467E+00   -.261E-03 -.226E-03 -.229E-03
   -.835E+01 -.146E+02 0.351E+02   0.826E+01 0.143E+02 -.357E+02   -.951E-01 0.502E+00 -.146E+01   0.201E-03 -.587E-04 0.119E-03
   -.297E+01 0.655E+01 -.126E+02   0.254E+01 -.668E+01 0.133E+02   0.238E+00 0.488E-02 -.386E+00   -.876E-05 -.106E-03 0.253E-03
   -.222E+02 -.128E+02 0.498E+01   0.221E+02 0.139E+02 -.596E+01   0.760E+00 -.105E+01 -.108E+00   0.110E-03 -.170E-04 0.199E-03
   -.240E+02 -.419E+02 0.533E+01   0.236E+02 0.434E+02 -.622E+01   -.968E+00 0.376E+01 -.234E+01   0.116E-03 0.104E-03 0.715E-04
   0.513E+01 0.275E+01 -.101E+02   -.596E+01 -.374E+01 0.963E+01   0.531E+00 0.216E+00 0.939E+00   -.840E-04 0.183E-03 0.229E-04
   -.118E+02 0.356E+01 -.252E+02   0.122E+02 -.343E+01 0.264E+02   0.105E+00 -.817E+00 0.526E+00   0.303E-04 -.790E-04 0.427E-04
   0.344E+01 0.163E+01 0.101E+02   -.329E+01 -.159E+01 -.985E+01   -.193E+00 -.219E+00 -.239E+00   0.968E-04 0.469E-04 0.214E-03
   0.143E+02 0.891E+01 0.122E+02   -.144E+02 -.912E+01 -.115E+02   -.159E+00 0.496E-01 -.977E+00   -.433E-04 0.149E-04 0.223E-03
   -.111E+02 -.440E+01 -.246E+02   0.122E+02 0.482E+01 0.257E+02   -.375E+00 -.268E+00 -.417E+00   -.932E-04 0.534E-04 0.206E-03
   -.214E+02 -.390E+02 0.680E+01   0.211E+02 0.405E+02 -.766E+01   -.984E+00 0.375E+01 -.236E+01   -.105E-04 -.473E-04 0.793E-04
   -.148E+02 0.417E+02 0.406E+02   0.153E+02 -.434E+02 -.428E+02   -.400E+00 0.598E-01 -.464E+00   0.909E-04 -.198E-03 -.147E-03
   0.114E+01 -.134E+02 -.420E+02   -.107E+01 0.140E+02 0.430E+02   0.956E-01 -.680E+00 0.290E+00   -.766E-05 0.228E-03 0.220E-03
   0.349E+01 -.835E+01 -.422E+00   -.375E+01 0.875E+01 0.717E+00   0.196E+00 -.467E+00 -.196E+00   -.115E-03 0.826E-04 0.210E-03
   0.252E+01 0.903E+01 -.222E+01   -.235E+01 -.906E+01 0.303E+01   -.258E+00 -.118E+00 -.103E+01   0.140E-03 -.162E-03 0.336E-03
   -.709E+01 -.510E+01 -.368E+02   0.777E+01 0.592E+01 0.383E+02   -.164E+00 -.415E+00 -.670E+00   -.296E-04 -.721E-04 0.232E-03
   0.287E+02 -.176E+01 0.257E+02   -.300E+02 0.383E+01 -.274E+02   -.115E+01 0.245E+01 -.332E+01   -.504E-04 0.763E-04 0.818E-04
   0.121E+02 0.131E+02 0.859E+01   -.132E+02 -.139E+02 -.817E+01   0.426E+00 0.586E+00 -.209E+00   -.291E-04 -.163E-03 -.103E-03
   0.657E+01 0.111E+02 0.990E+00   -.644E+01 -.109E+02 -.303E+00   -.363E+00 -.613E+00 -.272E+00   0.195E-03 0.131E-03 0.136E-03
   0.805E+01 -.516E+01 0.137E+02   -.800E+01 0.541E+01 -.132E+02   0.897E-02 -.192E-01 -.525E+00   -.514E-04 0.499E-04 0.251E-03
   0.956E+01 0.359E+01 0.146E+02   -.102E+02 -.426E+01 -.152E+02   0.263E+00 0.202E+00 0.302E+00   -.130E-03 0.112E-03 0.206E-03
   -.266E+02 -.167E+02 0.872E+01   0.266E+02 0.177E+02 -.948E+01   0.667E+00 -.858E+00 -.183E+00   0.112E-03 0.157E-03 0.171E-03
   0.300E+02 0.367E+01 0.269E+02   -.312E+02 -.175E+01 -.290E+02   -.124E+01 0.248E+01 -.287E+01   -.107E-03 -.997E-04 0.545E-04
   -.423E+01 -.106E+02 -.275E+01   0.401E+01 0.108E+02 0.217E+01   0.250E+00 -.111E-03 0.752E+00   -.208E-04 0.190E-03 -.350E-03
   -.440E+01 -.109E+02 -.137E+02   0.430E+01 0.108E+02 0.132E+02   0.716E-01 -.113E-01 0.520E+00   0.962E-04 0.988E-04 -.247E-03
   -.305E+00 0.560E+01 0.864E+01   0.270E+00 -.557E+01 -.853E+01   -.646E-01 0.419E-01 -.101E+00   -.292E-04 -.886E-04 0.218E-03
   -.932E+00 0.657E+01 -.205E+02   0.602E+00 -.702E+01 0.212E+02   0.294E+00 0.222E+00 -.193E+00   0.101E-03 -.183E-03 0.281E-03
   -.206E+02 -.111E+02 0.390E+01   0.204E+02 0.121E+02 -.449E+01   0.906E+00 -.911E+00 -.506E+00   -.215E-04 -.123E-03 0.238E-03
   -.239E+02 -.427E+02 0.801E+01   0.236E+02 0.442E+02 -.881E+01   -.951E+00 0.380E+01 -.238E+01   0.307E-04 0.943E-04 0.906E-04
   0.226E+02 0.626E+01 -.264E+01   -.235E+02 -.591E+01 0.342E+01   0.268E+00 -.122E+00 -.458E+00   0.466E-04 0.742E-04 -.161E-04
   0.310E+02 0.210E+02 -.118E+01   -.341E+02 -.235E+02 0.123E+01   0.209E+01 0.162E+01 0.205E-01   -.780E-04 0.152E-03 0.102E-04
   -.982E+01 -.250E+02 -.693E+00   0.102E+02 0.254E+02 0.482E+00   0.104E-01 0.226E+00 0.145E-01   -.114E-03 0.138E-03 -.146E-03
   0.115E+02 -.256E+01 -.111E+01   -.116E+02 0.269E+01 0.203E+01   -.180E+00 -.179E+00 -.124E+01   -.136E-03 0.149E-03 0.350E-03
   -.352E+01 -.135E+02 -.267E+02   0.417E+01 0.146E+02 0.274E+02   -.143E+00 -.630E+00 -.201E+00   -.445E-04 0.658E-04 0.173E-03
   -.228E+02 -.378E+02 0.530E+01   0.224E+02 0.394E+02 -.611E+01   -.100E+01 0.384E+01 -.235E+01   0.170E-04 0.437E-05 0.840E-04
   0.178E+02 0.350E+02 0.354E+01   -.182E+02 -.344E+02 -.335E+01   0.160E+00 -.577E+00 0.614E-01   0.131E-03 -.725E-04 -.812E-04
   -.102E+02 0.139E+02 -.249E+02   0.105E+02 -.141E+02 0.265E+02   0.112E+00 -.220E+00 -.165E+00   0.115E-03 -.254E-03 0.913E-04
   -.289E+01 -.109E+02 0.200E+02   0.424E+01 0.107E+02 -.207E+02   0.611E-01 0.606E+00 -.158E+01   -.340E-03 -.168E-03 -.281E-04
   0.766E+01 0.115E+02 0.622E+01   -.759E+01 -.113E+02 -.566E+01   -.291E+00 -.255E+00 -.877E+00   -.944E-04 -.886E-04 0.260E-03
   -.923E+01 -.320E+01 -.338E+02   0.102E+02 0.406E+01 0.356E+02   -.381E+00 -.446E+00 -.947E+00   0.769E-04 -.146E-03 0.216E-03
 -----------------------------------------------------------------------------------------------
   -.807E-02 -.716E-02 0.205E-03   -.183E-12 0.151E-12 -.782E-13   0.777E-15 0.266E-14 -.677E-14   0.310E-05 0.411E-05 -.520E-06
 
 
 POSITION                                       TOTAL-FORCE (eV/Angst)
 -----------------------------------------------------------------------------------
     13.18117      9.74595      6.96696         0.293733      0.772301     -0.443113
     14.95649     11.75269      0.00000         1.277558     -5.256000      3.189535
     13.69137      8.13730      1.15489        -0.679784     -0.145725     -0.607599
     12.42624      4.52191      2.30979         0.223079      0.041093      0.310035
     11.16112      0.90652      3.46468         0.067463      0.065751     -0.098951
     10.01836      1.99869      6.96696         1.060103      0.964267     -0.073659
      5.59043      3.54814      6.96696        -0.122619      1.592336      2.698105
      7.36576      5.55488      0.00000         1.393805     -5.433023      3.160846
      6.10063      1.93949      1.15489        -0.517909     -0.401165     -0.846228
      7.36575     10.71972      2.30979         0.240982      0.047042      0.321987
      6.10063      7.10433      3.46468         0.046740      0.177680     -0.022874
      4.83551      3.48894      4.61958        -0.434797      0.451864     -1.344579
      4.95787      8.19649      6.96696         0.347230     -0.117120     -0.159381
      6.73320     10.20324      0.00000         2.483562     -4.517924      5.000478
      5.46807      6.58785      1.15489        -0.658804     -0.056598      1.093727
      4.20295      2.97246      2.30979         0.035390      0.227352     -0.489889
      5.46807     11.75269      3.46468        -0.297615      0.036531     -1.450404
      4.20295      8.13730      4.61958         0.238859      0.441872     -0.415763
     10.01836      1.99869      6.96696         1.060103      0.964267     -0.073659
     11.79369      4.00543      0.00000         2.503974     -4.396661      4.919641
     10.52856      0.39004      1.15489        -0.664257     -0.063531      1.113663
     11.79368      9.17027      2.30979         0.407489      0.467396      0.279032
      6.85556     12.32837      8.12185         0.184484     -0.201945      2.078355
      5.59043      8.71298      9.27675         0.028705      0.128161     -0.061790
      7.48812      5.09759      6.96696         0.267821     -0.022567     -0.245543
      4.83551      8.65379      0.00000         1.340832     -5.266288      3.237510
      3.57039      5.03840      1.15489        -0.605517     -0.412964     -0.838809
      2.30526      1.42300      2.30979         0.088172      0.144290      0.209665
      9.38580      9.22946      8.12185        -0.394809     -0.589813      0.196317
      2.30526      6.58784      4.61958        -0.449808      0.693591     -1.722842
      2.42763     11.29540      6.96696         0.607376     -0.226973     -0.324913
      9.89600      2.45598      0.00000         1.303222     -5.267909      3.224318
     11.16112     11.23620      1.15489        -0.507566     -0.562276     -0.555840
      9.89600      7.62081      2.30979         0.311813      0.165466      0.322101
      8.12068      0.44923      6.96696        -1.415906     -0.419543      2.204435
      7.36575      0.39003      4.61958        -0.163599      0.077930     -1.312161
      1.79506      3.03165      8.12185         0.672670      0.213713     -0.203986
      1.67271      0.90652      0.00000         2.506217     -4.381638      4.946471
      2.93783      9.68675      1.15489        -0.657095     -0.139452      0.941454
      1.67270      6.07136      2.30979         0.193086      0.126536     -0.307362
     13.05880      2.45597      3.46468         0.099950     -0.073185     -0.011734
      3.06019      6.64704      6.96696         0.800398     -0.252283      2.174983
      7.48812     10.26243      9.27675        -0.036809     -0.206501     -0.167661
      9.26344      7.10433      0.00000         2.418418     -4.412522      4.848850
      7.99832      3.48894      1.15489        -0.684467     -0.124607      1.096563
      9.26344     12.26917      2.30979         0.050690      0.161989     -0.636557
      7.99832      8.65378      3.46468        -0.058873     -0.236232      0.087394
     12.54861      4.06462      9.27675         0.103431     -0.038729     -0.229389
     11.91604      0.96571     12.74143        -2.506217      4.381638     -4.946471
      6.10063     12.26917      5.77447        -1.060103     -0.964267      0.073659
     13.05880      7.62081      5.77447        -0.800398      0.252283     -2.174983
     10.65092      2.51517      9.27675         0.297615     -0.036531      1.450404
      6.85555      1.99868     10.43164        -0.050690     -0.161989      0.636557
      3.06018      1.48219     11.58653         0.664257      0.063531     -1.113663
      6.85555      7.16352     12.74143        -2.418418      4.412522     -4.848850
     11.16112      6.07136      5.77447        -0.347230      0.117120      0.159381
      3.57039     10.20324      3.46468        -0.103431      0.038729      0.229389
      9.26344      1.93949      4.61958        -0.184484      0.201945     -2.078355
      1.79506      8.19649     10.43164        -0.193086     -0.126536      0.307362
     10.65092      7.68001     11.58653         0.658804      0.056598     -1.093727
     11.28348      5.61407     12.74143        -1.340832      5.266288     -3.237510
      2.93782      4.52191      5.77447        -0.293733     -0.772301      0.443113
     13.81373      7.68001      8.12185         0.449808     -0.693591      1.722842
     10.01836      7.16352      9.27675        -0.046740     -0.177680      0.022874
      6.22299      6.64704     10.43164        -0.311813     -0.165466     -0.322101
      2.42762      6.13055     11.58653         0.679784      0.145725      0.607599
      6.22299     11.81188     12.74143        -1.303222      5.267909     -3.224318
     10.52856     10.71972      5.77447         0.122619     -1.592336     -2.698105
      6.22299      1.48220      8.12185         0.163599     -0.077930      1.312161
      2.42762      0.96571      9.27675        -0.067463     -0.065751      0.098951
     11.28348      0.44923     10.43164        -0.088172     -0.144290     -0.209665
     10.01836     12.32836     11.58653         0.517909      0.401165      0.846228
      9.38579      4.06462     12.74143        -2.483562      4.517924     -5.000478
     14.32393     11.23620      4.61958        -0.672670     -0.213713      0.203986
     11.91605      6.13056      8.12185        -0.238859     -0.441872      0.415763
      8.12068      5.61407      9.27675         0.058873      0.236232     -0.087394
      4.32531      5.09759     10.43164        -0.407489     -0.467396     -0.279032
     13.18116      4.58110     11.58653         0.657095      0.139452     -0.941454
      4.32530     10.26243     12.74143        -2.503974      4.396661     -4.919641
      8.63088      4.00543      3.46468         0.036809      0.206501      0.167661
     10.52856      5.55488      3.46468        -0.028705     -0.128161      0.061790
      3.06019     11.81188      9.27675        -0.099950      0.073185      0.011734
     11.91604     11.29540     10.43164        -0.035390     -0.227352      0.489889
      8.12067     10.77891     11.58653         0.684467      0.124607     -1.096563
      1.16250      2.51516     12.74143        -1.277558      5.256000     -3.189535
      1.04014      2.97245      5.77447        -0.607376      0.226973      0.324913
      6.10063     12.26917      5.77447        -1.060103     -0.964267      0.073659
      6.73319      5.03839      4.61958         0.394809      0.589813     -0.196317
      8.75324      3.54813     10.43164        -0.240982     -0.047042     -0.321987
      4.95787      3.03165     11.58653         0.507566      0.562276      0.555840
      8.75323      8.71297     12.74143        -1.393805      5.433023     -3.160846
      8.63087      9.17026      5.77447        -0.267821      0.022567      0.245543
     11.28348     10.77891      8.12185         0.434797     -0.451864      1.344579
      5.46807      1.42300      5.77447         1.415906      0.419543     -2.204435
      3.69275      9.74594     10.43164        -0.223079     -0.041093     -0.310035
     12.54860      9.22946     11.58653         0.605517      0.412964      0.838809
 -----------------------------------------------------------------------------------
    total drift:                               -0.008062     -0.007160      0.000204


--------------------------------------------------------------------------------------------------------



  FREE ENERGIE OF THE ION-ELECTRON SYSTEM (eV)
  ---------------------------------------------------
  free  energy   TOTEN  =      -655.53806857 eV

  energy  without entropy=     -655.53609262  energy(sigma->0) =     -655.53708060
 


--------------------------------------------------------------------------------------------------------


    POTLOK:  cpu time      1.6397: real time      1.6468


--------------------------------------------------------------------------------------------------------


     LOOP+:  cpu time    623.5928: real time    628.7020
    4ORBIT:  cpu time      0.0000: real time      0.0000

 total amount of memory used by VASP MPI-rank0   168792. kBytes
=======================================================================

   base      :      30000. kBytes
   nonlr-proj:       5835. kBytes
   fftplans  :      14311. kBytes
   grid      :      10233. kBytes
   one-center:         97. kBytes
   wavefun   :     108316. kBytes
 
  
  
 General timing and accounting informations for this job:
 ========================================================
  
                  Total CPU time used (sec):      676.183
                            User time (sec):      636.287
                          System time (sec):       39.896
                         Elapsed time (sec):      683.965
  
                   Maximum memory used (kb):      437312.
                   Average memory used (kb):          N/A
  
                          Minor page faults:       142420
                          Major page faults:           39
                 Voluntary context switches:         1644
