 168 168   0   0
  0.2743752E+02  0.1589523E-08  0.1946760E-08  0.2580094E-08  0.5000000E-15
  1.000000000000000E-004
  CAR 
 Si and Ge interface calculation         
      6.44474626     -9.84806033  301      3.46318642      1.00000000
     -9.848  0.0000E+00  0.0000E+00  0.0000E+00  0.0000E+00
     -9.794  0.0000E+00  0.0000E+00  0.0000E+00  0.0000E+00
     -9.739  0.0000E+00  0.0000E+00  0.0000E+00  0.0000E+00
     -9.685  0.0000E+00  0.0000E+00  0.0000E+00  0.0000E+00
     -9.631  0.0000E+00  0.0000E+00  0.0000E+00  0.0000E+00
     -9.577  0.0000E+00  0.0000E+00  0.0000E+00  0.0000E+00
     -9.522  0.0000E+00  0.0000E+00  0.0000E+00  0.0000E+00
     -9.468  0.0000E+00  0.0000E+00  0.0000E+00  0.0000E+00
     -9.414  0.0000E+00  0.0000E+00  0.0000E+00  0.0000E+00
     -9.359  0.0000E+00  0.0000E+00  0.0000E+00  0.0000E+00
     -9.305  0.0000E+00  0.0000E+00  0.0000E+00  0.0000E+00
     -9.251  0.0000E+00  0.0000E+00  0.0000E+00  0.0000E+00
     -9.196  0.0000E+00  0.0000E+00  0.0000E+00  0.0000E+00
     -9.142  0.2088E-05  0.2821E-07  0.1134E-06  0.1532E-08
     -9.088  0.4081E+01  0.4000E+01  0.2216E+00  0.2172E+00
     -9.033  0.8133E+01  0.7865E+01  0.6633E+00  0.6444E+00
     -8.979  0.8241E+01  0.8545E+01  0.1111E+01  0.1108E+01
     -8.925  0.1635E+02  0.1621E+02  0.1999E+01  0.1989E+01
     -8.870  0.7809E+01  0.6820E+01  0.2423E+01  0.2359E+01
     -8.816  0.6827E+00  0.1603E+01  0.2460E+01  0.2446E+01
     -8.762  0.2119E+02  0.2003E+02  0.3611E+01  0.3534E+01
     -8.708  0.1695E+02  0.1694E+02  0.4532E+01  0.4454E+01
     -8.653  0.1977E+02  0.1895E+02  0.5605E+01  0.5484E+01
     -8.599  0.2752E+02  0.2212E+02  0.7099E+01  0.6685E+01
     -8.545  0.2443E+02  0.2589E+02  0.8426E+01  0.8091E+01
     -8.490  0.2001E+02  0.2385E+02  0.9513E+01  0.9387E+01
     -8.436  0.3311E+02  0.3226E+02  0.1131E+02  0.1114E+02
     -8.382  0.2088E+02  0.2344E+02  0.1245E+02  0.1241E+02
     -8.327  0.3493E+02  0.3192E+02  0.1434E+02  0.1415E+02
     -8.273  0.2783E+02  0.2848E+02  0.1585E+02  0.1569E+02
     -8.219  0.3063E+02  0.3126E+02  0.1752E+02  0.1739E+02
     -8.164  0.2261E+02  0.2194E+02  0.1875E+02  0.1858E+02
     -8.110  0.2225E+02  0.2313E+02  0.1995E+02  0.1984E+02
     -8.056  0.4324E+02  0.4244E+02  0.2230E+02  0.2214E+02
     -8.002  0.2547E+02  0.2691E+02  0.2369E+02  0.2360E+02
     -7.947  0.1063E+02  0.1159E+02  0.2426E+02  0.2423E+02
     -7.893  0.1470E+02  0.1291E+02  0.2506E+02  0.2493E+02
     -7.839  0.2264E+02  0.2267E+02  0.2629E+02  0.2617E+02
     -7.784  0.2164E+02  0.2180E+02  0.2747E+02  0.2735E+02
     -7.730  0.2615E+02  0.2758E+02  0.2889E+02  0.2885E+02
     -7.676  0.1242E+02  0.1306E+02  0.2956E+02  0.2956E+02
     -7.621  0.3119E+02  0.2646E+02  0.3125E+02  0.3099E+02
     -7.567  0.4754E+02  0.4703E+02  0.3384E+02  0.3355E+02
     -7.513  0.3707E+02  0.3973E+02  0.3585E+02  0.3570E+02
     -7.458  0.3811E+02  0.3721E+02  0.3792E+02  0.3773E+02
     -7.404  0.2994E+02  0.3262E+02  0.3954E+02  0.3950E+02
     -7.350  0.2253E+02  0.1937E+02  0.4077E+02  0.4055E+02
     -7.296  0.1917E+02  0.2269E+02  0.4181E+02  0.4178E+02
     -7.241  0.3443E+02  0.2551E+02  0.4368E+02  0.4317E+02
     -7.187  0.4035E+02  0.4478E+02  0.4587E+02  0.4560E+02
     -7.133  0.4705E+02  0.4769E+02  0.4843E+02  0.4819E+02
     -7.078  0.4234E+02  0.4035E+02  0.5072E+02  0.5038E+02
     -7.024  0.5952E+02  0.5799E+02  0.5396E+02  0.5353E+02
     -6.970  0.3855E+02  0.4042E+02  0.5605E+02  0.5572E+02
     -6.915  0.2737E+02  0.3187E+02  0.5754E+02  0.5745E+02
     -6.861  0.4342E+02  0.4249E+02  0.5990E+02  0.5976E+02
     -6.807  0.3128E+02  0.3271E+02  0.6159E+02  0.6154E+02
     -6.752  0.4452E+02  0.3768E+02  0.6401E+02  0.6359E+02
     -6.698  0.5248E+02  0.5919E+02  0.6686E+02  0.6680E+02
     -6.644  0.3080E+02  0.2545E+02  0.6854E+02  0.6818E+02
     -6.589  0.6554E+02  0.6854E+02  0.7209E+02  0.7190E+02
     -6.535  0.4808E+02  0.4770E+02  0.7471E+02  0.7450E+02
     -6.481  0.3396E+02  0.3332E+02  0.7655E+02  0.7631E+02
     -6.427  0.3712E+02  0.3551E+02  0.7857E+02  0.7823E+02
     -6.372  0.3454E+02  0.3802E+02  0.8044E+02  0.8030E+02
     -6.318  0.6618E+02  0.6453E+02  0.8404E+02  0.8380E+02
     -6.264  0.2445E+02  0.2818E+02  0.8536E+02  0.8533E+02
     -6.209  0.5020E+02  0.4698E+02  0.8809E+02  0.8789E+02
     -6.155  0.6045E+02  0.6140E+02  0.9137E+02  0.9122E+02
     -6.101  0.5955E+02  0.5769E+02  0.9461E+02  0.9435E+02
     -6.046  0.4052E+02  0.4320E+02  0.9681E+02  0.9670E+02
     -5.992  0.3464E+02  0.3403E+02  0.9869E+02  0.9855E+02
     -5.938  0.6091E+02  0.5933E+02  0.1020E+03  0.1018E+03
     -5.883  0.3984E+02  0.4160E+02  0.1042E+03  0.1040E+03
     -5.829  0.4584E+02  0.4753E+02  0.1067E+03  0.1066E+03
     -5.775  0.3820E+02  0.3715E+02  0.1087E+03  0.1086E+03
     -5.721  0.1201E+02  0.1197E+02  0.1094E+03  0.1093E+03
     -5.666  0.2958E+02  0.2291E+02  0.1110E+03  0.1105E+03
     -5.612  0.2699E+02  0.3538E+02  0.1125E+03  0.1124E+03
     -5.558  0.2616E+02  0.1951E+02  0.1139E+03  0.1135E+03
     -5.503  0.5797E+02  0.6122E+02  0.1170E+03  0.1168E+03
     -5.449  0.6606E+02  0.6673E+02  0.1206E+03  0.1205E+03
     -5.395  0.3677E+02  0.3800E+02  0.1226E+03  0.1225E+03
     -5.340  0.7360E+02  0.7148E+02  0.1266E+03  0.1264E+03
     -5.286  0.5448E+02  0.5762E+02  0.1296E+03  0.1295E+03
     -5.232  0.3639E+02  0.3328E+02  0.1315E+03  0.1313E+03
     -5.177  0.6801E+02  0.6586E+02  0.1352E+03  0.1349E+03
     -5.123  0.5132E+02  0.4930E+02  0.1380E+03  0.1376E+03
     -5.069  0.7265E+02  0.7633E+02  0.1420E+03  0.1417E+03
     -5.015  0.4929E+02  0.4922E+02  0.1446E+03  0.1444E+03
     -4.960  0.3886E+02  0.3939E+02  0.1467E+03  0.1465E+03
     -4.906  0.2831E+02  0.3087E+02  0.1483E+03  0.1482E+03
     -4.852  0.6029E+02  0.5636E+02  0.1516E+03  0.1513E+03
     -4.797  0.6031E+02  0.6008E+02  0.1548E+03  0.1545E+03
     -4.743  0.5707E+02  0.5703E+02  0.1579E+03  0.1576E+03
     -4.689  0.6811E+02  0.7021E+02  0.1616E+03  0.1615E+03
     -4.634  0.3347E+02  0.3204E+02  0.1635E+03  0.1632E+03
     -4.580  0.4833E+02  0.4715E+02  0.1661E+03  0.1658E+03
     -4.526  0.4967E+02  0.5019E+02  0.1688E+03  0.1685E+03
     -4.471  0.5750E+02  0.5842E+02  0.1719E+03  0.1717E+03
     -4.417  0.4451E+02  0.4387E+02  0.1743E+03  0.1740E+03
     -4.363  0.6093E+02  0.5888E+02  0.1776E+03  0.1772E+03
     -4.309  0.5856E+02  0.6229E+02  0.1808E+03  0.1806E+03
     -4.254  0.4580E+02  0.4381E+02  0.1833E+03  0.1830E+03
     -4.200  0.2133E+02  0.2664E+02  0.1845E+03  0.1844E+03
     -4.146  0.4120E+02  0.3622E+02  0.1867E+03  0.1864E+03
     -4.091  0.5400E+02  0.4895E+02  0.1896E+03  0.1891E+03
     -4.037  0.5739E+02  0.6193E+02  0.1927E+03  0.1924E+03
     -3.983  0.6236E+02  0.6214E+02  0.1961E+03  0.1958E+03
     -3.928  0.5035E+02  0.5307E+02  0.1989E+03  0.1987E+03
     -3.874  0.5284E+02  0.4798E+02  0.2017E+03  0.2013E+03
     -3.820  0.6695E+02  0.6638E+02  0.2054E+03  0.2049E+03
     -3.765  0.5621E+02  0.6328E+02  0.2084E+03  0.2083E+03
     -3.711  0.3183E+02  0.2505E+02  0.2101E+03  0.2097E+03
     -3.657  0.4678E+02  0.4562E+02  0.2127E+03  0.2122E+03
     -3.602  0.4920E+02  0.5358E+02  0.2154E+03  0.2151E+03
     -3.548  0.6044E+02  0.6125E+02  0.2186E+03  0.2184E+03
     -3.494  0.5433E+02  0.5221E+02  0.2216E+03  0.2212E+03
     -3.440  0.2905E+02  0.2767E+02  0.2232E+03  0.2228E+03
     -3.385  0.4888E+02  0.5235E+02  0.2258E+03  0.2256E+03
     -3.331  0.6007E+02  0.6311E+02  0.2291E+03  0.2290E+03
     -3.277  0.4158E+02  0.3770E+02  0.2313E+03  0.2311E+03
     -3.222  0.4587E+02  0.4303E+02  0.2338E+03  0.2334E+03
     -3.168  0.7180E+02  0.7393E+02  0.2377E+03  0.2374E+03
     -3.114  0.3189E+02  0.3578E+02  0.2395E+03  0.2394E+03
     -3.059  0.3673E+02  0.3698E+02  0.2415E+03  0.2414E+03
     -3.005  0.3581E+02  0.3215E+02  0.2434E+03  0.2431E+03
     -2.951  0.4357E+02  0.4291E+02  0.2458E+03  0.2454E+03
     -2.896  0.3758E+02  0.4277E+02  0.2478E+03  0.2478E+03
     -2.842  0.3424E+02  0.3107E+02  0.2497E+03  0.2495E+03
     -2.788  0.5400E+02  0.4900E+02  0.2526E+03  0.2521E+03
     -2.734  0.2830E+02  0.3354E+02  0.2541E+03  0.2539E+03
     -2.679  0.7015E+02  0.6774E+02  0.2580E+03  0.2576E+03
     -2.625  0.7681E+02  0.7801E+02  0.2621E+03  0.2619E+03
     -2.571  0.5012E+02  0.5002E+02  0.2648E+03  0.2646E+03
     -2.516  0.6347E+02  0.6197E+02  0.2683E+03  0.2679E+03
     -2.462  0.3764E+02  0.4141E+02  0.2703E+03  0.2702E+03
     -2.408  0.6186E+02  0.6032E+02  0.2737E+03  0.2735E+03
     -2.353  0.2794E+02  0.2747E+02  0.2752E+03  0.2750E+03
     -2.299  0.6887E+02  0.6705E+02  0.2790E+03  0.2786E+03
     -2.245  0.4749E+02  0.5159E+02  0.2815E+03  0.2814E+03
     -2.190  0.3927E+02  0.3652E+02  0.2837E+03  0.2834E+03
     -2.136  0.3293E+02  0.3477E+02  0.2855E+03  0.2853E+03
     -2.082  0.1695E+02  0.1735E+02  0.2864E+03  0.2862E+03
     -2.028  0.2249E+02  0.2051E+02  0.2876E+03  0.2873E+03
     -1.973  0.2754E+02  0.2943E+02  0.2891E+03  0.2889E+03
     -1.919  0.3667E+02  0.3747E+02  0.2911E+03  0.2910E+03
     -1.865  0.6480E+02  0.6284E+02  0.2946E+03  0.2944E+03
     -1.810  0.2981E+02  0.3401E+02  0.2962E+03  0.2962E+03
     -1.756  0.1075E+02  0.7114E+01  0.2968E+03  0.2966E+03
     -1.702  0.2244E+02  0.2571E+02  0.2980E+03  0.2980E+03
     -1.647  0.6032E+02  0.5630E+02  0.3013E+03  0.3011E+03
     -1.593  0.4551E+02  0.4748E+02  0.3038E+03  0.3036E+03
     -1.539  0.2780E+02  0.2800E+02  0.3053E+03  0.3052E+03
     -1.484  0.1959E+02  0.2048E+02  0.3063E+03  0.3063E+03
     -1.430  0.1930E+02  0.1698E+02  0.3074E+03  0.3072E+03
     -1.376  0.4053E+02  0.4316E+02  0.3096E+03  0.3095E+03
     -1.321  0.3610E+02  0.3706E+02  0.3116E+03  0.3116E+03
     -1.267  0.1203E+02  0.7571E+01  0.3122E+03  0.3120E+03
     -1.213  0.2426E+02  0.2676E+02  0.3135E+03  0.3134E+03
     -1.159  0.2801E+02  0.2817E+02  0.3150E+03  0.3149E+03
     -1.104  0.9662E+01  0.1107E+02  0.3156E+03  0.3155E+03
     -1.050  0.1583E+02  0.1590E+02  0.3164E+03  0.3164E+03
     -0.996  0.1579E+02  0.1030E+02  0.3173E+03  0.3170E+03
     -0.941  0.3317E+02  0.3822E+02  0.3191E+03  0.3190E+03
     -0.887  0.1670E+02  0.1745E+02  0.3200E+03  0.3200E+03
     -0.833  0.1636E+02  0.1626E+02  0.3209E+03  0.3209E+03
     -0.778  0.9995E-01  0.2383E+00  0.3209E+03  0.3209E+03
     -0.724  0.4841E+02  0.4497E+02  0.3235E+03  0.3233E+03
     -0.670  0.2131E+02  0.2462E+02  0.3247E+03  0.3247E+03
     -0.615  0.4020E+02  0.3482E+02  0.3269E+03  0.3266E+03
     -0.561  0.6448E+02  0.6003E+02  0.3304E+03  0.3298E+03
     -0.507  0.6997E+02  0.7505E+02  0.3342E+03  0.3339E+03
     -0.453  0.5754E+02  0.5798E+02  0.3373E+03  0.3370E+03
     -0.398  0.5073E+02  0.4842E+02  0.3400E+03  0.3397E+03
     -0.344  0.7354E+02  0.7625E+02  0.3440E+03  0.3438E+03
     -0.290  0.7053E+02  0.6782E+02  0.3479E+03  0.3475E+03
     -0.235  0.7072E+02  0.7147E+02  0.3517E+03  0.3514E+03
     -0.181  0.1022E+03  0.1001E+03  0.3573E+03  0.3568E+03
     -0.127  0.6037E+02  0.5949E+02  0.3605E+03  0.3600E+03
     -0.072  0.4814E+02  0.5572E+02  0.3632E+03  0.3631E+03
     -0.018  0.8401E+02  0.7978E+02  0.3677E+03  0.3674E+03
      0.036  0.7278E+02  0.7454E+02  0.3717E+03  0.3715E+03
      0.091  0.6952E+02  0.6729E+02  0.3754E+03  0.3751E+03
      0.145  0.6784E+02  0.6243E+02  0.3791E+03  0.3785E+03
      0.199  0.9232E+02  0.9563E+02  0.3841E+03  0.3837E+03
      0.253  0.7442E+02  0.7598E+02  0.3882E+03  0.3878E+03
      0.308  0.7442E+02  0.7223E+02  0.3922E+03  0.3917E+03
      0.362  0.9894E+02  0.9902E+02  0.3976E+03  0.3971E+03
      0.416  0.1201E+03  0.1164E+03  0.4041E+03  0.4034E+03
      0.471  0.1209E+03  0.1230E+03  0.4107E+03  0.4101E+03
      0.525  0.9015E+02  0.9189E+02  0.4156E+03  0.4151E+03
      0.579  0.1263E+03  0.1237E+03  0.4224E+03  0.4218E+03
      0.634  0.1221E+03  0.1201E+03  0.4291E+03  0.4284E+03
      0.688  0.1089E+03  0.1099E+03  0.4350E+03  0.4343E+03
      0.742  0.1410E+03  0.1407E+03  0.4426E+03  0.4420E+03
      0.797  0.1138E+03  0.1159E+03  0.4488E+03  0.4483E+03
      0.851  0.1200E+03  0.1173E+03  0.4553E+03  0.4546E+03
      0.905  0.1214E+03  0.1194E+03  0.4619E+03  0.4611E+03
      0.960  0.7570E+02  0.7820E+02  0.4660E+03  0.4654E+03
      1.014  0.7859E+02  0.8230E+02  0.4703E+03  0.4698E+03
      1.068  0.9664E+02  0.1010E+03  0.4756E+03  0.4753E+03
      1.122  0.9284E+02  0.8278E+02  0.4806E+03  0.4798E+03
      1.177  0.1246E+03  0.1293E+03  0.4874E+03  0.4868E+03
      1.231  0.1099E+03  0.1113E+03  0.4933E+03  0.4929E+03
      1.285  0.1253E+03  0.1174E+03  0.5001E+03  0.4993E+03
      1.340  0.1337E+03  0.1322E+03  0.5074E+03  0.5064E+03
      1.394  0.1097E+03  0.1188E+03  0.5134E+03  0.5129E+03
      1.448  0.1086E+03  0.1074E+03  0.5193E+03  0.5187E+03
      1.503  0.1176E+03  0.1145E+03  0.5257E+03  0.5249E+03
      1.557  0.1166E+03  0.1181E+03  0.5320E+03  0.5313E+03
      1.611  0.9920E+02  0.1033E+03  0.5374E+03  0.5370E+03
      1.666  0.1135E+03  0.1098E+03  0.5435E+03  0.5429E+03
      1.720  0.1053E+03  0.1089E+03  0.5493E+03  0.5488E+03
      1.774  0.1074E+03  0.1035E+03  0.5551E+03  0.5545E+03
      1.828  0.1197E+03  0.1217E+03  0.5616E+03  0.5611E+03
      1.883  0.1134E+03  0.1157E+03  0.5677E+03  0.5674E+03
      1.937  0.9397E+02  0.9430E+02  0.5729E+03  0.5725E+03
      1.991  0.8710E+02  0.8320E+02  0.5776E+03  0.5770E+03
      2.046  0.8701E+02  0.9155E+02  0.5823E+03  0.5820E+03
      2.100  0.8794E+02  0.8926E+02  0.5871E+03  0.5868E+03
      2.154  0.8980E+02  0.8472E+02  0.5920E+03  0.5914E+03
      2.209  0.8951E+02  0.9044E+02  0.5968E+03  0.5963E+03
      2.263  0.8845E+02  0.9053E+02  0.6016E+03  0.6012E+03
      2.317  0.4847E+02  0.4904E+02  0.6043E+03  0.6039E+03
      2.372  0.8245E+02  0.7814E+02  0.6087E+03  0.6081E+03
      2.426  0.8593E+02  0.9158E+02  0.6134E+03  0.6131E+03
      2.480  0.7388E+02  0.7311E+02  0.6174E+03  0.6171E+03
      2.534  0.8305E+02  0.8207E+02  0.6219E+03  0.6215E+03
      2.589  0.9417E+02  0.9300E+02  0.6270E+03  0.6266E+03
      2.643  0.5442E+02  0.5493E+02  0.6300E+03  0.6296E+03
      2.697  0.6501E+02  0.6468E+02  0.6335E+03  0.6331E+03
      2.752  0.7459E+02  0.7319E+02  0.6376E+03  0.6371E+03
      2.806  0.7546E+02  0.8086E+02  0.6417E+03  0.6415E+03
      2.860  0.5078E+02  0.5117E+02  0.6444E+03  0.6442E+03
      2.915  0.6322E+02  0.6323E+02  0.6479E+03  0.6477E+03
      2.969  0.4310E+02  0.4327E+02  0.6502E+03  0.6500E+03
      3.023  0.5267E+02  0.5246E+02  0.6531E+03  0.6529E+03
      3.078  0.4626E+02  0.3821E+02  0.6556E+03  0.6549E+03
      3.132  0.3924E+02  0.4524E+02  0.6577E+03  0.6574E+03
      3.186  0.3499E+02  0.3471E+02  0.6596E+03  0.6593E+03
      3.240  0.4334E+02  0.3605E+02  0.6620E+03  0.6612E+03
      3.295  0.5177E+02  0.5314E+02  0.6648E+03  0.6641E+03
      3.349  0.4823E+02  0.4819E+02  0.6674E+03  0.6668E+03
      3.403  0.4135E+02  0.4331E+02  0.6696E+03  0.6691E+03
      3.458  0.3133E+02  0.2921E+02  0.6713E+03  0.6707E+03
      3.512  0.1389E+02  0.2392E+02  0.6721E+03  0.6720E+03
      3.566  0.3114E+02  0.2601E+02  0.6738E+03  0.6734E+03
      3.621  0.2454E+02  0.2760E+02  0.6751E+03  0.6749E+03
      3.675  0.5062E+02  0.4629E+02  0.6779E+03  0.6774E+03
      3.729  0.3907E+02  0.3298E+02  0.6800E+03  0.6792E+03
      3.784  0.4451E+02  0.5134E+02  0.6824E+03  0.6820E+03
      3.838  0.7802E+01  0.1280E+02  0.6828E+03  0.6827E+03
      3.892  0.1856E+02  0.1602E+02  0.6838E+03  0.6836E+03
      3.947  0.1241E+02  0.1659E+02  0.6845E+03  0.6845E+03
      4.001  0.2617E+02  0.2355E+02  0.6859E+03  0.6857E+03
      4.055  0.9056E+01  0.1140E+02  0.6864E+03  0.6864E+03
      4.109  0.1255E+02  0.1361E+02  0.6871E+03  0.6871E+03
      4.164  0.2514E+02  0.2467E+02  0.6885E+03  0.6884E+03
      4.218  0.5110E+02  0.4391E+02  0.6913E+03  0.6908E+03
      4.272  0.3608E+02  0.4097E+02  0.6932E+03  0.6930E+03
      4.327  0.3369E+02  0.3335E+02  0.6950E+03  0.6949E+03
      4.381  0.3387E+02  0.2968E+02  0.6969E+03  0.6965E+03
      4.435  0.3890E+02  0.4305E+02  0.6990E+03  0.6988E+03
      4.490  0.5713E+02  0.5598E+02  0.7021E+03  0.7018E+03
      4.544  0.4507E+02  0.4603E+02  0.7045E+03  0.7043E+03
      4.598  0.7072E+02  0.6782E+02  0.7084E+03  0.7080E+03
      4.653  0.6466E+02  0.6663E+02  0.7119E+03  0.7117E+03
      4.707  0.5821E+02  0.5723E+02  0.7151E+03  0.7148E+03
      4.761  0.7980E+02  0.8386E+02  0.7194E+03  0.7193E+03
      4.815  0.7249E+02  0.6940E+02  0.7233E+03  0.7231E+03
      4.870  0.9020E+02  0.8704E+02  0.7282E+03  0.7278E+03
      4.924  0.5852E+02  0.6062E+02  0.7314E+03  0.7311E+03
      4.978  0.9831E+02  0.1019E+03  0.7367E+03  0.7366E+03
      5.033  0.9400E+02  0.8608E+02  0.7418E+03  0.7413E+03
      5.087  0.9927E+02  0.1044E+03  0.7472E+03  0.7470E+03
      5.141  0.1101E+03  0.1076E+03  0.7532E+03  0.7528E+03
      5.196  0.1001E+03  0.1017E+03  0.7587E+03  0.7583E+03
      5.250  0.1160E+03  0.1144E+03  0.7650E+03  0.7646E+03
      5.304  0.9827E+02  0.9581E+02  0.7703E+03  0.7698E+03
      5.359  0.9368E+02  0.9367E+02  0.7754E+03  0.7749E+03
      5.413  0.1141E+03  0.1121E+03  0.7816E+03  0.7809E+03
      5.467  0.1030E+03  0.1066E+03  0.7872E+03  0.7867E+03
      5.521  0.1254E+03  0.1246E+03  0.7940E+03  0.7935E+03
      5.576  0.8906E+02  0.8626E+02  0.7988E+03  0.7982E+03
      5.630  0.1063E+03  0.1029E+03  0.8046E+03  0.8038E+03
      5.684  0.5207E+02  0.5666E+02  0.8074E+03  0.8068E+03
      5.739  0.1060E+02  0.2124E+02  0.8080E+03  0.8080E+03
      5.793  0.0000E+00  0.0000E+00  0.8080E+03  0.8080E+03
      5.847  0.0000E+00  0.0000E+00  0.8080E+03  0.8080E+03
      5.902  0.0000E+00  0.0000E+00  0.8080E+03  0.8080E+03
      5.956  0.0000E+00  0.0000E+00  0.8080E+03  0.8080E+03
      6.010  0.0000E+00  0.0000E+00  0.8080E+03  0.8080E+03
      6.065  0.0000E+00  0.0000E+00  0.8080E+03  0.8080E+03
      6.119  0.0000E+00  0.0000E+00  0.8080E+03  0.8080E+03
      6.173  0.0000E+00  0.0000E+00  0.8080E+03  0.8080E+03
      6.228  0.0000E+00  0.0000E+00  0.8080E+03  0.8080E+03
      6.282  0.0000E+00  0.0000E+00  0.8080E+03  0.8080E+03
      6.336  0.0000E+00  0.0000E+00  0.8080E+03  0.8080E+03
      6.390  0.0000E+00  0.0000E+00  0.8080E+03  0.8080E+03
      6.445  0.0000E+00  0.0000E+00  0.8080E+03  0.8080E+03
