  48  48   0   0
  0.2846444E+02  0.9177115E-09  0.1946760E-08  0.7647603E-09  0.5000000E-15
  1.000000000000000E-004
  CAR 
 Si and Ge interface calculation         
      7.35274607     -7.99562923  301      5.23032316      1.00000000
     -7.996  0.0000E+00  0.0000E+00  0.0000E+00  0.0000E+00
     -7.944  0.0000E+00  0.0000E+00  0.0000E+00  0.0000E+00
     -7.893  0.0000E+00  0.0000E+00  0.0000E+00  0.0000E+00
     -7.842  0.0000E+00  0.0000E+00  0.0000E+00  0.0000E+00
     -7.791  0.0000E+00  0.0000E+00  0.0000E+00  0.0000E+00
     -7.740  0.0000E+00  0.0000E+00  0.0000E+00  0.0000E+00
     -7.689  0.0000E+00  0.0000E+00  0.0000E+00  0.0000E+00
     -7.638  0.0000E+00  0.0000E+00  0.0000E+00  0.0000E+00
     -7.586  0.0000E+00  0.0000E+00  0.0000E+00  0.0000E+00
     -7.535  0.0000E+00  0.0000E+00  0.0000E+00  0.0000E+00
     -7.484  0.0000E+00  0.0000E+00  0.0000E+00  0.0000E+00
     -7.433  0.0000E+00  0.0000E+00  0.0000E+00  0.0000E+00
     -7.382  0.0000E+00  0.0000E+00  0.0000E+00  0.0000E+00
     -7.331  0.6669E-05  0.7605E-08  0.3412E-06  0.3891E-09
     -7.279  0.3244E+01  0.2983E+01  0.1660E+00  0.1526E+00
     -7.228  0.1599E-01  0.2746E+00  0.1668E+00  0.1667E+00
     -7.177  0.9915E+01  0.7271E+01  0.6740E+00  0.5386E+00
     -7.126  0.3114E+01  0.5760E+01  0.8333E+00  0.8333E+00
     -7.075  0.1055E+02  0.4766E+01  0.1373E+01  0.1077E+01
     -7.024  0.2561E+01  0.8267E+01  0.1504E+01  0.1500E+01
     -6.972  0.6431E+01  0.6410E+01  0.1833E+01  0.1828E+01
     -6.921  0.1114E+00  0.1058E+00  0.1839E+01  0.1833E+01
     -6.870  0.1632E+02  0.1609E+02  0.2674E+01  0.2656E+01
     -6.819  0.6373E+01  0.6714E+01  0.3000E+01  0.3000E+01
     -6.768  0.1833E+02  0.1233E+02  0.3938E+01  0.3631E+01
     -6.717  0.7733E+01  0.1373E+02  0.4333E+01  0.4333E+01
     -6.665  0.1290E+02  0.1103E+02  0.4994E+01  0.4898E+01
     -6.614  0.1266E+00  0.2001E+01  0.5000E+01  0.5000E+01
     -6.563  0.6864E-03  0.1544E-05  0.5000E+01  0.5000E+01
     -6.512  0.9814E+01  0.9607E+01  0.5502E+01  0.5491E+01
     -6.461  0.1184E+02  0.9025E+01  0.6108E+01  0.5953E+01
     -6.410  0.9214E+01  0.6161E+01  0.6579E+01  0.6268E+01
     -6.358  0.1173E+02  0.1757E+02  0.7179E+01  0.7167E+01
     -6.307  0.3009E+01  0.3247E+01  0.7333E+01  0.7333E+01
     -6.256  0.1902E+01  0.4872E+00  0.7431E+01  0.7358E+01
     -6.205  0.2511E+01  0.2862E+01  0.7559E+01  0.7505E+01
     -6.154  0.8618E+01  0.9677E+01  0.8000E+01  0.8000E+01
     -6.103  0.0000E+00  0.4985E-02  0.8000E+01  0.8000E+01
     -6.052  0.0000E+00  0.0000E+00  0.8000E+01  0.8000E+01
     -6.000  0.0000E+00  0.0000E+00  0.8000E+01  0.8000E+01
     -5.949  0.0000E+00  0.0000E+00  0.8000E+01  0.8000E+01
     -5.898  0.0000E+00  0.0000E+00  0.8000E+01  0.8000E+01
     -5.847  0.0000E+00  0.0000E+00  0.8000E+01  0.8000E+01
     -5.796  0.0000E+00  0.0000E+00  0.8000E+01  0.8000E+01
     -5.745  0.0000E+00  0.0000E+00  0.8000E+01  0.8000E+01
     -5.693  0.0000E+00  0.0000E+00  0.8000E+01  0.8000E+01
     -5.642  0.0000E+00  0.0000E+00  0.8000E+01  0.8000E+01
     -5.591  0.0000E+00  0.0000E+00  0.8000E+01  0.8000E+01
     -5.540  0.0000E+00  0.0000E+00  0.8000E+01  0.8000E+01
     -5.489  0.0000E+00  0.0000E+00  0.8000E+01  0.8000E+01
     -5.438  0.0000E+00  0.0000E+00  0.8000E+01  0.8000E+01
     -5.386  0.0000E+00  0.0000E+00  0.8000E+01  0.8000E+01
     -5.335  0.0000E+00  0.0000E+00  0.8000E+01  0.8000E+01
     -5.284  0.4616E-09  0.7866E-14  0.8000E+01  0.8000E+01
     -5.233  0.1384E+01  0.4979E+00  0.8071E+01  0.8025E+01
     -5.182  0.4073E+01  0.3196E+01  0.8279E+01  0.8189E+01
     -5.131  0.1926E+02  0.1508E+02  0.9265E+01  0.8960E+01
     -5.079  0.4945E+01  0.1055E+02  0.9518E+01  0.9500E+01
     -5.028  0.1454E+02  0.1305E+02  0.1026E+02  0.1017E+02
     -4.977  0.8679E+01  0.9822E+01  0.1071E+02  0.1067E+02
     -4.926  0.1061E+02  0.1056E+02  0.1125E+02  0.1121E+02
     -4.875  0.4812E+01  0.1942E+01  0.1149E+02  0.1131E+02
     -4.824  0.1121E+02  0.1124E+02  0.1207E+02  0.1188E+02
     -4.772  0.1665E+02  0.2005E+02  0.1292E+02  0.1291E+02
     -4.721  0.1568E+02  0.1395E+02  0.1372E+02  0.1362E+02
     -4.670  0.1588E+02  0.1041E+02  0.1453E+02  0.1416E+02
     -4.619  0.1561E+02  0.2298E+02  0.1533E+02  0.1533E+02
     -4.568  0.9111E+01  0.6322E+01  0.1580E+02  0.1566E+02
     -4.517  0.1390E+02  0.1107E+02  0.1651E+02  0.1622E+02
     -4.466  0.7241E+01  0.1211E+02  0.1688E+02  0.1684E+02
     -4.414  0.2463E+01  0.3094E+01  0.1701E+02  0.1700E+02
     -4.363  0.1643E+02  0.1265E+02  0.1785E+02  0.1765E+02
     -4.312  0.3136E+02  0.2882E+02  0.1945E+02  0.1912E+02
     -4.261  0.1632E+02  0.1709E+02  0.2029E+02  0.2000E+02
     -4.210  0.1728E+02  0.2286E+02  0.2117E+02  0.2117E+02
     -4.159  0.1266E+02  0.1041E+02  0.2182E+02  0.2170E+02
     -4.107  0.1298E+02  0.1138E+02  0.2248E+02  0.2228E+02
     -4.056  0.2810E+02  0.2865E+02  0.2392E+02  0.2375E+02
     -4.005  0.1157E+02  0.1123E+02  0.2451E+02  0.2432E+02
     -3.954  0.1766E+02  0.1831E+02  0.2542E+02  0.2526E+02
     -3.903  0.1791E+02  0.2055E+02  0.2633E+02  0.2631E+02
     -3.852  0.7975E+00  0.5339E+00  0.2637E+02  0.2634E+02
     -3.800  0.2209E+02  0.2011E+02  0.2750E+02  0.2737E+02
     -3.749  0.5046E+01  0.7098E+01  0.2776E+02  0.2773E+02
     -3.698  0.5054E+01  0.5158E+01  0.2802E+02  0.2799E+02
     -3.647  0.1741E+02  0.1545E+02  0.2891E+02  0.2878E+02
     -3.596  0.1319E+02  0.1494E+02  0.2959E+02  0.2955E+02
     -3.545  0.7614E+01  0.6975E+01  0.2998E+02  0.2990E+02
     -3.493  0.2627E+02  0.2346E+02  0.3132E+02  0.3110E+02
     -3.442  0.8141E+01  0.1081E+02  0.3174E+02  0.3166E+02
     -3.391  0.2707E+02  0.2091E+02  0.3312E+02  0.3273E+02
     -3.340  0.1746E+02  0.2019E+02  0.3401E+02  0.3376E+02
     -3.289  0.1782E+02  0.1881E+02  0.3493E+02  0.3472E+02
     -3.238  0.1052E+02  0.1148E+02  0.3546E+02  0.3531E+02
     -3.186  0.1244E+02  0.8996E+01  0.3610E+02  0.3577E+02
     -3.135  0.1866E+02  0.1905E+02  0.3706E+02  0.3674E+02
     -3.084  0.1520E+02  0.2127E+02  0.3783E+02  0.3783E+02
     -3.033  0.9001E+01  0.6242E+01  0.3829E+02  0.3815E+02
     -2.982  0.1327E+02  0.7996E+01  0.3897E+02  0.3856E+02
     -2.931  0.1293E+02  0.1917E+02  0.3963E+02  0.3954E+02
     -2.880  0.6788E+01  0.6180E+01  0.3998E+02  0.3986E+02
     -2.828  0.5863E+01  0.5046E+01  0.4028E+02  0.4012E+02
     -2.777  0.5904E+01  0.9067E+01  0.4058E+02  0.4058E+02
     -2.726  0.3254E+01  0.3184E+01  0.4075E+02  0.4074E+02
     -2.675  0.1440E+02  0.1003E+02  0.4149E+02  0.4126E+02
     -2.624  0.1133E+02  0.1191E+02  0.4207E+02  0.4187E+02
     -2.573  0.5889E+01  0.7803E+01  0.4237E+02  0.4227E+02
     -2.521  0.1391E+02  0.1309E+02  0.4308E+02  0.4293E+02
     -2.470  0.1724E+02  0.1788E+02  0.4396E+02  0.4385E+02
     -2.419  0.8739E+01  0.9495E+01  0.4441E+02  0.4434E+02
     -2.368  0.8300E+01  0.9484E+01  0.4483E+02  0.4482E+02
     -2.317  0.1221E+02  0.7740E+01  0.4546E+02  0.4522E+02
     -2.266  0.1744E+02  0.1899E+02  0.4635E+02  0.4619E+02
     -2.214  0.7869E+01  0.1099E+02  0.4675E+02  0.4675E+02
     -2.163  0.1391E+02  0.9081E+01  0.4746E+02  0.4721E+02
     -2.112  0.1840E+02  0.2087E+02  0.4841E+02  0.4828E+02
     -2.061  0.2378E+02  0.2012E+02  0.4962E+02  0.4931E+02
     -2.010  0.3833E+01  0.8668E+01  0.4982E+02  0.4975E+02
     -1.959  0.1436E+02  0.1105E+02  0.5055E+02  0.5032E+02
     -1.907  0.5240E+01  0.7614E+01  0.5082E+02  0.5071E+02
     -1.856  0.1055E+02  0.6348E+01  0.5136E+02  0.5103E+02
     -1.805  0.1589E+02  0.1944E+02  0.5217E+02  0.5203E+02
     -1.754  0.1084E+02  0.9581E+01  0.5273E+02  0.5252E+02
     -1.703  0.1446E+02  0.1484E+02  0.5347E+02  0.5328E+02
     -1.652  0.1294E+02  0.1418E+02  0.5413E+02  0.5400E+02
     -1.600  0.2359E+02  0.2292E+02  0.5534E+02  0.5518E+02
     -1.549  0.5345E+01  0.7958E+01  0.5561E+02  0.5558E+02
     -1.498  0.6120E+01  0.6456E+01  0.5592E+02  0.5591E+02
     -1.447  0.4769E+01  0.4879E+01  0.5617E+02  0.5616E+02
     -1.396  0.1140E+02  0.1110E+02  0.5675E+02  0.5673E+02
     -1.345  0.6744E+01  0.5257E+01  0.5709E+02  0.5700E+02
     -1.294  0.2819E+02  0.2235E+02  0.5854E+02  0.5814E+02
     -1.242  0.1815E+02  0.1933E+02  0.5947E+02  0.5913E+02
     -1.191  0.1082E+02  0.1553E+02  0.6002E+02  0.5993E+02
     -1.140  0.1625E+02  0.1344E+02  0.6085E+02  0.6062E+02
     -1.089  0.1608E+02  0.1582E+02  0.6167E+02  0.6143E+02
     -1.038  0.1513E+02  0.1905E+02  0.6245E+02  0.6240E+02
     -0.987  0.1713E+02  0.1357E+02  0.6332E+02  0.6309E+02
     -0.935  0.1122E+02  0.1340E+02  0.6390E+02  0.6378E+02
     -0.884  0.3928E+00  0.2679E+01  0.6392E+02  0.6392E+02
     -0.833  0.1168E+02  0.8178E+01  0.6452E+02  0.6434E+02
     -0.782  0.1264E+02  0.1412E+02  0.6516E+02  0.6506E+02
     -0.731  0.1720E+01  0.3759E+01  0.6525E+02  0.6525E+02
     -0.680  0.6464E+01  0.4642E+01  0.6558E+02  0.6549E+02
     -0.628  0.3537E+01  0.2982E+01  0.6576E+02  0.6564E+02
     -0.577  0.2523E+02  0.1855E+02  0.6705E+02  0.6659E+02
     -0.526  0.1785E+02  0.2295E+02  0.6797E+02  0.6776E+02
     -0.475  0.1166E+02  0.1192E+02  0.6856E+02  0.6837E+02
     -0.424  0.1107E+02  0.1163E+02  0.6913E+02  0.6897E+02
     -0.373  0.1882E+02  0.1359E+02  0.7009E+02  0.6966E+02
     -0.321  0.1765E+02  0.2414E+02  0.7099E+02  0.7090E+02
     -0.270  0.9281E+01  0.5419E+01  0.7147E+02  0.7118E+02
     -0.219  0.5975E+01  0.8256E+01  0.7177E+02  0.7160E+02
     -0.168  0.1341E+02  0.1367E+02  0.7246E+02  0.7230E+02
     -0.117  0.4137E+01  0.5778E+01  0.7267E+02  0.7259E+02
     -0.066  0.5810E+01  0.4649E+01  0.7297E+02  0.7283E+02
     -0.014  0.2978E+02  0.2750E+02  0.7449E+02  0.7424E+02
      0.037  0.1456E+02  0.1337E+02  0.7524E+02  0.7492E+02
      0.088  0.1825E+02  0.2433E+02  0.7617E+02  0.7617E+02
      0.139  0.1341E+02  0.1142E+02  0.7686E+02  0.7675E+02
      0.190  0.1977E+02  0.1645E+02  0.7787E+02  0.7759E+02
      0.241  0.1206E+02  0.1462E+02  0.7849E+02  0.7834E+02
      0.292  0.6322E+01  0.7380E+01  0.7881E+02  0.7872E+02
      0.344  0.5857E+01  0.5628E+01  0.7911E+02  0.7901E+02
      0.395  0.1080E+02  0.1123E+02  0.7966E+02  0.7958E+02
      0.446  0.4920E+01  0.5255E+01  0.7991E+02  0.7985E+02
      0.497  0.1938E+02  0.1267E+02  0.8091E+02  0.8050E+02
      0.548  0.1355E+02  0.1841E+02  0.8160E+02  0.8144E+02
      0.599  0.1143E+02  0.1252E+02  0.8218E+02  0.8208E+02
      0.651  0.2055E+02  0.1711E+02  0.8323E+02  0.8295E+02
      0.702  0.1699E+02  0.1717E+02  0.8410E+02  0.8383E+02
      0.753  0.1732E+02  0.1836E+02  0.8499E+02  0.8477E+02
      0.804  0.2157E+02  0.1710E+02  0.8609E+02  0.8565E+02
      0.855  0.1978E+02  0.2152E+02  0.8711E+02  0.8675E+02
      0.906  0.1313E+02  0.1668E+02  0.8778E+02  0.8760E+02
      0.958  0.2912E+02  0.3172E+02  0.8927E+02  0.8922E+02
      1.009  0.8254E+01  0.7774E+01  0.8969E+02  0.8962E+02
      1.060  0.2084E+02  0.1744E+02  0.9076E+02  0.9051E+02
      1.111  0.8031E+01  0.6556E+01  0.9117E+02  0.9085E+02
      1.162  0.1628E+02  0.1509E+02  0.9200E+02  0.9162E+02
      1.213  0.1827E+02  0.2314E+02  0.9293E+02  0.9281E+02
      1.265  0.1789E+02  0.9922E+01  0.9385E+02  0.9331E+02
      1.316  0.1966E+02  0.1697E+02  0.9486E+02  0.9418E+02
      1.367  0.2265E+02  0.2800E+02  0.9601E+02  0.9561E+02
      1.418  0.2535E+02  0.2346E+02  0.9731E+02  0.9681E+02
      1.469  0.1800E+02  0.2407E+02  0.9823E+02  0.9804E+02
      1.520  0.1984E+02  0.1634E+02  0.9925E+02  0.9888E+02
      1.572  0.2055E+02  0.2012E+02  0.1003E+03  0.9991E+02
      1.623  0.9761E+01  0.1410E+02  0.1008E+03  0.1006E+03
      1.674  0.1397E+02  0.1254E+02  0.1015E+03  0.1013E+03
      1.725  0.1520E+02  0.1447E+02  0.1023E+03  0.1020E+03
      1.776  0.2813E+02  0.2695E+02  0.1037E+03  0.1034E+03
      1.827  0.3021E+02  0.2246E+02  0.1053E+03  0.1045E+03
      1.878  0.2047E+02  0.2711E+02  0.1063E+03  0.1059E+03
      1.930  0.2980E+02  0.3168E+02  0.1078E+03  0.1075E+03
      1.981  0.3403E+02  0.3002E+02  0.1096E+03  0.1091E+03
      2.032  0.2040E+02  0.2719E+02  0.1106E+03  0.1105E+03
      2.083  0.2750E+02  0.2466E+02  0.1120E+03  0.1117E+03
      2.134  0.3187E+02  0.2844E+02  0.1137E+03  0.1132E+03
      2.185  0.2681E+02  0.2587E+02  0.1150E+03  0.1145E+03
      2.237  0.2423E+02  0.2909E+02  0.1163E+03  0.1160E+03
      2.288  0.1680E+02  0.1668E+02  0.1171E+03  0.1169E+03
      2.339  0.3178E+02  0.2575E+02  0.1188E+03  0.1182E+03
      2.390  0.1418E+02  0.2050E+02  0.1195E+03  0.1192E+03
      2.441  0.2190E+02  0.2403E+02  0.1206E+03  0.1205E+03
      2.492  0.2519E+02  0.1861E+02  0.1219E+03  0.1214E+03
      2.544  0.2544E+02  0.2895E+02  0.1232E+03  0.1229E+03
      2.595  0.2655E+02  0.2352E+02  0.1246E+03  0.1241E+03
      2.646  0.2683E+02  0.2399E+02  0.1259E+03  0.1253E+03
      2.697  0.1919E+02  0.2709E+02  0.1269E+03  0.1267E+03
      2.748  0.1934E+02  0.1761E+02  0.1279E+03  0.1276E+03
      2.799  0.2452E+02  0.2111E+02  0.1292E+03  0.1287E+03
      2.851  0.2276E+02  0.2504E+02  0.1303E+03  0.1300E+03
      2.902  0.1941E+02  0.1799E+02  0.1313E+03  0.1309E+03
      2.953  0.3609E+02  0.3396E+02  0.1332E+03  0.1326E+03
      3.004  0.2906E+02  0.2211E+02  0.1346E+03  0.1338E+03
      3.055  0.6654E+01  0.2274E+02  0.1350E+03  0.1349E+03
      3.106  0.2721E+02  0.1696E+02  0.1364E+03  0.1358E+03
      3.158  0.1685E+02  0.1941E+02  0.1372E+03  0.1368E+03
      3.209  0.2469E+02  0.2366E+02  0.1385E+03  0.1380E+03
      3.260  0.2432E+02  0.2947E+02  0.1398E+03  0.1395E+03
      3.311  0.2604E+02  0.2907E+02  0.1411E+03  0.1410E+03
      3.362  0.1178E+02  0.7979E+01  0.1417E+03  0.1414E+03
      3.413  0.3518E+02  0.2691E+02  0.1435E+03  0.1428E+03
      3.464  0.2068E+02  0.2867E+02  0.1445E+03  0.1442E+03
      3.516  0.3296E+02  0.2489E+02  0.1462E+03  0.1455E+03
      3.567  0.2528E+02  0.3080E+02  0.1475E+03  0.1471E+03
      3.618  0.2734E+02  0.3403E+02  0.1489E+03  0.1488E+03
      3.669  0.2171E+02  0.1439E+02  0.1500E+03  0.1496E+03
      3.720  0.2318E+02  0.2685E+02  0.1512E+03  0.1509E+03
      3.771  0.2968E+02  0.2854E+02  0.1527E+03  0.1524E+03
      3.823  0.2579E+02  0.2510E+02  0.1541E+03  0.1537E+03
      3.874  0.1395E+02  0.1974E+02  0.1548E+03  0.1547E+03
      3.925  0.1627E+02  0.1198E+02  0.1556E+03  0.1553E+03
      3.976  0.2947E+02  0.1781E+02  0.1571E+03  0.1562E+03
      4.027  0.2703E+02  0.3462E+02  0.1585E+03  0.1580E+03
      4.078  0.2554E+02  0.3024E+02  0.1598E+03  0.1595E+03
      4.130  0.2009E+02  0.7922E+01  0.1608E+03  0.1599E+03
      4.181  0.2581E+02  0.3688E+02  0.1621E+03  0.1618E+03
      4.232  0.2579E+02  0.2691E+02  0.1635E+03  0.1632E+03
      4.283  0.3051E+02  0.2180E+02  0.1650E+03  0.1643E+03
      4.334  0.2484E+02  0.3294E+02  0.1663E+03  0.1660E+03
      4.385  0.2289E+02  0.1267E+02  0.1675E+03  0.1667E+03
      4.437  0.2137E+02  0.2469E+02  0.1686E+03  0.1679E+03
      4.488  0.3793E+02  0.3792E+02  0.1705E+03  0.1699E+03
      4.539  0.2136E+02  0.2531E+02  0.1716E+03  0.1711E+03
      4.590  0.3020E+02  0.2491E+02  0.1731E+03  0.1724E+03
      4.641  0.2022E+02  0.2567E+02  0.1742E+03  0.1737E+03
      4.692  0.2301E+02  0.2016E+02  0.1754E+03  0.1748E+03
      4.744  0.3149E+02  0.2784E+02  0.1770E+03  0.1762E+03
      4.795  0.3715E+02  0.3981E+02  0.1789E+03  0.1782E+03
      4.846  0.2477E+02  0.1829E+02  0.1801E+03  0.1792E+03
      4.897  0.2683E+02  0.3791E+02  0.1815E+03  0.1811E+03
      4.948  0.2501E+02  0.1958E+02  0.1828E+03  0.1821E+03
      4.999  0.3383E+02  0.3096E+02  0.1845E+03  0.1837E+03
      5.050  0.3676E+02  0.3323E+02  0.1864E+03  0.1854E+03
      5.102  0.1676E+02  0.3327E+02  0.1873E+03  0.1871E+03
      5.153  0.3367E+02  0.1903E+02  0.1890E+03  0.1881E+03
      5.204  0.3855E+02  0.3496E+02  0.1910E+03  0.1899E+03
      5.255  0.2894E+02  0.3748E+02  0.1924E+03  0.1918E+03
      5.306  0.2861E+02  0.2471E+02  0.1939E+03  0.1930E+03
      5.357  0.3814E+02  0.4286E+02  0.1958E+03  0.1952E+03
      5.409  0.2701E+02  0.1803E+02  0.1972E+03  0.1962E+03
      5.460  0.2907E+02  0.3667E+02  0.1987E+03  0.1980E+03
      5.511  0.2920E+02  0.2710E+02  0.2002E+03  0.1994E+03
      5.562  0.3022E+02  0.3078E+02  0.2018E+03  0.2010E+03
      5.613  0.3275E+02  0.2933E+02  0.2034E+03  0.2025E+03
      5.664  0.2427E+02  0.3120E+02  0.2047E+03  0.2041E+03
      5.716  0.2979E+02  0.2449E+02  0.2062E+03  0.2053E+03
      5.767  0.4371E+02  0.4388E+02  0.2084E+03  0.2076E+03
      5.818  0.2340E+02  0.2653E+02  0.2096E+03  0.2089E+03
      5.869  0.4328E+02  0.4209E+02  0.2118E+03  0.2111E+03
      5.920  0.3362E+02  0.3466E+02  0.2136E+03  0.2129E+03
      5.971  0.4184E+02  0.4207E+02  0.2157E+03  0.2150E+03
      6.023  0.3703E+02  0.4265E+02  0.2176E+03  0.2172E+03
      6.074  0.1923E+02  0.2199E+02  0.2186E+03  0.2183E+03
      6.125  0.2355E+02  0.1508E+02  0.2198E+03  0.2191E+03
      6.176  0.2696E+02  0.2585E+02  0.2212E+03  0.2204E+03
      6.227  0.1723E+02  0.2477E+02  0.2220E+03  0.2217E+03
      6.278  0.3712E+02  0.2919E+02  0.2239E+03  0.2232E+03
      6.330  0.3220E+02  0.3210E+02  0.2256E+03  0.2248E+03
      6.381  0.2674E+02  0.3212E+02  0.2270E+03  0.2265E+03
      6.432  0.2254E+02  0.2774E+02  0.2281E+03  0.2279E+03
      6.483  0.3029E+02  0.1943E+02  0.2297E+03  0.2289E+03
      6.534  0.2448E+02  0.3197E+02  0.2309E+03  0.2305E+03
      6.585  0.1649E+02  0.2412E+02  0.2318E+03  0.2317E+03
      6.636  0.4630E+01  0.3277E+01  0.2320E+03  0.2319E+03
      6.688  0.0000E+00  0.1622E+01  0.2320E+03  0.2320E+03
      6.739  0.0000E+00  0.0000E+00  0.2320E+03  0.2320E+03
      6.790  0.0000E+00  0.0000E+00  0.2320E+03  0.2320E+03
      6.841  0.0000E+00  0.0000E+00  0.2320E+03  0.2320E+03
      6.892  0.0000E+00  0.0000E+00  0.2320E+03  0.2320E+03
      6.943  0.0000E+00  0.0000E+00  0.2320E+03  0.2320E+03
      6.995  0.0000E+00  0.0000E+00  0.2320E+03  0.2320E+03
      7.046  0.0000E+00  0.0000E+00  0.2320E+03  0.2320E+03
      7.097  0.0000E+00  0.0000E+00  0.2320E+03  0.2320E+03
      7.148  0.0000E+00  0.0000E+00  0.2320E+03  0.2320E+03
      7.199  0.0000E+00  0.0000E+00  0.2320E+03  0.2320E+03
      7.250  0.0000E+00  0.0000E+00  0.2320E+03  0.2320E+03
      7.302  0.0000E+00  0.0000E+00  0.2320E+03  0.2320E+03
      7.353  0.0000E+00  0.0000E+00  0.2320E+03  0.2320E+03
