Si and Ge interface calculation         
           1
    12.144086    0.000000    0.000000
   -12.144086   12.144086    0.000000
     0.000000    0.000000   13.577501
   Si
   120
Direct configuration=     1
   0.03595619  0.00000000  0.00000000
   0.53595620  0.00000003  0.20000000
   0.03595626  0.00000012  0.40000004
   0.63595623  0.20000000  0.00000000
   0.13595629  0.20000003  0.20000000
   0.63595641  0.20000011  0.40000004
   0.23595621  0.40000001  0.00000000
   0.73595619  0.40000007  0.20000000
   0.23595631  0.40000012  0.40000004
   0.83595633  0.60000008  0.00000000
   0.33595633  0.60000014  0.20000000
   0.83595645  0.60000014  0.40000004
   0.43595624  0.80000001  0.00000000
   0.93595630  0.80000013  0.20000000
   0.43595636  0.80000013  0.40000004
   0.23595631  0.15000002  0.10000001
   0.73595643  0.15000005  0.30000004
   0.23595667  0.15000012  0.50000000
   0.83595633  0.35000005  0.10000001
   0.33595633  0.35000008  0.30000004
   0.83595645  0.35000014  0.50000000
   0.43595621  0.55000001  0.10000001
   0.93595630  0.55000001  0.30000004
   0.43595624  0.55000007  0.50000000
   0.03595626  0.75000006  0.10000001
   0.53595638  0.75000012  0.30000004
   0.03595638  0.75000012  0.50000000
   0.63595623  0.95000011  0.10000001
   0.13595629  0.95000017  0.30000004
   0.63595629  0.95000023  0.50000000
   0.83595628  0.10000002  0.00000000
   0.33595633  0.10000005  0.20000000
   0.83595645  0.10000014  0.40000004
   0.43595627  0.30000004  0.00000000
   0.93595624  0.30000007  0.20000000
   0.43595636  0.30000010  0.40000004
   0.03595619  0.50000006  0.00000000
   0.53595620  0.50000012  0.20000000
   0.03595626  0.50000012  0.40000004
   0.63595629  0.70000011  0.00000000
   0.13595629  0.70000017  0.20000000
   0.63595641  0.70000017  0.40000004
   0.23595618  0.90000010  0.00000000
   0.73595619  0.90000016  0.20000000
   0.23595631  0.90000016  0.40000004
   0.43595624  0.05000000  0.10000001
   0.93595630  0.05000003  0.30000004
   0.43595636  0.05000010  0.50000000
   0.03595626  0.25000003  0.10000001
   0.53595626  0.25000003  0.30000004
   0.03595638  0.25000015  0.50000000
   0.63595623  0.45000005  0.10000001
   0.13595629  0.45000011  0.30000004
   0.63595629  0.45000008  0.50000000
   0.23595619  0.65000004  0.10000001
   0.73595631  0.65000010  0.30000004
   0.23595619  0.65000016  0.50000000
   0.83595628  0.85000008  0.10000001
   0.33595633  0.85000020  0.30000004
   0.83595633  0.85000014  0.50000000
   0.23595625  0.80000001  0.50000000
   0.73595625  0.80000013  0.69999999
   0.23595631  0.80000019  0.90000010
   0.43595627  0.60000008  0.50000000
   0.93595636  0.60000020  0.69999999
   0.43595648  0.60000026  0.90000010
   0.63595623  0.40000004  0.50000000
   0.13595629  0.40000010  0.69999999
   0.63595641  0.40000016  0.90000010
   0.83595633  0.20000003  0.50000000
   0.33595633  0.20000014  0.69999999
   0.83595645  0.20000021  0.90000010
   0.03595619  0.00000000  0.50000000
   0.53595626  0.00000009  0.69999999
   0.03595638  0.00000018  0.90000010
   0.93595624  0.85000014  0.60000002
   0.43595636  0.85000020  0.80000007
   0.93595636  0.85000026  0.00000000
   0.13595629  0.65000010  0.60000002
   0.63595641  0.65000016  0.80000007
   0.13595653  0.65000021  0.00000000
   0.33595625  0.45000005  0.60000002
   0.83595633  0.45000011  0.80000007
   0.33595633  0.45000020  0.00000000
   0.53595626  0.25000003  0.60000002
   0.03595638  0.25000009  0.80000007
   0.53595638  0.25000015  0.00000000
   0.73595625  0.05000002  0.60000002
   0.23595631  0.05000010  0.80000007
   0.73595643  0.05000014  0.00000000
   0.63595623  0.90000010  0.50000000
   0.13595629  0.90000021  0.69999999
   0.63595641  0.90000027  0.90000010
   0.83595616  0.69999999  0.50000000
   0.33595622  0.70000011  0.69999999
   0.83595633  0.70000017  0.90000010
   0.03595619  0.50000006  0.50000000
   0.53595626  0.50000012  0.69999999
   0.03595638  0.50000018  0.90000010
   0.23595624  0.30000004  0.50000000
   0.73595625  0.30000010  0.69999999
   0.23595631  0.30000016  0.90000010
   0.43595624  0.10000000  0.50000000
   0.93595630  0.10000008  0.69999999
   0.43595636  0.10000012  0.90000010
   0.33595625  0.95000017  0.60000002
   0.83595633  0.95000023  0.80000007
   0.33595633  0.95000035  0.00000000
   0.53595638  0.75000006  0.60000002
   0.03595638  0.75000012  0.80000007
   0.53595650  0.75000024  0.00000000
   0.73595625  0.55000001  0.60000002
   0.23595631  0.55000007  0.80000007
   0.73595643  0.55000013  0.00000000
   0.93595630  0.35000005  0.60000002
   0.43595648  0.35000008  0.80000007
   0.93595648  0.35000023  0.00000000
   0.13595629  0.15000005  0.60000002
   0.63595641  0.15000010  0.80000007
   0.13595653  0.15000017  0.00000000
