 264 264   0   0
  0.2774202E+02  0.1958175E-08  0.1958175E-08  0.1910025E-08  0.5000000E-15
  1.000000000000000E-004
  CAR 
 Si and Ge interface calculation         
      6.63832942     -9.02058591  301      4.04683469      1.00000000
     -9.021  0.0000E+00  0.0000E+00  0.0000E+00  0.0000E+00
     -8.968  0.0000E+00  0.0000E+00  0.0000E+00  0.0000E+00
     -8.916  0.0000E+00  0.0000E+00  0.0000E+00  0.0000E+00
     -8.864  0.0000E+00  0.0000E+00  0.0000E+00  0.0000E+00
     -8.812  0.0000E+00  0.0000E+00  0.0000E+00  0.0000E+00
     -8.760  0.0000E+00  0.0000E+00  0.0000E+00  0.0000E+00
     -8.707  0.0000E+00  0.0000E+00  0.0000E+00  0.0000E+00
     -8.655  0.0000E+00  0.0000E+00  0.0000E+00  0.0000E+00
     -8.603  0.0000E+00  0.0000E+00  0.0000E+00  0.0000E+00
     -8.551  0.0000E+00  0.0000E+00  0.0000E+00  0.0000E+00
     -8.499  0.0000E+00  0.0000E+00  0.0000E+00  0.0000E+00
     -8.446  0.0000E+00  0.0000E+00  0.0000E+00  0.0000E+00
     -8.394  0.0000E+00  0.0000E+00  0.0000E+00  0.0000E+00
     -8.342  0.1242E-04  0.3814E-05  0.6485E-06  0.1991E-06
     -8.290  0.9722E+01  0.9607E+01  0.5075E+00  0.5014E+00
     -8.238  0.1898E+02  0.1906E+02  0.1498E+01  0.1496E+01
     -8.185  0.2071E+02  0.1975E+02  0.2579E+01  0.2527E+01
     -8.133  0.1773E+02  0.1866E+02  0.3505E+01  0.3501E+01
     -8.081  0.9488E+01  0.9556E+01  0.4000E+01  0.4000E+01
     -8.029  0.9896E+01  0.9536E+01  0.4517E+01  0.4498E+01
     -7.977  0.2722E+02  0.2704E+02  0.5937E+01  0.5909E+01
     -7.924  0.2012E+02  0.1909E+02  0.6988E+01  0.6906E+01
     -7.872  0.9836E+01  0.1140E+02  0.7501E+01  0.7500E+01
     -7.820  0.1662E+02  0.1520E+02  0.8369E+01  0.8294E+01
     -7.768  0.2168E+02  0.2311E+02  0.9501E+01  0.9500E+01
     -7.716  0.1915E+02  0.1915E+02  0.1050E+02  0.1050E+02
     -7.663  0.3988E-01  0.2556E-01  0.1050E+02  0.1050E+02
     -7.611  0.2857E+02  0.2697E+02  0.1199E+02  0.1191E+02
     -7.559  0.5385E+02  0.5389E+02  0.1480E+02  0.1472E+02
     -7.507  0.4118E+01  0.5538E+01  0.1502E+02  0.1501E+02
     -7.455  0.2556E+02  0.2448E+02  0.1635E+02  0.1629E+02
     -7.402  0.1549E+02  0.1598E+02  0.1716E+02  0.1712E+02
     -7.350  0.1635E+02  0.1695E+02  0.1802E+02  0.1801E+02
     -7.298  0.1887E+02  0.1902E+02  0.1900E+02  0.1900E+02
     -7.246  0.3643E+02  0.3507E+02  0.2090E+02  0.2083E+02
     -7.194  0.3344E+02  0.3328E+02  0.2265E+02  0.2257E+02
     -7.142  0.2542E+02  0.2490E+02  0.2397E+02  0.2387E+02
     -7.089  0.4392E+02  0.4461E+02  0.2627E+02  0.2620E+02
     -7.037  0.3508E+02  0.3583E+02  0.2810E+02  0.2807E+02
     -6.985  0.2686E+02  0.2746E+02  0.2950E+02  0.2950E+02
     -6.933  0.3789E+02  0.3749E+02  0.3148E+02  0.3146E+02
     -6.881  0.2912E+02  0.2944E+02  0.3300E+02  0.3299E+02
     -6.828  0.4798E+02  0.4612E+02  0.3550E+02  0.3540E+02
     -6.776  0.5106E+02  0.5194E+02  0.3817E+02  0.3811E+02
     -6.724  0.4254E+02  0.4290E+02  0.4039E+02  0.4035E+02
     -6.672  0.4075E+02  0.3978E+02  0.4251E+02  0.4243E+02
     -6.620  0.6183E+02  0.6156E+02  0.4574E+02  0.4564E+02
     -6.567  0.2703E+02  0.2771E+02  0.4715E+02  0.4709E+02
     -6.515  0.3243E+02  0.3287E+02  0.4885E+02  0.4880E+02
     -6.463  0.4253E+02  0.4138E+02  0.5107E+02  0.5096E+02
     -6.411  0.3214E+02  0.3144E+02  0.5274E+02  0.5260E+02
     -6.359  0.4924E+02  0.5053E+02  0.5531E+02  0.5524E+02
     -6.306  0.2952E+02  0.2931E+02  0.5685E+02  0.5677E+02
     -6.254  0.7383E+02  0.7281E+02  0.6071E+02  0.6057E+02
     -6.202  0.4364E+02  0.4567E+02  0.6299E+02  0.6295E+02
     -6.150  0.6390E+02  0.6189E+02  0.6632E+02  0.6619E+02
     -6.098  0.7111E+02  0.7264E+02  0.7003E+02  0.6998E+02
     -6.045  0.6963E+02  0.6763E+02  0.7367E+02  0.7351E+02
     -5.993  0.6363E+02  0.6382E+02  0.7699E+02  0.7684E+02
     -5.941  0.7769E+02  0.7745E+02  0.8104E+02  0.8088E+02
     -5.889  0.5651E+02  0.5679E+02  0.8399E+02  0.8385E+02
     -5.837  0.7783E+02  0.7616E+02  0.8806E+02  0.8782E+02
     -5.784  0.8510E+02  0.8456E+02  0.9250E+02  0.9223E+02
     -5.732  0.9924E+02  0.1007E+03  0.9768E+02  0.9749E+02
     -5.680  0.7047E+02  0.6977E+02  0.1014E+03  0.1011E+03
     -5.628  0.7812E+02  0.7976E+02  0.1054E+03  0.1053E+03
     -5.576  0.7545E+02  0.7650E+02  0.1094E+03  0.1093E+03
     -5.523  0.5393E+02  0.5306E+02  0.1122E+03  0.1121E+03
     -5.471  0.8214E+02  0.8027E+02  0.1165E+03  0.1162E+03
     -5.419  0.5121E+02  0.5233E+02  0.1191E+03  0.1190E+03
     -5.367  0.9017E+02  0.8845E+02  0.1239E+03  0.1236E+03
     -5.315  0.7529E+02  0.7739E+02  0.1278E+03  0.1276E+03
     -5.262  0.7056E+02  0.6975E+02  0.1315E+03  0.1313E+03
     -5.210  0.5947E+02  0.5953E+02  0.1346E+03  0.1344E+03
     -5.158  0.7957E+02  0.7921E+02  0.1387E+03  0.1385E+03
     -5.106  0.8414E+02  0.8456E+02  0.1431E+03  0.1429E+03
     -5.054  0.7360E+02  0.7320E+02  0.1470E+03  0.1468E+03
     -5.001  0.5955E+02  0.6036E+02  0.1501E+03  0.1499E+03
     -4.949  0.7162E+02  0.7178E+02  0.1538E+03  0.1537E+03
     -4.897  0.7360E+02  0.7466E+02  0.1576E+03  0.1575E+03
     -4.845  0.7342E+02  0.7189E+02  0.1615E+03  0.1613E+03
     -4.793  0.8461E+02  0.8256E+02  0.1659E+03  0.1656E+03
     -4.740  0.1166E+03  0.1153E+03  0.1720E+03  0.1716E+03
     -4.688  0.1339E+03  0.1359E+03  0.1790E+03  0.1787E+03
     -4.636  0.1009E+03  0.9723E+02  0.1842E+03  0.1838E+03
     -4.584  0.9054E+02  0.9322E+02  0.1890E+03  0.1887E+03
     -4.532  0.1192E+03  0.1179E+03  0.1952E+03  0.1948E+03
     -4.480  0.9815E+02  0.9942E+02  0.2003E+03  0.2000E+03
     -4.427  0.1091E+03  0.1065E+03  0.2060E+03  0.2056E+03
     -4.375  0.7946E+02  0.8161E+02  0.2101E+03  0.2098E+03
     -4.323  0.8067E+02  0.8325E+02  0.2144E+03  0.2142E+03
     -4.271  0.6904E+02  0.6902E+02  0.2180E+03  0.2178E+03
     -4.219  0.7331E+02  0.7141E+02  0.2218E+03  0.2215E+03
     -4.166  0.9268E+02  0.9280E+02  0.2266E+03  0.2263E+03
     -4.114  0.8191E+02  0.8245E+02  0.2309E+03  0.2306E+03
     -4.062  0.7793E+02  0.7850E+02  0.2350E+03  0.2347E+03
     -4.010  0.7342E+02  0.7520E+02  0.2388E+03  0.2387E+03
     -3.958  0.4892E+02  0.4604E+02  0.2414E+03  0.2411E+03
     -3.905  0.3002E+02  0.2989E+02  0.2429E+03  0.2426E+03
     -3.853  0.5975E+02  0.6205E+02  0.2460E+03  0.2459E+03
     -3.801  0.5887E+02  0.5946E+02  0.2491E+03  0.2490E+03
     -3.749  0.6453E+02  0.6007E+02  0.2525E+03  0.2521E+03
     -3.697  0.6728E+02  0.6944E+02  0.2560E+03  0.2557E+03
     -3.644  0.7179E+02  0.7261E+02  0.2597E+03  0.2595E+03
     -3.592  0.6909E+02  0.6749E+02  0.2633E+03  0.2630E+03
     -3.540  0.4784E+02  0.4785E+02  0.2658E+03  0.2655E+03
     -3.488  0.8422E+02  0.8555E+02  0.2702E+03  0.2700E+03
     -3.436  0.6625E+02  0.6676E+02  0.2737E+03  0.2735E+03
     -3.383  0.6917E+02  0.6564E+02  0.2773E+03  0.2769E+03
     -3.331  0.9552E+02  0.9972E+02  0.2823E+03  0.2821E+03
     -3.279  0.7671E+02  0.7344E+02  0.2863E+03  0.2860E+03
     -3.227  0.6931E+02  0.7227E+02  0.2899E+03  0.2897E+03
     -3.175  0.6776E+02  0.6853E+02  0.2935E+03  0.2933E+03
     -3.122  0.7365E+02  0.6933E+02  0.2973E+03  0.2969E+03
     -3.070  0.7175E+02  0.6939E+02  0.3010E+03  0.3005E+03
     -3.018  0.7457E+02  0.8037E+02  0.3049E+03  0.3047E+03
     -2.966  0.6864E+02  0.6806E+02  0.3085E+03  0.3083E+03
     -2.914  0.1298E+03  0.1251E+03  0.3153E+03  0.3148E+03
     -2.861  0.7534E+02  0.7757E+02  0.3192E+03  0.3189E+03
     -2.809  0.8085E+02  0.7977E+02  0.3234E+03  0.3230E+03
     -2.757  0.1286E+03  0.1326E+03  0.3302E+03  0.3300E+03
     -2.705  0.9766E+02  0.9694E+02  0.3353E+03  0.3350E+03
     -2.653  0.1031E+03  0.1044E+03  0.3406E+03  0.3405E+03
     -2.600  0.8558E+02  0.8322E+02  0.3451E+03  0.3448E+03
     -2.548  0.1161E+03  0.1153E+03  0.3512E+03  0.3508E+03
     -2.496  0.1104E+03  0.1113E+03  0.3569E+03  0.3566E+03
     -2.444  0.1004E+03  0.1003E+03  0.3622E+03  0.3619E+03
     -2.392  0.8271E+02  0.8047E+02  0.3665E+03  0.3661E+03
     -2.339  0.1053E+03  0.1088E+03  0.3720E+03  0.3717E+03
     -2.287  0.1102E+03  0.1072E+03  0.3777E+03  0.3773E+03
     -2.235  0.8692E+02  0.9029E+02  0.3823E+03  0.3821E+03
     -2.183  0.3839E+02  0.4200E+02  0.3843E+03  0.3843E+03
     -2.131  0.2952E+02  0.2641E+02  0.3858E+03  0.3856E+03
     -2.078  0.7733E+02  0.7633E+02  0.3898E+03  0.3896E+03
     -2.026  0.8784E+02  0.8424E+02  0.3944E+03  0.3940E+03
     -1.974  0.7782E+02  0.7921E+02  0.3985E+03  0.3981E+03
     -1.922  0.9823E+02  0.9784E+02  0.4036E+03  0.4033E+03
     -1.870  0.9375E+02  0.9790E+02  0.4085E+03  0.4084E+03
     -1.817  0.4981E+02  0.4915E+02  0.4111E+03  0.4109E+03
     -1.765  0.1088E+03  0.1043E+03  0.4168E+03  0.4164E+03
     -1.713  0.9732E+02  0.1008E+03  0.4219E+03  0.4216E+03
     -1.661  0.9705E+02  0.9474E+02  0.4269E+03  0.4266E+03
     -1.609  0.6078E+02  0.6338E+02  0.4301E+03  0.4299E+03
     -1.557  0.1001E+03  0.9772E+02  0.4353E+03  0.4350E+03
     -1.504  0.5825E+02  0.6062E+02  0.4384E+03  0.4382E+03
     -1.452  0.5733E+02  0.5850E+02  0.4414E+03  0.4412E+03
     -1.400  0.5346E+02  0.5103E+02  0.4442E+03  0.4439E+03
     -1.348  0.7307E+02  0.7287E+02  0.4480E+03  0.4477E+03
     -1.296  0.4728E+02  0.5168E+02  0.4504E+03  0.4504E+03
     -1.243  0.5274E+02  0.4655E+02  0.4532E+03  0.4528E+03
     -1.191  0.6151E+02  0.6620E+02  0.4564E+03  0.4563E+03
     -1.139  0.5121E+02  0.5015E+02  0.4591E+03  0.4589E+03
     -1.087  0.4069E+02  0.4325E+02  0.4612E+03  0.4611E+03
     -1.035  0.5236E+02  0.5043E+02  0.4639E+03  0.4638E+03
     -0.982  0.5928E+02  0.6149E+02  0.4670E+03  0.4670E+03
     -0.930  0.2687E+02  0.2643E+02  0.4684E+03  0.4684E+03
     -0.878  0.5427E+02  0.4919E+02  0.4713E+03  0.4709E+03
     -0.826  0.7424E+02  0.7587E+02  0.4751E+03  0.4749E+03
     -0.774  0.6506E+02  0.6716E+02  0.4785E+03  0.4784E+03
     -0.721  0.3373E+02  0.3253E+02  0.4803E+03  0.4801E+03
     -0.669  0.8609E+02  0.8309E+02  0.4848E+03  0.4844E+03
     -0.617  0.5021E+02  0.5561E+02  0.4874E+03  0.4873E+03
     -0.565  0.2709E+02  0.2748E+02  0.4888E+03  0.4888E+03
     -0.513  0.2300E+02  0.2204E+02  0.4900E+03  0.4899E+03
     -0.460  0.2388E+02  0.2413E+02  0.4913E+03  0.4912E+03
     -0.408  0.3778E+02  0.3869E+02  0.4932E+03  0.4932E+03
     -0.356  0.3222E+02  0.3145E+02  0.4949E+03  0.4948E+03
     -0.304  0.7279E+02  0.7159E+02  0.4987E+03  0.4986E+03
     -0.252  0.8219E+02  0.8022E+02  0.5030E+03  0.5028E+03
     -0.199  0.7784E+02  0.7870E+02  0.5071E+03  0.5069E+03
     -0.147  0.1090E+03  0.1090E+03  0.5128E+03  0.5125E+03
     -0.095  0.9948E+02  0.9793E+02  0.5180E+03  0.5177E+03
     -0.043  0.1253E+03  0.1244E+03  0.5245E+03  0.5242E+03
      0.009  0.1079E+03  0.1088E+03  0.5301E+03  0.5298E+03
      0.062  0.1461E+03  0.1445E+03  0.5378E+03  0.5374E+03
      0.114  0.1250E+03  0.1233E+03  0.5443E+03  0.5438E+03
      0.166  0.1127E+03  0.1185E+03  0.5502E+03  0.5500E+03
      0.218  0.6708E+02  0.6637E+02  0.5537E+03  0.5535E+03
      0.270  0.8907E+02  0.8801E+02  0.5583E+03  0.5581E+03
      0.323  0.9476E+02  0.9504E+02  0.5633E+03  0.5630E+03
      0.375  0.7796E+02  0.7735E+02  0.5673E+03  0.5670E+03
      0.427  0.1193E+03  0.1193E+03  0.5736E+03  0.5733E+03
      0.479  0.7789E+02  0.7982E+02  0.5776E+03  0.5774E+03
      0.531  0.9233E+02  0.8998E+02  0.5824E+03  0.5821E+03
      0.584  0.1317E+03  0.1325E+03  0.5893E+03  0.5891E+03
      0.636  0.1177E+03  0.1177E+03  0.5955E+03  0.5952E+03
      0.688  0.1476E+03  0.1432E+03  0.6032E+03  0.6027E+03
      0.740  0.1363E+03  0.1422E+03  0.6103E+03  0.6101E+03
      0.792  0.1228E+03  0.1201E+03  0.6167E+03  0.6164E+03
      0.845  0.1036E+03  0.1070E+03  0.6221E+03  0.6219E+03
      0.897  0.1048E+03  0.1013E+03  0.6276E+03  0.6272E+03
      0.949  0.1080E+03  0.1103E+03  0.6332E+03  0.6330E+03
      1.001  0.1291E+03  0.1281E+03  0.6399E+03  0.6397E+03
      1.053  0.1174E+03  0.1127E+03  0.6461E+03  0.6456E+03
      1.106  0.1808E+03  0.1816E+03  0.6555E+03  0.6550E+03
      1.158  0.1717E+03  0.1722E+03  0.6645E+03  0.6640E+03
      1.210  0.1723E+03  0.1716E+03  0.6735E+03  0.6730E+03
      1.262  0.1875E+03  0.1879E+03  0.6833E+03  0.6828E+03
      1.314  0.1836E+03  0.1810E+03  0.6928E+03  0.6922E+03
      1.366  0.1813E+03  0.1838E+03  0.7023E+03  0.7018E+03
      1.419  0.1447E+03  0.1465E+03  0.7099E+03  0.7095E+03
      1.471  0.1408E+03  0.1374E+03  0.7172E+03  0.7167E+03
      1.523  0.2206E+03  0.2207E+03  0.7287E+03  0.7282E+03
      1.575  0.1879E+03  0.1889E+03  0.7385E+03  0.7380E+03
      1.627  0.1842E+03  0.1831E+03  0.7481E+03  0.7476E+03
      1.680  0.1837E+03  0.1832E+03  0.7577E+03  0.7571E+03
      1.732  0.1892E+03  0.1904E+03  0.7676E+03  0.7671E+03
      1.784  0.1861E+03  0.1897E+03  0.7773E+03  0.7770E+03
      1.836  0.1692E+03  0.1653E+03  0.7862E+03  0.7856E+03
      1.888  0.1445E+03  0.1457E+03  0.7937E+03  0.7932E+03
      1.941  0.2138E+03  0.2103E+03  0.8049E+03  0.8042E+03
      1.993  0.1817E+03  0.1859E+03  0.8143E+03  0.8139E+03
      2.045  0.1671E+03  0.1637E+03  0.8231E+03  0.8224E+03
      2.097  0.1882E+03  0.1860E+03  0.8329E+03  0.8322E+03
      2.149  0.1959E+03  0.1966E+03  0.8431E+03  0.8424E+03
      2.202  0.1594E+03  0.1651E+03  0.8514E+03  0.8510E+03
      2.254  0.1572E+03  0.1539E+03  0.8596E+03  0.8591E+03
      2.306  0.1576E+03  0.1586E+03  0.8679E+03  0.8673E+03
      2.358  0.1594E+03  0.1573E+03  0.8762E+03  0.8756E+03
      2.410  0.2094E+03  0.2093E+03  0.8871E+03  0.8865E+03
      2.463  0.1356E+03  0.1399E+03  0.8942E+03  0.8938E+03
      2.515  0.1451E+03  0.1454E+03  0.9018E+03  0.9014E+03
      2.567  0.1318E+03  0.1295E+03  0.9086E+03  0.9081E+03
      2.619  0.1375E+03  0.1378E+03  0.9158E+03  0.9153E+03
      2.671  0.1254E+03  0.1252E+03  0.9224E+03  0.9219E+03
      2.724  0.1357E+03  0.1327E+03  0.9294E+03  0.9288E+03
      2.776  0.1637E+03  0.1660E+03  0.9380E+03  0.9374E+03
      2.828  0.1404E+03  0.1363E+03  0.9453E+03  0.9446E+03
      2.880  0.1441E+03  0.1462E+03  0.9528E+03  0.9522E+03
      2.932  0.1197E+03  0.1247E+03  0.9591E+03  0.9587E+03
      2.985  0.1159E+03  0.1125E+03  0.9651E+03  0.9646E+03
      3.037  0.1539E+03  0.1537E+03  0.9732E+03  0.9726E+03
      3.089  0.1065E+03  0.1076E+03  0.9787E+03  0.9782E+03
      3.141  0.1083E+03  0.1027E+03  0.9844E+03  0.9836E+03
      3.193  0.1127E+03  0.1169E+03  0.9903E+03  0.9897E+03
      3.246  0.1117E+03  0.1112E+03  0.9961E+03  0.9955E+03
      3.298  0.1162E+03  0.1120E+03  0.1002E+04  0.1001E+04
      3.350  0.1088E+03  0.1081E+03  0.1008E+04  0.1007E+04
      3.402  0.6646E+02  0.7633E+02  0.1011E+04  0.1011E+04
      3.454  0.8029E+02  0.7593E+02  0.1015E+04  0.1015E+04
      3.507  0.1089E+03  0.1101E+03  0.1021E+04  0.1021E+04
      3.559  0.8294E+02  0.8405E+02  0.1026E+04  0.1025E+04
      3.611  0.1064E+03  0.1054E+03  0.1031E+04  0.1031E+04
      3.663  0.5373E+02  0.5452E+02  0.1034E+04  0.1033E+04
      3.715  0.6612E+02  0.7012E+02  0.1037E+04  0.1037E+04
      3.768  0.4145E+02  0.3604E+02  0.1039E+04  0.1039E+04
      3.820  0.4753E+02  0.5193E+02  0.1042E+04  0.1042E+04
      3.872  0.3811E+02  0.4151E+02  0.1044E+04  0.1044E+04
      3.924  0.4456E+02  0.4094E+02  0.1046E+04  0.1046E+04
      3.976  0.7165E+02  0.6948E+02  0.1050E+04  0.1050E+04
      4.029  0.8181E+02  0.7290E+02  0.1054E+04  0.1053E+04
      4.081  0.1251E+03  0.1185E+03  0.1061E+04  0.1060E+04
      4.133  0.9478E+02  0.1047E+03  0.1066E+04  0.1065E+04
      4.185  0.8923E+02  0.8783E+02  0.1070E+04  0.1070E+04
      4.237  0.8894E+02  0.8263E+02  0.1075E+04  0.1074E+04
      4.289  0.9449E+02  0.1028E+03  0.1080E+04  0.1079E+04
      4.342  0.1104E+03  0.1071E+03  0.1086E+04  0.1085E+04
      4.394  0.1305E+03  0.1341E+03  0.1093E+04  0.1092E+04
      4.446  0.1170E+03  0.1151E+03  0.1099E+04  0.1098E+04
      4.498  0.1276E+03  0.1279E+03  0.1105E+04  0.1105E+04
      4.550  0.9189E+02  0.9543E+02  0.1110E+04  0.1110E+04
      4.603  0.9137E+02  0.8564E+02  0.1115E+04  0.1114E+04
      4.655  0.1111E+03  0.1131E+03  0.1121E+04  0.1120E+04
      4.707  0.1170E+03  0.1154E+03  0.1127E+04  0.1126E+04
      4.759  0.1243E+03  0.1286E+03  0.1133E+04  0.1133E+04
      4.811  0.1046E+03  0.1036E+03  0.1139E+04  0.1138E+04
      4.864  0.1283E+03  0.1279E+03  0.1145E+04  0.1145E+04
      4.916  0.1199E+03  0.1198E+03  0.1152E+04  0.1151E+04
      4.968  0.1146E+03  0.1126E+03  0.1158E+04  0.1157E+04
      5.020  0.1197E+03  0.1220E+03  0.1164E+04  0.1163E+04
      5.072  0.1454E+03  0.1456E+03  0.1172E+04  0.1171E+04
      5.125  0.1059E+03  0.1065E+03  0.1177E+04  0.1176E+04
      5.177  0.1119E+03  0.1147E+03  0.1183E+04  0.1182E+04
      5.229  0.1101E+03  0.1085E+03  0.1189E+04  0.1188E+04
      5.281  0.1016E+03  0.1021E+03  0.1194E+04  0.1193E+04
      5.333  0.1155E+03  0.1127E+03  0.1200E+04  0.1199E+04
      5.386  0.1097E+03  0.1113E+03  0.1206E+04  0.1205E+04
      5.438  0.1416E+03  0.1429E+03  0.1213E+04  0.1213E+04
      5.490  0.1520E+03  0.1476E+03  0.1221E+04  0.1220E+04
      5.542  0.1594E+03  0.1613E+03  0.1229E+04  0.1229E+04
      5.594  0.1417E+03  0.1433E+03  0.1237E+04  0.1236E+04
      5.647  0.1187E+03  0.1218E+03  0.1243E+04  0.1242E+04
      5.699  0.1108E+03  0.1086E+03  0.1249E+04  0.1248E+04
      5.751  0.1179E+03  0.1226E+03  0.1255E+04  0.1255E+04
      5.803  0.1268E+03  0.1213E+03  0.1261E+04  0.1261E+04
      5.855  0.1164E+03  0.1209E+03  0.1268E+04  0.1267E+04
      5.908  0.7588E+02  0.8220E+02  0.1272E+04  0.1271E+04
      5.960  0.8983E+01  0.9727E+01  0.1272E+04  0.1272E+04
      6.012  0.0000E+00  0.0000E+00  0.1272E+04  0.1272E+04
      6.064  0.0000E+00  0.0000E+00  0.1272E+04  0.1272E+04
      6.116  0.0000E+00  0.0000E+00  0.1272E+04  0.1272E+04
      6.169  0.0000E+00  0.0000E+00  0.1272E+04  0.1272E+04
      6.221  0.0000E+00  0.0000E+00  0.1272E+04  0.1272E+04
      6.273  0.0000E+00  0.0000E+00  0.1272E+04  0.1272E+04
      6.325  0.0000E+00  0.0000E+00  0.1272E+04  0.1272E+04
      6.377  0.0000E+00  0.0000E+00  0.1272E+04  0.1272E+04
      6.430  0.0000E+00  0.0000E+00  0.1272E+04  0.1272E+04
      6.482  0.0000E+00  0.0000E+00  0.1272E+04  0.1272E+04
      6.534  0.0000E+00  0.0000E+00  0.1272E+04  0.1272E+04
      6.586  0.0000E+00  0.0000E+00  0.1272E+04  0.1272E+04
      6.638  0.0000E+00  0.0000E+00  0.1272E+04  0.1272E+04
