 120 120   0   0
  0.1383406E+02  0.1330318E-08  0.1629300E-08  0.8390060E-09  0.5000000E-15
  1.000000000000000E-004
  CAR 
 Si and Ge interface calculation         
      7.18664074    -15.24179570  301      3.81880077      1.00000000
    -15.242  0.0000E+00  0.0000E+00  0.0000E+00  0.0000E+00
    -15.167  0.0000E+00  0.0000E+00  0.0000E+00  0.0000E+00
    -15.092  0.0000E+00  0.0000E+00  0.0000E+00  0.0000E+00
    -15.018  0.0000E+00  0.0000E+00  0.0000E+00  0.0000E+00
    -14.943  0.0000E+00  0.0000E+00  0.0000E+00  0.0000E+00
    -14.868  0.0000E+00  0.0000E+00  0.0000E+00  0.0000E+00
    -14.793  0.0000E+00  0.0000E+00  0.0000E+00  0.0000E+00
    -14.718  0.0000E+00  0.0000E+00  0.0000E+00  0.0000E+00
    -14.644  0.0000E+00  0.0000E+00  0.0000E+00  0.0000E+00
    -14.569  0.0000E+00  0.0000E+00  0.0000E+00  0.0000E+00
    -14.494  0.0000E+00  0.0000E+00  0.0000E+00  0.0000E+00
    -14.419  0.0000E+00  0.0000E+00  0.0000E+00  0.0000E+00
    -14.345  0.0000E+00  0.0000E+00  0.0000E+00  0.0000E+00
    -14.270  0.2950E-10  0.5321E-14  0.2205E-11  0.3978E-15
    -14.195  0.4458E+01  0.4441E+01  0.3333E+00  0.3320E+00
    -14.120  0.1220E+02  0.9724E+01  0.1245E+01  0.1060E+01
    -14.046  0.1455E+02  0.1683E+02  0.2333E+01  0.2333E+01
    -13.971  0.6842E-01  0.1590E-02  0.2338E+01  0.2333E+01
    -13.896  0.2628E+02  0.2406E+02  0.4303E+01  0.4132E+01
    -13.821  0.8916E+01  0.1151E+02  0.5000E+01  0.4993E+01
    -13.747  0.1578E+02  0.1268E+02  0.6180E+01  0.5948E+01
    -13.672  0.2121E+01  0.3653E+01  0.6351E+01  0.6334E+01
    -13.597  0.1759E+02  0.1781E+02  0.7667E+01  0.7666E+01
    -13.522  0.1837E+02  0.1784E+02  0.9040E+01  0.9001E+01
    -13.448  0.8377E+01  0.8888E+01  0.9667E+01  0.9667E+01
    -13.373  0.9468E+01  0.2896E+01  0.1037E+02  0.9883E+01
    -13.298  0.8483E+01  0.1494E+02  0.1101E+02  0.1100E+02
    -13.223  0.2524E+02  0.2315E+02  0.1290E+02  0.1273E+02
    -13.148  0.1688E+02  0.1658E+02  0.1416E+02  0.1397E+02
    -13.074  0.1120E+02  0.1275E+02  0.1500E+02  0.1500E+02
    -12.999  0.2220E+02  0.2103E+02  0.1666E+02  0.1657E+02
    -12.924  0.8128E+01  0.4944E+01  0.1727E+02  0.1704E+02
    -12.849  0.8917E+01  0.1288E+02  0.1800E+02  0.1800E+02
    -12.775  0.8773E+01  0.7297E+01  0.1866E+02  0.1855E+02
    -12.700  0.1693E+02  0.1527E+02  0.1994E+02  0.1981E+02
    -12.625  0.1611E+00  0.2565E+01  0.2001E+02  0.2000E+02
    -12.550  0.3541E+02  0.3423E+02  0.2266E+02  0.2256E+02
    -12.476  0.8914E+01  0.8551E+01  0.2333E+02  0.2331E+02
    -12.401  0.8896E+01  0.8917E+01  0.2400E+02  0.2400E+02
    -12.326  0.4451E+01  0.4319E+01  0.2433E+02  0.2432E+02
    -12.251  0.8912E+01  0.8795E+01  0.2500E+02  0.2499E+02
    -12.177  0.1640E-05  0.5875E-08  0.2500E+02  0.2500E+02
    -12.102  0.1262E+02  0.1080E+02  0.2594E+02  0.2581E+02
    -12.027  0.2084E+02  0.2209E+02  0.2757E+02  0.2746E+02
    -11.952  0.5799E+01  0.7227E+01  0.2800E+02  0.2800E+02
    -11.878  0.3406E-12  0.2475E-15  0.2800E+02  0.2800E+02
    -11.803  0.4455E+01  0.4405E+01  0.2833E+02  0.2833E+02
    -11.728  0.8400E+01  0.6611E+01  0.2896E+02  0.2883E+02
    -11.653  0.0000E+00  0.2307E+01  0.2900E+02  0.2900E+02
    -11.578  0.5129E-01  0.3241E-02  0.2900E+02  0.2900E+02
    -11.504  0.1368E+02  0.1343E+02  0.3003E+02  0.3000E+02
    -11.429  0.3977E+02  0.3949E+02  0.3300E+02  0.3296E+02
    -11.354  0.1968E+02  0.1583E+02  0.3447E+02  0.3418E+02
    -11.279  0.1596E+02  0.1982E+02  0.3567E+02  0.3567E+02
    -11.205  0.1255E+02  0.1025E+02  0.3661E+02  0.3643E+02
    -11.130  0.4459E+01  0.7562E+01  0.3700E+02  0.3700E+02
    -11.055  0.8715E+01  0.7479E+01  0.3765E+02  0.3756E+02
    -10.980  0.1783E+02  0.1774E+02  0.3900E+02  0.3899E+02
    -10.906  0.9387E+01  0.8676E+01  0.3970E+02  0.3965E+02
    -10.831  0.1735E+02  0.1776E+02  0.4100E+02  0.4100E+02
    -10.756  0.8954E+01  0.8918E+01  0.4167E+02  0.4167E+02
    -10.681  0.1780E+02  0.1777E+02  0.4300E+02  0.4299E+02
    -10.607  0.5217E+00  0.5114E-01  0.4304E+02  0.4300E+02
    -10.532  0.1731E+02  0.1776E+02  0.4433E+02  0.4433E+02
    -10.457  0.8389E+01  0.5622E+01  0.4496E+02  0.4475E+02
    -10.382  0.8847E+01  0.1142E+02  0.4566E+02  0.4561E+02
    -10.308  0.8905E-04  0.9523E-07  0.4567E+02  0.4567E+02
    -10.233  0.4459E+01  0.4459E+01  0.4600E+02  0.4600E+02
    -10.158  0.7523E+01  0.5326E+01  0.4656E+02  0.4640E+02
    -10.083  0.3193E+02  0.3102E+02  0.4895E+02  0.4872E+02
    -10.008  0.4458E+01  0.7351E+01  0.4933E+02  0.4933E+02
     -9.934  0.1738E+02  0.1291E+02  0.5063E+02  0.5030E+02
     -9.859  0.1817E+02  0.1889E+02  0.5205E+02  0.5172E+02
     -9.784  0.3055E+02  0.3439E+02  0.5434E+02  0.5429E+02
     -9.709  0.2211E+02  0.2040E+02  0.5599E+02  0.5586E+02
     -9.635  0.9602E+01  0.7611E+01  0.5672E+02  0.5650E+02
     -9.560  0.3040E+02  0.3227E+02  0.5900E+02  0.5895E+02
     -9.485  0.1705E+02  0.1256E+02  0.6028E+02  0.5994E+02
     -9.410  0.1884E+02  0.1675E+02  0.6174E+02  0.6119E+02
     -9.336  0.3309E+01  0.9297E+01  0.6201E+02  0.6200E+02
     -9.261  0.2743E+02  0.2650E+02  0.6406E+02  0.6398E+02
     -9.186  0.3198E+02  0.2599E+02  0.6645E+02  0.6595E+02
     -9.111  0.2080E+02  0.2455E+02  0.6801E+02  0.6787E+02
     -9.037  0.3251E+02  0.3092E+02  0.7045E+02  0.7020E+02
     -8.962  0.9014E+01  0.6977E+01  0.7116E+02  0.7079E+02
     -8.887  0.6843E+01  0.1170E+02  0.7167E+02  0.7167E+02
     -8.812  0.2229E+02  0.2225E+02  0.7333E+02  0.7333E+02
     -8.738  0.1706E+02  0.1501E+02  0.7461E+02  0.7446E+02
     -8.663  0.3024E+02  0.2952E+02  0.7687E+02  0.7673E+02
     -8.588  0.2198E+02  0.2111E+02  0.7854E+02  0.7834E+02
     -8.513  0.1936E+02  0.2160E+02  0.8000E+02  0.7999E+02
     -8.439  0.2567E+01  0.4148E+00  0.8019E+02  0.8003E+02
     -8.364  0.1377E+02  0.1386E+02  0.8122E+02  0.8107E+02
     -8.289  0.1055E+02  0.1248E+02  0.8201E+02  0.8200E+02
     -8.214  0.4329E+01  0.4456E+01  0.8233E+02  0.8233E+02
     -8.139  0.2275E-03  0.6394E-06  0.8233E+02  0.8233E+02
     -8.065  0.8917E+01  0.8917E+01  0.8300E+02  0.8300E+02
     -7.990  0.0000E+00  0.0000E+00  0.8300E+02  0.8300E+02
     -7.915  0.1690E-11  0.1238E-15  0.8300E+02  0.8300E+02
     -7.840  0.1327E+02  0.1239E+02  0.8399E+02  0.8393E+02
     -7.766  0.0000E+00  0.0000E+00  0.8400E+02  0.8400E+02
     -7.691  0.2901E+01  0.1470E+01  0.8422E+02  0.8411E+02
     -7.616  0.6288E+01  0.7475E+01  0.8470E+02  0.8467E+02
     -7.541  0.4039E+01  0.4431E+01  0.8500E+02  0.8500E+02
     -7.467  0.5844E+01  0.2359E+01  0.8544E+02  0.8518E+02
     -7.392  0.2518E+02  0.2845E+02  0.8733E+02  0.8730E+02
     -7.317  0.1283E-02  0.3435E-05  0.8733E+02  0.8733E+02
     -7.242  0.1099E+02  0.7358E+01  0.8816E+02  0.8788E+02
     -7.168  0.2184E+01  0.6017E+01  0.8833E+02  0.8833E+02
     -7.093  0.4413E+01  0.4149E+01  0.8866E+02  0.8864E+02
     -7.018  0.1959E+00  0.2830E+00  0.8868E+02  0.8867E+02
     -6.943  0.8757E+01  0.8911E+01  0.8934E+02  0.8933E+02
     -6.869  0.6709E+01  0.6366E+01  0.8984E+02  0.8981E+02
     -6.794  0.2025E+02  0.1884E+02  0.9135E+02  0.9122E+02
     -6.719  0.2476E+02  0.2206E+02  0.9321E+02  0.9288E+02
     -6.644  0.2467E+02  0.2554E+02  0.9507E+02  0.9482E+02
     -6.569  0.3569E+02  0.3786E+02  0.9779E+02  0.9766E+02
     -6.495  0.2347E+02  0.1941E+02  0.9955E+02  0.9913E+02
     -6.420  0.2966E+02  0.3164E+02  0.1018E+03  0.1015E+03
     -6.345  0.2572E+02  0.2535E+02  0.1037E+03  0.1034E+03
     -6.270  0.2677E+02  0.2951E+02  0.1058E+03  0.1057E+03
     -6.196  0.2130E+02  0.1987E+02  0.1073E+03  0.1072E+03
     -6.121  0.2866E+02  0.2707E+02  0.1095E+03  0.1093E+03
     -6.046  0.2595E+02  0.2339E+02  0.1115E+03  0.1111E+03
     -5.971  0.2795E+02  0.2786E+02  0.1136E+03  0.1131E+03
     -5.897  0.3623E+02  0.4079E+02  0.1163E+03  0.1162E+03
     -5.822  0.3003E+02  0.2992E+02  0.1186E+03  0.1185E+03
     -5.747  0.3028E+02  0.2911E+02  0.1208E+03  0.1207E+03
     -5.672  0.2756E+02  0.2668E+02  0.1229E+03  0.1227E+03
     -5.598  0.3148E+02  0.3106E+02  0.1253E+03  0.1250E+03
     -5.523  0.2100E+02  0.2229E+02  0.1269E+03  0.1268E+03
     -5.448  0.2264E+02  0.2122E+02  0.1286E+03  0.1284E+03
     -5.373  0.2075E+02  0.1962E+02  0.1301E+03  0.1299E+03
     -5.299  0.4523E+02  0.4453E+02  0.1335E+03  0.1332E+03
     -5.224  0.3507E+02  0.3621E+02  0.1362E+03  0.1360E+03
     -5.149  0.2207E+02  0.1986E+02  0.1378E+03  0.1375E+03
     -5.074  0.2927E+02  0.3027E+02  0.1400E+03  0.1398E+03
     -4.999  0.3393E+02  0.3296E+02  0.1426E+03  0.1423E+03
     -4.925  0.2867E+02  0.3084E+02  0.1448E+03  0.1446E+03
     -4.850  0.3616E+02  0.3237E+02  0.1475E+03  0.1471E+03
     -4.775  0.3686E+02  0.3564E+02  0.1503E+03  0.1498E+03
     -4.700  0.2342E+02  0.2729E+02  0.1522E+03  0.1519E+03
     -4.626  0.2424E+02  0.2389E+02  0.1540E+03  0.1537E+03
     -4.551  0.2920E+02  0.2931E+02  0.1562E+03  0.1559E+03
     -4.476  0.3956E+02  0.4092E+02  0.1591E+03  0.1590E+03
     -4.401  0.3183E+02  0.2864E+02  0.1615E+03  0.1612E+03
     -4.327  0.2267E+02  0.2407E+02  0.1633E+03  0.1631E+03
     -4.252  0.1847E+02  0.1637E+02  0.1647E+03  0.1643E+03
     -4.177  0.2781E+02  0.2890E+02  0.1668E+03  0.1665E+03
     -4.102  0.2055E+02  0.1820E+02  0.1683E+03  0.1679E+03
     -4.028  0.1809E+02  0.1947E+02  0.1697E+03  0.1694E+03
     -3.953  0.4130E+02  0.3827E+02  0.1728E+03  0.1723E+03
     -3.878  0.2765E+02  0.3242E+02  0.1749E+03  0.1747E+03
     -3.803  0.2832E+02  0.2651E+02  0.1770E+03  0.1767E+03
     -3.729  0.2922E+02  0.2916E+02  0.1793E+03  0.1789E+03
     -3.654  0.4490E+02  0.4718E+02  0.1826E+03  0.1825E+03
     -3.579  0.2547E+02  0.2452E+02  0.1846E+03  0.1843E+03
     -3.504  0.3385E+02  0.3401E+02  0.1871E+03  0.1868E+03
     -3.429  0.2225E+02  0.2146E+02  0.1888E+03  0.1885E+03
     -3.355  0.2802E+02  0.3083E+02  0.1909E+03  0.1908E+03
     -3.280  0.2707E+02  0.2585E+02  0.1930E+03  0.1927E+03
     -3.205  0.1963E+02  0.2219E+02  0.1945E+03  0.1944E+03
     -3.130  0.2263E+02  0.2098E+02  0.1961E+03  0.1960E+03
     -3.056  0.2064E+02  0.2122E+02  0.1977E+03  0.1976E+03
     -2.981  0.2355E+02  0.2183E+02  0.1995E+03  0.1992E+03
     -2.906  0.1882E+02  0.1667E+02  0.2009E+03  0.2005E+03
     -2.831  0.3559E+02  0.3463E+02  0.2036E+03  0.2031E+03
     -2.757  0.3482E+02  0.3820E+02  0.2063E+03  0.2060E+03
     -2.682  0.3745E+02  0.3743E+02  0.2091E+03  0.2088E+03
     -2.607  0.3862E+02  0.4040E+02  0.2120E+03  0.2119E+03
     -2.532  0.3722E+02  0.3441E+02  0.2148E+03  0.2144E+03
     -2.458  0.3797E+02  0.3491E+02  0.2177E+03  0.2171E+03
     -2.383  0.3520E+02  0.3939E+02  0.2204E+03  0.2200E+03
     -2.308  0.3070E+02  0.3164E+02  0.2227E+03  0.2225E+03
     -2.233  0.3390E+02  0.3286E+02  0.2253E+03  0.2249E+03
     -2.159  0.3316E+02  0.3484E+02  0.2277E+03  0.2275E+03
     -2.084  0.2358E+02  0.2473E+02  0.2296E+03  0.2294E+03
     -2.009  0.3761E+02  0.3362E+02  0.2324E+03  0.2319E+03
     -1.934  0.2972E+02  0.2955E+02  0.2346E+03  0.2342E+03
     -1.859  0.3582E+02  0.3568E+02  0.2373E+03  0.2369E+03
     -1.785  0.4073E+02  0.4186E+02  0.2405E+03  0.2401E+03
     -1.710  0.4605E+02  0.4579E+02  0.2439E+03  0.2435E+03
     -1.635  0.3934E+02  0.4007E+02  0.2470E+03  0.2465E+03
     -1.560  0.4948E+02  0.5116E+02  0.2507E+03  0.2504E+03
     -1.486  0.3648E+02  0.3566E+02  0.2535E+03  0.2531E+03
     -1.411  0.4424E+02  0.4441E+02  0.2568E+03  0.2565E+03
     -1.336  0.4820E+02  0.4748E+02  0.2604E+03  0.2601E+03
     -1.261  0.2730E+02  0.3136E+02  0.2625E+03  0.2624E+03
     -1.187  0.4305E+02  0.3736E+02  0.2657E+03  0.2652E+03
     -1.112  0.3069E+02  0.3412E+02  0.2681E+03  0.2678E+03
     -1.037  0.3749E+02  0.3867E+02  0.2709E+03  0.2707E+03
     -0.962  0.3335E+02  0.3062E+02  0.2735E+03  0.2730E+03
     -0.888  0.2931E+02  0.3190E+02  0.2757E+03  0.2755E+03
     -0.813  0.3853E+02  0.3740E+02  0.2787E+03  0.2783E+03
     -0.738  0.3254E+02  0.3020E+02  0.2811E+03  0.2806E+03
     -0.663  0.3832E+02  0.3944E+02  0.2841E+03  0.2836E+03
     -0.589  0.3500E+02  0.3842E+02  0.2868E+03  0.2865E+03
     -0.514  0.3158E+02  0.3141E+02  0.2891E+03  0.2889E+03
     -0.439  0.3211E+02  0.3272E+02  0.2915E+03  0.2913E+03
     -0.364  0.2386E+02  0.2229E+02  0.2934E+03  0.2930E+03
     -0.290  0.3363E+02  0.3390E+02  0.2959E+03  0.2956E+03
     -0.215  0.3569E+02  0.3686E+02  0.2986E+03  0.2983E+03
     -0.140  0.3898E+02  0.3686E+02  0.3015E+03  0.3012E+03
     -0.065  0.2502E+02  0.2715E+02  0.3034E+03  0.3032E+03
      0.010  0.3985E+02  0.3581E+02  0.3064E+03  0.3059E+03
      0.084  0.4560E+02  0.4764E+02  0.3098E+03  0.3095E+03
      0.159  0.3987E+02  0.3625E+02  0.3128E+03  0.3123E+03
      0.234  0.3683E+02  0.3868E+02  0.3156E+03  0.3152E+03
      0.309  0.5091E+02  0.5354E+02  0.3195E+03  0.3192E+03
      0.383  0.2872E+02  0.2524E+02  0.3217E+03  0.3212E+03
      0.458  0.3255E+02  0.3302E+02  0.3242E+03  0.3237E+03
      0.533  0.4616E+02  0.4523E+02  0.3277E+03  0.3271E+03
      0.608  0.4283E+02  0.4179E+02  0.3309E+03  0.3303E+03
      0.682  0.3328E+02  0.4075E+02  0.3335E+03  0.3333E+03
      0.757  0.4292E+02  0.3846E+02  0.3367E+03  0.3363E+03
      0.832  0.4019E+02  0.4273E+02  0.3397E+03  0.3395E+03
      0.907  0.5273E+02  0.4849E+02  0.3437E+03  0.3431E+03
      0.981  0.2589E+02  0.2739E+02  0.3457E+03  0.3452E+03
      1.056  0.4777E+02  0.4391E+02  0.3493E+03  0.3485E+03
      1.131  0.3600E+02  0.4247E+02  0.3520E+03  0.3517E+03
      1.206  0.4442E+02  0.4349E+02  0.3553E+03  0.3549E+03
      1.280  0.4804E+02  0.4370E+02  0.3590E+03  0.3583E+03
      1.355  0.4508E+02  0.5143E+02  0.3625E+03  0.3622E+03
      1.430  0.4939E+02  0.4764E+02  0.3662E+03  0.3657E+03
      1.505  0.4077E+02  0.4139E+02  0.3693E+03  0.3689E+03
      1.580  0.4082E+02  0.3992E+02  0.3724E+03  0.3719E+03
      1.654  0.3862E+02  0.3819E+02  0.3753E+03  0.3748E+03
      1.729  0.5060E+02  0.4814E+02  0.3791E+03  0.3784E+03
      1.804  0.4495E+02  0.4722E+02  0.3825E+03  0.3820E+03
      1.879  0.5052E+02  0.4914E+02  0.3863E+03  0.3857E+03
      1.953  0.5236E+02  0.4689E+02  0.3903E+03  0.3893E+03
      2.028  0.3802E+02  0.4354E+02  0.3932E+03  0.3926E+03
      2.103  0.4696E+02  0.4541E+02  0.3968E+03  0.3960E+03
      2.178  0.4286E+02  0.4689E+02  0.4000E+03  0.3996E+03
      2.252  0.4169E+02  0.3768E+02  0.4032E+03  0.4024E+03
      2.327  0.4900E+02  0.4882E+02  0.4069E+03  0.4061E+03
      2.402  0.4781E+02  0.4806E+02  0.4105E+03  0.4098E+03
      2.477  0.4407E+02  0.4886E+02  0.4139E+03  0.4135E+03
      2.551  0.5100E+02  0.5029E+02  0.4177E+03  0.4173E+03
      2.626  0.4970E+02  0.4686E+02  0.4214E+03  0.4208E+03
      2.701  0.5432E+02  0.5235E+02  0.4256E+03  0.4248E+03
      2.776  0.4758E+02  0.5195E+02  0.4292E+03  0.4287E+03
      2.850  0.5540E+02  0.4611E+02  0.4333E+03  0.4322E+03
      2.925  0.5508E+02  0.5618E+02  0.4375E+03  0.4364E+03
      3.000  0.4264E+02  0.4827E+02  0.4408E+03  0.4401E+03
      3.075  0.4055E+02  0.3487E+02  0.4439E+03  0.4428E+03
      3.150  0.4917E+02  0.5250E+02  0.4476E+03  0.4468E+03
      3.224  0.4483E+02  0.4754E+02  0.4510E+03  0.4504E+03
      3.299  0.3024E+02  0.3451E+02  0.4533E+03  0.4530E+03
      3.374  0.5414E+02  0.5115E+02  0.4574E+03  0.4569E+03
      3.449  0.4687E+02  0.4271E+02  0.4609E+03  0.4601E+03
      3.523  0.4054E+02  0.4144E+02  0.4640E+03  0.4632E+03
      3.598  0.5744E+02  0.5296E+02  0.4683E+03  0.4672E+03
      3.673  0.5363E+02  0.5100E+02  0.4724E+03  0.4711E+03
      3.748  0.6254E+02  0.6452E+02  0.4771E+03  0.4759E+03
      3.822  0.3782E+02  0.4144E+02  0.4800E+03  0.4791E+03
      3.897  0.3934E+02  0.4480E+02  0.4830E+03  0.4825E+03
      3.972  0.5111E+02  0.4153E+02  0.4869E+03  0.4857E+03
      4.047  0.5221E+02  0.5041E+02  0.4908E+03  0.4895E+03
      4.121  0.4408E+02  0.4882E+02  0.4942E+03  0.4931E+03
      4.196  0.3648E+02  0.4149E+02  0.4969E+03  0.4963E+03
      4.271  0.4655E+02  0.4117E+02  0.5004E+03  0.4994E+03
      4.346  0.5320E+02  0.5681E+02  0.5045E+03  0.5037E+03
      4.420  0.3598E+02  0.3733E+02  0.5072E+03  0.5065E+03
      4.495  0.4545E+02  0.3876E+02  0.5106E+03  0.5094E+03
      4.570  0.3798E+02  0.4389E+02  0.5135E+03  0.5127E+03
      4.645  0.5419E+02  0.4672E+02  0.5176E+03  0.5162E+03
      4.720  0.4678E+02  0.5772E+02  0.5211E+03  0.5206E+03
      4.794  0.4318E+02  0.4055E+02  0.5244E+03  0.5236E+03
      4.869  0.4767E+02  0.4657E+02  0.5279E+03  0.5271E+03
      4.944  0.3703E+02  0.4081E+02  0.5307E+03  0.5302E+03
      5.019  0.4892E+02  0.4049E+02  0.5344E+03  0.5333E+03
      5.093  0.4867E+02  0.4768E+02  0.5381E+03  0.5370E+03
      5.168  0.3809E+02  0.4364E+02  0.5410E+03  0.5403E+03
      5.243  0.4074E+02  0.3520E+02  0.5441E+03  0.5429E+03
      5.318  0.3501E+02  0.3947E+02  0.5468E+03  0.5459E+03
      5.392  0.3536E+02  0.4221E+02  0.5495E+03  0.5491E+03
      5.467  0.3376E+02  0.2976E+02  0.5520E+03  0.5513E+03
      5.542  0.2674E+02  0.2690E+02  0.5540E+03  0.5534E+03
      5.617  0.2219E+02  0.2654E+02  0.5557E+03  0.5554E+03
      5.691  0.4464E+02  0.4215E+02  0.5591E+03  0.5586E+03
      5.766  0.3738E+02  0.3763E+02  0.5619E+03  0.5614E+03
      5.841  0.5228E+02  0.4913E+02  0.5658E+03  0.5651E+03
      5.916  0.3899E+02  0.4321E+02  0.5687E+03  0.5683E+03
      5.990  0.4028E+02  0.3000E+02  0.5717E+03  0.5706E+03
      6.065  0.3574E+02  0.4155E+02  0.5745E+03  0.5738E+03
      6.140  0.1694E+02  0.2604E+02  0.5758E+03  0.5757E+03
      6.215  0.3138E+01  0.2922E+01  0.5760E+03  0.5760E+03
      6.290  0.0000E+00  0.0000E+00  0.5760E+03  0.5760E+03
      6.364  0.0000E+00  0.0000E+00  0.5760E+03  0.5760E+03
      6.439  0.0000E+00  0.0000E+00  0.5760E+03  0.5760E+03
      6.514  0.0000E+00  0.0000E+00  0.5760E+03  0.5760E+03
      6.589  0.0000E+00  0.0000E+00  0.5760E+03  0.5760E+03
      6.663  0.0000E+00  0.0000E+00  0.5760E+03  0.5760E+03
      6.738  0.0000E+00  0.0000E+00  0.5760E+03  0.5760E+03
      6.813  0.0000E+00  0.0000E+00  0.5760E+03  0.5760E+03
      6.888  0.0000E+00  0.0000E+00  0.5760E+03  0.5760E+03
      6.962  0.0000E+00  0.0000E+00  0.5760E+03  0.5760E+03
      7.037  0.0000E+00  0.0000E+00  0.5760E+03  0.5760E+03
      7.112  0.0000E+00  0.0000E+00  0.5760E+03  0.5760E+03
      7.187  0.0000E+00  0.0000E+00  0.5760E+03  0.5760E+03
