  96  96   0   0
  0.2009955E+02  0.1789154E-08  0.1789153E-08  0.1382884E-08  0.5000000E-15
  1.000000000000000E-004
  CAR 
 Si and Ge interface calculation         
      7.91092720     -9.97274514  301      4.64502775      1.00000000
     -9.973  0.0000E+00  0.0000E+00  0.0000E+00  0.0000E+00
     -9.913  0.0000E+00  0.0000E+00  0.0000E+00  0.0000E+00
     -9.854  0.0000E+00  0.0000E+00  0.0000E+00  0.0000E+00
     -9.794  0.0000E+00  0.0000E+00  0.0000E+00  0.0000E+00
     -9.734  0.0000E+00  0.0000E+00  0.0000E+00  0.0000E+00
     -9.675  0.0000E+00  0.0000E+00  0.0000E+00  0.0000E+00
     -9.615  0.0000E+00  0.0000E+00  0.0000E+00  0.0000E+00
     -9.555  0.0000E+00  0.0000E+00  0.0000E+00  0.0000E+00
     -9.496  0.0000E+00  0.0000E+00  0.0000E+00  0.0000E+00
     -9.436  0.0000E+00  0.0000E+00  0.0000E+00  0.0000E+00
     -9.377  0.0000E+00  0.0000E+00  0.0000E+00  0.0000E+00
     -9.317  0.0000E+00  0.0000E+00  0.0000E+00  0.0000E+00
     -9.257  0.0000E+00  0.0000E+00  0.0000E+00  0.0000E+00
     -9.198  0.4284E-07  0.3415E-12  0.2554E-08  0.2036E-13
     -9.138  0.4014E+01  0.2519E+01  0.2393E+00  0.1501E+00
     -9.079  0.1170E+02  0.6146E+01  0.9370E+00  0.5165E+00
     -9.019  0.1708E+02  0.2068E+02  0.1955E+01  0.1749E+01
     -8.959  0.2598E+02  0.2926E+02  0.3504E+01  0.3494E+01
     -8.900  0.8641E+01  0.8470E+01  0.4019E+01  0.4000E+01
     -8.840  0.8064E+01  0.8395E+01  0.4500E+01  0.4500E+01
     -8.781  0.1187E+02  0.4432E+01  0.5207E+01  0.4764E+01
     -8.721  0.1534E+02  0.1900E+02  0.6122E+01  0.5897E+01
     -8.661  0.1705E+02  0.2053E+02  0.7139E+01  0.7121E+01
     -8.602  0.1062E+02  0.7888E+01  0.7772E+01  0.7592E+01
     -8.542  0.3852E+01  0.6852E+01  0.8001E+01  0.8000E+01
     -8.482  0.8624E+01  0.8373E+01  0.8515E+01  0.8499E+01
     -8.423  0.1850E+01  0.2110E+01  0.8626E+01  0.8625E+01
     -8.363  0.8458E+01  0.7425E+01  0.9130E+01  0.9068E+01
     -8.304  0.4428E+02  0.3878E+02  0.1177E+02  0.1138E+02
     -8.244  0.1015E+02  0.1655E+02  0.1237E+02  0.1237E+02
     -8.184  0.0000E+00  0.1494E+00  0.1238E+02  0.1238E+02
     -8.125  0.7145E-04  0.8361E-07  0.1238E+02  0.1238E+02
     -8.065  0.7436E+01  0.6327E+01  0.1282E+02  0.1275E+02
     -8.006  0.1010E+02  0.9652E+01  0.1342E+02  0.1333E+02
     -7.946  0.2196E+02  0.1170E+02  0.1473E+02  0.1403E+02
     -7.886  0.1922E+02  0.3103E+02  0.1587E+02  0.1587E+02
     -7.827  0.4089E+01  0.1298E+01  0.1612E+02  0.1595E+02
     -7.767  0.1200E+02  0.1300E+02  0.1683E+02  0.1673E+02
     -7.707  0.3296E+01  0.3580E+01  0.1703E+02  0.1694E+02
     -7.648  0.2889E+01  0.4151E+01  0.1720E+02  0.1719E+02
     -7.588  0.4297E+01  0.4219E+01  0.1746E+02  0.1744E+02
     -7.529  0.8751E+01  0.5069E+01  0.1798E+02  0.1774E+02
     -7.469  0.1559E+02  0.1681E+02  0.1891E+02  0.1874E+02
     -7.409  0.2453E+02  0.1840E+02  0.2037E+02  0.1984E+02
     -7.350  0.1402E+02  0.1898E+02  0.2121E+02  0.2097E+02
     -7.290  0.1812E+02  0.2024E+02  0.2229E+02  0.2218E+02
     -7.231  0.2346E+02  0.2150E+02  0.2369E+02  0.2346E+02
     -7.171  0.1873E+02  0.1961E+02  0.2480E+02  0.2463E+02
     -7.111  0.1128E+02  0.1329E+02  0.2548E+02  0.2542E+02
     -7.052  0.1246E+02  0.1283E+02  0.2622E+02  0.2619E+02
     -6.992  0.2065E+02  0.1837E+02  0.2745E+02  0.2728E+02
     -6.933  0.2434E+02  0.2391E+02  0.2890E+02  0.2871E+02
     -6.873  0.5170E+02  0.4820E+02  0.3198E+02  0.3158E+02
     -6.813  0.1125E+02  0.1594E+02  0.3265E+02  0.3253E+02
     -6.754  0.3360E+02  0.3162E+02  0.3466E+02  0.3442E+02
     -6.694  0.1642E+02  0.1858E+02  0.3564E+02  0.3552E+02
     -6.634  0.2767E+02  0.2425E+02  0.3728E+02  0.3697E+02
     -6.575  0.2557E+02  0.3005E+02  0.3881E+02  0.3876E+02
     -6.515  0.1491E+02  0.1295E+02  0.3970E+02  0.3953E+02
     -6.456  0.2909E+02  0.2658E+02  0.4143E+02  0.4112E+02
     -6.396  0.2157E+02  0.2446E+02  0.4272E+02  0.4258E+02
     -6.336  0.2216E+02  0.2254E+02  0.4404E+02  0.4392E+02
     -6.277  0.3542E+02  0.3149E+02  0.4615E+02  0.4580E+02
     -6.217  0.3436E+02  0.3516E+02  0.4820E+02  0.4789E+02
     -6.158  0.3548E+02  0.3455E+02  0.5031E+02  0.4995E+02
     -6.098  0.2736E+02  0.2749E+02  0.5195E+02  0.5159E+02
     -6.038  0.4897E+02  0.4573E+02  0.5486E+02  0.5432E+02
     -5.979  0.3699E+02  0.4195E+02  0.5707E+02  0.5682E+02
     -5.919  0.2485E+02  0.2431E+02  0.5855E+02  0.5827E+02
     -5.860  0.3017E+02  0.3024E+02  0.6035E+02  0.6007E+02
     -5.800  0.3459E+02  0.3602E+02  0.6241E+02  0.6222E+02
     -5.740  0.3057E+02  0.2950E+02  0.6424E+02  0.6398E+02
     -5.681  0.2839E+02  0.2539E+02  0.6593E+02  0.6549E+02
     -5.621  0.2946E+02  0.3259E+02  0.6768E+02  0.6744E+02
     -5.561  0.3467E+02  0.3662E+02  0.6975E+02  0.6962E+02
     -5.502  0.2609E+02  0.2301E+02  0.7131E+02  0.7099E+02
     -5.442  0.3046E+02  0.3010E+02  0.7312E+02  0.7279E+02
     -5.383  0.2082E+02  0.2442E+02  0.7436E+02  0.7424E+02
     -5.323  0.5101E+02  0.4231E+02  0.7740E+02  0.7676E+02
     -5.263  0.3232E+02  0.4013E+02  0.7933E+02  0.7916E+02
     -5.204  0.2635E+02  0.2533E+02  0.8090E+02  0.8067E+02
     -5.144  0.2652E+02  0.2479E+02  0.8248E+02  0.8214E+02
     -5.085  0.2782E+02  0.3038E+02  0.8414E+02  0.8396E+02
     -5.025  0.2379E+02  0.2024E+02  0.8556E+02  0.8516E+02
     -4.965  0.4405E+02  0.4318E+02  0.8819E+02  0.8774E+02
     -4.906  0.2092E+02  0.2266E+02  0.8943E+02  0.8909E+02
     -4.846  0.2328E+02  0.2460E+02  0.9082E+02  0.9055E+02
     -4.786  0.2281E+02  0.2374E+02  0.9218E+02  0.9197E+02
     -4.727  0.1993E+02  0.2242E+02  0.9337E+02  0.9330E+02
     -4.667  0.6673E+01  0.6577E+01  0.9377E+02  0.9370E+02
     -4.608  0.1780E+02  0.1508E+02  0.9483E+02  0.9460E+02
     -4.548  0.2225E+02  0.2222E+02  0.9616E+02  0.9592E+02
     -4.488  0.2448E+02  0.2432E+02  0.9761E+02  0.9737E+02
     -4.429  0.2214E+02  0.2455E+02  0.9893E+02  0.9883E+02
     -4.369  0.2151E+02  0.1832E+02  0.1002E+03  0.9993E+02
     -4.310  0.2082E+02  0.2210E+02  0.1015E+03  0.1012E+03
     -4.250  0.2956E+02  0.2968E+02  0.1032E+03  0.1030E+03
     -4.190  0.2175E+02  0.2263E+02  0.1045E+03  0.1044E+03
     -4.131  0.1509E+02  0.1350E+02  0.1054E+03  0.1052E+03
     -4.071  0.2991E+02  0.2891E+02  0.1072E+03  0.1069E+03
     -4.012  0.2608E+02  0.2721E+02  0.1088E+03  0.1085E+03
     -3.952  0.3080E+02  0.3000E+02  0.1106E+03  0.1103E+03
     -3.892  0.1580E+02  0.1920E+02  0.1115E+03  0.1114E+03
     -3.833  0.2045E+02  0.1511E+02  0.1128E+03  0.1123E+03
     -3.773  0.2073E+02  0.2480E+02  0.1140E+03  0.1138E+03
     -3.713  0.2491E+02  0.2174E+02  0.1155E+03  0.1151E+03
     -3.654  0.2305E+02  0.2594E+02  0.1168E+03  0.1167E+03
     -3.594  0.2718E+02  0.2439E+02  0.1185E+03  0.1181E+03
     -3.535  0.2196E+02  0.2450E+02  0.1198E+03  0.1196E+03
     -3.475  0.2806E+02  0.2678E+02  0.1214E+03  0.1212E+03
     -3.415  0.2818E+02  0.2802E+02  0.1231E+03  0.1228E+03
     -3.356  0.2541E+02  0.2819E+02  0.1246E+03  0.1245E+03
     -3.296  0.2176E+02  0.1949E+02  0.1259E+03  0.1257E+03
     -3.237  0.2883E+02  0.2726E+02  0.1277E+03  0.1273E+03
     -3.177  0.2710E+02  0.2932E+02  0.1293E+03  0.1291E+03
     -3.117  0.1614E+02  0.1737E+02  0.1302E+03  0.1301E+03
     -3.058  0.3204E+02  0.3014E+02  0.1321E+03  0.1319E+03
     -2.998  0.2781E+02  0.2581E+02  0.1338E+03  0.1334E+03
     -2.939  0.3207E+02  0.3301E+02  0.1357E+03  0.1354E+03
     -2.879  0.3442E+02  0.3418E+02  0.1378E+03  0.1374E+03
     -2.819  0.3377E+02  0.3261E+02  0.1398E+03  0.1394E+03
     -2.760  0.3156E+02  0.3440E+02  0.1417E+03  0.1414E+03
     -2.700  0.2824E+02  0.2833E+02  0.1433E+03  0.1431E+03
     -2.640  0.2138E+02  0.2100E+02  0.1446E+03  0.1444E+03
     -2.581  0.2552E+02  0.2674E+02  0.1461E+03  0.1460E+03
     -2.521  0.2263E+02  0.2424E+02  0.1475E+03  0.1474E+03
     -2.462  0.2361E+02  0.2241E+02  0.1489E+03  0.1488E+03
     -2.402  0.1973E+02  0.2038E+02  0.1501E+03  0.1500E+03
     -2.342  0.1478E+02  0.1310E+02  0.1510E+03  0.1507E+03
     -2.283  0.2331E+02  0.2384E+02  0.1523E+03  0.1522E+03
     -2.223  0.2241E+02  0.2416E+02  0.1537E+03  0.1536E+03
     -2.164  0.2121E+02  0.1734E+02  0.1549E+03  0.1546E+03
     -2.104  0.2124E+02  0.2397E+02  0.1562E+03  0.1561E+03
     -2.044  0.1537E+02  0.1544E+02  0.1571E+03  0.1570E+03
     -1.985  0.1994E+02  0.1883E+02  0.1583E+03  0.1581E+03
     -1.925  0.2613E+02  0.2710E+02  0.1599E+03  0.1597E+03
     -1.865  0.1023E+02  0.1167E+02  0.1605E+03  0.1604E+03
     -1.806  0.1214E+02  0.1093E+02  0.1612E+03  0.1611E+03
     -1.746  0.1902E+02  0.1737E+02  0.1623E+03  0.1621E+03
     -1.687  0.1707E+02  0.1511E+02  0.1634E+03  0.1630E+03
     -1.627  0.1864E+02  0.2081E+02  0.1645E+03  0.1643E+03
     -1.567  0.2068E+02  0.1805E+02  0.1657E+03  0.1653E+03
     -1.508  0.2762E+02  0.2952E+02  0.1674E+03  0.1671E+03
     -1.448  0.3549E+02  0.3404E+02  0.1695E+03  0.1691E+03
     -1.389  0.2462E+02  0.2830E+02  0.1709E+03  0.1708E+03
     -1.329  0.1906E+02  0.1850E+02  0.1721E+03  0.1719E+03
     -1.269  0.2585E+02  0.2473E+02  0.1736E+03  0.1734E+03
     -1.210  0.3275E+02  0.2995E+02  0.1756E+03  0.1752E+03
     -1.150  0.3190E+02  0.3369E+02  0.1775E+03  0.1772E+03
     -1.091  0.2235E+02  0.2398E+02  0.1788E+03  0.1786E+03
     -1.031  0.3032E+02  0.3024E+02  0.1806E+03  0.1804E+03
     -0.971  0.2926E+02  0.2859E+02  0.1824E+03  0.1821E+03
     -0.912  0.3124E+02  0.3060E+02  0.1842E+03  0.1839E+03
     -0.852  0.2321E+02  0.2406E+02  0.1856E+03  0.1854E+03
     -0.792  0.2232E+02  0.2119E+02  0.1869E+03  0.1866E+03
     -0.733  0.3160E+02  0.3060E+02  0.1888E+03  0.1885E+03
     -0.673  0.1918E+02  0.2045E+02  0.1900E+03  0.1897E+03
     -0.614  0.3334E+02  0.3216E+02  0.1919E+03  0.1916E+03
     -0.554  0.3204E+02  0.3358E+02  0.1939E+03  0.1936E+03
     -0.494  0.1883E+02  0.1995E+02  0.1950E+03  0.1948E+03
     -0.435  0.2190E+02  0.2234E+02  0.1963E+03  0.1961E+03
     -0.375  0.2145E+02  0.2101E+02  0.1976E+03  0.1974E+03
     -0.316  0.2398E+02  0.2427E+02  0.1990E+03  0.1988E+03
     -0.256  0.9669E+01  0.8301E+01  0.1996E+03  0.1993E+03
     -0.196  0.2038E+02  0.2181E+02  0.2008E+03  0.2006E+03
     -0.137  0.1026E+02  0.1142E+02  0.2014E+03  0.2013E+03
     -0.077  0.1360E+02  0.9594E+01  0.2022E+03  0.2019E+03
     -0.018  0.1421E+02  0.1788E+02  0.2031E+03  0.2029E+03
      0.042  0.1637E+02  0.1571E+02  0.2040E+03  0.2039E+03
      0.102  0.2314E+02  0.2298E+02  0.2054E+03  0.2052E+03
      0.161  0.2118E+02  0.1859E+02  0.2067E+03  0.2064E+03
      0.221  0.1833E+02  0.2010E+02  0.2078E+03  0.2075E+03
      0.281  0.1979E+02  0.1964E+02  0.2089E+03  0.2087E+03
      0.340  0.3858E+02  0.3696E+02  0.2112E+03  0.2109E+03
      0.400  0.2592E+02  0.2725E+02  0.2128E+03  0.2125E+03
      0.459  0.3413E+02  0.3398E+02  0.2148E+03  0.2146E+03
      0.519  0.2323E+02  0.2383E+02  0.2162E+03  0.2160E+03
      0.579  0.3200E+02  0.3289E+02  0.2181E+03  0.2180E+03
      0.638  0.2779E+02  0.2645E+02  0.2198E+03  0.2195E+03
      0.698  0.2623E+02  0.2627E+02  0.2213E+03  0.2211E+03
      0.757  0.2265E+02  0.2250E+02  0.2227E+03  0.2224E+03
      0.817  0.4002E+02  0.4012E+02  0.2251E+03  0.2248E+03
      0.877  0.3263E+02  0.3355E+02  0.2270E+03  0.2268E+03
      0.936  0.3226E+02  0.3017E+02  0.2289E+03  0.2286E+03
      0.996  0.2910E+02  0.3046E+02  0.2307E+03  0.2304E+03
      1.056  0.2946E+02  0.3074E+02  0.2324E+03  0.2323E+03
      1.115  0.4181E+02  0.3875E+02  0.2349E+03  0.2346E+03
      1.175  0.3598E+02  0.3557E+02  0.2371E+03  0.2367E+03
      1.234  0.4216E+02  0.4534E+02  0.2396E+03  0.2394E+03
      1.294  0.3678E+02  0.3558E+02  0.2418E+03  0.2415E+03
      1.354  0.3572E+02  0.3545E+02  0.2439E+03  0.2436E+03
      1.413  0.3605E+02  0.3523E+02  0.2461E+03  0.2457E+03
      1.473  0.4020E+02  0.4011E+02  0.2485E+03  0.2481E+03
      1.532  0.2543E+02  0.2487E+02  0.2500E+03  0.2496E+03
      1.592  0.4702E+02  0.4510E+02  0.2528E+03  0.2523E+03
      1.652  0.4138E+02  0.4295E+02  0.2552E+03  0.2549E+03
      1.711  0.4435E+02  0.4332E+02  0.2579E+03  0.2575E+03
      1.771  0.4882E+02  0.4990E+02  0.2608E+03  0.2604E+03
      1.830  0.5237E+02  0.5046E+02  0.2639E+03  0.2634E+03
      1.890  0.4535E+02  0.4712E+02  0.2666E+03  0.2662E+03
      1.950  0.5131E+02  0.4814E+02  0.2697E+03  0.2691E+03
      2.009  0.5030E+02  0.5309E+02  0.2727E+03  0.2723E+03
      2.069  0.4780E+02  0.4758E+02  0.2755E+03  0.2751E+03
      2.129  0.5033E+02  0.4935E+02  0.2785E+03  0.2781E+03
      2.188  0.4692E+02  0.4605E+02  0.2813E+03  0.2808E+03
      2.248  0.4603E+02  0.4923E+02  0.2841E+03  0.2837E+03
      2.307  0.4500E+02  0.4313E+02  0.2868E+03  0.2863E+03
      2.367  0.4882E+02  0.4972E+02  0.2897E+03  0.2893E+03
      2.427  0.5659E+02  0.5500E+02  0.2930E+03  0.2926E+03
      2.486  0.4470E+02  0.4481E+02  0.2957E+03  0.2952E+03
      2.546  0.4120E+02  0.4253E+02  0.2982E+03  0.2978E+03
      2.605  0.5607E+02  0.5428E+02  0.3015E+03  0.3010E+03
      2.665  0.4224E+02  0.4646E+02  0.3040E+03  0.3038E+03
      2.725  0.5168E+02  0.5039E+02  0.3071E+03  0.3068E+03
      2.784  0.4849E+02  0.4728E+02  0.3100E+03  0.3096E+03
      2.844  0.5353E+02  0.4804E+02  0.3132E+03  0.3125E+03
      2.903  0.4351E+02  0.4760E+02  0.3158E+03  0.3153E+03
      2.963  0.4222E+02  0.4441E+02  0.3183E+03  0.3179E+03
      3.023  0.4165E+02  0.4143E+02  0.3208E+03  0.3204E+03
      3.082  0.3931E+02  0.3794E+02  0.3231E+03  0.3227E+03
      3.142  0.3617E+02  0.3673E+02  0.3253E+03  0.3249E+03
      3.202  0.4193E+02  0.4178E+02  0.3278E+03  0.3274E+03
      3.261  0.3904E+02  0.4158E+02  0.3301E+03  0.3298E+03
      3.321  0.4373E+02  0.4213E+02  0.3327E+03  0.3323E+03
      3.380  0.4298E+02  0.3964E+02  0.3353E+03  0.3347E+03
      3.440  0.4344E+02  0.4469E+02  0.3379E+03  0.3374E+03
      3.500  0.3400E+02  0.3617E+02  0.3399E+03  0.3395E+03
      3.559  0.4171E+02  0.3951E+02  0.3424E+03  0.3419E+03
      3.619  0.3803E+02  0.3986E+02  0.3446E+03  0.3443E+03
      3.678  0.4770E+02  0.4256E+02  0.3475E+03  0.3468E+03
      3.738  0.4227E+02  0.4347E+02  0.3500E+03  0.3494E+03
      3.798  0.2982E+02  0.3562E+02  0.3518E+03  0.3515E+03
      3.857  0.4189E+02  0.3806E+02  0.3543E+03  0.3538E+03
      3.917  0.3607E+02  0.3832E+02  0.3564E+03  0.3561E+03
      3.977  0.5235E+02  0.4828E+02  0.3595E+03  0.3589E+03
      4.036  0.3394E+02  0.3579E+02  0.3616E+03  0.3611E+03
      4.096  0.3710E+02  0.4043E+02  0.3638E+03  0.3635E+03
      4.155  0.2953E+02  0.2780E+02  0.3655E+03  0.3651E+03
      4.215  0.3915E+02  0.3676E+02  0.3679E+03  0.3673E+03
      4.275  0.2977E+02  0.3100E+02  0.3697E+03  0.3692E+03
      4.334  0.3180E+02  0.3496E+02  0.3716E+03  0.3713E+03
      4.394  0.4336E+02  0.3916E+02  0.3741E+03  0.3736E+03
      4.453  0.3860E+02  0.4074E+02  0.3764E+03  0.3760E+03
      4.513  0.3452E+02  0.3424E+02  0.3785E+03  0.3781E+03
      4.573  0.4474E+02  0.4322E+02  0.3812E+03  0.3806E+03
      4.632  0.3285E+02  0.3162E+02  0.3831E+03  0.3825E+03
      4.692  0.2183E+02  0.2518E+02  0.3844E+03  0.3840E+03
      4.751  0.3891E+02  0.3368E+02  0.3867E+03  0.3860E+03
      4.811  0.4032E+02  0.4351E+02  0.3891E+03  0.3886E+03
      4.871  0.3310E+02  0.3530E+02  0.3911E+03  0.3907E+03
      4.930  0.3734E+02  0.3105E+02  0.3933E+03  0.3926E+03
      4.990  0.3790E+02  0.4410E+02  0.3956E+03  0.3952E+03
      5.050  0.3538E+02  0.3189E+02  0.3977E+03  0.3971E+03
      5.109  0.3034E+02  0.3061E+02  0.3995E+03  0.3989E+03
      5.169  0.3951E+02  0.3892E+02  0.4019E+03  0.4013E+03
      5.228  0.3417E+02  0.3730E+02  0.4039E+03  0.4035E+03
      5.288  0.2373E+02  0.2456E+02  0.4053E+03  0.4050E+03
      5.348  0.2958E+02  0.3142E+02  0.4071E+03  0.4068E+03
      5.407  0.3052E+02  0.2889E+02  0.4089E+03  0.4085E+03
      5.467  0.3856E+02  0.3825E+02  0.4112E+03  0.4108E+03
      5.526  0.3396E+02  0.2942E+02  0.4132E+03  0.4126E+03
      5.586  0.3816E+02  0.3994E+02  0.4155E+03  0.4150E+03
      5.646  0.4086E+02  0.3760E+02  0.4179E+03  0.4172E+03
      5.705  0.3664E+02  0.3945E+02  0.4201E+03  0.4196E+03
      5.765  0.3346E+02  0.3712E+02  0.4221E+03  0.4218E+03
      5.824  0.3149E+02  0.3256E+02  0.4240E+03  0.4237E+03
      5.884  0.3498E+02  0.3499E+02  0.4261E+03  0.4258E+03
      5.944  0.3550E+02  0.3331E+02  0.4282E+03  0.4278E+03
      6.003  0.4507E+02  0.4564E+02  0.4309E+03  0.4305E+03
      6.063  0.3223E+02  0.3246E+02  0.4328E+03  0.4324E+03
      6.123  0.3660E+02  0.3834E+02  0.4350E+03  0.4347E+03
      6.182  0.3898E+02  0.3530E+02  0.4373E+03  0.4368E+03
      6.242  0.4241E+02  0.4182E+02  0.4398E+03  0.4393E+03
      6.301  0.3664E+02  0.3859E+02  0.4420E+03  0.4416E+03
      6.361  0.3210E+02  0.3133E+02  0.4439E+03  0.4435E+03
      6.421  0.3331E+02  0.3510E+02  0.4459E+03  0.4456E+03
      6.480  0.3257E+02  0.3301E+02  0.4479E+03  0.4476E+03
      6.540  0.2991E+02  0.3016E+02  0.4497E+03  0.4494E+03
      6.599  0.3447E+02  0.3313E+02  0.4517E+03  0.4513E+03
      6.659  0.4129E+02  0.4318E+02  0.4542E+03  0.4539E+03
      6.719  0.2973E+02  0.3017E+02  0.4559E+03  0.4557E+03
      6.778  0.2953E+02  0.2996E+02  0.4577E+03  0.4575E+03
      6.838  0.3175E+02  0.3134E+02  0.4596E+03  0.4594E+03
      6.898  0.3413E+02  0.3043E+02  0.4616E+03  0.4612E+03
      6.957  0.2935E+02  0.3275E+02  0.4634E+03  0.4631E+03
      7.017  0.9249E+01  0.1318E+02  0.4639E+03  0.4639E+03
      7.076  0.1084E+01  0.5430E+00  0.4640E+03  0.4639E+03
      7.136  0.0000E+00  0.1047E+01  0.4640E+03  0.4640E+03
      7.196  0.0000E+00  0.0000E+00  0.4640E+03  0.4640E+03
      7.255  0.0000E+00  0.0000E+00  0.4640E+03  0.4640E+03
      7.315  0.0000E+00  0.0000E+00  0.4640E+03  0.4640E+03
      7.374  0.0000E+00  0.0000E+00  0.4640E+03  0.4640E+03
      7.434  0.0000E+00  0.0000E+00  0.4640E+03  0.4640E+03
      7.494  0.0000E+00  0.0000E+00  0.4640E+03  0.4640E+03
      7.553  0.0000E+00  0.0000E+00  0.4640E+03  0.4640E+03
      7.613  0.0000E+00  0.0000E+00  0.4640E+03  0.4640E+03
      7.672  0.0000E+00  0.0000E+00  0.4640E+03  0.4640E+03
      7.732  0.0000E+00  0.0000E+00  0.4640E+03  0.4640E+03
      7.792  0.0000E+00  0.0000E+00  0.4640E+03  0.4640E+03
      7.851  0.0000E+00  0.0000E+00  0.4640E+03  0.4640E+03
      7.911  0.0000E+00  0.0000E+00  0.4640E+03  0.4640E+03
