  96  96   0   0
  0.2276159E+02  0.1265123E-08  0.1265123E-08  0.1393391E-08  0.5000000E-15
  1.000000000000000E-004
  CAR 
 Si and Ge interface calculation         
      6.50862414    -11.62682456  301      3.56376035      1.00000000
    -11.627  0.0000E+00  0.0000E+00  0.0000E+00  0.0000E+00
    -11.566  0.0000E+00  0.0000E+00  0.0000E+00  0.0000E+00
    -11.506  0.0000E+00  0.0000E+00  0.0000E+00  0.0000E+00
    -11.445  0.0000E+00  0.0000E+00  0.0000E+00  0.0000E+00
    -11.385  0.0000E+00  0.0000E+00  0.0000E+00  0.0000E+00
    -11.325  0.0000E+00  0.0000E+00  0.0000E+00  0.0000E+00
    -11.264  0.0000E+00  0.0000E+00  0.0000E+00  0.0000E+00
    -11.204  0.0000E+00  0.0000E+00  0.0000E+00  0.0000E+00
    -11.143  0.0000E+00  0.0000E+00  0.0000E+00  0.0000E+00
    -11.083  0.0000E+00  0.0000E+00  0.0000E+00  0.0000E+00
    -11.022  0.0000E+00  0.0000E+00  0.0000E+00  0.0000E+00
    -10.962  0.0000E+00  0.0000E+00  0.0000E+00  0.0000E+00
    -10.901  0.0000E+00  0.0000E+00  0.0000E+00  0.0000E+00
    -10.841  0.9565E-07  0.3191E-10  0.5782E-08  0.1929E-11
    -10.781  0.3278E+02  0.2886E+02  0.1982E+01  0.1745E+01
    -10.720  0.2901E+00  0.4220E+01  0.2000E+01  0.2000E+01
    -10.660  0.0000E+00  0.0000E+00  0.2000E+01  0.2000E+01
    -10.599  0.0000E+00  0.0000E+00  0.2000E+01  0.2000E+01
    -10.539  0.0000E+00  0.0000E+00  0.2000E+01  0.2000E+01
    -10.478  0.0000E+00  0.0000E+00  0.2000E+01  0.2000E+01
    -10.418  0.0000E+00  0.0000E+00  0.2000E+01  0.2000E+01
    -10.357  0.5298E-05  0.4523E-08  0.2000E+01  0.2000E+01
    -10.297  0.1100E+02  0.1033E+02  0.2665E+01  0.2624E+01
    -10.236  0.2208E+02  0.2257E+02  0.4000E+01  0.3989E+01
    -10.176  0.1471E+02  0.5785E+01  0.4889E+01  0.4339E+01
    -10.116  0.1910E+02  0.2399E+02  0.6043E+01  0.5789E+01
    -10.055  0.2134E+02  0.2554E+02  0.7333E+01  0.7333E+01
     -9.995  0.0000E+00  0.0000E+00  0.7333E+01  0.7333E+01
     -9.934  0.0000E+00  0.0000E+00  0.7333E+01  0.7333E+01
     -9.874  0.1324E+00  0.2693E-02  0.7341E+01  0.7333E+01
     -9.813  0.2192E+02  0.2205E+02  0.8667E+01  0.8667E+01
     -9.753  0.5202E-01  0.1143E-02  0.8670E+01  0.8667E+01
     -9.692  0.1098E+02  0.1103E+02  0.9333E+01  0.9333E+01
     -9.632  0.1595E-07  0.6966E-11  0.9333E+01  0.9333E+01
     -9.571  0.1817E+02  0.1039E+02  0.1043E+02  0.9961E+01
     -9.511  0.2576E+02  0.3175E+02  0.1199E+02  0.1188E+02
     -9.451  0.1608E+00  0.1969E+01  0.1200E+02  0.1200E+02
     -9.390  0.0000E+00  0.0000E+00  0.1200E+02  0.1200E+02
     -9.330  0.6292E-06  0.5375E-09  0.1200E+02  0.1200E+02
     -9.269  0.2187E+02  0.1998E+02  0.1332E+02  0.1321E+02
     -9.209  0.2125E+02  0.1768E+02  0.1461E+02  0.1428E+02
     -9.148  0.1396E+01  0.6470E+01  0.1469E+02  0.1467E+02
     -9.088  0.1125E+02  0.1104E+02  0.1537E+02  0.1534E+02
     -9.027  0.1040E+02  0.1099E+02  0.1600E+02  0.1600E+02
     -8.967  0.0000E+00  0.0000E+00  0.1600E+02  0.1600E+02
     -8.907  0.7416E-07  0.1854E-10  0.1600E+02  0.1600E+02
     -8.846  0.1122E+02  0.7560E+01  0.1668E+02  0.1646E+02
     -8.786  0.1870E+02  0.1833E+02  0.1781E+02  0.1757E+02
     -8.725  0.2653E+01  0.5830E+01  0.1797E+02  0.1792E+02
     -8.665  0.6375E+01  0.4752E+01  0.1835E+02  0.1820E+02
     -8.604  0.1067E+02  0.1266E+02  0.1900E+02  0.1897E+02
     -8.544  0.9938E+01  0.7079E+01  0.1960E+02  0.1940E+02
     -8.483  0.2050E+02  0.2122E+02  0.2084E+02  0.2068E+02
     -8.423  0.1930E+02  0.2180E+02  0.2201E+02  0.2200E+02
     -8.362  0.3606E+01  0.3691E+01  0.2222E+02  0.2222E+02
     -8.302  0.2151E+02  0.1693E+02  0.2353E+02  0.2325E+02
     -8.242  0.1340E+02  0.1570E+02  0.2434E+02  0.2420E+02
     -8.181  0.2648E+02  0.2599E+02  0.2594E+02  0.2577E+02
     -8.121  0.1769E+02  0.1847E+02  0.2701E+02  0.2688E+02
     -8.060  0.2349E+02  0.2347E+02  0.2843E+02  0.2830E+02
     -8.000  0.2317E+02  0.2305E+02  0.2983E+02  0.2970E+02
     -7.939  0.1620E+02  0.1325E+02  0.3081E+02  0.3050E+02
     -7.879  0.1665E+02  0.2006E+02  0.3181E+02  0.3171E+02
     -7.818  0.3464E+02  0.3289E+02  0.3391E+02  0.3370E+02
     -7.758  0.1984E+02  0.1879E+02  0.3511E+02  0.3483E+02
     -7.697  0.1509E+02  0.1427E+02  0.3602E+02  0.3570E+02
     -7.637  0.3263E+02  0.3496E+02  0.3799E+02  0.3781E+02
     -7.577  0.2112E+02  0.2126E+02  0.3927E+02  0.3910E+02
     -7.516  0.3038E+02  0.2635E+02  0.4110E+02  0.4069E+02
     -7.456  0.2029E+02  0.2546E+02  0.4233E+02  0.4223E+02
     -7.395  0.2688E+02  0.2376E+02  0.4396E+02  0.4366E+02
     -7.335  0.2799E+02  0.2945E+02  0.4565E+02  0.4545E+02
     -7.274  0.3514E+02  0.3452E+02  0.4777E+02  0.4753E+02
     -7.214  0.2055E+02  0.2032E+02  0.4902E+02  0.4876E+02
     -7.153  0.1806E+02  0.2162E+02  0.5011E+02  0.5007E+02
     -7.093  0.2183E+02  0.2014E+02  0.5143E+02  0.5129E+02
     -7.033  0.2999E+02  0.2815E+02  0.5324E+02  0.5299E+02
     -6.972  0.2863E+02  0.3011E+02  0.5497E+02  0.5481E+02
     -6.912  0.2339E+02  0.2334E+02  0.5639E+02  0.5622E+02
     -6.851  0.2459E+02  0.2131E+02  0.5787E+02  0.5751E+02
     -6.791  0.3063E+02  0.2903E+02  0.5972E+02  0.5926E+02
     -6.730  0.2910E+02  0.3466E+02  0.6148E+02  0.6136E+02
     -6.670  0.1037E+02  0.7553E+01  0.6211E+02  0.6181E+02
     -6.609  0.3025E+02  0.3138E+02  0.6394E+02  0.6371E+02
     -6.549  0.2682E+02  0.2661E+02  0.6556E+02  0.6532E+02
     -6.488  0.2958E+02  0.2860E+02  0.6735E+02  0.6705E+02
     -6.428  0.3399E+02  0.3182E+02  0.6940E+02  0.6897E+02
     -6.368  0.2518E+02  0.2838E+02  0.7092E+02  0.7069E+02
     -6.307  0.3823E+02  0.3688E+02  0.7324E+02  0.7292E+02
     -6.247  0.3309E+02  0.3230E+02  0.7524E+02  0.7487E+02
     -6.186  0.2103E+02  0.2453E+02  0.7651E+02  0.7635E+02
     -6.126  0.2773E+02  0.2767E+02  0.7818E+02  0.7803E+02
     -6.065  0.2170E+02  0.2273E+02  0.7950E+02  0.7940E+02
     -6.005  0.1394E+02  0.1523E+02  0.8034E+02  0.8032E+02
     -5.944  0.2149E+02  0.1633E+02  0.8164E+02  0.8131E+02
     -5.884  0.2870E+02  0.2999E+02  0.8337E+02  0.8312E+02
     -5.823  0.2331E+02  0.2275E+02  0.8478E+02  0.8450E+02
     -5.763  0.2803E+02  0.2922E+02  0.8648E+02  0.8627E+02
     -5.703  0.2188E+02  0.2090E+02  0.8780E+02  0.8753E+02
     -5.642  0.2052E+02  0.2264E+02  0.8904E+02  0.8890E+02
     -5.582  0.2569E+02  0.2290E+02  0.9059E+02  0.9028E+02
     -5.521  0.1586E+02  0.2058E+02  0.9155E+02  0.9153E+02
     -5.461  0.2162E+02  0.1873E+02  0.9286E+02  0.9266E+02
     -5.400  0.2749E+02  0.2794E+02  0.9452E+02  0.9435E+02
     -5.340  0.1176E+02  0.1383E+02  0.9523E+02  0.9518E+02
     -5.279  0.1849E+02  0.1565E+02  0.9635E+02  0.9613E+02
     -5.219  0.2410E+02  0.2184E+02  0.9781E+02  0.9745E+02
     -5.159  0.2490E+02  0.2767E+02  0.9931E+02  0.9912E+02
     -5.098  0.2059E+02  0.2087E+02  0.1006E+03  0.1004E+03
     -5.038  0.3071E+02  0.2789E+02  0.1024E+03  0.1021E+03
     -4.977  0.3246E+02  0.3341E+02  0.1044E+03  0.1041E+03
     -4.917  0.3531E+02  0.3303E+02  0.1065E+03  0.1061E+03
     -4.856  0.2501E+02  0.2670E+02  0.1080E+03  0.1077E+03
     -4.796  0.2670E+02  0.2973E+02  0.1096E+03  0.1095E+03
     -4.735  0.2489E+02  0.2191E+02  0.1111E+03  0.1108E+03
     -4.675  0.1391E+02  0.1667E+02  0.1120E+03  0.1118E+03
     -4.614  0.2847E+02  0.2708E+02  0.1137E+03  0.1135E+03
     -4.554  0.3789E+02  0.3911E+02  0.1160E+03  0.1158E+03
     -4.494  0.3625E+02  0.2949E+02  0.1182E+03  0.1176E+03
     -4.433  0.1724E+02  0.2511E+02  0.1192E+03  0.1191E+03
     -4.373  0.2042E+02  0.1807E+02  0.1205E+03  0.1202E+03
     -4.312  0.3167E+02  0.3138E+02  0.1224E+03  0.1221E+03
     -4.252  0.1739E+02  0.2025E+02  0.1234E+03  0.1234E+03
     -4.191  0.1824E+02  0.1567E+02  0.1245E+03  0.1243E+03
     -4.131  0.2106E+02  0.2293E+02  0.1258E+03  0.1257E+03
     -4.070  0.2550E+02  0.2581E+02  0.1273E+03  0.1272E+03
     -4.010  0.1767E+02  0.1470E+02  0.1284E+03  0.1281E+03
     -3.949  0.2853E+02  0.2721E+02  0.1301E+03  0.1298E+03
     -3.889  0.2183E+02  0.2475E+02  0.1315E+03  0.1313E+03
     -3.829  0.2786E+02  0.2391E+02  0.1331E+03  0.1327E+03
     -3.768  0.1885E+02  0.2134E+02  0.1343E+03  0.1340E+03
     -3.708  0.3446E+02  0.3437E+02  0.1364E+03  0.1361E+03
     -3.647  0.2683E+02  0.2975E+02  0.1380E+03  0.1379E+03
     -3.587  0.3074E+02  0.2788E+02  0.1398E+03  0.1396E+03
     -3.526  0.3022E+02  0.2966E+02  0.1417E+03  0.1414E+03
     -3.466  0.1677E+02  0.2084E+02  0.1427E+03  0.1426E+03
     -3.405  0.1822E+02  0.1559E+02  0.1438E+03  0.1436E+03
     -3.345  0.3408E+02  0.3507E+02  0.1459E+03  0.1457E+03
     -3.285  0.2762E+02  0.2528E+02  0.1475E+03  0.1472E+03
     -3.224  0.3504E+02  0.3630E+02  0.1496E+03  0.1494E+03
     -3.164  0.2856E+02  0.2731E+02  0.1514E+03  0.1511E+03
     -3.103  0.1996E+02  0.1682E+02  0.1526E+03  0.1521E+03
     -3.043  0.3585E+02  0.3884E+02  0.1547E+03  0.1544E+03
     -2.982  0.2982E+02  0.3091E+02  0.1565E+03  0.1563E+03
     -2.922  0.2440E+02  0.2603E+02  0.1580E+03  0.1579E+03
     -2.861  0.2845E+02  0.2647E+02  0.1597E+03  0.1595E+03
     -2.801  0.2939E+02  0.2901E+02  0.1615E+03  0.1612E+03
     -2.740  0.2141E+02  0.2249E+02  0.1628E+03  0.1626E+03
     -2.680  0.2983E+02  0.2814E+02  0.1646E+03  0.1643E+03
     -2.620  0.2457E+02  0.2310E+02  0.1661E+03  0.1657E+03
     -2.559  0.1844E+02  0.2197E+02  0.1672E+03  0.1670E+03
     -2.499  0.2252E+02  0.2156E+02  0.1686E+03  0.1683E+03
     -2.438  0.2864E+02  0.2846E+02  0.1703E+03  0.1700E+03
     -2.378  0.1413E+02  0.1791E+02  0.1712E+03  0.1711E+03
     -2.317  0.1557E+02  0.1281E+02  0.1721E+03  0.1719E+03
     -2.257  0.2094E+02  0.2071E+02  0.1734E+03  0.1731E+03
     -2.196  0.2816E+02  0.2870E+02  0.1751E+03  0.1749E+03
     -2.136  0.1526E+02  0.1395E+02  0.1760E+03  0.1757E+03
     -2.075  0.3511E+02  0.3599E+02  0.1781E+03  0.1779E+03
     -2.015  0.2062E+02  0.1735E+02  0.1794E+03  0.1789E+03
     -1.955  0.1518E+02  0.1817E+02  0.1803E+03  0.1800E+03
     -1.894  0.1666E+02  0.1874E+02  0.1813E+03  0.1812E+03
     -1.834  0.2428E+02  0.2400E+02  0.1828E+03  0.1826E+03
     -1.773  0.9647E+01  0.9808E+01  0.1833E+03  0.1832E+03
     -1.713  0.3305E+02  0.3085E+02  0.1853E+03  0.1851E+03
     -1.652  0.2523E+02  0.2366E+02  0.1869E+03  0.1865E+03
     -1.592  0.2031E+02  0.2297E+02  0.1881E+03  0.1879E+03
     -1.531  0.3480E+02  0.3489E+02  0.1902E+03  0.1900E+03
     -1.471  0.1410E+02  0.1390E+02  0.1910E+03  0.1909E+03
     -1.411  0.2410E+02  0.2303E+02  0.1925E+03  0.1922E+03
     -1.350  0.1769E+02  0.1895E+02  0.1936E+03  0.1934E+03
     -1.290  0.8207E+01  0.9056E+01  0.1941E+03  0.1939E+03
     -1.229  0.3147E+02  0.2986E+02  0.1960E+03  0.1957E+03
     -1.169  0.1736E+02  0.1961E+02  0.1970E+03  0.1969E+03
     -1.108  0.1259E+02  0.1399E+02  0.1978E+03  0.1978E+03
     -1.048  0.1745E+02  0.1262E+02  0.1988E+03  0.1985E+03
     -0.987  0.1847E+02  0.2170E+02  0.2000E+03  0.1999E+03
     -0.927  0.1786E+02  0.1726E+02  0.2010E+03  0.2009E+03
     -0.866  0.2092E+02  0.1804E+02  0.2023E+03  0.2020E+03
     -0.806  0.3021E+02  0.2902E+02  0.2041E+03  0.2037E+03
     -0.746  0.3607E+02  0.3907E+02  0.2063E+03  0.2061E+03
     -0.685  0.4684E+02  0.4348E+02  0.2091E+03  0.2087E+03
     -0.625  0.4687E+02  0.4218E+02  0.2120E+03  0.2113E+03
     -0.564  0.4270E+02  0.4829E+02  0.2146E+03  0.2142E+03
     -0.504  0.3164E+02  0.3250E+02  0.2165E+03  0.2162E+03
     -0.443  0.3627E+02  0.3870E+02  0.2187E+03  0.2185E+03
     -0.383  0.2645E+02  0.2607E+02  0.2203E+03  0.2201E+03
     -0.322  0.4136E+02  0.3646E+02  0.2228E+03  0.2223E+03
     -0.262  0.3502E+02  0.3651E+02  0.2249E+03  0.2245E+03
     -0.201  0.5459E+02  0.5070E+02  0.2282E+03  0.2276E+03
     -0.141  0.3422E+02  0.4287E+02  0.2302E+03  0.2302E+03
     -0.081  0.3840E+02  0.2977E+02  0.2326E+03  0.2320E+03
     -0.020  0.4155E+02  0.4788E+02  0.2351E+03  0.2348E+03
      0.040  0.4441E+02  0.4297E+02  0.2378E+03  0.2374E+03
      0.101  0.5022E+02  0.4938E+02  0.2408E+03  0.2404E+03
      0.161  0.3463E+02  0.3275E+02  0.2429E+03  0.2424E+03
      0.222  0.4934E+02  0.5420E+02  0.2459E+03  0.2457E+03
      0.282  0.2468E+02  0.2475E+02  0.2474E+03  0.2472E+03
      0.343  0.4645E+02  0.4374E+02  0.2502E+03  0.2498E+03
      0.403  0.3099E+02  0.3196E+02  0.2520E+03  0.2518E+03
      0.463  0.5901E+02  0.5890E+02  0.2556E+03  0.2553E+03
      0.524  0.3206E+02  0.3199E+02  0.2576E+03  0.2573E+03
      0.584  0.3543E+02  0.3696E+02  0.2597E+03  0.2595E+03
      0.645  0.5979E+02  0.5640E+02  0.2633E+03  0.2629E+03
      0.705  0.5592E+02  0.5534E+02  0.2667E+03  0.2662E+03
      0.766  0.4503E+02  0.4691E+02  0.2694E+03  0.2691E+03
      0.826  0.5268E+02  0.4935E+02  0.2726E+03  0.2721E+03
      0.887  0.5338E+02  0.5771E+02  0.2758E+03  0.2756E+03
      0.947  0.4659E+02  0.4181E+02  0.2786E+03  0.2781E+03
      1.008  0.4676E+02  0.5029E+02  0.2815E+03  0.2811E+03
      1.068  0.3792E+02  0.3856E+02  0.2838E+03  0.2835E+03
      1.128  0.3702E+02  0.3461E+02  0.2860E+03  0.2855E+03
      1.189  0.4042E+02  0.4053E+02  0.2884E+03  0.2880E+03
      1.249  0.4299E+02  0.4726E+02  0.2910E+03  0.2909E+03
      1.310  0.4232E+02  0.4107E+02  0.2936E+03  0.2933E+03
      1.370  0.4041E+02  0.3903E+02  0.2960E+03  0.2957E+03
      1.431  0.3817E+02  0.4066E+02  0.2984E+03  0.2982E+03
      1.491  0.5251E+02  0.4832E+02  0.3015E+03  0.3011E+03
      1.552  0.3899E+02  0.4256E+02  0.3039E+03  0.3036E+03
      1.612  0.4559E+02  0.4470E+02  0.3066E+03  0.3063E+03
      1.673  0.3862E+02  0.3884E+02  0.3090E+03  0.3087E+03
      1.733  0.4066E+02  0.4307E+02  0.3114E+03  0.3113E+03
      1.793  0.4260E+02  0.4109E+02  0.3140E+03  0.3138E+03
      1.854  0.3201E+02  0.2937E+02  0.3159E+03  0.3156E+03
      1.914  0.4329E+02  0.4339E+02  0.3186E+03  0.3182E+03
      1.975  0.3818E+02  0.4051E+02  0.3209E+03  0.3206E+03
      2.035  0.5795E+02  0.5360E+02  0.3244E+03  0.3239E+03
      2.096  0.3701E+02  0.3461E+02  0.3266E+03  0.3260E+03
      2.156  0.3798E+02  0.4363E+02  0.3289E+03  0.3286E+03
      2.217  0.3807E+02  0.3442E+02  0.3312E+03  0.3307E+03
      2.277  0.4417E+02  0.4680E+02  0.3339E+03  0.3335E+03
      2.337  0.3654E+02  0.3305E+02  0.3361E+03  0.3355E+03
      2.398  0.4261E+02  0.4196E+02  0.3387E+03  0.3381E+03
      2.458  0.3779E+02  0.4089E+02  0.3410E+03  0.3405E+03
      2.519  0.2577E+02  0.2425E+02  0.3425E+03  0.3420E+03
      2.579  0.2830E+02  0.3417E+02  0.3442E+03  0.3441E+03
      2.640  0.4431E+02  0.3246E+02  0.3469E+03  0.3460E+03
      2.700  0.4263E+02  0.4985E+02  0.3495E+03  0.3490E+03
      2.761  0.4010E+02  0.3982E+02  0.3519E+03  0.3514E+03
      2.821  0.3443E+02  0.3613E+02  0.3540E+03  0.3536E+03
      2.882  0.4512E+02  0.4233E+02  0.3567E+03  0.3562E+03
      2.942  0.4088E+02  0.4217E+02  0.3592E+03  0.3587E+03
      3.002  0.3951E+02  0.4032E+02  0.3616E+03  0.3612E+03
      3.063  0.4349E+02  0.4015E+02  0.3642E+03  0.3636E+03
      3.123  0.3775E+02  0.3804E+02  0.3665E+03  0.3659E+03
      3.184  0.3002E+02  0.3541E+02  0.3683E+03  0.3680E+03
      3.244  0.4042E+02  0.3428E+02  0.3707E+03  0.3701E+03
      3.305  0.3190E+02  0.3342E+02  0.3727E+03  0.3721E+03
      3.365  0.4258E+02  0.4294E+02  0.3752E+03  0.3747E+03
      3.426  0.3483E+02  0.3543E+02  0.3773E+03  0.3769E+03
      3.486  0.4712E+02  0.4308E+02  0.3802E+03  0.3795E+03
      3.547  0.4605E+02  0.4347E+02  0.3830E+03  0.3821E+03
      3.607  0.4545E+02  0.5025E+02  0.3857E+03  0.3851E+03
      3.667  0.3200E+02  0.3726E+02  0.3877E+03  0.3874E+03
      3.728  0.3577E+02  0.3306E+02  0.3898E+03  0.3894E+03
      3.788  0.4752E+02  0.4544E+02  0.3927E+03  0.3921E+03
      3.849  0.3496E+02  0.3888E+02  0.3948E+03  0.3945E+03
      3.909  0.4594E+02  0.4159E+02  0.3976E+03  0.3970E+03
      3.970  0.4418E+02  0.4397E+02  0.4003E+03  0.3997E+03
      4.030  0.4232E+02  0.3899E+02  0.4028E+03  0.4020E+03
      4.091  0.4715E+02  0.5087E+02  0.4057E+03  0.4051E+03
      4.151  0.4231E+02  0.4025E+02  0.4082E+03  0.4075E+03
      4.211  0.3583E+02  0.3956E+02  0.4104E+03  0.4099E+03
      4.272  0.4436E+02  0.4076E+02  0.4131E+03  0.4124E+03
      4.332  0.3433E+02  0.3641E+02  0.4152E+03  0.4146E+03
      4.393  0.3418E+02  0.3349E+02  0.4172E+03  0.4166E+03
      4.453  0.4085E+02  0.3698E+02  0.4197E+03  0.4188E+03
      4.514  0.2643E+02  0.3334E+02  0.4213E+03  0.4209E+03
      4.574  0.3877E+02  0.3685E+02  0.4236E+03  0.4231E+03
      4.635  0.4098E+02  0.3765E+02  0.4261E+03  0.4254E+03
      4.695  0.2611E+02  0.3287E+02  0.4277E+03  0.4274E+03
      4.756  0.3626E+02  0.3219E+02  0.4299E+03  0.4293E+03
      4.816  0.2858E+02  0.3591E+02  0.4316E+03  0.4315E+03
      4.876  0.3443E+02  0.3510E+02  0.4337E+03  0.4336E+03
      4.937  0.2305E+02  0.1743E+02  0.4351E+03  0.4346E+03
      4.997  0.4262E+02  0.4170E+02  0.4377E+03  0.4372E+03
      5.058  0.2926E+02  0.3470E+02  0.4394E+03  0.4393E+03
      5.118  0.3176E+02  0.2963E+02  0.4413E+03  0.4411E+03
      5.179  0.4478E+02  0.4299E+02  0.4441E+03  0.4437E+03
      5.239  0.4489E+02  0.4758E+02  0.4468E+03  0.4465E+03
      5.300  0.4077E+02  0.3262E+02  0.4492E+03  0.4485E+03
      5.360  0.4822E+02  0.5264E+02  0.4521E+03  0.4517E+03
      5.420  0.5700E+02  0.5630E+02  0.4556E+03  0.4551E+03
      5.481  0.4051E+02  0.4358E+02  0.4580E+03  0.4577E+03
      5.541  0.4065E+02  0.4112E+02  0.4605E+03  0.4602E+03
      5.602  0.3038E+02  0.3213E+02  0.4623E+03  0.4622E+03
      5.662  0.1880E+02  0.2325E+02  0.4635E+03  0.4636E+03
      5.723  0.8693E+01  0.7329E+01  0.4640E+03  0.4640E+03
      5.783  0.0000E+00  0.0000E+00  0.4640E+03  0.4640E+03
      5.844  0.0000E+00  0.0000E+00  0.4640E+03  0.4640E+03
      5.904  0.0000E+00  0.0000E+00  0.4640E+03  0.4640E+03
      5.965  0.0000E+00  0.0000E+00  0.4640E+03  0.4640E+03
      6.025  0.0000E+00  0.0000E+00  0.4640E+03  0.4640E+03
      6.085  0.0000E+00  0.0000E+00  0.4640E+03  0.4640E+03
      6.146  0.0000E+00  0.0000E+00  0.4640E+03  0.4640E+03
      6.206  0.0000E+00  0.0000E+00  0.4640E+03  0.4640E+03
      6.267  0.0000E+00  0.0000E+00  0.4640E+03  0.4640E+03
      6.327  0.0000E+00  0.0000E+00  0.4640E+03  0.4640E+03
      6.388  0.0000E+00  0.0000E+00  0.4640E+03  0.4640E+03
      6.448  0.0000E+00  0.0000E+00  0.4640E+03  0.4640E+03
      6.509  0.0000E+00  0.0000E+00  0.4640E+03  0.4640E+03
