Si and Ge interface calculation         
           1
    13.303180    0.000000    0.000000
     0.000000   18.813536    0.000000
     0.000000    0.000000   17.712246
   Si   Sn
   144    72
Direct configuration=     1
   0.97851729  0.49999997  0.00000000
   0.72851718  0.49999994  0.10840800
   0.47851712  0.49999988  0.21681598
   0.22851706  0.49999979  0.32522392
   0.97851694  0.49999973  0.43363190
   0.72851682  0.49999970  0.54203993
   0.31185061  0.66666669  0.00000000
   0.06185051  0.66666663  0.10840799
   0.81185043  0.66666657  0.21681596
   0.56185037  0.66666651  0.32522398
   0.31185019  0.66666645  0.43363196
   0.06185007  0.66666639  0.54203993
   0.64518398  0.83333343  0.00000000
   0.39518389  0.83333337  0.10840800
   0.14518374  0.83333331  0.21681598
   0.89518368  0.83333319  0.32522392
   0.64518356  0.83333313  0.43363193
   0.39518344  0.83333307  0.54203993
   0.97851729  0.00000000  0.00000001
   0.72851718  0.99999994  0.10840799
   0.47851712  0.99999988  0.21681596
   0.22851700  0.99999982  0.32522392
   0.97851694  0.99999970  0.43363193
   0.72851682  0.99999970  0.54203993
   0.31185061  0.16666666  0.00000001
   0.06185054  0.16666661  0.10840799
   0.81185043  0.16666654  0.21681596
   0.56185043  0.16666648  0.32522398
   0.31185031  0.16666642  0.43363193
   0.06185019  0.16666634  0.54203987
   0.64518398  0.33333334  0.00000001
   0.39518383  0.33333325  0.10840799
   0.14518380  0.33333319  0.21681596
   0.89518374  0.33333316  0.32522398
   0.64518356  0.33333307  0.43363193
   0.39518350  0.33333299  0.54203987
   0.14518397  0.83333337  0.00000001
   0.89518380  0.83333325  0.10840798
   0.64518380  0.83333319  0.21681598
   0.39518374  0.83333313  0.32522392
   0.14518356  0.83333313  0.43363196
   0.89518344  0.83333307  0.54203993
   0.14518394  0.33333331  0.00000001
   0.89518386  0.33333328  0.10840799
   0.64518380  0.33333319  0.21681596
   0.39518374  0.33333313  0.32522392
   0.14518362  0.33333307  0.43363193
   0.89518344  0.33333299  0.54203987
   0.47851732  0.50000000  0.00000001
   0.22851719  0.49999991  0.10840799
   0.97851712  0.49999988  0.21681596
   0.72851706  0.49999982  0.32522392
   0.47851694  0.49999973  0.43363193
   0.22851682  0.49999967  0.54203987
   0.81185067  0.66666675  0.00000001
   0.56185061  0.66666669  0.10840798
   0.31185049  0.66666657  0.21681598
   0.06185040  0.66666651  0.32522392
   0.81185025  0.66666645  0.43363193
   0.56185013  0.66666639  0.54203993
   0.47851729  0.00000000  0.00000002
   0.22851721  0.99999994  0.10840799
   0.97851712  0.99999988  0.21681596
   0.72851706  0.99999982  0.32522392
   0.47851694  0.99999976  0.43363193
   0.22851682  0.99999964  0.54203993
   0.81185061  0.16666669  0.00000002
   0.56185049  0.16666660  0.10840799
   0.31185046  0.16666654  0.21681596
   0.06185040  0.16666648  0.32522392
   0.81185025  0.16666640  0.43363193
   0.56185019  0.16666634  0.54203993
   0.14518398  0.70833337  0.00000001
   0.89518386  0.70833331  0.10840799
   0.64518380  0.70833325  0.21681596
   0.39518368  0.70833319  0.32522398
   0.14518356  0.70833313  0.43363196
   0.89518344  0.70833307  0.54203993
   0.47851729  0.87500012  0.00000000
   0.22851716  0.87500000  0.10840800
   0.97851712  0.87500000  0.21681598
   0.72851706  0.87499988  0.32522392
   0.47851688  0.87499982  0.43363193
   0.22851682  0.87499976  0.54203993
   0.14518395  0.20833334  0.00000001
   0.89518386  0.20833328  0.10840799
   0.64518380  0.20833322  0.21681598
   0.39518368  0.20833315  0.32522392
   0.14518356  0.20833307  0.43363193
   0.89518344  0.20833303  0.54203993
   0.47851732  0.37500000  0.00000001
   0.22851721  0.37499994  0.10840800
   0.97851712  0.37499988  0.21681596
   0.72851706  0.37499982  0.32522392
   0.47851694  0.37499973  0.43363193
   0.22851682  0.37499970  0.54203993
   0.81185067  0.54166669  0.00000001
   0.56185055  0.54166663  0.10840799
   0.31185046  0.54166657  0.21681598
   0.06185041  0.54166651  0.32522392
   0.81185031  0.54166645  0.43363193
   0.56185019  0.54166639  0.54203993
   0.81185067  0.04166668  0.00000001
   0.56185055  0.04166659  0.10840800
   0.31185049  0.04166653  0.21681596
   0.06185041  0.04166647  0.32522398
   0.81185031  0.04166639  0.43363193
   0.56185019  0.04166632  0.54203993
   0.97851729  0.87500006  0.00000001
   0.72851718  0.87500000  0.10840798
   0.47851712  0.87499988  0.21681599
   0.22851706  0.87499982  0.32522392
   0.97851694  0.87499982  0.43363196
   0.72851682  0.87499970  0.54203993
   0.97851729  0.37500000  0.00000001
   0.72851718  0.37499994  0.10840800
   0.47851712  0.37499991  0.21681598
   0.22851706  0.37499979  0.32522392
   0.97851694  0.37499976  0.43363196
   0.72851682  0.37499973  0.54203993
   0.31185067  0.54166669  0.00000001
   0.06185053  0.54166663  0.10840800
   0.81185043  0.54166657  0.21681598
   0.56185043  0.54166651  0.32522392
   0.31185025  0.54166645  0.43363196
   0.06185007  0.54166639  0.54203993
   0.64518398  0.70833331  0.00000001
   0.39518386  0.70833325  0.10840800
   0.14518382  0.70833319  0.21681596
   0.89518368  0.70833313  0.32522398
   0.64518356  0.70833307  0.43363193
   0.39518350  0.70833296  0.54203993
   0.31185067  0.04166666  0.00000001
   0.06185054  0.04166659  0.10840799
   0.81185049  0.04166652  0.21681596
   0.56185043  0.04166645  0.32522392
   0.31185031  0.04166641  0.43363193
   0.06185013  0.04166633  0.54203993
   0.64518404  0.20833334  0.00000001
   0.39518389  0.20833325  0.10840799
   0.14518383  0.20833319  0.21681596
   0.89518374  0.20833313  0.32522392
   0.64518362  0.20833307  0.43363193
   0.39518350  0.20833299  0.54203993
   0.99255264  0.66666669  0.54203999
   0.74255264  0.66666669  0.72522396
   0.49255270  0.66666669  0.90840799
   0.99255264  0.33333334  0.54203999
   0.74255264  0.33333334  0.72522396
   0.49255270  0.33333334  0.90840799
   0.99255264  0.00000000  0.54203999
   0.74255264  0.00000000  0.72522396
   0.49255270  0.00000000  0.90840799
   0.49255267  0.66666669  0.54203999
   0.24255267  0.66666669  0.72522396
   0.99255270  0.66666669  0.90840799
   0.49255267  0.33333334  0.54203999
   0.24255267  0.33333334  0.72522396
   0.99255270  0.33333334  0.90840799
   0.49255267  0.00000000  0.54203999
   0.24255267  0.00000000  0.72522396
   0.99255270  0.00000000  0.90840799
   0.11755266  0.91666675  0.63363200
   0.86755270  0.91666675  0.81681603
   0.61755264  0.91666675  0.00000000
   0.11755266  0.58333343  0.63363200
   0.86755270  0.58333343  0.81681603
   0.61755264  0.58333343  0.00000000
   0.11755266  0.25000000  0.63363200
   0.86755270  0.25000000  0.81681603
   0.61755264  0.25000000  0.00000000
   0.61755264  0.91666675  0.63363200
   0.36755273  0.91666675  0.81681603
   0.11755267  0.91666675  0.00000000
   0.61755264  0.58333343  0.63363200
   0.36755273  0.58333343  0.81681603
   0.11755267  0.58333343  0.00000000
   0.61755264  0.25000000  0.63363200
   0.36755273  0.25000000  0.81681603
   0.11755267  0.25000000  0.00000000
   0.24255267  0.83333331  0.54203999
   0.99255264  0.83333331  0.72522396
   0.74255270  0.83333331  0.90840799
   0.24255267  0.50000000  0.54203999
   0.99255264  0.50000000  0.72522396
   0.74255270  0.50000000  0.90840799
   0.24255267  0.16666667  0.54203999
   0.99255264  0.16666667  0.72522396
   0.74255270  0.16666667  0.90840799
   0.74255264  0.83333331  0.54203999
   0.49255267  0.83333331  0.72522396
   0.24255273  0.83333331  0.90840799
   0.74255264  0.50000000  0.54203999
   0.49255267  0.50000000  0.72522396
   0.24255273  0.50000000  0.90840799
   0.74255264  0.16666667  0.54203999
   0.49255267  0.16666667  0.72522396
   0.24255273  0.16666667  0.90840799
   0.36755267  0.75000006  0.63363200
   0.11755272  0.75000006  0.81681603
   0.86755270  0.75000006  0.00000000
   0.36755267  0.41666672  0.63363200
   0.11755272  0.41666672  0.81681603
   0.86755270  0.41666672  0.00000000
   0.36755267  0.08333334  0.63363200
   0.11755272  0.08333334  0.81681603
   0.86755270  0.08333334  0.00000000
   0.86755264  0.75000006  0.63363200
   0.61755270  0.75000006  0.81681603
   0.36755264  0.75000006  0.00000000
   0.86755264  0.41666672  0.63363200
   0.61755270  0.41666672  0.81681603
   0.36755264  0.41666672  0.00000000
   0.86755264  0.08333334  0.63363200
   0.61755270  0.08333334  0.81681603
   0.36755264  0.08333334  0.00000000
