<?xml version="1.0" encoding="ISO-8859-1"?>
<modeling>
 <generator>
  <i name="program" type="string">vasp </i>
  <i name="version" type="string">6.4.3  </i>
  <i name="subversion" type="string">19Mar24 (build Oct 22 2024 11:23:12) complex                          parallel </i>
  <i name="platform" type="string">LinuxIFC </i>
  <i name="date" type="string">2025 06 04 </i>
  <i name="time" type="string">02:21:10 </i>
 </generator>
 <incar>
  <i type="string" name="SYSTEM">Si and Ge interface calculation</i>
  <i type="int" name="ISTART">     0</i>
  <i type="logical" name="ADDGRID"> T  </i>
  <i type="int" name="ISPIN">     2</i>
  <i name="AMIX">      0.60000000</i>
  <i type="int" name="ICHARG">     2</i>
  <i type="int" name="NELM">   100</i>
  <i name="EDIFF">      0.00000010</i>
  <i name="ENCUT">    700.00000000</i>
  <i name="ENAUG">    900.00000000</i>
  <i type="int" name="NBANDS">   173</i>
  <i name="NUPDOWN">      1.00000000</i>
  <i name="NELECT">    288.00000000</i>
  <i type="string" name="LREAL">AUTO</i>
  <i type="int" name="ISMEAR">     0</i>
  <i name="SIGMA">      0.01000000</i>
  <i type="int" name="LMAXMIX">     6</i>
  <i type="logical" name="LWAVE"> F  </i>
  <i type="logical" name="LVTOT"> F  </i>
  <i type="logical" name="LVHAR"> T  </i>
  <i type="logical" name="LASPH"> T  </i>
  <i type="logical" name="LMIXTAU"> T  </i>
 </incar>
 <primitive_cell>
  <structure name="primitive_cell" >
   <crystal>
    <varray name="basis" >
     <v>      -4.00066852       0.00000000      -0.00000080 </v>
     <v>       0.00000000       0.00000000      13.26432419 </v>
     <v>       0.00000000      16.00267601       0.00000000 </v>
    </varray>
    <i name="volume">    849.20063359 </i>
    <varray name="rec_basis" >
     <v>      -0.24995822       0.00000000       0.00000000 </v>
     <v>      -0.00000001       0.00000000       0.07539020 </v>
     <v>       0.00000000       0.06248955       0.00000000 </v>
    </varray>
   </crystal>
   <varray name="positions" >
    <v>       0.01708317       0.99999988       0.99572915 </v>
    <v>       0.51708341       0.21327129       0.87072915 </v>
    <v>       0.01708317       0.42654255       0.74572915 </v>
    <v>       0.01708329       0.99999988       0.49572909 </v>
    <v>       0.51708323       0.21327123       0.37072912 </v>
    <v>       0.01708317       0.42654255       0.24572915 </v>
    <v>       0.01708317       0.99999988       0.24572913 </v>
    <v>       0.51708341       0.21327129       0.12072913 </v>
    <v>       0.01708317       0.42654255       0.99572915 </v>
    <v>       0.01708329       0.99999988       0.74572915 </v>
    <v>       0.51708323       0.21327123       0.62072915 </v>
    <v>       0.01708329       0.42654255       0.49572909 </v>
    <v>       0.51708338       0.10663563       0.99572915 </v>
    <v>       0.01708317       0.31990689       0.87072915 </v>
    <v>       0.51708323       0.53317824       0.74572915 </v>
    <v>       0.51708347       0.10663563       0.49572909 </v>
    <v>       0.01708329       0.31990689       0.37072909 </v>
    <v>       0.51708344       0.53317830       0.24572909 </v>
    <v>       0.51708338       0.10663563       0.24572912 </v>
    <v>       0.01708317       0.31990689       0.12072913 </v>
    <v>       0.51708338       0.53317830       0.99572915 </v>
    <v>       0.51708338       0.10663563       0.74572909 </v>
    <v>       0.01708317       0.31990689       0.62072909 </v>
    <v>       0.51708323       0.53317824       0.49572909 </v>
    <v>       0.25221208       0.64595528       0.35238457 </v>
    <v>       0.75221249       0.69420885       0.96349561 </v>
    <v>       0.25221231       0.74246229       0.57460666 </v>
    <v>       0.75221249       0.79071580       0.18571770 </v>
    <v>       0.25221243       0.83896925       0.79682863 </v>
    <v>       0.75221297       0.88722275       0.40793943 </v>
    <v>       0.75221202       0.64595537       0.10238457 </v>
    <v>       0.25221220       0.69420876       0.71349555 </v>
    <v>       0.75221249       0.74246238       0.32460666 </v>
    <v>       0.25221255       0.79071577       0.93571758 </v>
    <v>       0.75221273       0.83896928       0.54682863 </v>
    <v>       0.25221267       0.88722272       0.15793955 </v>
   </varray>
  </structure>
  <varray name="primitive_index" >
   <v type="int" >        1 </v>
   <v type="int" >       29 </v>
   <v type="int" >       30 </v>
   <v type="int" >        4 </v>
   <v type="int" >        5 </v>
   <v type="int" >       36 </v>
   <v type="int" >       25 </v>
   <v type="int" >        8 </v>
   <v type="int" >        9 </v>
   <v type="int" >       31 </v>
   <v type="int" >       32 </v>
   <v type="int" >       12 </v>
   <v type="int" >       13 </v>
   <v type="int" >       14 </v>
   <v type="int" >       15 </v>
   <v type="int" >       16 </v>
   <v type="int" >       17 </v>
   <v type="int" >       48 </v>
   <v type="int" >       37 </v>
   <v type="int" >       38 </v>
   <v type="int" >       21 </v>
   <v type="int" >       43 </v>
   <v type="int" >       44 </v>
   <v type="int" >       45 </v>
   <v type="int" >       67 </v>
   <v type="int" >       50 </v>
   <v type="int" >       51 </v>
   <v type="int" >       70 </v>
   <v type="int" >       71 </v>
   <v type="int" >       54 </v>
   <v type="int" >       61 </v>
   <v type="int" >       62 </v>
   <v type="int" >       57 </v>
   <v type="int" >       58 </v>
   <v type="int" >       65 </v>
   <v type="int" >       66 </v>
  </varray>
 </primitive_cell>
 <kpoints>
  <generation param="Gamma">
   <v type="int" name="divisions">       4        2        2 </v>
   <v name="usershift">      0.00000000       0.00000000       0.00000000 </v>
   <v name="genvec1">      0.25000000       0.00000000       0.00000000 </v>
   <v name="genvec2">      0.00000000       0.50000000       0.00000000 </v>
   <v name="genvec3">      0.00000000       0.00000000       0.50000000 </v>
   <v name="shift">      0.00000000       0.00000000       0.00000000 </v>
  </generation>
  <varray name="kpointlist" >
   <v>       0.00000000       0.00000000       0.00000000 </v>
   <v>       0.25000000       0.00000000       0.00000000 </v>
   <v>       0.50000000       0.00000000       0.00000000 </v>
   <v>       0.00000000       0.50000000       0.00000000 </v>
   <v>       0.25000000       0.50000000       0.00000000 </v>
   <v>       0.50000000       0.50000000       0.00000000 </v>
   <v>       0.00000000       0.00000000       0.50000000 </v>
   <v>       0.25000000       0.00000000       0.50000000 </v>
   <v>       0.50000000       0.00000000       0.50000000 </v>
   <v>       0.00000000       0.50000000       0.50000000 </v>
   <v>       0.25000000       0.50000000       0.50000000 </v>
   <v>       0.50000000       0.50000000       0.50000000 </v>
  </varray>
  <varray name="weights" >
   <v>       0.06250000 </v>
   <v>       0.12500000 </v>
   <v>       0.06250000 </v>
   <v>       0.06250000 </v>
   <v>       0.12500000 </v>
   <v>       0.06250000 </v>
   <v>       0.06250000 </v>
   <v>       0.12500000 </v>
   <v>       0.06250000 </v>
   <v>       0.06250000 </v>
   <v>       0.12500000 </v>
   <v>       0.06250000 </v>
  </varray>
 </kpoints>
 <parameters>
  <separator name="general" >
   <i type="string" name="SYSTEM">Si and Ge interface calculation</i>
   <i type="logical" name="LCOMPAT"> F  </i>
  </separator>
  <separator name="electronic" >
   <i type="string" name="PREC">normal</i>
   <i name="ENMAX">    700.00000000</i>
   <i name="ENAUG">    900.00000000</i>
   <i name="EDIFF">      0.00000010</i>
   <i type="int" name="IALGO">    38</i>
   <i type="int" name="IWAVPR">    10</i>
   <i type="int" name="NBANDS">   176</i>
   <i type="int" name="NBANDSLOW">    -1</i>
   <i type="int" name="NBANDSHIGH">    -1</i>
   <i name="NELECT">    288.00000000</i>
   <i type="int" name="TURBO">     0</i>
   <i type="int" name="IRESTART">     0</i>
   <i type="int" name="NREBOOT">     0</i>
   <i type="int" name="NMIN">     0</i>
   <i name="EREF">      0.00000000</i>
   <separator name="electronic smearing" >
    <i type="int" name="ISMEAR">     0</i>
    <i name="SIGMA">      0.01000000</i>
    <i name="KSPACING">      0.50000000</i>
    <i type="logical" name="KGAMMA"> T  </i>
    <i type="logical" name="KBLOWUP"> T  </i>
   </separator>
   <separator name="electronic projectors" >
    <i type="logical" name="LREAL"> T  </i>
    <v name="ROPT">     -0.00050000     -0.00050000</v>
    <i type="int" name="LMAXPAW">  -100</i>
    <i type="int" name="LMAXMIX">     6</i>
    <i type="logical" name="NLSPLINE"> F  </i>
   </separator>
   <separator name="electronic startup" >
    <i type="int" name="ISTART">     0</i>
    <i type="int" name="ICHARG">     2</i>
    <i type="int" name="INIWAV">     1</i>
   </separator>
   <separator name="electronic spin" >
    <i type="int" name="ISPIN">     2</i>
    <i type="logical" name="LNONCOLLINEAR"> F  </i>
    <v name="MAGMOM">      0.01388889      0.01388889      0.01388889      0.01388889      0.01388889      0.01388889      0.01388889      0.01388889      0.01388889      0.01388889      0.01388889      0.01388889      0.01388889      0.01388889      0.01388889      0.01388889      0.01388889      0.01388889      0.01388889      0.01388889
      0.01388889      0.01388889      0.01388889      0.01388889      0.01388889      0.01388889      0.01388889      0.01388889      0.01388889      0.01388889      0.01388889      0.01388889      0.01388889      0.01388889      0.01388889      0.01388889      0.01388889      0.01388889      0.01388889      0.01388889
      0.01388889      0.01388889      0.01388889      0.01388889      0.01388889      0.01388889      0.01388889      0.01388889      0.01388889      0.01388889      0.01388889      0.01388889      0.01388889      0.01388889      0.01388889      0.01388889      0.01388889      0.01388889      0.01388889      0.01388889
      0.01388889      0.01388889      0.01388889      0.01388889      0.01388889      0.01388889      0.01388889      0.01388889      0.01388889      0.01388889      0.01388889      0.01388889</v>
    <i name="NUPDOWN">      1.00000000</i>
    <i type="logical" name="LSORBIT"> F  </i>
    <v name="SAXIS">      0.00000000      0.00000000      1.00000000</v>
    <i type="logical" name="LSPIRAL"> F  </i>
    <v name="QSPIRAL">      0.00000000      0.00000000      0.00000000</v>
    <i type="logical" name="LZEROZ"> F  </i>
   </separator>
   <separator name="electronic exchange-correlation" >
    <i type="logical" name="LASPH"> T  </i>
   </separator>
   <separator name="electronic convergence" >
    <i type="int" name="NELM">   100</i>
    <i type="int" name="NELMDL">    -5</i>
    <i type="int" name="NELMIN">     2</i>
    <i name="ENINI">    700.00000000</i>
    <separator name="electronic convergence detail" >
     <i type="logical" name="LDIAG"> T  </i>
     <i type="logical" name="LSUBROT"> F  </i>
     <i name="WEIMIN">      0.00000000</i>
     <i name="EBREAK">      0.00000000</i>
     <i name="DEPER">      0.30000000</i>
     <i type="int" name="NRMM">     4</i>
     <i name="TIME">      0.40000000</i>
    </separator>
   </separator>
   <separator name="electronic mixer" >
    <i name="AMIX">      0.60000000</i>
    <i name="BMIX">      1.00000000</i>
    <i name="AMIN">      0.10000000</i>
    <i name="AMIX_MAG">      2.40000000</i>
    <i name="BMIX_MAG">      1.00000000</i>
    <separator name="electronic mixer details" >
     <i type="int" name="IMIX">     4</i>
     <i type="logical" name="MIXFIRST"> F  </i>
     <i type="int" name="MAXMIX">   -45</i>
     <i name="WC">    100.00000000</i>
     <i type="int" name="INIMIX">     1</i>
     <i type="int" name="MIXPRE">     1</i>
     <i type="int" name="MREMOVE">     5</i>
    </separator>
   </separator>
   <separator name="electronic dipolcorrection" >
    <i type="logical" name="LDIPOL"> F  </i>
    <i type="logical" name="LMONO"> F  </i>
    <i type="int" name="IDIPOL">     0</i>
    <i name="EPSILON">      1.00000000</i>
    <v name="DIPOL">   -100.00000000   -100.00000000   -100.00000000</v>
    <i name="EFIELD">      0.00000000</i>
    <i type="logical" name="LVACPOTAV"> F  </i>
   </separator>
  </separator>
  <separator name="grids" >
   <i type="int" name="NGX">    54</i>
   <i type="int" name="NGY">   108</i>
   <i type="int" name="NGZ">    90</i>
   <i type="int" name="NGXF">   108</i>
   <i type="int" name="NGYF">   216</i>
   <i type="int" name="NGZF">   180</i>
   <i type="logical" name="ADDGRID"> T  </i>
  </separator>
  <separator name="ionic" >
   <i type="int" name="NSW">     0</i>
   <i type="int" name="IBRION">    -1</i>
   <i type="int" name="MDALGO">     0</i>
   <i type="int" name="ISIF">     2</i>
   <i name="PSTRESS">      0.00000000</i>
   <i name="EDIFFG">      0.00000100</i>
   <i type="int" name="NFREE">     0</i>
   <i name="POTIM">      0.50000000</i>
   <i name="SMASS">     -3.00000000</i>
   <i name="SCALEE">      1.00000000</i>
  </separator>
  <separator name="ionic md" >
   <i name="TEBEG">      0.00010000</i>
   <i name="TEEND">      0.00010000</i>
   <i type="int" name="NBLOCK">     1</i>
   <i type="int" name="KBLOCK">     1</i>
   <i type="int" name="NPACO">   256</i>
   <i name="APACO">     10.00000000</i>
  </separator>
  <separator name="symmetry" >
   <i type="int" name="ISYM">     2</i>
   <i name="SYMPREC">      0.00001000</i>
  </separator>
  <separator name="dos" >
   <i type="int" name="LORBIT">     0</i>
   <v name="RWIGS">     -1.00000000     -1.00000000</v>
   <i type="int" name="NEDOS">   301</i>
   <i name="EMIN">     10.00000000</i>
   <i name="EMAX">    -10.00000000</i>
   <i name="EFERMI">      0.00000000</i>
  </separator>
  <separator name="writing" >
   <i type="int" name="NWRITE">     2</i>
   <i type="logical" name="LWAVE"> F  </i>
   <i type="logical" name="LDOWNSAMPLE"> F  </i>
   <i type="logical" name="LCHARG"> T  </i>
   <i type="logical" name="LPARD"> F  </i>
   <i type="logical" name="LVTOT"> F  </i>
   <i type="logical" name="LVHAR"> T  </i>
   <i type="logical" name="LELF"> F  </i>
   <i type="logical" name="LOPTICS"> F  </i>
   <v name="STM">      0.00000000      0.00000000      0.00000000      0.00000000      0.00000000      0.00000000      0.00000000</v>
  </separator>
  <separator name="performance" >
   <i type="int" name="NPAR">     4</i>
   <i type="int" name="NSIM">     4</i>
   <i type="int" name="NBLK">    -1</i>
   <i type="logical" name="LPLANE"> T  </i>
   <i type="logical" name="LSCALAPACK"> T  </i>
   <i type="logical" name="LSCAAWARE"> F  </i>
   <i type="logical" name="LSCALU"> F  </i>
   <i type="logical" name="LASYNC"> F  </i>
   <i type="logical" name="LORBITALREAL"> F  </i>
  </separator>
  <separator name="miscellaneous" >
   <i type="int" name="IDIOT">     3</i>
   <i type="int" name="PHON_NSTRUCT">    -1</i>
   <i type="logical" name="LMUSIC"> F  </i>
   <v name="POMASS">     72.61000000     28.08500000</v>
   <v name="DARWINR">      0.00000000      0.00000000</v>
   <v name="DARWINV">      1.00000000      1.00000000</v>
   <i type="logical" name="LCORR"> T  </i>
  </separator>
  <i type="logical" name="GGA_COMPAT"> T  </i>
  <i type="logical" name="LBERRY"> F  </i>
  <i type="int" name="ICORELEVEL">     0</i>
  <i type="logical" name="LDAU"> F  </i>
  <i type="int" name="I_CONSTRAINED_M">     0</i>
  <separator name="electronic exchange-correlation" >
   <i type="string" name="GGA    ">PE</i>
   <i type="string" name="XC_C">1</i>
   <i type="int" name="VOSKOWN">     0</i>
   <i type="logical" name="LHFCALC"> F  </i>
   <i type="string" name="PRECFOCK"></i>
   <i type="logical" name="LSYMGRAD"> F  </i>
   <i type="logical" name="LHFONE"> F  </i>
   <i type="logical" name="LRHFCALC"> F  </i>
   <i type="logical" name="LTHOMAS"> F  </i>
   <i type="logical" name="LMODELHF"> F  </i>
   <i type="logical" name="LFOCKACE"> F  </i>
   <i name="ENCUT4O">     -1.00000000</i>
   <i type="int" name="EXXOEP">     0</i>
   <i type="int" name="FOURORBIT">     0</i>
   <i name="AEXX">      0.00000000</i>
   <i name="HFALPHA">      0.00000000</i>
   <i name="MCALPHA">      0.00000000</i>
   <i name="ALDAX">      1.00000000</i>
   <i name="AGGAX">      1.00000000</i>
   <i name="AMGGAX">      1.00000000</i>
   <i name="ALDAC">      1.00000000</i>
   <i name="AGGAC">      1.00000000</i>
   <i name="AMGGAC">      1.00000000</i>
   <i type="int" name="NKREDX">     1</i>
   <i type="int" name="NKREDY">     1</i>
   <i type="int" name="NKREDZ">     1</i>
   <i type="logical" name="SHIFTRED"> F  </i>
   <i type="logical" name="ODDONLY"> F  </i>
   <i type="logical" name="EVENONLY"> F  </i>
   <i type="int" name="LMAXFOCK">     0</i>
   <i type="int" name="NMAXFOCKAE">     0</i>
   <i type="logical" name="LFOCKAEDFT"> F  </i>
   <i name="HFSCREEN">      0.00000000</i>
   <i name="HFSCREENC">      0.00000000</i>
   <i type="int" name="NBANDSGWLOW">     0</i>
  </separator>
  <separator name="vdW DFT" >
   <i type="logical" name="LUSE_VDW"> F  </i>
   <i type="int" name="IVDW_NL">    -1</i>
   <i type="logical" name="LSPIN_VDW"> F  </i>
   <i name="ZAB_VDW">     -0.84910000</i>
   <i name="GAMMA_VDW">      1.39626340</i>
   <i name="ALPHA_VDW">      0.00000000</i>
   <i name="PARAM1">      0.12340000</i>
   <i name="PARAM2">      1.00000000</i>
   <i name="BPARAM">      6.30000000</i>
   <i name="CPARAM">      0.00930000</i>
  </separator>
  <separator name="model GW" >
   <i type="int" name="MODEL_GW">     0</i>
   <i name="MODEL_EPS0">     14.15334559</i>
   <i name="MODEL_ALPHA">      1.00000000</i>
  </separator>
  <separator name="linear response parameters" >
   <i type="logical" name="LEPSILON"> F  </i>
   <i type="logical" name="LRPA"> F  </i>
   <i type="logical" name="LNABLA"> F  </i>
   <i type="logical" name="LVEL"> F  </i>
   <i name="CSHIFT">      0.10000000</i>
   <i name="OMEGAMAX">     -1.00000000</i>
   <i name="DEG_THRESHOLD">      0.00200000</i>
   <i name="RTIME">     -0.10000000</i>
   <i name="WPLASMAI">      0.00000000</i>
   <v name="DFIELD">      0.00000000      0.00000000      0.00000000</v>
   <v name="WPLASMA">      0.00000000      0.00000000      0.00000000      0.00000000      0.00000000      0.00000000      0.00000000      0.00000000      0.00000000</v>
  </separator>
  <separator name="orbital magnetization" >
   <i type="logical" name="NUCIND"> F  </i>
   <v name="MAGPOS">      0.00000000      0.00000000      0.00000000</v>
   <i type="logical" name="LNICSALL"> T  </i>
   <i type="logical" name="ORBITALMAG"> F  </i>
   <i type="logical" name="LMAGBLOCH"> F  </i>
   <i type="logical" name="LCHIMAG"> F  </i>
   <i type="logical" name="LGAUGE"> T  </i>
   <i type="int" name="MAGATOM">     0</i>
   <v name="MAGDIPOL">      0.00000000      0.00000000      0.00000000</v>
   <v name="AVECCONST">      0.00000000      0.00000000      0.00000000</v>
  </separator>
  <separator name="response functions" >
   <i type="logical" name="LALL_IN_ONE"> F  </i>
   <i type="int" name="IALL_IN_ONE">    -1</i>
   <i type="int" name="NBANDS_WAVE">    -1</i>
   <i type="logical" name="LFINITE_TEMPERATURE"> F  </i>
   <i type="logical" name="LADDER"> F  </i>
   <i type="logical" name="LRPAFORCE"> F  </i>
   <i type="logical" name="LFXC"> F  </i>
   <i type="logical" name="LHARTREE"> T  </i>
   <i type="int" name="IBSE">     0</i>
   <v type="int" name="KPOINT">    -1     0     0     0</v>
   <i type="logical" name="LTCTC"> F  </i>
   <i type="logical" name="LTCTE"> F  </i>
   <i type="logical" name="LTETE"> F  </i>
   <i type="logical" name="LTRIPLET"> F  </i>
   <i type="logical" name="LFXCEPS"> F  </i>
   <i type="logical" name="LFXHEG"> F  </i>
   <i type="int" name="NATURALO">     2</i>
   <i type="logical" name="LHOLEGF"> F  </i>
   <i type="logical" name="L2ORDER"> F  </i>
   <i type="logical" name="LDMP1"> F  </i>
   <i type="logical" name="LMP2LT"> F  </i>
   <i type="logical" name="LSMP2LT"> F  </i>
   <i type="logical" name="LGWLF"> F  </i>
   <i name="ENCUTGW">     -1.60000002</i>
   <i name="ENCUTGWSOFT">     -1.60000002</i>
   <i name="ENCUTLF">     -1.00000000</i>
   <i type="logical" name="ESF_SPLINES"> F  </i>
   <i name="ESF_CONV">      0.01000000</i>
   <i type="int" name="ESF_NINTER">    15</i>
   <i type="int" name="LMAXMP2">    -1</i>
   <i name="SCISSOR">      0.00000000</i>
   <i type="int" name="NOMEGA">     0</i>
   <i type="int" name="NOMEGAR">     0</i>
   <i type="int" name="NBANDSGW">    -1</i>
   <i type="int" name="NBANDSO">    -1</i>
   <i type="int" name="NBANDSV">    -1</i>
   <i type="int" name="NELMGW">     1</i>
   <i type="int" name="NELMHF">     1</i>
   <i type="int" name="DIM">     3</i>
   <i type="int" name="IESPILON">     4</i>
   <i type="int" name="ANTIRES">     0</i>
   <i name="OMEGAMAX">    -30.00000000</i>
   <i name="OMEGAMIN">    -30.00000000</i>
   <i name="OMEGATL">   -200.00000000</i>
   <i type="int" name="OMEGAGRID">     0</i>
   <i name="CSHIFT">     -0.10000000</i>
   <i type="logical" name="LSELFENERGY"> F  </i>
   <i type="logical" name="LSPECTRAL"> F  </i>
   <i type="logical" name="LSPECTRALGW"> F  </i>
   <i type="logical" name="LSINGLES"> F  </i>
   <i type="logical" name="LFERMIGW"> F  </i>
   <i type="logical" name="ODDONLYGW"> F  </i>
   <i type="logical" name="EVENONLYGW"> F  </i>
   <i type="int" name="NKREDLFX">     1</i>
   <i type="int" name="NKREDLFY">     1</i>
   <i type="int" name="NKREDLFZ">     1</i>
   <i type="int" name="MAXMEM">  2800</i>
   <i type="int" name="TELESCOPE">     0</i>
   <i type="int" name="NTAUPAR">    -1</i>
   <i type="int" name="NOMEGAPAR">    -1</i>
   <i name="DAMP_NEWTON">      0.80000001</i>
   <i name="LAMBDA">      1.00000000</i>
  </separator>
  <separator name="External order field" >
   <i name="OFIELD_KAPPA">      0.00000000</i>
   <v name="OFIELD_K">      0.00000000      0.00000000      0.00000000</v>
   <i name="OFIELD_Q6_NEAR">      0.00000000</i>
   <i name="OFIELD_Q6_FAR">      0.00000000</i>
   <i name="OFIELD_A">      0.00000000</i>
  </separator>
  <separator name="optional k-points parameters" >
   <i type="int" name="KPOINTS_OPT_MODE">     1</i>
   <i type="logical" name="LKPOINTS_OPT"> F  </i>
  </separator>
 </parameters>
 <atominfo>
  <atoms>      72 </atoms>
  <types>       2 </types>
  <array name="atoms" >
   <dimension dim="1">ion</dimension>
   <field type="string">element</field>
   <field type="int">atomtype</field>
   <set>
    <rc><c>Ge</c><c>   1</c></rc>
    <rc><c>Ge</c><c>   1</c></rc>
    <rc><c>Ge</c><c>   1</c></rc>
    <rc><c>Ge</c><c>   1</c></rc>
    <rc><c>Ge</c><c>   1</c></rc>
    <rc><c>Ge</c><c>   1</c></rc>
    <rc><c>Ge</c><c>   1</c></rc>
    <rc><c>Ge</c><c>   1</c></rc>
    <rc><c>Ge</c><c>   1</c></rc>
    <rc><c>Ge</c><c>   1</c></rc>
    <rc><c>Ge</c><c>   1</c></rc>
    <rc><c>Ge</c><c>   1</c></rc>
    <rc><c>Ge</c><c>   1</c></rc>
    <rc><c>Ge</c><c>   1</c></rc>
    <rc><c>Ge</c><c>   1</c></rc>
    <rc><c>Ge</c><c>   1</c></rc>
    <rc><c>Ge</c><c>   1</c></rc>
    <rc><c>Ge</c><c>   1</c></rc>
    <rc><c>Ge</c><c>   1</c></rc>
    <rc><c>Ge</c><c>   1</c></rc>
    <rc><c>Ge</c><c>   1</c></rc>
    <rc><c>Ge</c><c>   1</c></rc>
    <rc><c>Ge</c><c>   1</c></rc>
    <rc><c>Ge</c><c>   1</c></rc>
    <rc><c>Ge</c><c>   1</c></rc>
    <rc><c>Ge</c><c>   1</c></rc>
    <rc><c>Ge</c><c>   1</c></rc>
    <rc><c>Ge</c><c>   1</c></rc>
    <rc><c>Ge</c><c>   1</c></rc>
    <rc><c>Ge</c><c>   1</c></rc>
    <rc><c>Ge</c><c>   1</c></rc>
    <rc><c>Ge</c><c>   1</c></rc>
    <rc><c>Ge</c><c>   1</c></rc>
    <rc><c>Ge</c><c>   1</c></rc>
    <rc><c>Ge</c><c>   1</c></rc>
    <rc><c>Ge</c><c>   1</c></rc>
    <rc><c>Ge</c><c>   1</c></rc>
    <rc><c>Ge</c><c>   1</c></rc>
    <rc><c>Ge</c><c>   1</c></rc>
    <rc><c>Ge</c><c>   1</c></rc>
    <rc><c>Ge</c><c>   1</c></rc>
    <rc><c>Ge</c><c>   1</c></rc>
    <rc><c>Ge</c><c>   1</c></rc>
    <rc><c>Ge</c><c>   1</c></rc>
    <rc><c>Ge</c><c>   1</c></rc>
    <rc><c>Ge</c><c>   1</c></rc>
    <rc><c>Ge</c><c>   1</c></rc>
    <rc><c>Ge</c><c>   1</c></rc>
    <rc><c>Si</c><c>   2</c></rc>
    <rc><c>Si</c><c>   2</c></rc>
    <rc><c>Si</c><c>   2</c></rc>
    <rc><c>Si</c><c>   2</c></rc>
    <rc><c>Si</c><c>   2</c></rc>
    <rc><c>Si</c><c>   2</c></rc>
    <rc><c>Si</c><c>   2</c></rc>
    <rc><c>Si</c><c>   2</c></rc>
    <rc><c>Si</c><c>   2</c></rc>
    <rc><c>Si</c><c>   2</c></rc>
    <rc><c>Si</c><c>   2</c></rc>
    <rc><c>Si</c><c>   2</c></rc>
    <rc><c>Si</c><c>   2</c></rc>
    <rc><c>Si</c><c>   2</c></rc>
    <rc><c>Si</c><c>   2</c></rc>
    <rc><c>Si</c><c>   2</c></rc>
    <rc><c>Si</c><c>   2</c></rc>
    <rc><c>Si</c><c>   2</c></rc>
    <rc><c>Si</c><c>   2</c></rc>
    <rc><c>Si</c><c>   2</c></rc>
    <rc><c>Si</c><c>   2</c></rc>
    <rc><c>Si</c><c>   2</c></rc>
    <rc><c>Si</c><c>   2</c></rc>
    <rc><c>Si</c><c>   2</c></rc>
   </set>
  </array>
  <array name="atomtypes" >
   <dimension dim="1">type</dimension>
   <field type="int">atomspertype</field>
   <field type="string">element</field>
   <field>mass</field>
   <field>valence</field>
   <field type="string">pseudopotential</field>
   <set>
    <rc><c>  48</c><c>Ge</c><c>     72.61000000</c><c>      4.00000000</c><c>  PAW_PBE Ge 05Jan2001                  </c></rc>
    <rc><c>  24</c><c>Si</c><c>     28.08500000</c><c>      4.00000000</c><c>  PAW_PBE Si 05Jan2001                  </c></rc>
   </set>
  </array>
 </atominfo>
 <structure name="initialpos" >
  <crystal>
   <varray name="basis" >
    <v>       8.00133800       0.00000000       0.00000000 </v>
    <v>       0.00000000      16.00267601       0.00000000 </v>
    <v>       0.00000000       0.00000000      13.26432419 </v>
   </varray>
   <i name="volume">   1698.40147098 </i>
   <varray name="rec_basis" >
    <v>       0.12497910       0.00000000       0.00000000 </v>
    <v>       0.00000000       0.06248955       0.00000000 </v>
    <v>       0.00000000       0.00000000       0.07539020 </v>
   </varray>
  </crystal>
  <varray name="positions" >
   <v>       0.99145830       0.99572915       0.00000000 </v>
   <v>       0.74145830       0.87072915       0.21327132 </v>
   <v>       0.49145830       0.74572915       0.42654267 </v>
   <v>       0.99145824       0.49572909       0.00000000 </v>
   <v>       0.74145830       0.37072912       0.21327132 </v>
   <v>       0.49145830       0.24572912       0.42654267 </v>
   <v>       0.49145824       0.24572912       0.00000000 </v>
   <v>       0.24145827       0.12072913       0.21327132 </v>
   <v>       0.99145830       0.99572915       0.42654267 </v>
   <v>       0.49145824       0.74572909       0.00000000 </v>
   <v>       0.24145828       0.62072909       0.21327132 </v>
   <v>       0.99145824       0.49572909       0.42654267 </v>
   <v>       0.24145828       0.99572915       0.10663566 </v>
   <v>       0.99145830       0.87072915       0.31990701 </v>
   <v>       0.74145830       0.74572915       0.53317833 </v>
   <v>       0.24145824       0.49572909       0.10663566 </v>
   <v>       0.99145824       0.37072909       0.31990701 </v>
   <v>       0.74145824       0.24572909       0.53317833 </v>
   <v>       0.74145830       0.24572915       0.10663566 </v>
   <v>       0.49145830       0.12072915       0.31990701 </v>
   <v>       0.24145828       0.99572915       0.53317833 </v>
   <v>       0.74145830       0.74572909       0.10663566 </v>
   <v>       0.49145827       0.62072909       0.31990701 </v>
   <v>       0.24145827       0.49572912       0.53317833 </v>
   <v>       0.99145830       0.24572913       0.00000000 </v>
   <v>       0.74145830       0.12072913       0.21327132 </v>
   <v>       0.49145830       0.99572915       0.42654267 </v>
   <v>       0.49145827       0.99572915       0.00000000 </v>
   <v>       0.24145827       0.87072915       0.21327132 </v>
   <v>       0.99145830       0.74572915       0.42654267 </v>
   <v>       0.99145824       0.74572915       0.00000000 </v>
   <v>       0.74145830       0.62072915       0.21327132 </v>
   <v>       0.49145830       0.49572915       0.42654267 </v>
   <v>       0.49145827       0.49572912       0.00000000 </v>
   <v>       0.24145831       0.37072915       0.21327132 </v>
   <v>       0.99145830       0.24572915       0.42654267 </v>
   <v>       0.24145828       0.24572912       0.10663566 </v>
   <v>       0.99145830       0.12072913       0.31990701 </v>
   <v>       0.74145830       0.99572915       0.53317833 </v>
   <v>       0.74145824       0.99572915       0.10663566 </v>
   <v>       0.49145827       0.87072915       0.31990701 </v>
   <v>       0.24145825       0.74572909       0.53317833 </v>
   <v>       0.24145828       0.74572909       0.10663566 </v>
   <v>       0.99145830       0.62072909       0.31990701 </v>
   <v>       0.74145830       0.49572909       0.53317833 </v>
   <v>       0.74145824       0.49572909       0.10663566 </v>
   <v>       0.49145827       0.37072912       0.31990701 </v>
   <v>       0.24145825       0.24572909       0.53317833 </v>
   <v>       0.37389374       0.35238457       0.64595538 </v>
   <v>       0.12389374       0.96349561       0.69420886 </v>
   <v>       0.87389374       0.57460666       0.74246240 </v>
   <v>       0.62389368       0.18571770       0.79071581 </v>
   <v>       0.37389362       0.79682875       0.83896935 </v>
   <v>       0.12389350       0.40793943       0.88722277 </v>
   <v>       0.62389386       0.10238457       0.64595538 </v>
   <v>       0.37389374       0.71349561       0.69420886 </v>
   <v>       0.12389374       0.32460666       0.74246240 </v>
   <v>       0.87389362       0.93571758       0.79071587 </v>
   <v>       0.62389356       0.54682863       0.83896929 </v>
   <v>       0.37389350       0.15793955       0.88722289 </v>
   <v>       0.12389398       0.10238457       0.64595538 </v>
   <v>       0.87389380       0.71349555       0.69420886 </v>
   <v>       0.62389380       0.32460666       0.74246240 </v>
   <v>       0.37389374       0.93571758       0.79071587 </v>
   <v>       0.12389362       0.54682863       0.83896929 </v>
   <v>       0.87389356       0.15793955       0.88722283 </v>
   <v>       0.87389386       0.35238457       0.64595538 </v>
   <v>       0.62389374       0.96349561       0.69420886 </v>
   <v>       0.37389374       0.57460666       0.74246240 </v>
   <v>       0.12389374       0.18571770       0.79071581 </v>
   <v>       0.87389368       0.79682863       0.83896935 </v>
   <v>       0.62389344       0.40793967       0.88722289 </v>
  </varray>
 </structure>
 <calculation>
  <scstep>
   <time name="dav">   13.42   13.53</time>
   <time name="total">   14.59   14.71</time>
   <energy>
    <i name="alphaZ">    423.17625508 </i>
    <i name="ewald">  -7596.62747518 </i>
    <i name="hartreedc">   -642.96941414 </i>
    <i name="XCdc">   -592.58922749 </i>
    <i name="pawpsdc">   6345.93939393 </i>
    <i name="pawaedc">  -5228.29706555 </i>
    <i name="eentropy">     -0.00117188 </i>
    <i name="bandstr">   1030.36810744 </i>
    <i name="atom">   7513.40264132 </i>
    <i name="e_fr_energy">   1252.40204354 </i>
    <i name="e_wo_entrp">   1252.40321542 </i>
    <i name="e_0_energy">   1252.40262948 </i>
   </energy>
  </scstep>
  <scstep>
   <time name="dav">   14.97   15.09</time>
   <time name="total">   14.97   15.09</time>
   <energy>
    <i name="e_fr_energy">   -178.55950792 </i>
    <i name="e_wo_entrp">   -178.55840890 </i>
    <i name="e_0_energy">   -178.55895841 </i>
   </energy>
  </scstep>
  <scstep>
   <time name="dav">   15.69   15.82</time>
   <time name="total">   15.70   15.82</time>
   <energy>
    <i name="e_fr_energy">   -316.72427400 </i>
    <i name="e_wo_entrp">   -316.72294331 </i>
    <i name="e_0_energy">   -316.72360865 </i>
   </energy>
  </scstep>
  <scstep>
   <time name="dav">   15.23   15.36</time>
   <time name="total">   15.23   15.36</time>
   <energy>
    <i name="e_fr_energy">   -321.84322505 </i>
    <i name="e_wo_entrp">   -321.84104252 </i>
    <i name="e_0_energy">   -321.84213379 </i>
   </energy>
  </scstep>
  <scstep>
   <time name="dav">   16.51   16.65</time>
   <time name="total">   17.29   17.43</time>
   <energy>
    <i name="e_fr_energy">   -322.03530848 </i>
    <i name="e_wo_entrp">   -322.03316402 </i>
    <i name="e_0_energy">   -322.03423625 </i>
   </energy>
  </scstep>
  <scstep>
   <time name="dav">   15.19   15.31</time>
   <time name="total">   17.11   17.24</time>
   <energy>
    <i name="e_fr_energy">   -317.62793517 </i>
    <i name="e_wo_entrp">   -317.62635953 </i>
    <i name="e_0_energy">   -317.62714735 </i>
   </energy>
  </scstep>
  <scstep>
   <time name="dav">   16.11   16.25</time>
   <time name="total">   18.04   18.18</time>
   <energy>
    <i name="e_fr_energy">   -317.92817224 </i>
    <i name="e_wo_entrp">   -317.92571559 </i>
    <i name="e_0_energy">   -317.92694392 </i>
   </energy>
  </scstep>
  <scstep>
   <time name="dav">   15.88   16.02</time>
   <time name="total">   17.80   17.95</time>
   <energy>
    <i name="e_fr_energy">   -316.87944830 </i>
    <i name="e_wo_entrp">   -316.87670259 </i>
    <i name="e_0_energy">   -316.87807545 </i>
   </energy>
  </scstep>
  <scstep>
   <time name="dav">   15.08   15.21</time>
   <time name="total">   17.02   17.16</time>
   <energy>
    <i name="e_fr_energy">   -316.80730600 </i>
    <i name="e_wo_entrp">   -316.80575002 </i>
    <i name="e_0_energy">   -316.80652801 </i>
   </energy>
  </scstep>
  <scstep>
   <time name="dav">   14.70   14.82</time>
   <time name="total">   16.62   16.75</time>
   <energy>
    <i name="e_fr_energy">   -316.80580997 </i>
    <i name="e_wo_entrp">   -316.80421196 </i>
    <i name="e_0_energy">   -316.80501097 </i>
   </energy>
  </scstep>
  <scstep>
   <time name="dav">   15.10   15.23</time>
   <time name="total">   17.03   17.17</time>
   <energy>
    <i name="e_fr_energy">   -316.80517679 </i>
    <i name="e_wo_entrp">   -316.80346431 </i>
    <i name="e_0_energy">   -316.80432055 </i>
   </energy>
  </scstep>
  <scstep>
   <time name="dav">   15.58   15.71</time>
   <time name="total">   17.50   17.63</time>
   <energy>
    <i name="e_fr_energy">   -316.80494593 </i>
    <i name="e_wo_entrp">   -316.80315069 </i>
    <i name="e_0_energy">   -316.80404831 </i>
   </energy>
  </scstep>
  <scstep>
   <time name="dav">   15.33   15.45</time>
   <time name="total">   17.25   17.38</time>
   <energy>
    <i name="e_fr_energy">   -316.80488144 </i>
    <i name="e_wo_entrp">   -316.80315990 </i>
    <i name="e_0_energy">   -316.80402067 </i>
   </energy>
  </scstep>
  <scstep>
   <time name="dav">   15.48   15.61</time>
   <time name="total">   17.47   17.61</time>
   <energy>
    <i name="e_fr_energy">   -316.80490258 </i>
    <i name="e_wo_entrp">   -316.80316657 </i>
    <i name="e_0_energy">   -316.80403458 </i>
   </energy>
  </scstep>
  <scstep>
   <time name="dav">   14.75   14.87</time>
   <time name="total">   16.67   16.80</time>
   <energy>
    <i name="e_fr_energy">   -316.80501328 </i>
    <i name="e_wo_entrp">   -316.80329981 </i>
    <i name="e_0_energy">   -316.80415655 </i>
   </energy>
  </scstep>
  <scstep>
   <time name="dav">   15.38   15.50</time>
   <time name="total">   17.31   17.45</time>
   <energy>
    <i name="e_fr_energy">   -316.80507007 </i>
    <i name="e_wo_entrp">   -316.80337048 </i>
    <i name="e_0_energy">   -316.80422027 </i>
   </energy>
  </scstep>
  <scstep>
   <time name="dav">   15.55   15.68</time>
   <time name="total">   17.47   17.61</time>
   <energy>
    <i name="e_fr_energy">   -316.80510107 </i>
    <i name="e_wo_entrp">   -316.80341313 </i>
    <i name="e_0_energy">   -316.80425710 </i>
   </energy>
  </scstep>
  <scstep>
   <time name="dav">   15.22   15.35</time>
   <time name="total">   17.15   17.28</time>
   <energy>
    <i name="e_fr_energy">   -316.80513115 </i>
    <i name="e_wo_entrp">   -316.80345360 </i>
    <i name="e_0_energy">   -316.80429238 </i>
   </energy>
  </scstep>
  <scstep>
   <time name="dav">   15.58   15.71</time>
   <time name="total">   17.51   17.65</time>
   <energy>
    <i name="e_fr_energy">   -316.80514748 </i>
    <i name="e_wo_entrp">   -316.80347840 </i>
    <i name="e_0_energy">   -316.80431294 </i>
   </energy>
  </scstep>
  <scstep>
   <time name="dav">   15.50   15.62</time>
   <time name="total">   17.42   17.55</time>
   <energy>
    <i name="e_fr_energy">   -316.80515375 </i>
    <i name="e_wo_entrp">   -316.80349204 </i>
    <i name="e_0_energy">   -316.80432289 </i>
   </energy>
  </scstep>
  <scstep>
   <time name="dav">   15.92   16.05</time>
   <time name="total">   17.87   18.01</time>
   <energy>
    <i name="e_fr_energy">   -316.80515524 </i>
    <i name="e_wo_entrp">   -316.80349563 </i>
    <i name="e_0_energy">   -316.80432544 </i>
   </energy>
  </scstep>
  <scstep>
   <time name="dav">   15.54   15.66</time>
   <time name="total">   17.49   17.63</time>
   <energy>
    <i name="e_fr_energy">   -316.80515545 </i>
    <i name="e_wo_entrp">   -316.80349615 </i>
    <i name="e_0_energy">   -316.80432580 </i>
   </energy>
  </scstep>
  <scstep>
   <time name="dav">   10.14   10.22</time>
   <time name="total">   11.31   11.40</time>
   <energy>
    <i name="alphaZ">    423.17625508 </i>
    <i name="ewald">  -7596.62747518 </i>
    <i name="hartreedc">   -738.16119093 </i>
    <i name="XCdc">   -575.47419343 </i>
    <i name="pawpsdc">  17966.72749331 </i>
    <i name="pawaedc"> -16857.90813898 </i>
    <i name="eentropy">     -0.00165910 </i>
    <i name="bandstr">   -451.93888756 </i>
    <i name="atom">   7513.40264132 </i>
    <i name="e_fr_energy">   -316.80515547 </i>
    <i name="e_wo_entrp">   -316.80349636 </i>
    <i name="e_0_energy">   -316.80432592 </i>
   </energy>
  </scstep>
  <structure>
   <crystal>
    <varray name="basis" >
     <v>       8.00133800       0.00000000       0.00000000 </v>
     <v>       0.00000000      16.00267601       0.00000000 </v>
     <v>       0.00000000       0.00000000      13.26432419 </v>
    </varray>
    <i name="volume">   1698.40147098 </i>
    <varray name="rec_basis" >
     <v>       0.12497910       0.00000000       0.00000000 </v>
     <v>       0.00000000       0.06248955       0.00000000 </v>
     <v>       0.00000000       0.00000000       0.07539020 </v>
    </varray>
   </crystal>
   <varray name="positions" >
    <v>       0.99145830       0.99572915       0.00000000 </v>
    <v>       0.74145830       0.87072915       0.21327132 </v>
    <v>       0.49145830       0.74572915       0.42654267 </v>
    <v>       0.99145824       0.49572909       0.00000000 </v>
    <v>       0.74145830       0.37072912       0.21327132 </v>
    <v>       0.49145830       0.24572912       0.42654267 </v>
    <v>       0.49145824       0.24572912       0.00000000 </v>
    <v>       0.24145827       0.12072913       0.21327132 </v>
    <v>       0.99145830       0.99572915       0.42654267 </v>
    <v>       0.49145824       0.74572909       0.00000000 </v>
    <v>       0.24145828       0.62072909       0.21327132 </v>
    <v>       0.99145824       0.49572909       0.42654267 </v>
    <v>       0.24145828       0.99572915       0.10663566 </v>
    <v>       0.99145830       0.87072915       0.31990701 </v>
    <v>       0.74145830       0.74572915       0.53317833 </v>
    <v>       0.24145824       0.49572909       0.10663566 </v>
    <v>       0.99145824       0.37072909       0.31990701 </v>
    <v>       0.74145824       0.24572909       0.53317833 </v>
    <v>       0.74145830       0.24572915       0.10663566 </v>
    <v>       0.49145830       0.12072915       0.31990701 </v>
    <v>       0.24145828       0.99572915       0.53317833 </v>
    <v>       0.74145830       0.74572909       0.10663566 </v>
    <v>       0.49145827       0.62072909       0.31990701 </v>
    <v>       0.24145827       0.49572912       0.53317833 </v>
    <v>       0.99145830       0.24572913       0.00000000 </v>
    <v>       0.74145830       0.12072913       0.21327132 </v>
    <v>       0.49145830       0.99572915       0.42654267 </v>
    <v>       0.49145827       0.99572915       0.00000000 </v>
    <v>       0.24145827       0.87072915       0.21327132 </v>
    <v>       0.99145830       0.74572915       0.42654267 </v>
    <v>       0.99145824       0.74572915       0.00000000 </v>
    <v>       0.74145830       0.62072915       0.21327132 </v>
    <v>       0.49145830       0.49572915       0.42654267 </v>
    <v>       0.49145827       0.49572912       0.00000000 </v>
    <v>       0.24145831       0.37072915       0.21327132 </v>
    <v>       0.99145830       0.24572915       0.42654267 </v>
    <v>       0.24145828       0.24572912       0.10663566 </v>
    <v>       0.99145830       0.12072913       0.31990701 </v>
    <v>       0.74145830       0.99572915       0.53317833 </v>
    <v>       0.74145824       0.99572915       0.10663566 </v>
    <v>       0.49145827       0.87072915       0.31990701 </v>
    <v>       0.24145825       0.74572909       0.53317833 </v>
    <v>       0.24145828       0.74572909       0.10663566 </v>
    <v>       0.99145830       0.62072909       0.31990701 </v>
    <v>       0.74145830       0.49572909       0.53317833 </v>
    <v>       0.74145824       0.49572909       0.10663566 </v>
    <v>       0.49145827       0.37072912       0.31990701 </v>
    <v>       0.24145825       0.24572909       0.53317833 </v>
    <v>       0.37389374       0.35238457       0.64595538 </v>
    <v>       0.12389374       0.96349561       0.69420886 </v>
    <v>       0.87389374       0.57460666       0.74246240 </v>
    <v>       0.62389368       0.18571770       0.79071581 </v>
    <v>       0.37389362       0.79682875       0.83896935 </v>
    <v>       0.12389350       0.40793943       0.88722277 </v>
    <v>       0.62389386       0.10238457       0.64595538 </v>
    <v>       0.37389374       0.71349561       0.69420886 </v>
    <v>       0.12389374       0.32460666       0.74246240 </v>
    <v>       0.87389362       0.93571758       0.79071587 </v>
    <v>       0.62389356       0.54682863       0.83896929 </v>
    <v>       0.37389350       0.15793955       0.88722289 </v>
    <v>       0.12389398       0.10238457       0.64595538 </v>
    <v>       0.87389380       0.71349555       0.69420886 </v>
    <v>       0.62389380       0.32460666       0.74246240 </v>
    <v>       0.37389374       0.93571758       0.79071587 </v>
    <v>       0.12389362       0.54682863       0.83896929 </v>
    <v>       0.87389356       0.15793955       0.88722283 </v>
    <v>       0.87389386       0.35238457       0.64595538 </v>
    <v>       0.62389374       0.96349561       0.69420886 </v>
    <v>       0.37389374       0.57460666       0.74246240 </v>
    <v>       0.12389374       0.18571770       0.79071581 </v>
    <v>       0.87389368       0.79682863       0.83896935 </v>
    <v>       0.62389344       0.40793967       0.88722289 </v>
   </varray>
  </structure>
  <varray name="forces" >
   <v>      -0.78670323       0.12385182      -1.61065337 </v>
   <v>      -0.11762728       0.01244625       0.02401970 </v>
   <v>      -0.25054623      -0.03484349       0.42832043 </v>
   <v>      -0.36057506       0.63003135       0.21479849 </v>
   <v>      -0.10617621      -0.04290878       0.09364320 </v>
   <v>      -0.16213639      -0.13886634      -0.12468834 </v>
   <v>       0.06529882       1.15280001       0.52696355 </v>
   <v>      -0.08811163      -0.14524090       0.17634677 </v>
   <v>       0.16590801      -0.12347263      -0.10184764 </v>
   <v>      -0.30124530       0.00155193      -0.77704321 </v>
   <v>      -0.05252156      -0.02521341       0.06950715 </v>
   <v>      -0.31509845      -0.03092377       0.04225334 </v>
   <v>       0.25675429       0.07923531      -0.12930853 </v>
   <v>       0.03910448       0.04471200      -0.03273203 </v>
   <v>       0.27541549      -0.04039828       0.57336496 </v>
   <v>      -0.13973223       0.17965844       0.19634762 </v>
   <v>       0.03814412       0.09942848      -0.15191262 </v>
   <v>       0.44302816      -0.36793428       0.81263353 </v>
   <v>       0.14415348       0.22362689       0.12426836 </v>
   <v>       0.09611634       0.03804134      -0.09819918 </v>
   <v>       0.08420019      -0.15009074      -0.13216843 </v>
   <v>       0.21686597       0.12013640      -0.40456126 </v>
   <v>       0.19518319      -0.08520217      -0.07344360 </v>
   <v>       0.97504243      -0.14188051       1.63638765 </v>
   <v>       0.06529882       1.15280001       0.52696355 </v>
   <v>      -0.08811163      -0.14524090       0.17634677 </v>
   <v>       0.16590801      -0.12347263      -0.10184764 </v>
   <v>      -0.78670323       0.12385182      -1.61065337 </v>
   <v>      -0.11762728       0.01244625       0.02401970 </v>
   <v>      -0.25054623      -0.03484349       0.42832043 </v>
   <v>      -0.30124530       0.00155193      -0.77704321 </v>
   <v>      -0.05252156      -0.02521341       0.06950715 </v>
   <v>      -0.31509845      -0.03092377       0.04225334 </v>
   <v>      -0.36057506       0.63003135       0.21479849 </v>
   <v>      -0.10617621      -0.04290878       0.09364320 </v>
   <v>      -0.16213639      -0.13886634      -0.12468834 </v>
   <v>       0.14415348       0.22362689       0.12426836 </v>
   <v>       0.09611634       0.03804134      -0.09819918 </v>
   <v>       0.08420019      -0.15009074      -0.13216843 </v>
   <v>       0.25675429       0.07923531      -0.12930853 </v>
   <v>       0.03910448       0.04471200      -0.03273203 </v>
   <v>       0.27541549      -0.04039828       0.57336496 </v>
   <v>       0.21686597       0.12013640      -0.40456126 </v>
   <v>       0.19518319      -0.08520217      -0.07344360 </v>
   <v>       0.97504243      -0.14188051       1.63638765 </v>
   <v>      -0.13973223       0.17965844       0.19634762 </v>
   <v>       0.03814412       0.09942848      -0.15191262 </v>
   <v>       0.44302816      -0.36793428       0.81263353 </v>
   <v>      -1.34686834       0.38655268      -0.30644157 </v>
   <v>       0.15147547      -0.45946211       0.99357136 </v>
   <v>      -0.22000799      -0.18229558      -0.23673990 </v>
   <v>      -0.19417148      -0.63233029       0.29131635 </v>
   <v>      -0.05922056      -0.26419513      -0.09893268 </v>
   <v>       0.35873833      -1.47635135      -0.38765526 </v>
   <v>       0.08393740       1.26279948      -0.38139460 </v>
   <v>       0.09778463       0.20795770       0.23282399 </v>
   <v>       0.20873518       0.52013694      -0.33978024 </v>
   <v>       0.30568472       0.10670776       0.47472538 </v>
   <v>      -0.24509687       0.51149192      -0.58524074 </v>
   <v>       0.54426810      -1.35955690      -0.93854866 </v>
   <v>       0.08393740       1.26279948      -0.38139460 </v>
   <v>       0.09778463       0.20795770       0.23282399 </v>
   <v>       0.20873518       0.52013694      -0.33978024 </v>
   <v>       0.30568472       0.10670776       0.47472538 </v>
   <v>      -0.24509687       0.51149192      -0.58524074 </v>
   <v>       0.54426810      -1.35955690      -0.93854866 </v>
   <v>      -1.34686834       0.38655268      -0.30644157 </v>
   <v>       0.15147547      -0.45946211       0.99357136 </v>
   <v>      -0.22000799      -0.18229558      -0.23673990 </v>
   <v>      -0.19417148      -0.63233029       0.29131635 </v>
   <v>      -0.05922056      -0.26419513      -0.09893268 </v>
   <v>       0.35873833      -1.47635135      -0.38765526 </v>
  </varray>
  <varray name="stress" >
   <v>       6.50987666      -1.57579252     -12.66850328 </v>
   <v>      -1.57579341      18.23712369       9.79422823 </v>
   <v>     -12.66850301       9.79422180      24.72738674 </v>
  </varray>
  <energy>
   <i name="e_fr_energy">   -316.80515547 </i>
   <i name="e_wo_entrp">   -316.80349636 </i>
   <i name="e_0_energy">   -316.80432592 </i>
  </energy>
  <time name="totalsc">  410.50  413.90</time>
  <eigenvalues>
   <array>
    <dimension dim="1">band</dimension>
    <dimension dim="2">kpoint</dimension>
    <dimension dim="3">spin</dimension>
    <field>eigene</field>
    <field>occ</field>
    <set>
     <set comment="spin 1">
      <set comment="kpoint 1">
       <r>   -8.7794    1.0000 </r>
       <r>   -8.3817    1.0000 </r>
       <r>   -8.2908    1.0000 </r>
       <r>   -7.9376    1.0000 </r>
       <r>   -7.9131    1.0000 </r>
       <r>   -7.5977    1.0000 </r>
       <r>   -7.4554    1.0000 </r>
       <r>   -7.3799    1.0000 </r>
       <r>   -7.1460    1.0000 </r>
       <r>   -7.0894    1.0000 </r>
       <r>   -7.0426    1.0000 </r>
       <r>   -7.0299    1.0000 </r>
       <r>   -6.8969    1.0000 </r>
       <r>   -6.8961    1.0000 </r>
       <r>   -6.8818    1.0000 </r>
       <r>   -6.6747    1.0000 </r>
       <r>   -6.5625    1.0000 </r>
       <r>   -6.5388    1.0000 </r>
       <r>   -6.5074    1.0000 </r>
       <r>   -6.4501    1.0000 </r>
       <r>   -6.1287    1.0000 </r>
       <r>   -5.9871    1.0000 </r>
       <r>   -5.9376    1.0000 </r>
       <r>   -5.8136    1.0000 </r>
       <r>   -5.7931    1.0000 </r>
       <r>   -5.7751    1.0000 </r>
       <r>   -5.7423    1.0000 </r>
       <r>   -5.4751    1.0000 </r>
       <r>   -5.3850    1.0000 </r>
       <r>   -5.2560    1.0000 </r>
       <r>   -5.2054    1.0000 </r>
       <r>   -5.1125    1.0000 </r>
       <r>   -5.0947    1.0000 </r>
       <r>   -5.0817    1.0000 </r>
       <r>   -5.0697    1.0000 </r>
       <r>   -4.6938    1.0000 </r>
       <r>   -4.6042    1.0000 </r>
       <r>   -4.5580    1.0000 </r>
       <r>   -4.3838    1.0000 </r>
       <r>   -4.3392    1.0000 </r>
       <r>   -4.3070    1.0000 </r>
       <r>   -4.2052    1.0000 </r>
       <r>   -4.0086    1.0000 </r>
       <r>   -3.9074    1.0000 </r>
       <r>   -3.6736    1.0000 </r>
       <r>   -3.5929    1.0000 </r>
       <r>   -3.5772    1.0000 </r>
       <r>   -3.5063    1.0000 </r>
       <r>   -3.4812    1.0000 </r>
       <r>   -3.3810    1.0000 </r>
       <r>   -3.3236    1.0000 </r>
       <r>   -3.2741    1.0000 </r>
       <r>   -3.1290    1.0000 </r>
       <r>   -3.0858    1.0000 </r>
       <r>   -3.0256    1.0000 </r>
       <r>   -2.8975    1.0000 </r>
       <r>   -2.7813    1.0000 </r>
       <r>   -2.7164    1.0000 </r>
       <r>   -2.6422    1.0000 </r>
       <r>   -2.4794    1.0000 </r>
       <r>   -2.2658    1.0000 </r>
       <r>   -2.2357    1.0000 </r>
       <r>   -2.1488    1.0000 </r>
       <r>   -2.0914    1.0000 </r>
       <r>   -1.7975    1.0000 </r>
       <r>   -1.4278    1.0000 </r>
       <r>   -1.0974    1.0000 </r>
       <r>   -0.7590    1.0000 </r>
       <r>   -0.6650    1.0000 </r>
       <r>   -0.5029    1.0000 </r>
       <r>   -0.4174    1.0000 </r>
       <r>   -0.2534    1.0000 </r>
       <r>   -0.2396    1.0000 </r>
       <r>   -0.1662    1.0000 </r>
       <r>   -0.0996    1.0000 </r>
       <r>    0.0316    1.0000 </r>
       <r>    0.1013    1.0000 </r>
       <r>    0.1610    1.0000 </r>
       <r>    0.1856    1.0000 </r>
       <r>    0.1944    1.0000 </r>
       <r>    0.2326    1.0000 </r>
       <r>    0.2359    1.0000 </r>
       <r>    0.2874    1.0000 </r>
       <r>    0.3221    1.0000 </r>
       <r>    0.3398    1.0000 </r>
       <r>    0.3493    1.0000 </r>
       <r>    0.3934    1.0000 </r>
       <r>    0.4973    1.0000 </r>
       <r>    0.5491    1.0000 </r>
       <r>    0.6481    1.0000 </r>
       <r>    0.6696    1.0000 </r>
       <r>    0.6727    1.0000 </r>
       <r>    0.7412    1.0000 </r>
       <r>    0.8289    1.0000 </r>
       <r>    0.9213    1.0000 </r>
       <r>    0.9825    1.0000 </r>
       <r>    0.9921    1.0000 </r>
       <r>    1.0651    1.0000 </r>
       <r>    1.0891    1.0000 </r>
       <r>    1.1065    1.0000 </r>
       <r>    1.1560    1.0000 </r>
       <r>    1.1694    1.0000 </r>
       <r>    1.2453    1.0000 </r>
       <r>    1.2518    1.0000 </r>
       <r>    1.3607    1.0000 </r>
       <r>    1.4013    1.0000 </r>
       <r>    1.4215    1.0000 </r>
       <r>    1.5086    1.0000 </r>
       <r>    1.5259    1.0000 </r>
       <r>    1.6330    1.0000 </r>
       <r>    1.7446    1.0000 </r>
       <r>    1.8067    1.0000 </r>
       <r>    1.8163    1.0000 </r>
       <r>    1.8980    1.0000 </r>
       <r>    1.9320    1.0000 </r>
       <r>    1.9577    1.0000 </r>
       <r>    2.0424    1.0000 </r>
       <r>    2.0740    1.0000 </r>
       <r>    2.0839    1.0000 </r>
       <r>    2.1450    1.0000 </r>
       <r>    2.1916    1.0000 </r>
       <r>    2.2409    1.0000 </r>
       <r>    2.2930    1.0000 </r>
       <r>    2.2969    1.0000 </r>
       <r>    2.3033    1.0000 </r>
       <r>    2.3562    1.0000 </r>
       <r>    2.4183    1.0000 </r>
       <r>    2.4643    1.0000 </r>
       <r>    2.5462    1.0000 </r>
       <r>    2.5914    1.0000 </r>
       <r>    2.6125    1.0000 </r>
       <r>    2.6471    1.0000 </r>
       <r>    2.6982    1.0000 </r>
       <r>    2.7511    1.0000 </r>
       <r>    2.8476    1.0000 </r>
       <r>    2.8754    1.0000 </r>
       <r>    2.9478    1.0000 </r>
       <r>    2.9931    1.0000 </r>
       <r>    3.3036    1.0000 </r>
       <r>    3.3466    1.0000 </r>
       <r>    3.4038    1.0000 </r>
       <r>    3.4784    1.0000 </r>
       <r>    3.4816    1.0000 </r>
       <r>    3.6362    1.0000 </r>
       <r>    3.6539    1.0000 </r>
       <r>    3.6781    0.9999 </r>
       <r>    3.7539    0.0000 </r>
       <r>    3.7562    0.0000 </r>
       <r>    3.8747    0.0000 </r>
       <r>    3.9239    0.0000 </r>
       <r>    3.9554    0.0000 </r>
       <r>    4.0203    0.0000 </r>
       <r>    4.0859    0.0000 </r>
       <r>    4.2410    0.0000 </r>
       <r>    4.3541    0.0000 </r>
       <r>    4.3568    0.0000 </r>
       <r>    4.3694    0.0000 </r>
       <r>    4.4963    0.0000 </r>
       <r>    4.5499    0.0000 </r>
       <r>    4.5717    0.0000 </r>
       <r>    4.6611    0.0000 </r>
       <r>    4.7497    0.0000 </r>
       <r>    4.8679    0.0000 </r>
       <r>    4.8819    0.0000 </r>
       <r>    4.9700    0.0000 </r>
       <r>    4.9709    0.0000 </r>
       <r>    5.0529    0.0000 </r>
       <r>    5.0850    0.0000 </r>
       <r>    5.0964    0.0000 </r>
       <r>    5.1352    0.0000 </r>
       <r>    5.1801    0.0000 </r>
       <r>    5.2229    0.0000 </r>
       <r>    5.2643    0.0000 </r>
       <r>    5.3460    0.0000 </r>
       <r>    5.3593    0.0000 </r>
       <r>    5.3884    0.0000 </r>
      </set>
      <set comment="kpoint 2">
       <r>   -8.6556    1.0000 </r>
       <r>   -8.2596    1.0000 </r>
       <r>   -8.1652    1.0000 </r>
       <r>   -7.8233    1.0000 </r>
       <r>   -7.8000    1.0000 </r>
       <r>   -7.7292    1.0000 </r>
       <r>   -7.4776    1.0000 </r>
       <r>   -7.3716    1.0000 </r>
       <r>   -7.3347    1.0000 </r>
       <r>   -7.2676    1.0000 </r>
       <r>   -7.2298    1.0000 </r>
       <r>   -7.0914    1.0000 </r>
       <r>   -7.0139    1.0000 </r>
       <r>   -6.9117    1.0000 </r>
       <r>   -6.9084    1.0000 </r>
       <r>   -6.7857    1.0000 </r>
       <r>   -6.6749    1.0000 </r>
       <r>   -6.5995    1.0000 </r>
       <r>   -6.5498    1.0000 </r>
       <r>   -6.4983    1.0000 </r>
       <r>   -6.2032    1.0000 </r>
       <r>   -6.0836    1.0000 </r>
       <r>   -5.8983    1.0000 </r>
       <r>   -5.8209    1.0000 </r>
       <r>   -5.8097    1.0000 </r>
       <r>   -5.6899    1.0000 </r>
       <r>   -5.6553    1.0000 </r>
       <r>   -5.6329    1.0000 </r>
       <r>   -5.4726    1.0000 </r>
       <r>   -5.4395    1.0000 </r>
       <r>   -5.4251    1.0000 </r>
       <r>   -5.2549    1.0000 </r>
       <r>   -5.1733    1.0000 </r>
       <r>   -5.0912    1.0000 </r>
       <r>   -4.7311    1.0000 </r>
       <r>   -4.6285    1.0000 </r>
       <r>   -4.5044    1.0000 </r>
       <r>   -4.3537    1.0000 </r>
       <r>   -4.3313    1.0000 </r>
       <r>   -4.2456    1.0000 </r>
       <r>   -4.1732    1.0000 </r>
       <r>   -4.1630    1.0000 </r>
       <r>   -3.8652    1.0000 </r>
       <r>   -3.7400    1.0000 </r>
       <r>   -3.6048    1.0000 </r>
       <r>   -3.5298    1.0000 </r>
       <r>   -3.5207    1.0000 </r>
       <r>   -3.4716    1.0000 </r>
       <r>   -3.3988    1.0000 </r>
       <r>   -3.3724    1.0000 </r>
       <r>   -3.1859    1.0000 </r>
       <r>   -2.8673    1.0000 </r>
       <r>   -2.8661    1.0000 </r>
       <r>   -2.7546    1.0000 </r>
       <r>   -2.6849    1.0000 </r>
       <r>   -2.6829    1.0000 </r>
       <r>   -2.5139    1.0000 </r>
       <r>   -2.5119    1.0000 </r>
       <r>   -2.4306    1.0000 </r>
       <r>   -2.3001    1.0000 </r>
       <r>   -2.2277    1.0000 </r>
       <r>   -2.1823    1.0000 </r>
       <r>   -2.0507    1.0000 </r>
       <r>   -1.7163    1.0000 </r>
       <r>   -1.5882    1.0000 </r>
       <r>   -1.4480    1.0000 </r>
       <r>   -1.3449    1.0000 </r>
       <r>   -0.8507    1.0000 </r>
       <r>   -0.6832    1.0000 </r>
       <r>   -0.6527    1.0000 </r>
       <r>   -0.5599    1.0000 </r>
       <r>   -0.5234    1.0000 </r>
       <r>   -0.3489    1.0000 </r>
       <r>   -0.2941    1.0000 </r>
       <r>   -0.2460    1.0000 </r>
       <r>   -0.2191    1.0000 </r>
       <r>   -0.1122    1.0000 </r>
       <r>   -0.0235    1.0000 </r>
       <r>    0.0026    1.0000 </r>
       <r>    0.0434    1.0000 </r>
       <r>    0.0717    1.0000 </r>
       <r>    0.1007    1.0000 </r>
       <r>    0.1229    1.0000 </r>
       <r>    0.2750    1.0000 </r>
       <r>    0.2780    1.0000 </r>
       <r>    0.3306    1.0000 </r>
       <r>    0.3693    1.0000 </r>
       <r>    0.4104    1.0000 </r>
       <r>    0.4637    1.0000 </r>
       <r>    0.4920    1.0000 </r>
       <r>    0.5751    1.0000 </r>
       <r>    0.6261    1.0000 </r>
       <r>    0.6677    1.0000 </r>
       <r>    0.6721    1.0000 </r>
       <r>    0.7777    1.0000 </r>
       <r>    0.8272    1.0000 </r>
       <r>    0.8425    1.0000 </r>
       <r>    0.9267    1.0000 </r>
       <r>    0.9988    1.0000 </r>
       <r>    1.0658    1.0000 </r>
       <r>    1.0871    1.0000 </r>
       <r>    1.1316    1.0000 </r>
       <r>    1.1641    1.0000 </r>
       <r>    1.2093    1.0000 </r>
       <r>    1.2329    1.0000 </r>
       <r>    1.2608    1.0000 </r>
       <r>    1.2916    1.0000 </r>
       <r>    1.3257    1.0000 </r>
       <r>    1.3765    1.0000 </r>
       <r>    1.4159    1.0000 </r>
       <r>    1.4565    1.0000 </r>
       <r>    1.5402    1.0000 </r>
       <r>    1.6159    1.0000 </r>
       <r>    1.6299    1.0000 </r>
       <r>    1.6466    1.0000 </r>
       <r>    1.6987    1.0000 </r>
       <r>    1.7042    1.0000 </r>
       <r>    1.8171    1.0000 </r>
       <r>    1.8493    1.0000 </r>
       <r>    1.8748    1.0000 </r>
       <r>    1.8821    1.0000 </r>
       <r>    1.9728    1.0000 </r>
       <r>    2.0298    1.0000 </r>
       <r>    2.0892    1.0000 </r>
       <r>    2.1157    1.0000 </r>
       <r>    2.2108    1.0000 </r>
       <r>    2.2649    1.0000 </r>
       <r>    2.2787    1.0000 </r>
       <r>    2.3666    1.0000 </r>
       <r>    2.5050    1.0000 </r>
       <r>    2.5876    1.0000 </r>
       <r>    2.6270    1.0000 </r>
       <r>    2.6278    1.0000 </r>
       <r>    2.6961    1.0000 </r>
       <r>    2.7981    1.0000 </r>
       <r>    2.8135    1.0000 </r>
       <r>    2.9898    1.0000 </r>
       <r>    3.0217    1.0000 </r>
       <r>    3.3069    1.0000 </r>
       <r>    3.3136    1.0000 </r>
       <r>    3.3737    1.0000 </r>
       <r>    3.5671    1.0000 </r>
       <r>    3.6601    1.0000 </r>
       <r>    3.7043    0.4739 </r>
       <r>    3.7428    0.0000 </r>
       <r>    3.7458    0.0000 </r>
       <r>    3.8080    0.0000 </r>
       <r>    3.8824    0.0000 </r>
       <r>    4.0136    0.0000 </r>
       <r>    4.1790    0.0000 </r>
       <r>    4.2318    0.0000 </r>
       <r>    4.3106    0.0000 </r>
       <r>    4.4173    0.0000 </r>
       <r>    4.4582    0.0000 </r>
       <r>    4.4864    0.0000 </r>
       <r>    4.4972    0.0000 </r>
       <r>    4.5719    0.0000 </r>
       <r>    4.6034    0.0000 </r>
       <r>    4.7642    0.0000 </r>
       <r>    4.9182    0.0000 </r>
       <r>    4.9327    0.0000 </r>
       <r>    4.9459    0.0000 </r>
       <r>    5.0168    0.0000 </r>
       <r>    5.0532    0.0000 </r>
       <r>    5.1330    0.0000 </r>
       <r>    5.1979    0.0000 </r>
       <r>    5.2868    0.0000 </r>
       <r>    5.3349    0.0000 </r>
       <r>    5.3880    0.0000 </r>
       <r>    5.4191    0.0000 </r>
       <r>    5.5132    0.0000 </r>
       <r>    5.5573    0.0000 </r>
       <r>    5.6498    0.0000 </r>
       <r>    5.7246    0.0000 </r>
       <r>    5.7750    0.0000 </r>
       <r>    5.8027    0.0000 </r>
      </set>
      <set comment="kpoint 3">
       <r>   -8.2930    1.0000 </r>
       <r>   -8.2930    1.0000 </r>
       <r>   -7.9043    1.0000 </r>
       <r>   -7.9043    1.0000 </r>
       <r>   -7.7967    1.0000 </r>
       <r>   -7.7967    1.0000 </r>
       <r>   -7.5091    1.0000 </r>
       <r>   -7.5091    1.0000 </r>
       <r>   -7.4722    1.0000 </r>
       <r>   -7.4722    1.0000 </r>
       <r>   -7.1318    1.0000 </r>
       <r>   -7.1318    1.0000 </r>
       <r>   -6.9905    1.0000 </r>
       <r>   -6.9905    1.0000 </r>
       <r>   -6.9558    1.0000 </r>
       <r>   -6.9558    1.0000 </r>
       <r>   -6.5753    1.0000 </r>
       <r>   -6.5753    1.0000 </r>
       <r>   -6.5230    1.0000 </r>
       <r>   -6.5230    1.0000 </r>
       <r>   -6.4701    1.0000 </r>
       <r>   -6.4701    1.0000 </r>
       <r>   -6.1915    1.0000 </r>
       <r>   -6.1915    1.0000 </r>
       <r>   -5.5494    1.0000 </r>
       <r>   -5.5494    1.0000 </r>
       <r>   -5.4875    1.0000 </r>
       <r>   -5.4875    1.0000 </r>
       <r>   -5.3467    1.0000 </r>
       <r>   -5.3467    1.0000 </r>
       <r>   -5.2777    1.0000 </r>
       <r>   -5.2777    1.0000 </r>
       <r>   -5.2549    1.0000 </r>
       <r>   -5.2549    1.0000 </r>
       <r>   -5.0752    1.0000 </r>
       <r>   -5.0752    1.0000 </r>
       <r>   -4.4739    1.0000 </r>
       <r>   -4.4739    1.0000 </r>
       <r>   -4.1790    1.0000 </r>
       <r>   -4.1790    1.0000 </r>
       <r>   -3.7120    1.0000 </r>
       <r>   -3.7120    1.0000 </r>
       <r>   -3.6366    1.0000 </r>
       <r>   -3.6366    1.0000 </r>
       <r>   -3.4640    1.0000 </r>
       <r>   -3.4640    1.0000 </r>
       <r>   -3.2301    1.0000 </r>
       <r>   -3.2301    1.0000 </r>
       <r>   -2.9978    1.0000 </r>
       <r>   -2.9978    1.0000 </r>
       <r>   -2.9208    1.0000 </r>
       <r>   -2.9208    1.0000 </r>
       <r>   -2.7878    1.0000 </r>
       <r>   -2.7878    1.0000 </r>
       <r>   -2.6785    1.0000 </r>
       <r>   -2.6785    1.0000 </r>
       <r>   -2.5532    1.0000 </r>
       <r>   -2.5532    1.0000 </r>
       <r>   -2.1034    1.0000 </r>
       <r>   -2.1034    1.0000 </r>
       <r>   -1.7138    1.0000 </r>
       <r>   -1.7138    1.0000 </r>
       <r>   -1.5339    1.0000 </r>
       <r>   -1.5339    1.0000 </r>
       <r>   -1.3751    1.0000 </r>
       <r>   -1.3751    1.0000 </r>
       <r>   -1.0708    1.0000 </r>
       <r>   -1.0708    1.0000 </r>
       <r>   -0.9380    1.0000 </r>
       <r>   -0.9380    1.0000 </r>
       <r>   -0.6736    1.0000 </r>
       <r>   -0.6736    1.0000 </r>
       <r>   -0.4485    1.0000 </r>
       <r>   -0.4485    1.0000 </r>
       <r>   -0.3596    1.0000 </r>
       <r>   -0.3596    1.0000 </r>
       <r>   -0.2108    1.0000 </r>
       <r>   -0.2108    1.0000 </r>
       <r>   -0.1883    1.0000 </r>
       <r>   -0.1883    1.0000 </r>
       <r>   -0.1189    1.0000 </r>
       <r>   -0.1189    1.0000 </r>
       <r>   -0.0860    1.0000 </r>
       <r>   -0.0860    1.0000 </r>
       <r>    0.0098    1.0000 </r>
       <r>    0.0098    1.0000 </r>
       <r>    0.1481    1.0000 </r>
       <r>    0.1481    1.0000 </r>
       <r>    0.1801    1.0000 </r>
       <r>    0.1801    1.0000 </r>
       <r>    0.3036    1.0000 </r>
       <r>    0.3036    1.0000 </r>
       <r>    0.4796    1.0000 </r>
       <r>    0.4796    1.0000 </r>
       <r>    0.4862    1.0000 </r>
       <r>    0.4862    1.0000 </r>
       <r>    0.6867    1.0000 </r>
       <r>    0.6867    1.0000 </r>
       <r>    0.9003    1.0000 </r>
       <r>    0.9003    1.0000 </r>
       <r>    0.9450    1.0000 </r>
       <r>    0.9450    1.0000 </r>
       <r>    1.0218    1.0000 </r>
       <r>    1.0218    1.0000 </r>
       <r>    1.1531    1.0000 </r>
       <r>    1.1531    1.0000 </r>
       <r>    1.2652    1.0000 </r>
       <r>    1.2652    1.0000 </r>
       <r>    1.3981    1.0000 </r>
       <r>    1.3981    1.0000 </r>
       <r>    1.4358    1.0000 </r>
       <r>    1.4358    1.0000 </r>
       <r>    1.4980    1.0000 </r>
       <r>    1.4980    1.0000 </r>
       <r>    1.5983    1.0000 </r>
       <r>    1.5983    1.0000 </r>
       <r>    1.7313    1.0000 </r>
       <r>    1.7313    1.0000 </r>
       <r>    1.8430    1.0000 </r>
       <r>    1.8430    1.0000 </r>
       <r>    2.0161    1.0000 </r>
       <r>    2.0161    1.0000 </r>
       <r>    2.0875    1.0000 </r>
       <r>    2.0875    1.0000 </r>
       <r>    2.1149    1.0000 </r>
       <r>    2.1149    1.0000 </r>
       <r>    2.2977    1.0000 </r>
       <r>    2.2977    1.0000 </r>
       <r>    2.4330    1.0000 </r>
       <r>    2.4330    1.0000 </r>
       <r>    2.5260    1.0000 </r>
       <r>    2.5260    1.0000 </r>
       <r>    2.5694    1.0000 </r>
       <r>    2.5694    1.0000 </r>
       <r>    2.8632    1.0000 </r>
       <r>    2.8632    1.0000 </r>
       <r>    2.9037    1.0000 </r>
       <r>    2.9037    1.0000 </r>
       <r>    3.1708    1.0000 </r>
       <r>    3.1708    1.0000 </r>
       <r>    3.5482    1.0000 </r>
       <r>    3.5482    1.0000 </r>
       <r>    3.6851    0.9961 </r>
       <r>    3.6851    0.9961 </r>
       <r>    3.8233    0.0000 </r>
       <r>    3.8233    0.0000 </r>
       <r>    3.9448    0.0000 </r>
       <r>    3.9448    0.0000 </r>
       <r>    4.0439    0.0000 </r>
       <r>    4.0439    0.0000 </r>
       <r>    4.3105    0.0000 </r>
       <r>    4.3105    0.0000 </r>
       <r>    4.4900    0.0000 </r>
       <r>    4.4900    0.0000 </r>
       <r>    4.5851    0.0000 </r>
       <r>    4.5851    0.0000 </r>
       <r>    4.6954    0.0000 </r>
       <r>    4.6954    0.0000 </r>
       <r>    4.7227    0.0000 </r>
       <r>    4.7227    0.0000 </r>
       <r>    4.9725    0.0000 </r>
       <r>    4.9725    0.0000 </r>
       <r>    5.0481    0.0000 </r>
       <r>    5.0481    0.0000 </r>
       <r>    5.2887    0.0000 </r>
       <r>    5.2887    0.0000 </r>
       <r>    5.3936    0.0000 </r>
       <r>    5.3936    0.0000 </r>
       <r>    5.4740    0.0000 </r>
       <r>    5.4740    0.0000 </r>
       <r>    5.5767    0.0000 </r>
       <r>    5.5767    0.0000 </r>
       <r>    5.8096    0.0000 </r>
       <r>    5.8096    0.0000 </r>
       <r>    5.8963    0.0000 </r>
       <r>    5.8973    0.0000 </r>
      </set>
      <set comment="kpoint 4">
       <r>   -8.6930    1.0000 </r>
       <r>   -8.6320    1.0000 </r>
       <r>   -8.0340    1.0000 </r>
       <r>   -7.9692    1.0000 </r>
       <r>   -7.7920    1.0000 </r>
       <r>   -7.7027    1.0000 </r>
       <r>   -7.5218    1.0000 </r>
       <r>   -7.4455    1.0000 </r>
       <r>   -7.2236    1.0000 </r>
       <r>   -7.0965    1.0000 </r>
       <r>   -7.0405    1.0000 </r>
       <r>   -6.9543    1.0000 </r>
       <r>   -6.9316    1.0000 </r>
       <r>   -6.9062    1.0000 </r>
       <r>   -6.8011    1.0000 </r>
       <r>   -6.7519    1.0000 </r>
       <r>   -6.7101    1.0000 </r>
       <r>   -6.6154    1.0000 </r>
       <r>   -6.1652    1.0000 </r>
       <r>   -6.0443    1.0000 </r>
       <r>   -5.9981    1.0000 </r>
       <r>   -5.9546    1.0000 </r>
       <r>   -5.9144    1.0000 </r>
       <r>   -5.8815    1.0000 </r>
       <r>   -5.8564    1.0000 </r>
       <r>   -5.8331    1.0000 </r>
       <r>   -5.7702    1.0000 </r>
       <r>   -5.7522    1.0000 </r>
       <r>   -5.7432    1.0000 </r>
       <r>   -5.5261    1.0000 </r>
       <r>   -5.3383    1.0000 </r>
       <r>   -5.2580    1.0000 </r>
       <r>   -5.0934    1.0000 </r>
       <r>   -4.7279    1.0000 </r>
       <r>   -4.6107    1.0000 </r>
       <r>   -4.5631    1.0000 </r>
       <r>   -4.4552    1.0000 </r>
       <r>   -4.3474    1.0000 </r>
       <r>   -4.3390    1.0000 </r>
       <r>   -4.2757    1.0000 </r>
       <r>   -4.2670    1.0000 </r>
       <r>   -4.2314    1.0000 </r>
       <r>   -4.1742    1.0000 </r>
       <r>   -4.0141    1.0000 </r>
       <r>   -3.8497    1.0000 </r>
       <r>   -3.8318    1.0000 </r>
       <r>   -3.7584    1.0000 </r>
       <r>   -3.5684    1.0000 </r>
       <r>   -3.4010    1.0000 </r>
       <r>   -3.3751    1.0000 </r>
       <r>   -3.3383    1.0000 </r>
       <r>   -3.2247    1.0000 </r>
       <r>   -3.1166    1.0000 </r>
       <r>   -3.0090    1.0000 </r>
       <r>   -2.9202    1.0000 </r>
       <r>   -2.8935    1.0000 </r>
       <r>   -2.7778    1.0000 </r>
       <r>   -2.7439    1.0000 </r>
       <r>   -2.7100    1.0000 </r>
       <r>   -2.5259    1.0000 </r>
       <r>   -2.3714    1.0000 </r>
       <r>   -2.2336    1.0000 </r>
       <r>   -2.1049    1.0000 </r>
       <r>   -1.7940    1.0000 </r>
       <r>   -1.7249    1.0000 </r>
       <r>   -1.6726    1.0000 </r>
       <r>   -1.1914    1.0000 </r>
       <r>   -0.7427    1.0000 </r>
       <r>   -0.7288    1.0000 </r>
       <r>   -0.3951    1.0000 </r>
       <r>   -0.3527    1.0000 </r>
       <r>   -0.2484    1.0000 </r>
       <r>   -0.2011    1.0000 </r>
       <r>   -0.0832    1.0000 </r>
       <r>   -0.0415    1.0000 </r>
       <r>   -0.0134    1.0000 </r>
       <r>    0.0456    1.0000 </r>
       <r>    0.0741    1.0000 </r>
       <r>    0.0858    1.0000 </r>
       <r>    0.0950    1.0000 </r>
       <r>    0.2445    1.0000 </r>
       <r>    0.2600    1.0000 </r>
       <r>    0.2778    1.0000 </r>
       <r>    0.3465    1.0000 </r>
       <r>    0.4139    1.0000 </r>
       <r>    0.4803    1.0000 </r>
       <r>    0.5310    1.0000 </r>
       <r>    0.5310    1.0000 </r>
       <r>    0.6024    1.0000 </r>
       <r>    0.6701    1.0000 </r>
       <r>    0.7095    1.0000 </r>
       <r>    0.7530    1.0000 </r>
       <r>    0.8537    1.0000 </r>
       <r>    0.8712    1.0000 </r>
       <r>    0.9109    1.0000 </r>
       <r>    0.9618    1.0000 </r>
       <r>    1.0183    1.0000 </r>
       <r>    1.0532    1.0000 </r>
       <r>    1.0557    1.0000 </r>
       <r>    1.1424    1.0000 </r>
       <r>    1.1501    1.0000 </r>
       <r>    1.2620    1.0000 </r>
       <r>    1.2945    1.0000 </r>
       <r>    1.3125    1.0000 </r>
       <r>    1.3718    1.0000 </r>
       <r>    1.3968    1.0000 </r>
       <r>    1.4889    1.0000 </r>
       <r>    1.5079    1.0000 </r>
       <r>    1.5114    1.0000 </r>
       <r>    1.6053    1.0000 </r>
       <r>    1.6096    1.0000 </r>
       <r>    1.6996    1.0000 </r>
       <r>    1.7410    1.0000 </r>
       <r>    1.7467    1.0000 </r>
       <r>    1.8140    1.0000 </r>
       <r>    1.8376    1.0000 </r>
       <r>    1.8837    1.0000 </r>
       <r>    1.8932    1.0000 </r>
       <r>    1.9305    1.0000 </r>
       <r>    1.9850    1.0000 </r>
       <r>    2.1091    1.0000 </r>
       <r>    2.1707    1.0000 </r>
       <r>    2.2051    1.0000 </r>
       <r>    2.2756    1.0000 </r>
       <r>    2.3344    1.0000 </r>
       <r>    2.3717    1.0000 </r>
       <r>    2.4457    1.0000 </r>
       <r>    2.5513    1.0000 </r>
       <r>    2.5516    1.0000 </r>
       <r>    2.5911    1.0000 </r>
       <r>    2.6457    1.0000 </r>
       <r>    2.7253    1.0000 </r>
       <r>    2.7510    1.0000 </r>
       <r>    2.7704    1.0000 </r>
       <r>    2.9222    1.0000 </r>
       <r>    2.9414    1.0000 </r>
       <r>    3.0288    1.0000 </r>
       <r>    3.0745    1.0000 </r>
       <r>    3.1966    1.0000 </r>
       <r>    3.3235    1.0000 </r>
       <r>    3.3513    1.0000 </r>
       <r>    3.4124    1.0000 </r>
       <r>    3.4741    1.0000 </r>
       <r>    3.5048    1.0000 </r>
       <r>    3.6536    1.0000 </r>
       <r>    3.7289    0.0002 </r>
       <r>    3.7786    0.0000 </r>
       <r>    3.8727    0.0000 </r>
       <r>    3.9027    0.0000 </r>
       <r>    3.9439    0.0000 </r>
       <r>    3.9656    0.0000 </r>
       <r>    4.0577    0.0000 </r>
       <r>    4.1206    0.0000 </r>
       <r>    4.1968    0.0000 </r>
       <r>    4.3218    0.0000 </r>
       <r>    4.4002    0.0000 </r>
       <r>    4.4520    0.0000 </r>
       <r>    4.4579    0.0000 </r>
       <r>    4.5155    0.0000 </r>
       <r>    4.5359    0.0000 </r>
       <r>    4.6037    0.0000 </r>
       <r>    4.7256    0.0000 </r>
       <r>    4.8669    0.0000 </r>
       <r>    4.9268    0.0000 </r>
       <r>    4.9527    0.0000 </r>
       <r>    5.0769    0.0000 </r>
       <r>    5.0935    0.0000 </r>
       <r>    5.0992    0.0000 </r>
       <r>    5.1344    0.0000 </r>
       <r>    5.2453    0.0000 </r>
       <r>    5.2699    0.0000 </r>
       <r>    5.2748    0.0000 </r>
       <r>    5.3540    0.0000 </r>
       <r>    5.3738    0.0000 </r>
       <r>    5.3865    0.0000 </r>
       <r>    5.4620    0.0000 </r>
      </set>
      <set comment="kpoint 5">
       <r>   -8.5688    1.0000 </r>
       <r>   -8.5084    1.0000 </r>
       <r>   -7.9187    1.0000 </r>
       <r>   -7.8533    1.0000 </r>
       <r>   -7.6719    1.0000 </r>
       <r>   -7.6392    1.0000 </r>
       <r>   -7.5871    1.0000 </r>
       <r>   -7.5776    1.0000 </r>
       <r>   -7.4060    1.0000 </r>
       <r>   -7.3277    1.0000 </r>
       <r>   -7.1437    1.0000 </r>
       <r>   -7.1015    1.0000 </r>
       <r>   -7.1014    1.0000 </r>
       <r>   -6.8398    1.0000 </r>
       <r>   -6.8115    1.0000 </r>
       <r>   -6.7126    1.0000 </r>
       <r>   -6.6616    1.0000 </r>
       <r>   -6.5871    1.0000 </r>
       <r>   -6.5026    1.0000 </r>
       <r>   -6.4975    1.0000 </r>
       <r>   -6.2551    1.0000 </r>
       <r>   -6.0907    1.0000 </r>
       <r>   -5.9844    1.0000 </r>
       <r>   -5.9208    1.0000 </r>
       <r>   -5.8081    1.0000 </r>
       <r>   -5.7221    1.0000 </r>
       <r>   -5.6549    1.0000 </r>
       <r>   -5.6130    1.0000 </r>
       <r>   -5.5472    1.0000 </r>
       <r>   -5.4785    1.0000 </r>
       <r>   -5.3144    1.0000 </r>
       <r>   -5.1343    1.0000 </r>
       <r>   -5.0799    1.0000 </r>
       <r>   -4.9652    1.0000 </r>
       <r>   -4.8828    1.0000 </r>
       <r>   -4.6852    1.0000 </r>
       <r>   -4.6108    1.0000 </r>
       <r>   -4.4609    1.0000 </r>
       <r>   -4.3026    1.0000 </r>
       <r>   -4.1211    1.0000 </r>
       <r>   -4.0772    1.0000 </r>
       <r>   -4.0372    1.0000 </r>
       <r>   -3.8004    1.0000 </r>
       <r>   -3.7441    1.0000 </r>
       <r>   -3.6464    1.0000 </r>
       <r>   -3.6161    1.0000 </r>
       <r>   -3.5136    1.0000 </r>
       <r>   -3.4707    1.0000 </r>
       <r>   -3.4311    1.0000 </r>
       <r>   -3.3835    1.0000 </r>
       <r>   -3.1036    1.0000 </r>
       <r>   -2.9859    1.0000 </r>
       <r>   -2.9134    1.0000 </r>
       <r>   -2.8108    1.0000 </r>
       <r>   -2.7765    1.0000 </r>
       <r>   -2.7373    1.0000 </r>
       <r>   -2.5921    1.0000 </r>
       <r>   -2.4560    1.0000 </r>
       <r>   -2.4442    1.0000 </r>
       <r>   -2.2437    1.0000 </r>
       <r>   -2.1314    1.0000 </r>
       <r>   -2.1035    1.0000 </r>
       <r>   -1.8325    1.0000 </r>
       <r>   -1.7789    1.0000 </r>
       <r>   -1.7249    1.0000 </r>
       <r>   -1.6011    1.0000 </r>
       <r>   -1.3634    1.0000 </r>
       <r>   -0.8632    1.0000 </r>
       <r>   -0.7529    1.0000 </r>
       <r>   -0.5702    1.0000 </r>
       <r>   -0.4946    1.0000 </r>
       <r>   -0.3737    1.0000 </r>
       <r>   -0.3479    1.0000 </r>
       <r>   -0.3168    1.0000 </r>
       <r>   -0.3018    1.0000 </r>
       <r>   -0.2229    1.0000 </r>
       <r>   -0.1406    1.0000 </r>
       <r>   -0.0590    1.0000 </r>
       <r>   -0.0011    1.0000 </r>
       <r>    0.0553    1.0000 </r>
       <r>    0.0557    1.0000 </r>
       <r>    0.1679    1.0000 </r>
       <r>    0.2475    1.0000 </r>
       <r>    0.3107    1.0000 </r>
       <r>    0.3913    1.0000 </r>
       <r>    0.4215    1.0000 </r>
       <r>    0.4676    1.0000 </r>
       <r>    0.4761    1.0000 </r>
       <r>    0.5302    1.0000 </r>
       <r>    0.5663    1.0000 </r>
       <r>    0.5759    1.0000 </r>
       <r>    0.6026    1.0000 </r>
       <r>    0.6880    1.0000 </r>
       <r>    0.7705    1.0000 </r>
       <r>    0.7832    1.0000 </r>
       <r>    0.8484    1.0000 </r>
       <r>    0.8772    1.0000 </r>
       <r>    0.9152    1.0000 </r>
       <r>    0.9473    1.0000 </r>
       <r>    0.9843    1.0000 </r>
       <r>    1.0496    1.0000 </r>
       <r>    1.0716    1.0000 </r>
       <r>    1.1073    1.0000 </r>
       <r>    1.1702    1.0000 </r>
       <r>    1.2678    1.0000 </r>
       <r>    1.2771    1.0000 </r>
       <r>    1.2817    1.0000 </r>
       <r>    1.3599    1.0000 </r>
       <r>    1.3700    1.0000 </r>
       <r>    1.4469    1.0000 </r>
       <r>    1.4717    1.0000 </r>
       <r>    1.4983    1.0000 </r>
       <r>    1.5142    1.0000 </r>
       <r>    1.5614    1.0000 </r>
       <r>    1.5979    1.0000 </r>
       <r>    1.6347    1.0000 </r>
       <r>    1.6818    1.0000 </r>
       <r>    1.7359    1.0000 </r>
       <r>    1.7449    1.0000 </r>
       <r>    1.7989    1.0000 </r>
       <r>    1.8625    1.0000 </r>
       <r>    1.8699    1.0000 </r>
       <r>    1.8758    1.0000 </r>
       <r>    1.9236    1.0000 </r>
       <r>    2.0585    1.0000 </r>
       <r>    2.0673    1.0000 </r>
       <r>    2.2297    1.0000 </r>
       <r>    2.3197    1.0000 </r>
       <r>    2.4081    1.0000 </r>
       <r>    2.4392    1.0000 </r>
       <r>    2.5227    1.0000 </r>
       <r>    2.5405    1.0000 </r>
       <r>    2.7894    1.0000 </r>
       <r>    2.8240    1.0000 </r>
       <r>    2.8874    1.0000 </r>
       <r>    2.9453    1.0000 </r>
       <r>    3.0526    1.0000 </r>
       <r>    3.0693    1.0000 </r>
       <r>    3.2752    1.0000 </r>
       <r>    3.3744    1.0000 </r>
       <r>    3.4331    1.0000 </r>
       <r>    3.5355    1.0000 </r>
       <r>    3.5590    1.0000 </r>
       <r>    3.6363    1.0000 </r>
       <r>    3.7264    0.0007 </r>
       <r>    3.7734    0.0000 </r>
       <r>    3.8416    0.0000 </r>
       <r>    3.9723    0.0000 </r>
       <r>    4.0351    0.0000 </r>
       <r>    4.0855    0.0000 </r>
       <r>    4.1902    0.0000 </r>
       <r>    4.2621    0.0000 </r>
       <r>    4.2869    0.0000 </r>
       <r>    4.3324    0.0000 </r>
       <r>    4.5896    0.0000 </r>
       <r>    4.6126    0.0000 </r>
       <r>    4.6553    0.0000 </r>
       <r>    4.6641    0.0000 </r>
       <r>    4.7902    0.0000 </r>
       <r>    4.8296    0.0000 </r>
       <r>    4.9097    0.0000 </r>
       <r>    5.0988    0.0000 </r>
       <r>    5.1131    0.0000 </r>
       <r>    5.1812    0.0000 </r>
       <r>    5.2202    0.0000 </r>
       <r>    5.3045    0.0000 </r>
       <r>    5.3652    0.0000 </r>
[...]
       <r>    -9.5233     0.0000     0.0000 </r>
       <r>    -9.4688     0.0000     0.0000 </r>
       <r>    -9.4142     0.0000     0.0000 </r>
       <r>    -9.3597     0.0000     0.0000 </r>
       <r>    -9.3051     0.0000     0.0000 </r>
       <r>    -9.2506     0.0000     0.0000 </r>
       <r>    -9.1960     0.0000     0.0000 </r>
       <r>    -9.1414     0.0000     0.0000 </r>
       <r>    -9.0869     0.0000     0.0000 </r>
       <r>    -9.0323     0.0000     0.0000 </r>
       <r>    -8.9778     0.0000     0.0000 </r>
       <r>    -8.9232     0.0000     0.0000 </r>
       <r>    -8.8687     0.0000     0.0000 </r>
       <r>    -8.8141     0.0000     0.0000 </r>
       <r>    -8.7596     2.2212     0.1212 </r>
       <r>    -8.7050     2.3823     0.2512 </r>
       <r>    -8.6504     4.5840     0.5012 </r>
       <r>    -8.5959    13.5914     1.2427 </r>
       <r>    -8.5413     4.7188     1.5002 </r>
       <r>    -8.4868    10.5930     2.0781 </r>
       <r>    -8.4322     3.1510     2.2500 </r>
       <r>    -8.3777     3.2220     2.4258 </r>
       <r>    -8.3231     1.3604     2.5000 </r>
       <r>    -8.2686    10.9326     3.0964 </r>
       <r>    -8.2140    13.2844     3.8212 </r>
       <r>    -8.1594     8.3734     4.2780 </r>
       <r>    -8.1049    22.6458     5.5135 </r>
       <r>    -8.0503     4.7226     5.7711 </r>
       <r>    -7.9958     5.3381     6.0623 </r>
       <r>    -7.9412     8.4868     6.5253 </r>
       <r>    -7.8867    22.2254     7.7379 </r>
       <r>    -7.8321     8.9956     8.2286 </r>
       <r>    -7.7775    15.8875     9.0954 </r>
       <r>    -7.7230    14.2864     9.8748 </r>
       <r>    -7.6684    10.5799    10.4520 </r>
       <r>    -7.6139    21.5163    11.6259 </r>
       <r>    -7.5593    29.1831    13.2180 </r>
       <r>    -7.5048    21.6180    14.3974 </r>
       <r>    -7.4502    13.9632    15.1592 </r>
       <r>    -7.3957    11.8292    15.8045 </r>
       <r>    -7.3411    10.5029    16.3775 </r>
       <r>    -7.2865    20.9808    17.5222 </r>
       <r>    -7.2320    15.6843    18.3778 </r>
       <r>    -7.1774    20.4443    19.4932 </r>
       <r>    -7.1229    27.0983    20.9716 </r>
       <r>    -7.0683    35.0406    22.8833 </r>
       <r>    -7.0138    20.3440    23.9932 </r>
       <r>    -6.9592    18.0825    24.9797 </r>
       <r>    -6.9047    26.7849    26.4410 </r>
       <r>    -6.8501    38.3219    28.5317 </r>
       <r>    -6.7955    18.9114    29.5634 </r>
       <r>    -6.7410    14.3686    30.3473 </r>
       <r>    -6.6864    26.4346    31.7895 </r>
       <r>    -6.6319    25.8404    33.1992 </r>
       <r>    -6.5773    21.3228    34.3625 </r>
       <r>    -6.5228    25.6683    35.7629 </r>
       <r>    -6.4682    43.6598    38.1448 </r>
       <r>    -6.4136    17.2774    39.0874 </r>
       <r>    -6.3591    21.3049    40.2497 </r>
       <r>    -6.3045     8.6025    40.7191 </r>
       <r>    -6.2500    13.3845    41.4493 </r>
       <r>    -6.1954    22.0302    42.6512 </r>
       <r>    -6.1409    22.5045    43.8789 </r>
       <r>    -6.0863    18.8681    44.9083 </r>
       <r>    -6.0318    15.5942    45.7590 </r>
       <r>    -5.9772    17.4153    46.7092 </r>
       <r>    -5.9226    23.7504    48.0049 </r>
       <r>    -5.8681    32.4633    49.7759 </r>
       <r>    -5.8135    18.7832    50.8007 </r>
       <r>    -5.7590    26.9455    52.2707 </r>
       <r>    -5.7044    15.3034    53.1057 </r>
       <r>    -5.6499    11.1503    53.7140 </r>
       <r>    -5.5953    28.0003    55.2416 </r>
       <r>    -5.5408    16.4381    56.1384 </r>
       <r>    -5.4862     7.6353    56.5549 </r>
       <r>    -5.4316    23.5821    57.8415 </r>
       <r>    -5.3771    25.6199    59.2392 </r>
       <r>    -5.3225    17.3532    60.1859 </r>
       <r>    -5.2680    14.8992    60.9988 </r>
       <r>    -5.2134    18.3268    61.9986 </r>
       <r>    -5.1589    15.9541    62.8690 </r>
       <r>    -5.1043    14.3763    63.6533 </r>
       <r>    -5.0497    45.3115    66.1253 </r>
       <r>    -4.9952     9.1583    66.6250 </r>
       <r>    -4.9406     8.9362    67.1125 </r>
       <r>    -4.8861     2.7761    67.2640 </r>
       <r>    -4.8315    10.0335    67.8114 </r>
       <r>    -4.7770     3.4577    68.0000 </r>
       <r>    -4.7224     1.8588    68.1014 </r>
       <r>    -4.6679    12.4789    68.7822 </r>
       <r>    -4.6133    17.0497    69.7124 </r>
       <r>    -4.5587    25.1137    71.0825 </r>
       <r>    -4.5042    18.3516    72.0837 </r>
       <r>    -4.4496    26.1765    73.5118 </r>
       <r>    -4.3951    10.9433    74.1088 </r>
       <r>    -4.3405    22.2603    75.3232 </r>
       <r>    -4.2860    30.3908    76.9812 </r>
       <r>    -4.2314    32.7417    78.7675 </r>
       <r>    -4.1769    19.0636    79.8075 </r>
       <r>    -4.1223    32.5672    81.5843 </r>
       <r>    -4.0677    21.3432    82.7487 </r>
       <r>    -4.0132    10.9222    83.3446 </r>
       <r>    -3.9586    10.0996    83.8956 </r>
       <r>    -3.9041     6.7942    84.2662 </r>
       <r>    -3.8495    19.7445    85.3434 </r>
       <r>    -3.7950    11.5409    85.9730 </r>
       <r>    -3.7404    14.3817    86.7577 </r>
       <r>    -3.6858    22.3814    87.9787 </r>
       <r>    -3.6313    42.8069    90.3141 </r>
       <r>    -3.5767    25.4642    91.7033 </r>
       <r>    -3.5222    24.7736    93.0549 </r>
       <r>    -3.4676    29.0502    94.6397 </r>
       <r>    -3.4131    27.0977    96.1181 </r>
       <r>    -3.3585    35.7059    98.0660 </r>
       <r>    -3.3040    21.5104    99.2396 </r>
       <r>    -3.2494    28.7970   100.8106 </r>
       <r>    -3.1948    15.2158   101.6408 </r>
       <r>    -3.1403    20.0049   102.7322 </r>
       <r>    -3.0857    14.6353   103.5306 </r>
       <r>    -3.0312    10.9663   104.1289 </r>
       <r>    -2.9766    17.2148   105.0681 </r>
       <r>    -2.9221     7.9190   105.5001 </r>
       <r>    -2.8675    25.0873   106.8688 </r>
       <r>    -2.8130    26.0099   108.2878 </r>
       <r>    -2.7584    28.7040   109.8538 </r>
       <r>    -2.7038    20.7798   110.9875 </r>
       <r>    -2.6493    20.8763   112.1264 </r>
       <r>    -2.5947     6.5415   112.4833 </r>
       <r>    -2.5402     8.6648   112.9560 </r>
       <r>    -2.4856    25.9711   114.3729 </r>
       <r>    -2.4311    17.0583   115.3035 </r>
       <r>    -2.3765    23.5250   116.5870 </r>
       <r>    -2.3219    14.0811   117.3552 </r>
       <r>    -2.2674    13.4009   118.0863 </r>
       <r>    -2.2128    26.4878   119.5314 </r>
       <r>    -2.1583     9.7128   120.0613 </r>
       <r>    -2.1037    13.8736   120.8181 </r>
       <r>    -2.0492    27.0101   122.2917 </r>
       <r>    -1.9946    10.7028   122.8757 </r>
       <r>    -1.9401    15.6450   123.7292 </r>
       <r>    -1.8855     2.6471   123.8736 </r>
       <r>    -1.8309    11.7588   124.5151 </r>
       <r>    -1.7764    15.7896   125.3765 </r>
       <r>    -1.7218     8.5224   125.8415 </r>
       <r>    -1.6673    20.0480   126.9352 </r>
       <r>    -1.6127     7.1386   127.3247 </r>
       <r>    -1.5582    20.8234   128.4607 </r>
       <r>    -1.5036    12.1622   129.1243 </r>
       <r>    -1.4491     6.9512   129.5035 </r>
       <r>    -1.3945    24.1823   130.8228 </r>
       <r>    -1.3399    14.5102   131.6144 </r>
       <r>    -1.2854    21.9144   132.8100 </r>
       <r>    -1.2308    10.5527   133.3857 </r>
       <r>    -1.1763    10.1751   133.9408 </r>
       <r>    -1.1217     7.4636   134.3480 </r>
       <r>    -1.0672     3.3177   134.5290 </r>
       <r>    -1.0126     7.7373   134.9511 </r>
       <r>    -0.9580     4.7808   135.2119 </r>
       <r>    -0.9035     5.2784   135.4999 </r>
       <r>    -0.8489     5.4423   135.7968 </r>
       <r>    -0.7944    18.6033   136.8117 </r>
       <r>    -0.7398    14.3402   137.5941 </r>
       <r>    -0.6853    22.6179   138.8280 </r>
       <r>    -0.6307    20.2121   139.9307 </r>
       <r>    -0.5762     1.3841   140.0062 </r>
       <r>    -0.5216    25.0075   141.3706 </r>
       <r>    -0.4670    28.0059   142.8984 </r>
       <r>    -0.4125    14.0894   143.6671 </r>
       <r>    -0.3579    27.3316   145.1582 </r>
       <r>    -0.3034    37.8286   147.2220 </r>
       <r>    -0.2488    18.7566   148.2453 </r>
       <r>    -0.1943    58.4818   151.4359 </r>
       <r>    -0.1397    28.7364   153.0036 </r>
       <r>    -0.0852    38.4804   155.1030 </r>
       <r>    -0.0306    35.3251   157.0302 </r>
       <r>     0.0240    41.1007   159.2725 </r>
       <r>     0.0785    43.4017   161.6403 </r>
       <r>     0.1331    42.3120   163.9487 </r>
       <r>     0.1876    29.3411   165.5495 </r>
       <r>     0.2422    28.6516   167.1126 </r>
       <r>     0.2967    43.4604   169.4836 </r>
       <r>     0.3513    54.2384   172.4427 </r>
       <r>     0.4059    37.3595   174.4809 </r>
       <r>     0.4604    30.7748   176.1598 </r>
       <r>     0.5150    48.1381   178.7861 </r>
       <r>     0.5695    41.0244   181.0242 </r>
       <r>     0.6241    53.2211   183.9278 </r>
       <r>     0.6786    43.8968   186.3227 </r>
       <r>     0.7332    46.6315   188.8667 </r>
       <r>     0.7877    39.0018   190.9945 </r>
       <r>     0.8423    36.7455   192.9991 </r>
       <r>     0.8969    31.8563   194.7371 </r>
       <r>     0.9514    39.7953   196.9082 </r>
       <r>     1.0060    31.2777   198.6146 </r>
       <r>     1.0605    37.2592   200.6473 </r>
       <r>     1.1151    56.7387   203.7427 </r>
       <r>     1.1696    40.8366   205.9707 </r>
       <r>     1.2242    42.1672   208.2711 </r>
       <r>     1.2787    50.5607   211.0295 </r>
       <r>     1.3333    48.4972   213.6754 </r>
       <r>     1.3879    33.9447   215.5273 </r>
       <r>     1.4424    49.3706   218.2207 </r>
       <r>     1.4970    47.7085   220.8235 </r>
       <r>     1.5515    47.2792   223.4029 </r>
       <r>     1.6061    22.4994   224.6304 </r>
       <r>     1.6606    58.8110   227.8389 </r>
       <r>     1.7152    44.8276   230.2845 </r>
       <r>     1.7698    38.9720   232.4106 </r>
       <r>     1.8243    41.9830   234.7011 </r>
       <r>     1.8789    39.4358   236.8525 </r>
       <r>     1.9334    51.3736   239.6552 </r>
       <r>     1.9880    30.6792   241.3290 </r>
       <r>     2.0425    28.9840   242.9102 </r>
       <r>     2.0971    27.2460   244.3967 </r>
       <r>     2.1516    44.9672   246.8499 </r>
       <r>     2.2062    23.7267   248.1444 </r>
       <r>     2.2608    32.2070   249.9015 </r>
       <r>     2.3153    54.8273   252.8926 </r>
       <r>     2.3699    27.0361   254.3676 </r>
       <r>     2.4244    31.8691   256.1063 </r>
       <r>     2.4790    37.9147   258.1748 </r>
       <r>     2.5335    20.7930   259.3092 </r>
       <r>     2.5881    41.4540   261.5707 </r>
       <r>     2.6426    27.7621   263.0853 </r>
       <r>     2.6972    28.4388   264.6369 </r>
       <r>     2.7518    23.0704   265.8955 </r>
       <r>     2.8063    27.2000   267.3794 </r>
       <r>     2.8609    31.9118   269.1204 </r>
       <r>     2.9154    30.4113   270.7795 </r>
       <r>     2.9700    29.8169   272.4062 </r>
       <r>     3.0245    24.9506   273.7674 </r>
       <r>     3.0791    25.2057   275.1425 </r>
       <r>     3.1337    15.4345   275.9846 </r>
       <r>     3.1882    12.6281   276.6735 </r>
       <r>     3.2428    15.1393   277.4995 </r>
       <r>     3.2973     0.1305   277.5066 </r>
       <r>     3.3519    23.4347   278.7851 </r>
       <r>     3.4064    24.6915   280.1322 </r>
       <r>     3.4610    30.9307   281.8196 </r>
       <r>     3.5155     9.9381   282.3618 </r>
       <r>     3.5701    25.4903   283.7525 </r>
       <r>     3.6247    33.6884   285.5904 </r>
       <r>     3.6792    26.0671   287.0125 </r>
       <r>     3.7338    23.4759   288.2933 </r>
       <r>     3.7883    43.7057   290.6777 </r>
       <r>     3.8429    37.7910   292.7394 </r>
       <r>     3.8974    23.2552   294.0082 </r>
       <r>     3.9520    26.2211   295.4387 </r>
       <r>     4.0065    40.8138   297.6653 </r>
       <r>     4.0611    20.1117   298.7626 </r>
       <r>     4.1157    30.1856   300.4094 </r>
       <r>     4.1702    21.7238   301.5946 </r>
       <r>     4.2248    26.8012   303.0567 </r>
       <r>     4.2793    15.7061   303.9136 </r>
       <r>     4.3339    25.1699   305.2868 </r>
       <r>     4.3884    32.3865   307.0537 </r>
       <r>     4.4430    24.3421   308.3817 </r>
       <r>     4.4976    32.9208   310.1777 </r>
       <r>     4.5521    36.7526   312.1828 </r>
       <r>     4.6067    27.7372   313.6960 </r>
       <r>     4.6612    31.0518   315.3901 </r>
       <r>     4.7158    30.7064   317.0653 </r>
       <r>     4.7703    27.7133   318.5773 </r>
       <r>     4.8249    12.0932   319.2370 </r>
       <r>     4.8794    31.3852   320.9493 </r>
       <r>     4.9340    23.9812   322.2576 </r>
       <r>     4.9886    38.7048   324.3692 </r>
       <r>     5.0431    16.9118   325.2918 </r>
       <r>     5.0977    43.9951   327.6920 </r>
       <r>     5.1522    34.8104   329.5911 </r>
       <r>     5.2068    28.5076   331.1464 </r>
       <r>     5.2613    27.5645   332.6502 </r>
       <r>     5.3159    35.5525   334.5898 </r>
       <r>     5.3704    25.7849   335.9965 </r>
       <r>     5.4250    58.8059   339.2048 </r>
       <r>     5.4796    22.8160   340.4495 </r>
       <r>     5.5341    30.1342   342.0936 </r>
       <r>     5.5887    21.9506   343.2911 </r>
       <r>     5.6432    13.7349   344.0404 </r>
       <r>     5.6978    27.8223   345.5583 </r>
       <r>     5.7523    26.0119   346.9774 </r>
       <r>     5.8069    23.1728   348.2416 </r>
       <r>     5.8614    32.2251   349.9997 </r>
       <r>     5.9160    13.0768   350.7131 </r>
       <r>     5.9706     5.8337   351.0314 </r>
       <r>     6.0251     8.3941   351.4894 </r>
       <r>     6.0797     4.7914   351.7508 </r>
       <r>     6.1342     4.5678   352.0000 </r>
       <r>     6.1888     0.0000   352.0000 </r>
       <r>     6.2433     0.0000   352.0000 </r>
       <r>     6.2979     0.0000   352.0000 </r>
       <r>     6.3525     0.0000   352.0000 </r>
       <r>     6.4070     0.0000   352.0000 </r>
       <r>     6.4616     0.0000   352.0000 </r>
       <r>     6.5161     0.0000   352.0000 </r>
       <r>     6.5707     0.0000   352.0000 </r>
       <r>     6.6252     0.0000   352.0000 </r>
       <r>     6.6798     0.0000   352.0000 </r>
       <r>     6.7343     0.0000   352.0000 </r>
       <r>     6.7889     0.0000   352.0000 </r>
       <r>     6.8435     0.0000   352.0000 </r>
      </set>
     </set>
    </array>
   </total>
  </dos>
 </calculation>
 <structure name="finalpos" >
  <crystal>
   <varray name="basis" >
    <v>       8.00133800       0.00000000       0.00000000 </v>
    <v>       0.00000000      16.00267601       0.00000000 </v>
    <v>       0.00000000       0.00000000      13.26432419 </v>
   </varray>
   <i name="volume">   1698.40147098 </i>
   <varray name="rec_basis" >
    <v>       0.12497910       0.00000000       0.00000000 </v>
    <v>       0.00000000       0.06248955       0.00000000 </v>
    <v>       0.00000000       0.00000000       0.07539020 </v>
   </varray>
  </crystal>
  <varray name="positions" >
   <v>       0.99145830       0.99572915       0.00000000 </v>
   <v>       0.74145830       0.87072915       0.21327132 </v>
   <v>       0.49145830       0.74572915       0.42654267 </v>
   <v>       0.99145824       0.49572909       0.00000000 </v>
   <v>       0.74145830       0.37072912       0.21327132 </v>
   <v>       0.49145830       0.24572912       0.42654267 </v>
   <v>       0.49145824       0.24572912       0.00000000 </v>
   <v>       0.24145827       0.12072913       0.21327132 </v>
   <v>       0.99145830       0.99572915       0.42654267 </v>
   <v>       0.49145824       0.74572909       0.00000000 </v>
   <v>       0.24145828       0.62072909       0.21327132 </v>
   <v>       0.99145824       0.49572909       0.42654267 </v>
   <v>       0.24145828       0.99572915       0.10663566 </v>
   <v>       0.99145830       0.87072915       0.31990701 </v>
   <v>       0.74145830       0.74572915       0.53317833 </v>
   <v>       0.24145824       0.49572909       0.10663566 </v>
   <v>       0.99145824       0.37072909       0.31990701 </v>
   <v>       0.74145824       0.24572909       0.53317833 </v>
   <v>       0.74145830       0.24572915       0.10663566 </v>
   <v>       0.49145830       0.12072915       0.31990701 </v>
   <v>       0.24145828       0.99572915       0.53317833 </v>
   <v>       0.74145830       0.74572909       0.10663566 </v>
   <v>       0.49145827       0.62072909       0.31990701 </v>
   <v>       0.24145827       0.49572912       0.53317833 </v>
   <v>       0.99145830       0.24572913       0.00000000 </v>
   <v>       0.74145830       0.12072913       0.21327132 </v>
   <v>       0.49145830       0.99572915       0.42654267 </v>
   <v>       0.49145827       0.99572915       0.00000000 </v>
   <v>       0.24145827       0.87072915       0.21327132 </v>
   <v>       0.99145830       0.74572915       0.42654267 </v>
   <v>       0.99145824       0.74572915       0.00000000 </v>
   <v>       0.74145830       0.62072915       0.21327132 </v>
   <v>       0.49145830       0.49572915       0.42654267 </v>
   <v>       0.49145827       0.49572912       0.00000000 </v>
   <v>       0.24145831       0.37072915       0.21327132 </v>
   <v>       0.99145830       0.24572915       0.42654267 </v>
   <v>       0.24145828       0.24572912       0.10663566 </v>
   <v>       0.99145830       0.12072913       0.31990701 </v>
   <v>       0.74145830       0.99572915       0.53317833 </v>
   <v>       0.74145824       0.99572915       0.10663566 </v>
   <v>       0.49145827       0.87072915       0.31990701 </v>
   <v>       0.24145825       0.74572909       0.53317833 </v>
   <v>       0.24145828       0.74572909       0.10663566 </v>
   <v>       0.99145830       0.62072909       0.31990701 </v>
   <v>       0.74145830       0.49572909       0.53317833 </v>
   <v>       0.74145824       0.49572909       0.10663566 </v>
   <v>       0.49145827       0.37072912       0.31990701 </v>
   <v>       0.24145825       0.24572909       0.53317833 </v>
   <v>       0.37389374       0.35238457       0.64595538 </v>
   <v>       0.12389374       0.96349561       0.69420886 </v>
   <v>       0.87389374       0.57460666       0.74246240 </v>
   <v>       0.62389368       0.18571770       0.79071581 </v>
   <v>       0.37389362       0.79682875       0.83896935 </v>
   <v>       0.12389350       0.40793943       0.88722277 </v>
   <v>       0.62389386       0.10238457       0.64595538 </v>
   <v>       0.37389374       0.71349561       0.69420886 </v>
   <v>       0.12389374       0.32460666       0.74246240 </v>
   <v>       0.87389362       0.93571758       0.79071587 </v>
   <v>       0.62389356       0.54682863       0.83896929 </v>
   <v>       0.37389350       0.15793955       0.88722289 </v>
   <v>       0.12389398       0.10238457       0.64595538 </v>
   <v>       0.87389380       0.71349555       0.69420886 </v>
   <v>       0.62389380       0.32460666       0.74246240 </v>
   <v>       0.37389374       0.93571758       0.79071587 </v>
   <v>       0.12389362       0.54682863       0.83896929 </v>
   <v>       0.87389356       0.15793955       0.88722283 </v>
   <v>       0.87389386       0.35238457       0.64595538 </v>
   <v>       0.62389374       0.96349561       0.69420886 </v>
   <v>       0.37389374       0.57460666       0.74246240 </v>
   <v>       0.12389374       0.18571770       0.79071581 </v>
   <v>       0.87389368       0.79682863       0.83896935 </v>
   <v>       0.62389344       0.40793967       0.88722289 </v>
  </varray>
 </structure>
</modeling>
