 120 120   0   0
  0.2190039E+02  0.7680595E-09  0.1629300E-08  0.2100086E-08  0.5000000E-15
  1.000000000000000E-004
  CAR 
 Si and Ge interface calculation         
      7.79819563     -8.59287655  301      4.76467876      1.00000000
     -8.593  0.0000E+00  0.0000E+00  0.0000E+00  0.0000E+00
     -8.538  0.0000E+00  0.0000E+00  0.0000E+00  0.0000E+00
     -8.484  0.0000E+00  0.0000E+00  0.0000E+00  0.0000E+00
     -8.429  0.0000E+00  0.0000E+00  0.0000E+00  0.0000E+00
     -8.374  0.0000E+00  0.0000E+00  0.0000E+00  0.0000E+00
     -8.320  0.0000E+00  0.0000E+00  0.0000E+00  0.0000E+00
     -8.265  0.0000E+00  0.0000E+00  0.0000E+00  0.0000E+00
     -8.210  0.0000E+00  0.0000E+00  0.0000E+00  0.0000E+00
     -8.156  0.0000E+00  0.0000E+00  0.0000E+00  0.0000E+00
     -8.101  0.0000E+00  0.0000E+00  0.0000E+00  0.0000E+00
     -8.047  0.0000E+00  0.0000E+00  0.0000E+00  0.0000E+00
     -7.992  0.0000E+00  0.0000E+00  0.0000E+00  0.0000E+00
     -7.937  0.0000E+00  0.0000E+00  0.0000E+00  0.0000E+00
     -7.883  0.2010E-05  0.1115E-07  0.1098E-06  0.6093E-09
     -7.828  0.4564E+01  0.4437E+01  0.2494E+00  0.2424E+00
     -7.773  0.1154E-01  0.1390E+00  0.2500E+00  0.2500E+00
     -7.719  0.1018E+02  0.9267E+01  0.8061E+00  0.7563E+00
     -7.664  0.8123E+01  0.9036E+01  0.1250E+01  0.1250E+01
     -7.609  0.6255E+01  0.1685E+01  0.1592E+01  0.1342E+01
     -7.555  0.1205E+02  0.1662E+02  0.2250E+01  0.2250E+01
     -7.500  0.9132E+01  0.8983E+01  0.2749E+01  0.2741E+01
     -7.446  0.1969E-01  0.1686E+00  0.2750E+01  0.2750E+01
     -7.391  0.1875E+02  0.1632E+02  0.3774E+01  0.3641E+01
     -7.336  0.1463E+02  0.1609E+02  0.4574E+01  0.4521E+01
     -7.282  0.2276E+02  0.1262E+02  0.5817E+01  0.5210E+01
     -7.227  0.3182E+02  0.4191E+02  0.7556E+01  0.7500E+01
     -7.172  0.8127E+01  0.8360E+01  0.8000E+01  0.7957E+01
     -7.118  0.3215E+02  0.3275E+02  0.9757E+01  0.9747E+01
     -7.063  0.9133E+01  0.9057E+01  0.1026E+02  0.1024E+02
     -7.008  0.1785E+02  0.1481E+02  0.1123E+02  0.1105E+02
     -6.954  0.2760E+02  0.2771E+02  0.1274E+02  0.1257E+02
     -6.899  0.3482E+02  0.3530E+02  0.1464E+02  0.1449E+02
     -6.844  0.2839E+02  0.3014E+02  0.1619E+02  0.1614E+02
     -6.790  0.1386E+02  0.1326E+02  0.1695E+02  0.1687E+02
     -6.735  0.9909E+01  0.1062E+02  0.1749E+02  0.1745E+02
     -6.681  0.1435E+02  0.1067E+02  0.1828E+02  0.1803E+02
     -6.626  0.2266E+02  0.2538E+02  0.1951E+02  0.1942E+02
     -6.571  0.3284E+02  0.2795E+02  0.2131E+02  0.2094E+02
     -6.517  0.3766E+02  0.4003E+02  0.2337E+02  0.2313E+02
     -6.462  0.3912E+02  0.3726E+02  0.2550E+02  0.2517E+02
     -6.407  0.4219E+02  0.4561E+02  0.2781E+02  0.2766E+02
     -6.353  0.2181E+02  0.2122E+02  0.2900E+02  0.2882E+02
     -6.298  0.3578E+02  0.3655E+02  0.3096E+02  0.3081E+02
     -6.243  0.2424E+02  0.2433E+02  0.3228E+02  0.3214E+02
     -6.189  0.3671E+02  0.3557E+02  0.3429E+02  0.3409E+02
     -6.134  0.2758E+02  0.2724E+02  0.3579E+02  0.3557E+02
     -6.080  0.5106E+02  0.4770E+02  0.3858E+02  0.3818E+02
     -6.025  0.3755E+02  0.4357E+02  0.4063E+02  0.4056E+02
     -5.970  0.2156E+02  0.2023E+02  0.4181E+02  0.4167E+02
     -5.916  0.2035E+02  0.1971E+02  0.4292E+02  0.4274E+02
     -5.861  0.4676E+02  0.4330E+02  0.4548E+02  0.4511E+02
     -5.806  0.3178E+02  0.3076E+02  0.4721E+02  0.4679E+02
     -5.752  0.4269E+02  0.4901E+02  0.4955E+02  0.4947E+02
     -5.697  0.3833E+02  0.3660E+02  0.5164E+02  0.5147E+02
     -5.642  0.2546E+02  0.2806E+02  0.5303E+02  0.5300E+02
     -5.588  0.2984E+02  0.2414E+02  0.5466E+02  0.5432E+02
     -5.533  0.4923E+02  0.5158E+02  0.5735E+02  0.5714E+02
     -5.479  0.4397E+02  0.4383E+02  0.5975E+02  0.5953E+02
     -5.424  0.3836E+02  0.3701E+02  0.6185E+02  0.6156E+02
     -5.369  0.5520E+02  0.5772E+02  0.6487E+02  0.6471E+02
     -5.315  0.3987E+02  0.3991E+02  0.6704E+02  0.6689E+02
     -5.260  0.2965E+02  0.2411E+02  0.6866E+02  0.6821E+02
     -5.205  0.6896E+02  0.6926E+02  0.7243E+02  0.7199E+02
     -5.151  0.5963E+02  0.6467E+02  0.7569E+02  0.7552E+02
     -5.096  0.3231E+02  0.3049E+02  0.7746E+02  0.7719E+02
     -5.041  0.5115E+02  0.5591E+02  0.8025E+02  0.8025E+02
     -4.987  0.2342E+02  0.2240E+02  0.8153E+02  0.8147E+02
     -4.932  0.2239E+02  0.1932E+02  0.8275E+02  0.8252E+02
     -4.878  0.4620E+02  0.4979E+02  0.8528E+02  0.8524E+02
     -4.823  0.3925E+02  0.2927E+02  0.8742E+02  0.8684E+02
     -4.768  0.4067E+02  0.4497E+02  0.8964E+02  0.8930E+02
     -4.714  0.4498E+02  0.4488E+02  0.9210E+02  0.9175E+02
     -4.659  0.3132E+02  0.3192E+02  0.9381E+02  0.9350E+02
     -4.604  0.2014E+02  0.2366E+02  0.9491E+02  0.9479E+02
     -4.550  0.3417E+02  0.3323E+02  0.9678E+02  0.9661E+02
     -4.495  0.3152E+02  0.2983E+02  0.9850E+02  0.9824E+02
     -4.440  0.3358E+02  0.3579E+02  0.1003E+03  0.1002E+03
     -4.386  0.5012E+02  0.4843E+02  0.1031E+03  0.1028E+03
     -4.331  0.3005E+02  0.3241E+02  0.1047E+03  0.1046E+03
     -4.277  0.4430E+02  0.4161E+02  0.1071E+03  0.1069E+03
     -4.222  0.1614E+02  0.1660E+02  0.1080E+03  0.1078E+03
     -4.167  0.1007E+02  0.1337E+02  0.1086E+03  0.1085E+03
     -4.113  0.1583E+02  0.1385E+02  0.1094E+03  0.1093E+03
     -4.058  0.9718E+01  0.9871E+01  0.1100E+03  0.1098E+03
     -4.003  0.2285E+02  0.2258E+02  0.1112E+03  0.1110E+03
     -3.949  0.2730E+02  0.2382E+02  0.1127E+03  0.1124E+03
     -3.894  0.2376E+02  0.2942E+02  0.1140E+03  0.1140E+03
     -3.839  0.4713E+01  0.5344E+01  0.1143E+03  0.1143E+03
     -3.785  0.1253E+02  0.9291E+01  0.1149E+03  0.1148E+03
     -3.730  0.2978E+02  0.2843E+02  0.1166E+03  0.1163E+03
     -3.676  0.1700E+02  0.2170E+02  0.1175E+03  0.1175E+03
     -3.621  0.1336E+02  0.1048E+02  0.1182E+03  0.1181E+03
     -3.566  0.2924E+02  0.3044E+02  0.1198E+03  0.1197E+03
     -3.512  0.1074E+02  0.9521E+01  0.1204E+03  0.1203E+03
     -3.457  0.2875E+02  0.2810E+02  0.1220E+03  0.1218E+03
     -3.402  0.9226E+01  0.8625E+01  0.1225E+03  0.1223E+03
     -3.348  0.1953E+02  0.2070E+02  0.1236E+03  0.1234E+03
     -3.293  0.1391E+02  0.1603E+02  0.1243E+03  0.1243E+03
     -3.238  0.2062E+02  0.1499E+02  0.1254E+03  0.1251E+03
     -3.184  0.3480E+02  0.3143E+02  0.1273E+03  0.1268E+03
     -3.129  0.2415E+02  0.3196E+02  0.1287E+03  0.1285E+03
     -3.075  0.6269E+01  0.8257E+01  0.1290E+03  0.1290E+03
     -3.020  0.1832E+02  0.1781E+02  0.1300E+03  0.1300E+03
     -2.965  0.1318E+02  0.1304E+02  0.1307E+03  0.1307E+03
     -2.911  0.3497E+02  0.3017E+02  0.1326E+03  0.1323E+03
     -2.856  0.3193E+02  0.2605E+02  0.1344E+03  0.1338E+03
     -2.801  0.2714E+02  0.3332E+02  0.1359E+03  0.1356E+03
     -2.747  0.3675E+02  0.3993E+02  0.1379E+03  0.1378E+03
     -2.692  0.4742E+02  0.4087E+02  0.1405E+03  0.1400E+03
     -2.637  0.4673E+02  0.4695E+02  0.1430E+03  0.1426E+03
     -2.583  0.6531E+02  0.6988E+02  0.1466E+03  0.1464E+03
     -2.528  0.5978E+02  0.5115E+02  0.1499E+03  0.1492E+03
     -2.474  0.5331E+02  0.6261E+02  0.1528E+03  0.1526E+03
     -2.419  0.5091E+02  0.4759E+02  0.1555E+03  0.1552E+03
     -2.364  0.7041E+02  0.6593E+02  0.1594E+03  0.1588E+03
     -2.310  0.5840E+02  0.5996E+02  0.1626E+03  0.1621E+03
     -2.255  0.4524E+02  0.4558E+02  0.1651E+03  0.1646E+03
     -2.200  0.4075E+02  0.4685E+02  0.1673E+03  0.1671E+03
     -2.146  0.4849E+02  0.4280E+02  0.1699E+03  0.1695E+03
     -2.091  0.5305E+02  0.4498E+02  0.1728E+03  0.1719E+03
     -2.036  0.5445E+02  0.6268E+02  0.1758E+03  0.1753E+03
     -1.982  0.4325E+02  0.4828E+02  0.1782E+03  0.1780E+03
     -1.927  0.2677E+02  0.2522E+02  0.1796E+03  0.1794E+03
     -1.873  0.1199E+02  0.1625E+02  0.1803E+03  0.1802E+03
     -1.818  0.1048E+02  0.9530E+01  0.1809E+03  0.1808E+03
     -1.763  0.2541E+02  0.2372E+02  0.1822E+03  0.1821E+03
     -1.709  0.6106E+02  0.5725E+02  0.1856E+03  0.1852E+03
     -1.654  0.5300E+02  0.5153E+02  0.1885E+03  0.1880E+03
     -1.599  0.6086E+02  0.6829E+02  0.1918E+03  0.1917E+03
     -1.545  0.2001E+02  0.1528E+02  0.1929E+03  0.1926E+03
     -1.490  0.1711E+02  0.2132E+02  0.1938E+03  0.1937E+03
     -1.435  0.2141E+02  0.2203E+02  0.1950E+03  0.1949E+03
     -1.381  0.3280E+02  0.3086E+02  0.1968E+03  0.1966E+03
     -1.326  0.1830E+02  0.2042E+02  0.1978E+03  0.1977E+03
     -1.272  0.2748E+02  0.2344E+02  0.1993E+03  0.1990E+03
     -1.217  0.3724E+01  0.8769E+01  0.1995E+03  0.1995E+03
     -1.162  0.9094E+01  0.8049E+01  0.2000E+03  0.1999E+03
     -1.108  0.1355E+02  0.9436E+01  0.2007E+03  0.2005E+03
     -1.053  0.3737E+02  0.3792E+02  0.2028E+03  0.2025E+03
     -0.998  0.2582E+02  0.2534E+02  0.2042E+03  0.2039E+03
     -0.944  0.1754E+02  0.2166E+02  0.2051E+03  0.2051E+03
     -0.889  0.1636E+02  0.1661E+02  0.2060E+03  0.2060E+03
     -0.834  0.1191E+02  0.1008E+02  0.2067E+03  0.2066E+03
     -0.780  0.1091E+02  0.1275E+02  0.2073E+03  0.2073E+03
     -0.725  0.2673E+02  0.2711E+02  0.2087E+03  0.2087E+03
     -0.671  0.2511E+02  0.1785E+02  0.2101E+03  0.2097E+03
     -0.616  0.3201E+02  0.3269E+02  0.2119E+03  0.2115E+03
     -0.561  0.3992E+02  0.4199E+02  0.2141E+03  0.2138E+03
     -0.507  0.4931E+02  0.5402E+02  0.2167E+03  0.2167E+03
     -0.452  0.8671E+01  0.7021E+01  0.2172E+03  0.2171E+03
     -0.397  0.3476E+02  0.2879E+02  0.2191E+03  0.2187E+03
     -0.343  0.1609E+02  0.2347E+02  0.2200E+03  0.2200E+03
     -0.288  0.4252E-01  0.4169E+00  0.2200E+03  0.2200E+03
     -0.233  0.1447E+02  0.1101E+02  0.2208E+03  0.2206E+03
     -0.179  0.3250E+02  0.3070E+02  0.2226E+03  0.2223E+03
     -0.124  0.7945E+01  0.1320E+02  0.2230E+03  0.2230E+03
     -0.070  0.1528E+02  0.1305E+02  0.2238E+03  0.2237E+03
     -0.015  0.2635E+02  0.2509E+02  0.2253E+03  0.2251E+03
      0.040  0.4199E+01  0.7612E+01  0.2255E+03  0.2255E+03
      0.094  0.4482E+01  0.4572E+01  0.2258E+03  0.2257E+03
      0.149  0.2039E+02  0.1328E+02  0.2269E+03  0.2265E+03
      0.204  0.4990E+02  0.4541E+02  0.2296E+03  0.2290E+03
      0.258  0.8380E+02  0.8342E+02  0.2342E+03  0.2335E+03
      0.313  0.3453E+02  0.4460E+02  0.2361E+03  0.2360E+03
      0.368  0.4319E+02  0.4182E+02  0.2384E+03  0.2382E+03
      0.422  0.3939E+02  0.3629E+02  0.2406E+03  0.2402E+03
      0.477  0.4210E+02  0.4567E+02  0.2429E+03  0.2427E+03
      0.531  0.5067E+02  0.4611E+02  0.2456E+03  0.2452E+03
      0.586  0.3402E+02  0.3464E+02  0.2475E+03  0.2471E+03
      0.641  0.7290E+02  0.7200E+02  0.2515E+03  0.2511E+03
      0.695  0.3385E+02  0.3304E+02  0.2533E+03  0.2529E+03
      0.750  0.1038E+03  0.9964E+02  0.2590E+03  0.2583E+03
      0.805  0.8549E+02  0.8868E+02  0.2637E+03  0.2632E+03
      0.859  0.6441E+02  0.6776E+02  0.2672E+03  0.2669E+03
      0.914  0.5447E+02  0.5386E+02  0.2702E+03  0.2698E+03
      0.969  0.4738E+02  0.4780E+02  0.2728E+03  0.2724E+03
      1.023  0.4617E+02  0.4784E+02  0.2753E+03  0.2750E+03
      1.078  0.9993E+02  0.9279E+02  0.2807E+03  0.2801E+03
      1.132  0.5493E+02  0.5879E+02  0.2837E+03  0.2833E+03
      1.187  0.7306E+02  0.6582E+02  0.2877E+03  0.2869E+03
      1.242  0.7183E+02  0.8246E+02  0.2917E+03  0.2914E+03
      1.296  0.6804E+02  0.6257E+02  0.2954E+03  0.2948E+03
      1.351  0.9511E+02  0.9563E+02  0.3006E+03  0.3001E+03
      1.406  0.6918E+02  0.6758E+02  0.3043E+03  0.3037E+03
      1.460  0.9044E+02  0.8765E+02  0.3093E+03  0.3085E+03
      1.515  0.4287E+02  0.5000E+02  0.3116E+03  0.3113E+03
      1.570  0.5469E+02  0.5352E+02  0.3146E+03  0.3142E+03
      1.624  0.8061E+02  0.7793E+02  0.3190E+03  0.3184E+03
      1.679  0.8484E+02  0.9055E+02  0.3237E+03  0.3234E+03
      1.733  0.7109E+02  0.6882E+02  0.3275E+03  0.3272E+03
      1.788  0.9707E+02  0.9354E+02  0.3328E+03  0.3323E+03
      1.843  0.1039E+03  0.9286E+02  0.3385E+03  0.3373E+03
      1.897  0.8237E+02  0.9269E+02  0.3430E+03  0.3424E+03
      1.952  0.7404E+02  0.7679E+02  0.3471E+03  0.3466E+03
      2.007  0.5032E+02  0.5237E+02  0.3498E+03  0.3495E+03
      2.061  0.6130E+02  0.5971E+02  0.3532E+03  0.3527E+03
      2.116  0.7062E+02  0.6676E+02  0.3570E+03  0.3564E+03
      2.171  0.5016E+02  0.5764E+02  0.3598E+03  0.3595E+03
      2.225  0.8079E+02  0.7885E+02  0.3642E+03  0.3638E+03
      2.280  0.7019E+02  0.6640E+02  0.3680E+03  0.3675E+03
      2.335  0.9267E+02  0.9225E+02  0.3731E+03  0.3725E+03
      2.389  0.5300E+02  0.5408E+02  0.3760E+03  0.3755E+03
      2.444  0.8055E+02  0.8143E+02  0.3804E+03  0.3799E+03
      2.498  0.7489E+02  0.7205E+02  0.3845E+03  0.3838E+03
      2.553  0.6648E+02  0.7021E+02  0.3881E+03  0.3877E+03
      2.608  0.6823E+02  0.6783E+02  0.3918E+03  0.3914E+03
      2.662  0.5824E+02  0.5556E+02  0.3950E+03  0.3944E+03
      2.717  0.7149E+02  0.7280E+02  0.3989E+03  0.3984E+03
      2.772  0.6376E+02  0.6682E+02  0.4024E+03  0.4020E+03
      2.826  0.4063E+02  0.4231E+02  0.4046E+03  0.4044E+03
      2.881  0.5740E+02  0.5221E+02  0.4078E+03  0.4072E+03
      2.936  0.7995E+02  0.8081E+02  0.4121E+03  0.4116E+03
      2.990  0.4929E+02  0.5323E+02  0.4148E+03  0.4145E+03
      3.045  0.5985E+02  0.5123E+02  0.4181E+03  0.4173E+03
      3.099  0.8646E+02  0.8681E+02  0.4228E+03  0.4221E+03
      3.154  0.4649E+02  0.4628E+02  0.4254E+03  0.4246E+03
      3.209  0.7268E+02  0.7456E+02  0.4293E+03  0.4287E+03
      3.263  0.9273E+02  0.9590E+02  0.4344E+03  0.4339E+03
      3.318  0.6220E+02  0.6114E+02  0.4378E+03  0.4373E+03
      3.373  0.6547E+02  0.6156E+02  0.4414E+03  0.4406E+03
      3.427  0.5779E+02  0.6017E+02  0.4445E+03  0.4439E+03
      3.482  0.5953E+02  0.6823E+02  0.4478E+03  0.4476E+03
      3.537  0.3026E+02  0.2183E+02  0.4494E+03  0.4488E+03
      3.591  0.5363E+02  0.5564E+02  0.4524E+03  0.4519E+03
      3.646  0.2527E+02  0.2741E+02  0.4537E+03  0.4534E+03
      3.700  0.3568E+02  0.2951E+02  0.4557E+03  0.4550E+03
      3.755  0.2981E+02  0.3806E+02  0.4573E+03  0.4571E+03
      3.810  0.3382E+02  0.2945E+02  0.4592E+03  0.4587E+03
      3.864  0.2205E+02  0.2947E+02  0.4604E+03  0.4603E+03
      3.919  0.3411E+02  0.3031E+02  0.4622E+03  0.4619E+03
      3.974  0.2935E+02  0.2864E+02  0.4638E+03  0.4635E+03
      4.028  0.3025E+02  0.3345E+02  0.4655E+03  0.4653E+03
      4.083  0.2769E+02  0.3044E+02  0.4670E+03  0.4670E+03
      4.138  0.1827E+02  0.1750E+02  0.4680E+03  0.4679E+03
      4.192  0.2874E+02  0.1499E+02  0.4696E+03  0.4688E+03
      4.247  0.1197E+02  0.2268E+02  0.4702E+03  0.4700E+03
      4.301  0.2724E+02  0.2254E+02  0.4717E+03  0.4712E+03
      4.356  0.1435E+02  0.2319E+02  0.4725E+03  0.4725E+03
      4.411  0.1662E+01  0.2344E+00  0.4726E+03  0.4725E+03
      4.465  0.2762E+02  0.9488E+01  0.4741E+03  0.4730E+03
      4.520  0.2594E+02  0.2632E+02  0.4755E+03  0.4745E+03
      4.575  0.1704E+02  0.2598E+02  0.4764E+03  0.4759E+03
      4.629  0.5515E+01  0.1010E+02  0.4767E+03  0.4764E+03
      4.684  0.1868E+02  0.6145E+01  0.4778E+03  0.4768E+03
      4.739  0.2847E+02  0.2179E+02  0.4793E+03  0.4780E+03
      4.793  0.4087E+02  0.3860E+02  0.4816E+03  0.4801E+03
      4.848  0.2655E+02  0.4016E+02  0.4830E+03  0.4823E+03
      4.902  0.2602E+02  0.2241E+02  0.4844E+03  0.4835E+03
      4.957  0.3303E+02  0.2791E+02  0.4862E+03  0.4850E+03
      5.012  0.2132E+02  0.2264E+02  0.4874E+03  0.4863E+03
      5.066  0.4660E+02  0.3679E+02  0.4899E+03  0.4883E+03
      5.121  0.2859E+02  0.4958E+02  0.4915E+03  0.4910E+03
      5.176  0.2775E+02  0.1455E+02  0.4930E+03  0.4918E+03
      5.230  0.2902E+02  0.3917E+02  0.4946E+03  0.4939E+03
      5.285  0.5639E+02  0.4566E+02  0.4977E+03  0.4964E+03
      5.340  0.3138E+02  0.4857E+02  0.4994E+03  0.4991E+03
      5.394  0.3878E+02  0.3299E+02  0.5015E+03  0.5009E+03
      5.449  0.3628E+02  0.3164E+02  0.5035E+03  0.5026E+03
      5.503  0.3233E+02  0.3877E+02  0.5053E+03  0.5047E+03
      5.558  0.4979E+02  0.5278E+02  0.5080E+03  0.5076E+03
      5.613  0.3453E+02  0.3532E+02  0.5099E+03  0.5095E+03
      5.667  0.7750E+02  0.6300E+02  0.5141E+03  0.5130E+03
      5.722  0.3507E+02  0.5127E+02  0.5160E+03  0.5158E+03
      5.777  0.5276E+02  0.4217E+02  0.5189E+03  0.5181E+03
      5.831  0.4359E+02  0.4547E+02  0.5213E+03  0.5206E+03
      5.886  0.5446E+02  0.5469E+02  0.5243E+03  0.5235E+03
      5.941  0.6310E+02  0.6580E+02  0.5277E+03  0.5271E+03
      5.995  0.6173E+02  0.5791E+02  0.5311E+03  0.5303E+03
      6.050  0.2430E+02  0.3214E+02  0.5324E+03  0.5321E+03
      6.104  0.5845E+02  0.4796E+02  0.5356E+03  0.5347E+03
      6.159  0.5628E+02  0.5385E+02  0.5387E+03  0.5376E+03
      6.214  0.6743E+02  0.7787E+02  0.5424E+03  0.5419E+03
      6.268  0.3524E+02  0.4139E+02  0.5443E+03  0.5441E+03
      6.323  0.1673E+02  0.1256E+02  0.5452E+03  0.5448E+03
      6.378  0.6902E+02  0.6469E+02  0.5490E+03  0.5484E+03
      6.432  0.6198E+02  0.6618E+02  0.5524E+03  0.5520E+03
      6.487  0.6402E+02  0.5718E+02  0.5559E+03  0.5551E+03
      6.542  0.7045E+02  0.7965E+02  0.5597E+03  0.5594E+03
      6.596  0.2250E+02  0.2366E+02  0.5609E+03  0.5607E+03
      6.651  0.4355E+02  0.3946E+02  0.5633E+03  0.5629E+03
      6.705  0.4362E+02  0.4676E+02  0.5657E+03  0.5654E+03
      6.760  0.4319E+02  0.4197E+02  0.5681E+03  0.5677E+03
      6.815  0.4856E+02  0.4691E+02  0.5707E+03  0.5703E+03
      6.869  0.5546E+02  0.5599E+02  0.5737E+03  0.5734E+03
      6.924  0.1198E+02  0.1530E+02  0.5744E+03  0.5742E+03
      6.979  0.2881E+01  0.5625E+01  0.5746E+03  0.5745E+03
      7.033  0.2036E+02  0.1870E+02  0.5757E+03  0.5755E+03
      7.088  0.5966E+01  0.8613E+01  0.5760E+03  0.5760E+03
      7.143  0.0000E+00  0.0000E+00  0.5760E+03  0.5760E+03
      7.197  0.0000E+00  0.0000E+00  0.5760E+03  0.5760E+03
      7.252  0.0000E+00  0.0000E+00  0.5760E+03  0.5760E+03
      7.306  0.0000E+00  0.0000E+00  0.5760E+03  0.5760E+03
      7.361  0.0000E+00  0.0000E+00  0.5760E+03  0.5760E+03
      7.416  0.0000E+00  0.0000E+00  0.5760E+03  0.5760E+03
      7.470  0.0000E+00  0.0000E+00  0.5760E+03  0.5760E+03
      7.525  0.0000E+00  0.0000E+00  0.5760E+03  0.5760E+03
      7.580  0.0000E+00  0.0000E+00  0.5760E+03  0.5760E+03
      7.634  0.0000E+00  0.0000E+00  0.5760E+03  0.5760E+03
      7.689  0.0000E+00  0.0000E+00  0.5760E+03  0.5760E+03
      7.744  0.0000E+00  0.0000E+00  0.5760E+03  0.5760E+03
      7.798  0.0000E+00  0.0000E+00  0.5760E+03  0.5760E+03
