 vasp.6.4.3 19Mar24 (build Oct 22 2024 11:23:12) complex                        
  
 executed on             LinuxIFC date 2025.06.08  10:12:11
 running   64 mpi-ranks, on    4 nodes
 distrk:  each k-point on   64 cores,    1 groups
 distr:  one band on NCORE=  16 cores,    4 groups


--------------------------------------------------------------------------------------------------------


 INCAR:
   SYSTEM = Si and Ge interface calculation
   ISTART = 0
   ICHARG = 2
   LWAVE = .FALSE.
   LREAL = AUTO
   ENCUT = 700
   ENAUG = 900
   ADDGRID = .TRUE.
   LMAXMIX = 6
   LASPH = .TRUE.
   LMIXTAU = .TRUE.
   NCORE = 16
   NELM = 100
   NBANDS = 288
   EDIFF = 1d-7
   AMIX = 0.6
   ISMEAR = 0
   SIGMA = 0.01
   NELECT = 480
   ISPIN = 2
   NUPDOWN = 1
   LVTOT = .FALSE.
   LVHAR = .TRUE.

 POTCAR:    PAW_PBE Si 05Jan2001                  
 POTCAR:    PAW_PBE Ge 05Jan2001                  
 -----------------------------------------------------------------------------
|                                                                             |
|           W    W    AA    RRRRR   N    N  II  N    N   GGGG   !!!           |
|           W    W   A  A   R    R  NN   N  II  NN   N  G    G  !!!           |
|           W    W  A    A  R    R  N N  N  II  N N  N  G       !!!           |
|           W WW W  AAAAAA  RRRRR   N  N N  II  N  N N  G  GGG   !            |
|           WW  WW  A    A  R   R   N   NN  II  N   NN  G    G                |
|           W    W  A    A  R    R  N    N  II  N    N   GGGG   !!!           |
|                                                                             |
|     You use a magnetic or noncollinear calculation, but did not specify     |
|     the initial magnetic moment with the MAGMOM tag. Note that a            |
|     default of 8.333e-3 will be used for all atoms. This ferromagnetic      |
|     setup may break the symmetry of the crystal, in particular it may       |
|     rule out finding an antiferromagnetic solution. Thence, we              |
|     recommend setting the initial magnetic moment manually or verifying     |
|     carefully that this magnetic setup is desired.                          |
|                                                                             |
 -----------------------------------------------------------------------------

 POTCAR:    PAW_PBE Si 05Jan2001                  
   VRHFIN =Si: s2p2                                                                                 
   LEXCH  = PE                                                                                      
   EATOM  =   103.0669 eV,    7.5752 Ry                                                             
                                                                                                    
   TITEL  = PAW_PBE Si 05Jan2001                                                                    
   LULTRA =        F    use ultrasoft PP ?                                                          
   IUNSCR =        1    unscreen: 0-lin 1-nonlin 2-no                                               
   RPACOR =    1.500    partial core radius                                                         
   POMASS =   28.085; ZVAL   =    4.000    mass and valenz                                          
   RCORE  =    1.900    outmost cutoff radius                                                       
   RWIGS  =    2.480; RWIGS  =    1.312    wigner-seitz radius (au A)                               
   ENMAX  =  245.345; ENMIN  =  184.009 eV                                                          
   ICORE  =        2    local potential                                                             
   LCOR   =        T    correct aug charges                                                         
   LPAW   =        T    paw PP                                                                      
   EAUG   =  322.069                                                                                
   DEXC   =    0.000                                                                                
   RMAX   =    1.950    core radius for proj-oper                                                   
   RAUG   =    1.300    factor for augmentation sphere                                              
   RDEP   =    1.993    radius for radial grids                                                     
   RDEPT  =    1.837    core radius for aug-charge                                                  
                                                                                                    
   Atomic configuration                                                                             
    6 entries                                                                                       
     n  l   j            E        occ.                                                              
     1  0  0.50     -1785.8828   2.0000                                                             
     2  0  0.50      -139.4969   2.0000                                                             
     2  1  1.50       -95.5546   6.0000                                                             
     3  0  0.50       -10.8127   2.0000                                                             
     3  1  0.50        -4.0811   2.0000                                                             
     3  2  1.50        -4.0817   0.0000                                                             
   Description                                                                                      
     l       E           TYP  RCUT    TYP  RCUT                                                     
     0    -10.8127223     23  1.900                                                                 
     0     -7.6451159     23  1.900                                                                 
     1     -4.0811372     23  1.900                                                                 
     1      2.4879257     23  1.900                                                                 
     2     -4.0817478      7  1.900                                                                 
  local pseudopotential read in
  partial core-charges read in
  partial kinetic energy density read in
  atomic valenz-charges read in
  non local Contribution for L=           0  read in
    real space projection operators read in
  non local Contribution for L=           0  read in
    real space projection operators read in
  non local Contribution for L=           1  read in
    real space projection operators read in
  non local Contribution for L=           1  read in
    real space projection operators read in
    PAW grid and wavefunctions read in
 
   number of l-projection  operators is LMAX  =           4
   number of lm-projection operators is LMMAX =           8
 
 POTCAR:    PAW_PBE Ge 05Jan2001                  
   VRHFIN =Ge: s2p2                                                                                 
   LEXCH  = PE                                                                                      
   EATOM  =   104.9960 eV,    7.7170 Ry                                                             
                                                                                                    
   TITEL  = PAW_PBE Ge 05Jan2001                                                                    
   LULTRA =        F    use ultrasoft PP ?                                                          
   IUNSCR =        1    unscreen: 0-lin 1-nonlin 2-no                                               
   RPACOR =    2.170    partial core radius                                                         
   POMASS =   72.610; ZVAL   =    4.000    mass and valenz                                          
   RCORE  =    2.300    outmost cutoff radius                                                       
   RWIGS  =    2.300; RWIGS  =    1.217    wigner-seitz radius (au A)                               
   ENMAX  =  173.807; ENMIN  =  130.355 eV                                                          
   ICORE  =        3    local potential                                                             
   LCOR   =        T    correct aug charges                                                         
   LPAW   =        T    paw PP                                                                      
   EAUG   =  385.843                                                                                
   DEXC   =    0.000                                                                                
   RMAX   =    2.342    core radius for proj-oper                                                   
   RAUG   =    1.300    factor for augmentation sphere                                              
   RDEP   =    2.318    radius for radial grids                                                     
   RDEPT  =    2.103    core radius for aug-charge                                                  
                                                                                                    
   Atomic configuration                                                                             
   10 entries                                                                                       
     n  l   j            E        occ.                                                              
     1  0  0.50    -10959.8463   2.0000                                                             
     2  0  0.50     -1371.6056   2.0000                                                             
     2  1  1.50     -1198.4791   6.0000                                                             
     3  0  0.50      -168.4733   2.0000                                                             
     3  1  1.50      -115.6019   6.0000                                                             
     3  2  2.50       -29.3106  10.0000                                                             
     4  0  0.50       -11.7309   2.0000                                                             
     4  1  0.50        -3.8952   2.0000                                                             
     4  2  1.50        -4.0817   0.0000                                                             
     4  3  2.50        -4.0817   0.0000                                                             
   Description                                                                                      
     l       E           TYP  RCUT    TYP  RCUT                                                     
     0    -11.7309493     23  2.300                                                                 
     0     -7.4578696     23  2.300                                                                 
     1     -3.8952261     23  2.300                                                                 
     1      6.1178114     23  2.300                                                                 
     2     -4.0817478     23  2.300                                                                 
     3     -1.3605826      7  2.300                                                                 
  local pseudopotential read in
  partial core-charges read in
  partial kinetic energy density read in
  atomic valenz-charges read in
  non local Contribution for L=           0  read in
    real space projection operators read in
  non local Contribution for L=           0  read in
    real space projection operators read in
  non local Contribution for L=           1  read in
    real space projection operators read in
  non local Contribution for L=           1  read in
    real space projection operators read in
  non local Contribution for L=           2  read in
    real space projection operators read in
    PAW grid and wavefunctions read in
 
   number of l-projection  operators is LMAX  =           5
   number of lm-projection operators is LMMAX =          13
 
 Optimization of the real space projectors (new method)

 maximal supplied QI-value         = 19.84
 optimisation between [QCUT,QGAM] = [ 13.49, 26.99] = [ 50.98,203.92] Ry 
 Optimized for a Real-space Cutoff    1.07 Angstroem

   l    n(q)    QCUT    max X(q) W(low)/X(q) W(high)/X(q)  e(spline) 
   0      9    13.493   159.560    0.22E-03    0.15E-03    0.72E-07
   0      9    13.493   115.863    0.21E-03    0.15E-03    0.71E-07
   1      8    13.493    88.339    0.15E-03    0.11E-03    0.13E-06
   1      8    13.493    48.592    0.15E-03    0.10E-03    0.13E-06
 Optimization of the real space projectors (new method)

 maximal supplied QI-value         = 16.25
 optimisation between [QCUT,QGAM] = [ 13.49, 26.98] = [ 50.95,203.80] Ry 
 Optimized for a Real-space Cutoff    1.25 Angstroem

   l    n(q)    QCUT    max X(q) W(low)/X(q) W(high)/X(q)  e(spline) 
   0     10    13.489    65.336    0.91E-04    0.11E-03    0.34E-06
   0     10    13.489    52.220    0.89E-04    0.11E-03    0.34E-06
   1     10    13.489    36.409    0.22E-03    0.27E-03    0.14E-06
   1     10    13.489    21.334    0.21E-03    0.27E-03    0.14E-06
   2      9    13.489     4.673    0.11E-03    0.12E-03    0.19E-06
  PAW_PBE Si 05Jan2001                  :
 energy of atom  1       EATOM= -103.0669
 kinetic energy error for atom=    0.0003 (will be added to EATOM!!)
  PAW_PBE Ge 05Jan2001                  :
 energy of atom  2       EATOM= -104.9960
 kinetic energy error for atom=    0.0001 (will be added to EATOM!!)
 
 
 POSCAR: Si+Ge
  positions in direct lattice
  No initial velocities read in


 exchange-correlation table for PE
   RHO(1)=    0.500       N(1)  =     2000
   RHO(2)=  100.500       N(2)  =     4000
 


--------------------------------------------------------------------------------------------------------


 ion  position               nearest neighbor table
   1  0.979  0.986  0.000-  49 2.35  67 2.35  56 2.35  87 2.45
   2  0.101  0.446  0.897-  81 2.38 108 2.38  61 3.10   7 3.14
   3  0.479  0.652  0.183-  51 2.35  69 2.35  58 2.35  50 2.35
   4  0.229  0.486  0.274-  52 2.35  51 2.35  70 2.35  59 2.35
   5  0.351  0.946  0.560-  88 2.38 109 2.38  54 3.10  36 3.14
   6  0.351  0.696  0.560-  85 2.38  12 2.38  79 2.46  36 3.09
   7  0.979  0.319  0.000- 120 2.35 114 2.35  62 2.35  31 3.09   2 3.14
   8  0.729  0.152  0.091-  38 2.35  56 2.35  63 2.35 120 2.35
   9  0.479  0.986  0.183-  64 2.35  39 2.35  57 2.35  38 2.35
  10  0.229  0.819  0.274-  39 2.35  40 2.35  65 2.35  58 2.35
  11  0.979  0.652  0.366-  41 2.35  59 2.35  76 2.35  40 2.35
  12  0.101  0.696  0.628-   6 2.38 103 2.38  98 2.48  80 2.48
  13  0.601  0.946  0.897- 105 2.38  75 2.38  99 2.45  49 2.48
  14  0.729  0.486  0.091-  44 2.35  62 2.35  69 2.35  43 2.35
  15  0.479  0.319  0.183-  70 2.35  45 2.35  63 2.35  44 2.35
  16  0.229  0.152  0.274-  45 2.35  46 2.35  71 2.35  64 2.35
  17  0.979  0.986  0.366-  72 2.35  47 2.35  65 2.35  46 2.35
  18  0.729  0.819  0.457-  76 2.35  79 2.35  47 2.35  66 3.14
  19  0.851  0.196  0.830-  31 2.38  90 2.38 116 2.48  95 2.48
  20  0.229  0.819  0.091-  68 2.35  50 2.35  39 2.35  67 2.35
  21  0.979  0.652  0.183-  51 2.35  69 2.35  40 2.35  68 2.35
  22  0.729  0.486  0.274-  69 2.35  70 2.35  52 2.35  41 2.35
  23  0.479  0.319  0.366-  42 2.35  71 2.35  53 2.35  70 2.35
  24  0.851  0.446  0.560- 112 2.38  94 2.38 115 2.45  60 2.48
  25  0.479  0.319  0.000- 114 2.35  44 2.35 120 2.35  37 3.14
  26  0.229  0.152  0.091- 114 2.35  45 2.35  56 2.35  38 2.35
  27  0.979  0.986  0.183-  46 2.35  56 2.35  39 2.35  57 2.35
  28  0.729  0.819  0.274-  57 2.35  58 2.35  40 2.35  47 2.35
  29  0.479  0.652  0.366-  79 2.35  59 2.35  41 2.35  58 2.35
  30  0.229  0.486  0.457-  59 2.35  60 2.35  42 2.35 100 2.45
  31  0.101  0.196  0.897-  19 2.38  78 2.38 114 2.46   7 3.09
  32  0.229  0.486  0.091-  62 2.35  51 2.35  44 2.35  61 2.35
  33  0.979  0.319  0.183-  52 2.35  45 2.35  63 2.35  62 2.35
  34  0.729  0.152  0.274-  63 2.35  64 2.35  46 2.35  53 2.35
  35  0.479  0.986  0.366-  54 2.35  65 2.35  47 2.35  64 2.35
  36  0.229  0.819  0.457-  76 2.35  79 2.35  65 2.35   6 3.09   5 3.14
  37  0.601  0.446  0.897-  81 2.38 108 2.38  43 3.10  25 3.14
  38  0.479  0.069  0.091-  99 2.35   8 2.35   9 2.35  26 2.35
  39  0.229  0.902  0.183-  10 2.35   9 2.35  20 2.35  27 2.35
  40  0.979  0.736  0.274-  21 2.35  10 2.35  28 2.35  11 2.35
  41  0.729  0.569  0.366-  11 2.35  29 2.35 115 2.35  22 2.35
  42  0.479  0.402  0.457-  23 2.35 115 2.35  30 2.35 100 2.48
  43  0.729  0.569  0.000- 117 2.35 111 2.35  14 2.35  37 3.10
  44  0.479  0.402  0.091-  14 2.35  32 2.35  25 2.35  15 2.35
  45  0.229  0.236  0.183-  15 2.35  16 2.35  33 2.35  26 2.35
  46  0.979  0.069  0.274-  16 2.35  34 2.35  27 2.35  17 2.35
  47  0.729  0.902  0.366-  17 2.35  35 2.35  28 2.35  18 2.35
  48  0.351  0.196  0.560-  91 2.38 118 2.38  82 2.47
  49  0.729  0.902  0.000-   1 2.35  99 2.35  93 2.35  13 2.48
  50  0.479  0.736  0.091-  93 2.35 111 2.35  20 2.35   3 2.35
  51  0.229  0.569  0.183-   3 2.35  21 2.35   4 2.35  32 2.35
  52  0.979  0.402  0.274-   4 2.35  22 2.35  33 2.35  97 2.35
  53  0.729  0.236  0.366-  97 2.35  23 2.35  34 2.35  73 2.35
  54  0.479  0.069  0.457-  35 2.35  73 2.35  82 2.35   5 3.10
  55  0.101  0.696  0.897-  84 2.38 102 2.38 117 2.47
  56  0.979  0.069  0.091-   1 2.35   8 2.35  26 2.35  27 2.35
  57  0.729  0.902  0.183-  28 2.35  93 2.35   9 2.35  27 2.35
  58  0.479  0.736  0.274-   3 2.35  28 2.35  10 2.35  29 2.35
  59  0.229  0.569  0.366-  11 2.35  29 2.35   4 2.35  30 2.35
  60  0.979  0.402  0.457-  97 2.35 115 2.35  30 2.35  24 2.48
  61  0.229  0.569  0.000- 111 2.35 117 2.35  32 2.35   2 3.10
  62  0.979  0.402  0.091-  14 2.35  32 2.35   7 2.35  33 2.35
  63  0.729  0.236  0.183-  34 2.35  15 2.35  33 2.35   8 2.35
  64  0.479  0.069  0.274-   9 2.35  34 2.35  16 2.35  35 2.35
  65  0.229  0.902  0.366-  17 2.35  35 2.35  10 2.35  36 2.35
  66  0.851  0.946  0.560- 109 2.38  88 2.38  72 3.10  18 3.14
  67  0.229  0.902  0.000-   1 2.35  99 2.35  20 2.35  87 2.48
  68  0.979  0.736  0.091-  93 2.35  20 2.35 117 2.35  21 2.35
  69  0.729  0.569  0.183-   3 2.35  22 2.35  21 2.35  14 2.35
  70  0.479  0.402  0.274-  15 2.35  22 2.35   4 2.35  23 2.35
  71  0.229  0.236  0.366-  23 2.35  97 2.35  16 2.35  82 2.35
  72  0.979  0.069  0.457-  73 2.35  17 2.35  82 2.35  66 3.10
  73  0.729  0.152  0.457-  72 2.35  54 2.35  53 2.35 106 2.47
  74  0.101  0.321  0.695-  86 2.38 116 2.38 118 2.48  94 2.48
  75  0.851  0.946  0.830-  87 2.38  13 2.38  95 2.48 119 2.48
  76  0.979  0.736  0.457-  18 2.35  11 2.35  36 2.35 103 2.46
  77  0.601  0.571  0.695-  89 2.38 110 2.38  85 2.48 112 2.48
  78  0.351  0.196  0.830-  31 2.38  90 2.38  86 2.48 113 2.48
  79  0.479  0.736  0.457-  29 2.35  18 2.35  36 2.35   6 2.46
  80  0.101  0.821  0.695-  92 2.38 119 2.38  88 2.48  12 2.48
  81  0.851  0.446  0.830-   2 2.38  37 2.38  89 2.48 116 2.48
  82  0.229  0.152  0.457-  72 2.35  54 2.35  71 2.35  48 2.47
  83  0.601  0.071  0.695-  95 2.38 113 2.38  91 2.48 109 2.48
  84  0.351  0.696  0.830-  55 2.38  96 2.38 110 2.48  92 2.48
  85  0.601  0.696  0.628-   6 2.38 103 2.38  77 2.48 107 2.48
  86  0.351  0.321  0.762-  74 2.38 104 2.38  78 2.48 108 2.48
  87  0.101  0.946  0.897-  75 2.38 105 2.38   1 2.45  67 2.48
  88  0.101  0.946  0.628-  66 2.38   5 2.38  80 2.48 101 2.48
  89  0.851  0.571  0.762-  77 2.38  98 2.38  81 2.48 102 2.48
  90  0.601  0.196  0.897-  19 2.38  78 2.38 120 2.46
  91  0.601  0.196  0.628-  48 2.38 106 2.38 104 2.48  83 2.48
  92  0.351  0.821  0.762-  80 2.38 107 2.38 105 2.48  84 2.48
  93  0.729  0.819  0.091-  50 2.35  68 2.35  57 2.35  49 2.35
  94  0.101  0.446  0.628-  24 2.38 100 2.38  74 2.48  98 2.48
  95  0.851  0.071  0.762-  83 2.38 101 2.38  19 2.48  75 2.48
  96  0.601  0.696  0.897-  84 2.38 102 2.38 111 2.47
  97  0.979  0.319  0.366-  53 2.35  60 2.35  71 2.35  52 2.35
  98  0.101  0.571  0.695- 110 2.38  89 2.38  12 2.48  94 2.48
  99  0.479  0.986  0.000-  67 2.35  49 2.35  38 2.35  13 2.45
 100  0.351  0.446  0.560- 112 2.38  94 2.38  30 2.45  42 2.48
 101  0.101  0.071  0.695-  95 2.38 113 2.38 118 2.48  88 2.48
 102  0.851  0.696  0.830-  55 2.38  96 2.38  89 2.48 119 2.48
 103  0.851  0.696  0.560-  12 2.38  85 2.38  76 2.46
 104  0.601  0.321  0.695-  86 2.38 116 2.38 112 2.48  91 2.48
 105  0.351  0.946  0.830-  13 2.38  87 2.38  92 2.48 113 2.48
 106  0.851  0.196  0.560-  91 2.38 118 2.38  73 2.47
 107  0.601  0.821  0.695-  92 2.38 119 2.38 109 2.48  85 2.48
 108  0.351  0.446  0.830-   2 2.38  37 2.38 110 2.48  86 2.48
 109  0.601  0.946  0.628-  66 2.38   5 2.38 107 2.48  83 2.48
 110  0.351  0.571  0.762-  98 2.38  77 2.38  84 2.48 108 2.48
 111  0.479  0.652  0.000-  50 2.35  61 2.35  43 2.35  96 2.47
 112  0.601  0.446  0.628-  24 2.38 100 2.38 104 2.48  77 2.48
 113  0.351  0.071  0.762-  83 2.38 101 2.38  78 2.48 105 2.48
 114  0.229  0.236  0.000-   7 2.35  25 2.35  26 2.35  31 2.46
 115  0.729  0.486  0.457-  60 2.35  41 2.35  42 2.35  24 2.45
 116  0.851  0.321  0.762-  74 2.38 104 2.38  19 2.48  81 2.48
 117  0.979  0.652  0.000-  43 2.35  68 2.35  61 2.35  55 2.47
 118  0.101  0.196  0.628-  48 2.38 106 2.38  74 2.48 101 2.48
 119  0.851  0.821  0.762-  80 2.38 107 2.38  75 2.48 102 2.48
 120  0.729  0.236  0.000-   7 2.35   8 2.35  25 2.35  90 2.46
 
  LATTYP: Found a simple orthorhombic cell.
 ALAT       =     7.6805944440
 B/A-ratio  =     2.1213200862
 C/A-ratio  =     2.7342758666
  
  Lattice vectors:
  
 A1 = (   7.6805944440,   0.0000000000,   0.0000000000)
 A2 = (   0.0000000000,  16.2929992680,   0.0000000000)
 A3 = (   0.0000000000,   0.0000000000,  21.0008640290)


Analysis of symmetry for initial positions (statically):
=====================================================================
 Subroutine PRICEL returns:
 Original cell was already a primitive cell.
 

 Routine SETGRP: Setting up the symmetry group for a 
 simple orthorhombic supercell.


 Subroutine GETGRP returns: Found  1 space group operations
 (whereof  1 operations were pure point group operations)
 out of a pool of  8 trial point group operations.


The static configuration has the point symmetry C_1 .


Analysis of symmetry for dynamics (positions and initial velocities):
=====================================================================
 Subroutine PRICEL returns:
 Original cell was already a primitive cell.
 

 Routine SETGRP: Setting up the symmetry group for a 
 simple orthorhombic supercell.


 Subroutine GETGRP returns: Found  1 space group operations
 (whereof  1 operations were pure point group operations)
 out of a pool of  8 trial point group operations.


The dynamic configuration has the point symmetry C_1 .


Analysis of structural, dynamic, and magnetic symmetry:
=====================================================================
 Subroutine PRICEL returns:
 Original cell was already a primitive cell.
 

 Routine SETGRP: Setting up the symmetry group for a 
 simple orthorhombic supercell.


 Subroutine GETGRP returns: Found  1 space group operations
 (whereof  1 operations were pure point group operations)
 out of a pool of  8 trial point group operations.


The overall configuration has the point symmetry C_1 .


 Subroutine INISYM returns: Found  1 space group operations
 (whereof  1 operations are pure point group operations),
 and found     1 'primitive' translations


----------------------------------------------------------------------------------------

                                     Primitive cell                                     

  volume of cell :    2628.0464

  direct lattice vectors                    reciprocal lattice vectors
     7.680594444  0.000000000  0.000000000     0.130198256  0.000000000  0.000000000
     0.000000000 16.292999268  0.000000000     0.000000000  0.061376054  0.000000000
     0.000000000  0.000000000 21.000864029     0.000000000  0.000000000  0.047617088

  length of vectors
     7.680594444 16.292999268 21.000864029     0.130198256  0.061376054  0.047617088

  position of ions in fractional coordinates (direct lattice)
     0.978517294  0.985678196  0.000000001
     0.101163626  0.446336091  0.896959722
     0.478517175  0.652344763  0.182863802
     0.228517234  0.485678136  0.274295658
     0.351163626  0.946336091  0.560199738
     0.351163626  0.696336031  0.560199738
     0.978517294  0.319011539  0.000000001
     0.728517234  0.152344853  0.091431901
     0.478517175  0.985678136  0.182863802
     0.228517234  0.819011509  0.274295658
     0.978517175  0.652344763  0.365727574
     0.101163626  0.696336031  0.627551734
     0.601163566  0.946336031  0.896959722
     0.728517234  0.485678196  0.091431901
     0.478517175  0.319011509  0.182863802
     0.228517234  0.152344868  0.274295658
     0.978517175  0.985678136  0.365727574
     0.728517175  0.819011390  0.457159460
     0.851163626  0.196336150  0.829607725
     0.228517249  0.819011450  0.091431901
     0.978517234  0.652344763  0.182863802
     0.728517294  0.485678136  0.274295628
     0.478517175  0.319011390  0.365727574
     0.851163566  0.446336061  0.560199738
     0.478517294  0.319011539  0.000000000
     0.228517249  0.152344853  0.091431901
     0.978517234  0.985678136  0.182863802
     0.728517294  0.819011509  0.274295628
     0.478517175  0.652344763  0.365727574
     0.228517115  0.485678077  0.457159460
     0.101163626  0.196336150  0.896959722
     0.228517249  0.485678196  0.091431901
     0.978517234  0.319011509  0.182863802
     0.728517294  0.152344868  0.274295628
     0.478517175  0.985678136  0.365727574
     0.228517115  0.819011390  0.457159460
     0.601163626  0.446336091  0.896959722
     0.478517294  0.069011487  0.091431893
     0.228517264  0.902344763  0.182863802
     0.978517294  0.735678136  0.274295658
     0.728517234  0.569011450  0.365727574
     0.478517234  0.402344644  0.457159400
     0.728517354  0.569011629  0.000000000
     0.478517294  0.402344882  0.091431893
     0.228517264  0.235678196  0.182863802
     0.978517294  0.069011539  0.274295658
     0.728517234  0.902344823  0.365727574
     0.351163626  0.196336150  0.560199738
     0.728517354  0.902344942  0.000000000
     0.478517294  0.735678196  0.091431893
     0.228517264  0.569011509  0.182863802
     0.978517294  0.402344853  0.274295658
     0.728517234  0.235678121  0.365727574
     0.478517234  0.069011383  0.457159400
     0.101163626  0.696336091  0.896959722
     0.978517234  0.069011487  0.091431901
     0.728517175  0.902344763  0.182863802
     0.478517294  0.735678136  0.274295628
     0.228517175  0.569011450  0.365727574
     0.978517056  0.402344644  0.457159460
     0.228517294  0.569011629  0.000000001
     0.978517234  0.402344882  0.091431901
     0.728517175  0.235678196  0.182863802
     0.478517294  0.069011539  0.274295628
     0.228517175  0.902344823  0.365727574
     0.851163626  0.946336031  0.560199738
     0.228517294  0.902344942  0.000000001
     0.978517234  0.735678196  0.091431901
     0.728517175  0.569011509  0.182863802
     0.478517294  0.402344853  0.274295628
     0.228517175  0.235678121  0.365727574
     0.978517056  0.069011383  0.457159460
     0.728517175  0.152344704  0.457159460
     0.101163626  0.321336091  0.694903731
     0.851163626  0.946336150  0.829607725
     0.978517056  0.735678077  0.457159460
     0.601163626  0.571336091  0.694903731
     0.351163626  0.196336150  0.829607725
     0.478517234  0.735678077  0.457159400
     0.101163626  0.821336150  0.694903731
     0.851163626  0.446336091  0.829607725
     0.228517115  0.152344704  0.457159460
     0.601163626  0.071336150  0.694903731
     0.351163626  0.696336091  0.829607725
     0.601163566  0.696336031  0.627551734
     0.351163626  0.321336091  0.762255728
     0.101163626  0.946336031  0.896959722
     0.101163626  0.946336031  0.627551734
     0.851163626  0.571336091  0.762255728
     0.601163626  0.196336031  0.896959722
     0.601163626  0.196336150  0.627551734
     0.351163626  0.821336150  0.762255728
     0.728517234  0.819011450  0.091431901
     0.101163507  0.446336061  0.627551734
     0.851163626  0.071336150  0.762255728
     0.601163626  0.696336091  0.896959722
     0.978517175  0.319011390  0.365727574
     0.101163745  0.571336150  0.694903731
     0.478517294  0.985678196  0.000000000
     0.351163626  0.446336091  0.560199738
     0.101163626  0.071336150  0.694903731
     0.851163626  0.696336091  0.829607725
     0.851163626  0.696336091  0.560199738
     0.601163626  0.321336150  0.694903731
     0.351163626  0.946336150  0.829607725
     0.851163626  0.196336150  0.560199738
     0.601163626  0.821336091  0.694903731
     0.351163626  0.446336150  0.829607725
     0.601163685  0.946336091  0.627551734
     0.351163626  0.571336150  0.762255728
     0.478517294  0.652344942  0.000000000
     0.601163626  0.446336091  0.627551734
     0.351163626  0.071336150  0.762255728
     0.228517294  0.235678196  0.000000001
     0.728517175  0.485678077  0.457159460
     0.851163626  0.321336061  0.762255728
     0.978517294  0.652344942  0.000000001
     0.101163626  0.196336150  0.627551734
     0.851163626  0.821336150  0.762255728
     0.728517354  0.235678196  0.000000000

  ion indices of the primitive-cell ions
   primitive index   ion index
                 1           1
                 2           2
                 3           3
                 4           4
                 5           5
                 6           6
                 7           7
                 8           8
                 9           9
                10          10
                11          11
                12          12
                13          13
                14          14
                15          15
                16          16
                17          17
                18          18
                19          19
                20          20
                21          21
                22          22
                23          23
                24          24
                25          25
                26          26
                27          27
                28          28
                29          29
                30          30
                31          31
                32          32
                33          33
                34          34
                35          35
                36          36
                37          37
                38          38
                39          39
                40          40
                41          41
                42          42
                43          43
                44          44
                45          45
                46          46
                47          47
                48          48
                49          49
                50          50
                51          51
                52          52
                53          53
                54          54
                55          55
                56          56
                57          57
                58          58
                59          59
                60          60
                61          61
                62          62
                63          63
                64          64
                65          65
                66          66
                67          67
                68          68
                69          69
                70          70
                71          71
                72          72
                73          73
                74          74
                75          75
                76          76
                77          77
                78          78
                79          79
                80          80
                81          81
                82          82
                83          83
                84          84
                85          85
                86          86
                87          87
                88          88
                89          89
                90          90
                91          91
                92          92
                93          93
                94          94
                95          95
                96          96
                97          97
                98          98
                99          99
               100         100
               101         101
               102         102
               103         103
               104         104
               105         105
               106         106
               107         107
               108         108
               109         109
               110         110
               111         111
               112         112
               113         113
               114         114
               115         115
               116         116
               117         117
               118         118
               119         119
               120         120

----------------------------------------------------------------------------------------

 
 
 KPOINTS: Automatic KPOINTS generated             

Automatic generation of k-mesh.
 Grid dimensions read from file:
 generate k-points for:    4    2    1

 Generating k-lattice:

  Cartesian coordinates                     Fractional coordinates (reciprocal lattice)
     0.032549564  0.000000000  0.000000000     0.250000000  0.000000000  0.000000000
     0.000000000  0.030688027  0.000000000     0.000000000  0.500000000  0.000000000
     0.000000000  0.000000000  0.047617088     0.000000000  0.000000000  1.000000000

  Length of vectors
     0.032549564  0.030688027  0.047617088

  Shift w.r.t. Gamma in fractional coordinates (k-lattice)
     0.000000000  0.000000000  0.000000000

 
 Subroutine IBZKPT returns following result:
 ===========================================
 
 Found      6 irreducible k-points:
 
 Following reciprocal coordinates:
            Coordinates               Weight
  0.000000  0.000000  0.000000      1.000000
  0.250000  0.000000  0.000000      2.000000
  0.500000  0.000000  0.000000      1.000000
  0.000000  0.500000  0.000000      1.000000
  0.250000  0.500000  0.000000      2.000000
  0.500000  0.500000  0.000000      1.000000
 
 Following cartesian coordinates:
            Coordinates               Weight
  0.000000  0.000000  0.000000      1.000000
  0.032550  0.000000  0.000000      2.000000
  0.065099  0.000000  0.000000      1.000000
  0.000000  0.030688  0.000000      1.000000
  0.032550  0.030688  0.000000      2.000000
  0.065099  0.030688  0.000000      1.000000
 


--------------------------------------------------------------------------------------------------------




 Dimension of arrays:
   k-points           NKPTS =      6   k-points in BZ     NKDIM =      6   number of bands    NBANDS=    288
   number of dos      NEDOS =    301   number of ions     NIONS =    120
   non local maximal  LDIM  =      5   non local SUM 2l+1 LMDIM =     13
   total plane-waves  NPLWV = 756000
   max r-space proj   IRMAX =   2381   max aug-charges    IRDMAX= 125263
   dimension x,y,z NGX =    50 NGY =  108 NGZ =  140
   dimension x,y,z NGXF=   100 NGYF=  216 NGZF=  280
   support grid    NGXF=   200 NGYF=  432 NGZF=  560
   ions per type =              72  48
   NGX,Y,Z   is equivalent  to a cutoff of  10.82, 11.02, 11.08 a.u.
   NGXF,Y,Z  is equivalent  to a cutoff of  21.64, 22.04, 22.17 a.u.

 SYSTEM =  Si and Ge interface calculation         
 POSCAR =  Si+Ge                                   

 Startparameter for this run:
   NWRITE =      2    write-flag & timer
   PREC   = normal    normal or accurate (medium, high low for compatibility)
   ISTART =      0    job   : 0-new  1-cont  2-samecut
   ICHARG =      2    charge: 1-file 2-atom 10-const
   ISPIN  =      2    spin polarized calculation?
   LNONCOLLINEAR =      F non collinear calculations
   LSORBIT =      F    spin-orbit coupling
   INIWAV =      1    electr: 0-lowe 1-rand  2-diag
   LASPH  =      T    aspherical Exc in radial PAW
 Electronic Relaxation 1
   ENCUT  =  700.0 eV  51.45 Ry    7.17 a.u.  16.57 35.15 45.30*2*pi/ulx,y,z
   ENINI  =  700.0     initial cutoff
   ENAUG  =  900.0 eV  augmentation charge cutoff
   NELM   =    100;   NELMIN=  2; NELMDL= -5     # of ELM steps 
   EDIFF  = 0.1E-06   stopping-criterion for ELM
   LREAL  =      T    real-space projection
   NLSPLINE    = F    spline interpolate recip. space projectors
   LCOMPAT=      F    compatible to vasp.4.4
   GGA_COMPAT  = T    GGA compatible to vasp.4.4-vasp.4.6
   LMAXPAW     = -100 max onsite density
   LMAXMIX     =    6 max onsite mixed and CHGCAR
   VOSKOWN=      0    Vosko Wilk Nusair interpolation
   ROPT   =   -0.00050  -0.00050
 Ionic relaxation
   EDIFFG = 0.1E-05   stopping-criterion for IOM
   NSW    =      0    number of steps for IOM
   NBLOCK =      1;   KBLOCK =      1    inner block; outer block 
   IBRION =     -1    ionic relax: 0-MD 1-quasi-New 2-CG
   NFREE  =      0    steps in history (QN), initial steepest desc. (CG)
   ISIF   =      2    stress and relaxation
   IWAVPR =     10    prediction:  0-non 1-charg 2-wave 3-comb
   ISYM   =      2    0-nonsym 1-usesym 2-fastsym
   LCORR  =      T    Harris-Foulkes like correction to forces

   POTIM  = 0.5000    time-step for ionic-motion
   TEIN   =    0.0    initial temperature
   TEBEG  =    0.0;   TEEND  =   0.0 temperature during run
   SMASS  =  -3.00    Nose mass-parameter (am)
   estimated Nose-frequenzy (Omega)   =  0.10E-29 period in steps = 0.13E+47 mass=  -0.135E-26a.u.
   SCALEE = 1.0000    scale energy and forces
   NPACO  =    256;   APACO  = 10.0  distance and # of slots for P.C.
   PSTRESS=    0.0 pullay stress

  Mass of Ions in am
   POMASS =  28.09 72.61
  Ionic Valenz
   ZVAL   =   4.00  4.00
  Atomic Wigner-Seitz radii
   RWIGS  =  -1.00 -1.00
  virtual crystal weights 
   VCA    =   1.00  1.00
   NELECT =     480.0000    total number of electrons
   NUPDOWN=       1.0000    fix difference up-down

 DOS related values:
   EMIN   =  10.00;   EMAX   =-10.00  energy-range for DOS
   EFERMI =   0.00;   METHOD = LEGACY      
   ISMEAR =     0;   SIGMA  =   0.01  broadening in eV -4-tet -1-fermi 0-gaus

 Electronic relaxation 2 (details)
   IALGO  =     38    algorithm
   LDIAG  =      T    sub-space diagonalisation (order eigenvalues)
   LSUBROT=      F    optimize rotation matrix (better conditioning)
   TURBO    =      0    0=normal 1=particle mesh
   IRESTART =      0    0=no restart 2=restart with 2 vectors
   NREBOOT  =      0    no. of reboots
   NMIN     =      0    reboot dimension
   EREF     =   0.00    reference energy to select bands
   IMIX   =      4    mixing-type and parameters
     AMIX     =   0.60;   BMIX     =  1.00
     AMIX_MAG =   2.40;   BMIX_MAG =  1.00
     AMIN     =   0.10
     WC   =   100.;   INIMIX=   1;  MIXPRE=   1;  MAXMIX= -45

 Intra band minimization:
   WEIMIN = 0.0000     energy-eigenvalue tresh-hold
   EBREAK =  0.87E-10  absolut break condition
   DEPER  =   0.30     relativ break condition  

   TIME   =   0.40     timestep for ELM

  volume/ion in A,a.u.               =      21.90       147.79
  Fermi-wavevector in a.u.,A,eV,Ry     =   0.928847  1.755267 11.738521  0.862757
  Thomas-Fermi vector in A             =   2.055067
 
 Write flags
   LWAVE        =      F    write WAVECAR
   LDOWNSAMPLE  =      F    k-point downsampling of WAVECAR
   LCHARG       =      T    write CHGCAR
   LVTOT        =      F    write LOCPOT, total local potential
   LVHAR        =      T    write LOCPOT, Hartree potential only
   WRT_POTENTIAL=  hartree ionic  ! write potential to hdf5 file
   LELF         =      F    write electronic localiz. function (ELF)
   LORBIT       =      0    0 simple, 1 ext, 2 COOP (PROOUT), +10 PAW based schemes


 Dipole corrections
   LMONO      =      F    monopole corrections only (constant potential shift)
   LDIPOL     =      F    correct potential (dipole corrections)
   IDIPOL     =      0    1-x, 2-y, 3-z, 4-all directions 
   EPSILON    =  1.0000000 bulk dielectric constant
   LVACPOTAV  =      F  vacuum potentials using an averaging scheme for the charge density
   VACPOTFLAT =  0.1000000 required flatness to determine vacuum potential
 Exchange correlation treatment:
   GGA     = PE    functional components
   XC_C    = 1    coefficients multiplying the functional components
   LIBXC   =     F    Libxc                    
   VOSKOWN =     0    Vosko Wilk Nusair interpolation
   LHFCALC =     F    Hartree Fock is set to
   LHFONE  =     F    Hartree Fock one center treatment
   AEXX    =    0.0000 exact exchange contribution

 Parameters of functionals:
   PE:
     No parameter
 
 Van der Waals corrections
   IVDW    =     0    specifies the selected vdW correction

 Linear response parameters
   LEPSILON=     F    determine dielectric tensor
   LRPA    =     F    only Hartree local field effects (RPA)
   LNABLA  =     F    use nabla operator in PAW spheres
   LVEL    =     F    velocity operator in full k-point grid
   CSHIFT  =0.1000    complex shift for real part using Kramers Kronig
   OMEGAMAX=  -1.0    maximum frequency
   DEG_THRESHOLD= 0.2000000E-02 threshold for treating states as degnerate
   RTIME   =   -0.100 relaxation time in fs
  (WPLASMAI=    0.000 imaginary part of plasma frequency in eV, 0.658/RTIME)
   DFIELD  = 0.0000000 0.0000000 0.0000000 field for delta impulse in time
 
  Optional k-point grid parameters
   LKPOINTS_OPT  =     F    use optional k-point grid
   KPOINTS_OPT_MODE=     1    mode for optional k-point grid
 
 Orbital magnetization related:
   ORBITALMAG=     F  switch on orbital magnetization
   LCHIMAG   =     F  perturbation theory with respect to B field
   DQ        =  0.001000  dq finite difference perturbation B field
   LLRAUG    =     F  two centre corrections for induced B field
   LBONE     =     F  B-component reconstruction in AE one-centre
   LVGVCALC  =     T  calculate vGv susceptibility
   LVGVAPPL  =     F  apply vGv susceptibility instead of pGv for G=0

 Random number generation:
   RANDOM_GENERATOR = DEFAULT
   PCG_SEED         = not used


--------------------------------------------------------------------------------------------------------


 Static calculation
 charge density and potential will be updated during run
 spin polarized calculation
 Variant of blocked Davidson
 Davidson routine will perform the subspace rotation
 perform sub-space diagonalisation
    after iterative eigenvector-optimisation
 modified Broyden-mixing scheme, WC =      100.0
 initial mixing is a Kerker type mixing with AMIX =  0.6000 and BMIX =      1.0000
 Hartree-type preconditioning will be used
 using additional bands           48
 real space projection scheme for non local part
 use partial core corrections
 calculate Harris-corrections to forces 
   (improved forces if not selfconsistent)
 use gradient corrections 
 use of overlap-Matrix (Vanderbilt PP)
 Gauss-broadening in eV      SIGMA  =   0.01


--------------------------------------------------------------------------------------------------------


  energy-cutoff  :      700.00
  volume of cell :     2628.05
      direct lattice vectors                 reciprocal lattice vectors
     7.680594444  0.000000000  0.000000000     0.130198256  0.000000000  0.000000000
     0.000000000 16.292999268  0.000000000     0.000000000  0.061376054  0.000000000
     0.000000000  0.000000000 21.000864029     0.000000000  0.000000000  0.047617088

  length of vectors
     7.680594444 16.292999268 21.000864029     0.130198256  0.061376054  0.047617088


 
 k-points in units of 2pi/SCALE and weight: Automatic KPOINTS generated             
   0.00000000  0.00000000  0.00000000       0.125
   0.03254956  0.00000000  0.00000000       0.250
   0.06509913  0.00000000  0.00000000       0.125
   0.00000000  0.03068803  0.00000000       0.125
   0.03254956  0.03068803  0.00000000       0.250
   0.06509913  0.03068803  0.00000000       0.125
 
 k-points in reciprocal lattice and weights: Automatic KPOINTS generated             
   0.00000000  0.00000000  0.00000000       0.125
   0.25000000  0.00000000  0.00000000       0.250
   0.50000000  0.00000000  0.00000000       0.125
   0.00000000  0.50000000  0.00000000       0.125
   0.25000000  0.50000000  0.00000000       0.250
   0.50000000  0.50000000  0.00000000       0.125
 
 position of ions in fractional coordinates (direct lattice) 
   0.97851729  0.98567820  0.00000000
   0.10116363  0.44633609  0.89695972
   0.47851718  0.65234476  0.18286380
   0.22851723  0.48567814  0.27429566
   0.35116363  0.94633609  0.56019974
   0.35116363  0.69633603  0.56019974
   0.97851729  0.31901154  0.00000000
   0.72851723  0.15234485  0.09143190
   0.47851718  0.98567814  0.18286380
   0.22851723  0.81901151  0.27429566
   0.97851718  0.65234476  0.36572757
   0.10116363  0.69633603  0.62755173
   0.60116357  0.94633603  0.89695972
   0.72851723  0.48567820  0.09143190
   0.47851718  0.31901151  0.18286380
   0.22851723  0.15234487  0.27429566
   0.97851718  0.98567814  0.36572757
   0.72851718  0.81901139  0.45715946
   0.85116363  0.19633615  0.82960773
   0.22851725  0.81901145  0.09143190
   0.97851723  0.65234476  0.18286380
   0.72851729  0.48567814  0.27429563
   0.47851718  0.31901139  0.36572757
   0.85116357  0.44633606  0.56019974
   0.47851729  0.31901154  0.00000000
   0.22851725  0.15234485  0.09143190
   0.97851723  0.98567814  0.18286380
   0.72851729  0.81901151  0.27429563
   0.47851718  0.65234476  0.36572757
   0.22851712  0.48567808  0.45715946
   0.10116363  0.19633615  0.89695972
   0.22851725  0.48567820  0.09143190
   0.97851723  0.31901151  0.18286380
   0.72851729  0.15234487  0.27429563
   0.47851718  0.98567814  0.36572757
   0.22851712  0.81901139  0.45715946
   0.60116363  0.44633609  0.89695972
   0.47851729  0.06901149  0.09143189
   0.22851726  0.90234476  0.18286380
   0.97851729  0.73567814  0.27429566
   0.72851723  0.56901145  0.36572757
   0.47851723  0.40234464  0.45715940
   0.72851735  0.56901163  0.00000000
   0.47851729  0.40234488  0.09143189
   0.22851726  0.23567820  0.18286380
   0.97851729  0.06901154  0.27429566
   0.72851723  0.90234482  0.36572757
   0.35116363  0.19633615  0.56019974
   0.72851735  0.90234494  0.00000000
   0.47851729  0.73567820  0.09143189
   0.22851726  0.56901151  0.18286380
   0.97851729  0.40234485  0.27429566
   0.72851723  0.23567812  0.36572757
   0.47851723  0.06901138  0.45715940
   0.10116363  0.69633609  0.89695972
   0.97851723  0.06901149  0.09143190
   0.72851718  0.90234476  0.18286380
   0.47851729  0.73567814  0.27429563
   0.22851718  0.56901145  0.36572757
   0.97851706  0.40234464  0.45715946
   0.22851729  0.56901163  0.00000000
   0.97851723  0.40234488  0.09143190
   0.72851718  0.23567820  0.18286380
   0.47851729  0.06901154  0.27429563
   0.22851718  0.90234482  0.36572757
   0.85116363  0.94633603  0.56019974
   0.22851729  0.90234494  0.00000000
   0.97851723  0.73567820  0.09143190
   0.72851718  0.56901151  0.18286380
   0.47851729  0.40234485  0.27429563
   0.22851718  0.23567812  0.36572757
   0.97851706  0.06901138  0.45715946
   0.72851718  0.15234470  0.45715946
   0.10116363  0.32133609  0.69490373
   0.85116363  0.94633615  0.82960773
   0.97851706  0.73567808  0.45715946
   0.60116363  0.57133609  0.69490373
   0.35116363  0.19633615  0.82960773
   0.47851723  0.73567808  0.45715940
   0.10116363  0.82133615  0.69490373
   0.85116363  0.44633609  0.82960773
   0.22851712  0.15234470  0.45715946
   0.60116363  0.07133615  0.69490373
   0.35116363  0.69633609  0.82960773
   0.60116357  0.69633603  0.62755173
   0.35116363  0.32133609  0.76225573
   0.10116363  0.94633603  0.89695972
   0.10116363  0.94633603  0.62755173
   0.85116363  0.57133609  0.76225573
   0.60116363  0.19633603  0.89695972
   0.60116363  0.19633615  0.62755173
   0.35116363  0.82133615  0.76225573
   0.72851723  0.81901145  0.09143190
   0.10116351  0.44633606  0.62755173
   0.85116363  0.07133615  0.76225573
   0.60116363  0.69633609  0.89695972
   0.97851718  0.31901139  0.36572757
   0.10116375  0.57133615  0.69490373
   0.47851729  0.98567820  0.00000000
   0.35116363  0.44633609  0.56019974
   0.10116363  0.07133615  0.69490373
   0.85116363  0.69633609  0.82960773
   0.85116363  0.69633609  0.56019974
   0.60116363  0.32133615  0.69490373
   0.35116363  0.94633615  0.82960773
   0.85116363  0.19633615  0.56019974
   0.60116363  0.82133609  0.69490373
   0.35116363  0.44633615  0.82960773
   0.60116369  0.94633609  0.62755173
   0.35116363  0.57133615  0.76225573
   0.47851729  0.65234494  0.00000000
   0.60116363  0.44633609  0.62755173
   0.35116363  0.07133615  0.76225573
   0.22851729  0.23567820  0.00000000
   0.72851718  0.48567808  0.45715946
   0.85116363  0.32133606  0.76225573
   0.97851729  0.65234494  0.00000000
   0.10116363  0.19633615  0.62755173
   0.85116363  0.82133615  0.76225573
   0.72851735  0.23567820  0.00000000
 
 position of ions in cartesian coordinates  (Angst):
   7.51559449 16.05965413  0.00000002
   0.77699678  7.27215360 18.83692916
   3.67529636 10.62865275  3.84029784
   1.75514820  7.91315351  5.76044582
   2.69714539 15.41865324 11.76467853
   2.69714539 11.34540244 11.76467853
   7.51559449  5.19765477  0.00000002
   5.59544542  2.48215458  1.92014892
   3.67529636 16.05965315  3.84029784
   1.75514820 13.34415392  5.76044582
   7.51559358 10.62865275  7.68059505
   0.77699678 11.34540244 13.17912864
   4.61729354 15.41865226 18.83692916
   5.59544542  7.91315449  1.92014892
   3.67529636  5.19765428  3.84029784
   1.75514820  2.48215482  5.76044582
   7.51559358 16.05965315  7.68059505
   5.59544497 13.34415198  9.60074366
   6.53744262  3.19890475 17.42247903
   1.75514831 13.34415296  1.92014892
   7.51559403 10.62865275  3.84029784
   5.59544588  7.91315351  5.76044519
   3.67529636  5.19765234  7.68059505
   6.53744216  7.27215312 11.76467853
   3.67529727  5.19765477  0.00000000
   1.75514831  2.48215458  1.92014892
   7.51559403 16.05965315  3.84029784
   5.59544588 13.34415392  5.76044519
   3.67529636 10.62865275  7.68059505
   1.75514728  7.91315255  9.60074366
   0.77699678  3.19890475 18.83692916
   1.75514831  7.91315449  1.92014892
   7.51559403  5.19765428  3.84029784
   5.59544588  2.48215482  5.76044519
   3.67529636 16.05965315  7.68059505
   1.75514728 13.34415198  9.60074366
   4.61729401  7.27215360 18.83692916
   3.67529727  1.12440411  1.92014875
   1.75514843 14.70190256  3.84029784
   7.51559449 11.98640333  5.76044582
   5.59544542  9.27090314  7.68059505
   3.67529681  6.55540099  9.60074240
   5.59544634  9.27090605  0.00000000
   3.67529727  6.55540487  1.92014875
   1.75514843  3.83990467  3.84029784
   7.51559449  1.12440495  5.76044582
   5.59544542 14.70190354  7.68059505
   2.69714539  3.19890475 11.76467853
   5.59544634 14.70190548  0.00000000
   3.67529727 11.98640431  1.92014875
   1.75514843  9.27090410  3.84029784
   7.51559449  6.55540440  5.76044582
   5.59544542  3.83990345  7.68059505
   3.67529681  1.12440241  9.60074240
   0.77699678 11.34540342 18.83692916
   7.51559403  1.12440411  1.92014892
   5.59544497 14.70190256  3.84029784
   3.67529727 11.98640333  5.76044519
   1.75514774  9.27090314  7.68059505
   7.51559266  6.55540099  9.60074366
   1.75514866  9.27090605  0.00000002
   7.51559403  6.55540487  1.92014892
   5.59544497  3.83990467  3.84029784
   3.67529727  1.12440495  5.76044519
   1.75514774 14.70190354  7.68059505
   6.53744262 15.41865226 11.76467853
   1.75514866 14.70190548  0.00000002
   7.51559403 11.98640431  1.92014892
   5.59544497  9.27090410  3.84029784
   3.67529727  6.55540440  5.76044519
   1.75514774  3.83990345  7.68059505
   7.51559266  1.12440241  9.60074366
   5.59544497  2.48215215  9.60074366
   0.77699678  5.23552870 14.59357877
   6.53744262 15.41865420 17.42247903
   7.51559266 11.98640237  9.60074366
   4.61729401  9.30877851 14.59357877
   2.69714539  3.19890475 17.42247903
   3.67529681 11.98640237  9.60074240
   0.77699678 13.38202929 14.59357877
   6.53744262  7.27215360 17.42247903
   1.75514728  2.48215215  9.60074366
   4.61729401  1.16227984 14.59357877
   2.69714539 11.34540342 17.42247903
   4.61729354 11.34540244 13.17912864
   2.69714539  5.23552870 16.00802890
   0.77699678 15.41865226 18.83692916
   0.77699678 15.41865226 13.17912864
   6.53744262  9.30877851 16.00802890
   4.61729401  3.19890281 18.83692916
   4.61729401  3.19890475 13.17912864
   2.69714539 13.38202929 16.00802890
   5.59544542 13.34415296  1.92014892
   0.77699587  7.27215312 13.17912864
   6.53744262  1.16227984 16.00802890
   4.61729401 11.34540342 18.83692916
   7.51559358  5.19765234  7.68059505
   0.77699770  9.30877947 14.59357877
   3.67529727 16.05965413  0.00000000
   2.69714539  7.27215360 11.76467853
   0.77699678  1.16227984 14.59357877
   6.53744262 11.34540342 17.42247903
   6.53744262 11.34540342 11.76467853
   4.61729401  5.23552966 14.59357877
   2.69714539 15.41865420 17.42247903
   6.53744262  3.19890475 11.76467853
   4.61729401 13.38202833 14.59357877
   2.69714539  7.27215457 17.42247903
   4.61729446 15.41865324 13.17912864
   2.69714539  9.30877947 16.00802890
   3.67529727 10.62865566  0.00000000
   4.61729401  7.27215360 13.17912864
   2.69714539  1.16227984 16.00802890
   1.75514866  3.83990467  0.00000002
   5.59544497  7.91315255  9.60074366
   6.53744262  5.23552821 16.00802890
   7.51559449 10.62865566  0.00000002
   0.77699678  3.19890475 13.17912864
   6.53744262 13.38202929 16.00802890
   5.59544634  3.83990467  0.00000000
 


--------------------------------------------------------------------------------------------------------


 k-point     1 :   0.0000 0.0000 0.0000  plane waves:  110549
 k-point     2 :   0.2500 0.0000 0.0000  plane waves:  110533
 k-point     3 :   0.5000 0.0000 0.0000  plane waves:  110530
 k-point     4 :   0.0000 0.5000 0.0000  plane waves:  110618
 k-point     5 :   0.2500 0.5000 0.0000  plane waves:  110556
 k-point     6 :   0.5000 0.5000 0.0000  plane waves:  110468

 maximum and minimum number of plane-waves per node :      6948     6873

 maximum number of plane-waves:    110618
 maximum index in each direction: 
   IXMAX=   16   IYMAX=   35   IZMAX=   45
   IXMIN=  -17   IYMIN=  -35   IZMIN=  -45


 real space projection operators:
  total allocation   :      17562.89 KBytes
  max/ min on nodes  :       1414.37       1017.34


 parallel 3D FFT for wavefunctions:
    minimum data exchange during FFTs selected (reduces bandwidth)
 parallel 3D FFT for charge:
    minimum data exchange during FFTs selected (reduces bandwidth)


 total amount of memory used by VASP MPI-rank0   166825. kBytes
=======================================================================

   base      :      30000. kBytes
   nonlr-proj:       6544. kBytes
   fftplans  :      18524. kBytes
   grid      :      14584. kBytes
   one-center:        129. kBytes
   wavefun   :      97044. kBytes
 
     INWAV:  cpu time      0.0000: real time      0.0002
 Broyden mixing: mesh for mixing (old mesh)
   NGX = 33   NGY = 71   NGZ = 91
  (NGX  =100   NGY  =216   NGZ  =280)
  gives a total of 213213 points

 initial charge density was supplied:
 charge density of overlapping atoms calculated
 number of electron     480.0000000 magnetization       1.0000000
 keeping initial charge density in first step


--------------------------------------------------------------------------------------------------------


 Maximum index for non-local projection operator          418
 Maximum index for augmentation-charges         5904 (set IRDMAX)


--------------------------------------------------------------------------------------------------------


 First call to EWALD:  gamma=   0.128
 Maximum number of real-space cells 5x 2x 2
 Maximum number of reciprocal cells 2x 3x 4

    FEWALD:  cpu time      0.0038: real time      0.0038


--------------------------------------- Ionic step        1  -------------------------------------------




--------------------------------------- Iteration      1(   1)  ---------------------------------------


    POTLOK:  cpu time      0.2035: real time      0.2056
    SETDIJ:  cpu time      1.0184: real time      1.0241
     EDDAV:  cpu time     18.0941: real time     18.2533
       DOS:  cpu time      0.0018: real time      0.0018
    --------------------------------------------
      LOOP:  cpu time     19.3178: real time     19.4848

 eigenvalue-minimisations  :  6912
 total energy-change (2. order) : 0.1967025E+04  (-0.2139647E+05)
 number of electron     480.0000000 magnetization       1.0000000
 augmentation part      480.0000000 magnetization       1.0000000

 Free energy of the ion-electron system (eV)
  ---------------------------------------------------
  alpha Z        PSCENC =       529.58409355
  Ewald energy   TEWEN  =    -12736.13710681
  -Hartree energ DENC   =     -1248.31199239
  -exchange      EXHF   =         0.00000000
  -V(xc)+E(xc)   XCENC  =     -1036.14178411
  PAW double counting   =     10575.88222728    -8613.76247617
  entropy T*S    EENTRO =        -0.00134255
  eigenvalues    EBANDS =      2035.31311042
  atomic energy  EATOM  =     12460.60057749
  Solvation  Ediel_sol  =         0.00000000
  ---------------------------------------------------
  free energy    TOTEN  =      1967.02530671 eV

  energy without entropy =     1967.02664926  energy(sigma->0) =     1967.02597798


--------------------------------------------------------------------------------------------------------




--------------------------------------- Iteration      1(   2)  ---------------------------------------


     EDDAV:  cpu time     20.4002: real time     20.6165
       DOS:  cpu time      0.0013: real time      0.0013
    --------------------------------------------
      LOOP:  cpu time     20.4015: real time     20.6178

 eigenvalue-minimisations  :  8104
 total energy-change (2. order) :-0.2326947E+04  (-0.2244393E+04)
 number of electron     480.0000000 magnetization       1.0000000
 augmentation part      480.0000000 magnetization       1.0000000

 Free energy of the ion-electron system (eV)
  ---------------------------------------------------
  alpha Z        PSCENC =       529.58409355
  Ewald energy   TEWEN  =    -12736.13710681
  -Hartree energ DENC   =     -1248.31199239
  -exchange      EXHF   =         0.00000000
  -V(xc)+E(xc)   XCENC  =     -1036.14178411
  PAW double counting   =     10575.88222728    -8613.76247617
  entropy T*S    EENTRO =        -0.00105714
  eigenvalues    EBANDS =      -291.63383455
  atomic energy  EATOM  =     12460.60057749
  Solvation  Ediel_sol  =         0.00000000
  ---------------------------------------------------
  free energy    TOTEN  =      -359.92135285 eV

  energy without entropy =     -359.92029571  energy(sigma->0) =     -359.92082428


--------------------------------------------------------------------------------------------------------




--------------------------------------- Iteration      1(   3)  ---------------------------------------


     EDDAV:  cpu time     21.1674: real time     21.3975
       DOS:  cpu time      0.0014: real time      0.0014
    --------------------------------------------
      LOOP:  cpu time     21.1687: real time     21.3989

 eigenvalue-minimisations  :  8536
 total energy-change (2. order) :-0.2159651E+03  (-0.2094879E+03)
 number of electron     480.0000000 magnetization       1.0000000
 augmentation part      480.0000000 magnetization       1.0000000

 Free energy of the ion-electron system (eV)
  ---------------------------------------------------
  alpha Z        PSCENC =       529.58409355
  Ewald energy   TEWEN  =    -12736.13710681
  -Hartree energ DENC   =     -1248.31199239
  -exchange      EXHF   =         0.00000000
  -V(xc)+E(xc)   XCENC  =     -1036.14178411
  PAW double counting   =     10575.88222728    -8613.76247617
  entropy T*S    EENTRO =        -0.00325265
  eigenvalues    EBANDS =      -507.59671154
  atomic energy  EATOM  =     12460.60057749
  Solvation  Ediel_sol  =         0.00000000
  ---------------------------------------------------
  free energy    TOTEN  =      -575.88642535 eV

  energy without entropy =     -575.88317270  energy(sigma->0) =     -575.88479903


--------------------------------------------------------------------------------------------------------




--------------------------------------- Iteration      1(   4)  ---------------------------------------


     EDDAV:  cpu time     20.5322: real time     20.7099
       DOS:  cpu time      0.0014: real time      0.0014
    --------------------------------------------
      LOOP:  cpu time     20.5336: real time     20.7112

 eigenvalue-minimisations  :  8192
 total energy-change (2. order) :-0.7791790E+01  (-0.7666947E+01)
 number of electron     480.0000000 magnetization       1.0000000
 augmentation part      480.0000000 magnetization       1.0000000

 Free energy of the ion-electron system (eV)
  ---------------------------------------------------
  alpha Z        PSCENC =       529.58409355
  Ewald energy   TEWEN  =    -12736.13710681
  -Hartree energ DENC   =     -1248.31199239
  -exchange      EXHF   =         0.00000000
  -V(xc)+E(xc)   XCENC  =     -1036.14178411
  PAW double counting   =     10575.88222728    -8613.76247617
  entropy T*S    EENTRO =        -0.00270039
  eigenvalues    EBANDS =      -515.38905407
  atomic energy  EATOM  =     12460.60057749
  Solvation  Ediel_sol  =         0.00000000
  ---------------------------------------------------
  free energy    TOTEN  =      -583.67821562 eV

  energy without entropy =     -583.67551523  energy(sigma->0) =     -583.67686543


--------------------------------------------------------------------------------------------------------




--------------------------------------- Iteration      1(   5)  ---------------------------------------


     EDDAV:  cpu time     22.4899: real time     22.6814
       DOS:  cpu time      0.0014: real time      0.0014
    CHARGE:  cpu time      1.0717: real time      1.0857
    MIXING:  cpu time      0.0051: real time      0.0051
    --------------------------------------------
      LOOP:  cpu time     23.5681: real time     23.7736

 eigenvalue-minimisations  :  9184
 total energy-change (2. order) :-0.2885873E+00  (-0.2869784E+00)
 number of electron     479.9999997 magnetization       1.0000000
 augmentation part      -48.5311641 magnetization      -0.0699686

 Broyden mixing:
  rms(total) = 0.31501E+01    rms(broyden)= 0.31501E+01
  rms(prec ) = 0.32979E+01
  weight for this iteration     100.00

 Free energy of the ion-electron system (eV)
  ---------------------------------------------------
  alpha Z        PSCENC =       529.58409355
  Ewald energy   TEWEN  =    -12736.13710681
  -Hartree energ DENC   =     -1248.31199239
  -exchange      EXHF   =         0.00000000
  -V(xc)+E(xc)   XCENC  =     -1036.14178411
  PAW double counting   =     10575.88222728    -8613.76247617
  entropy T*S    EENTRO =        -0.00258139
  eigenvalues    EBANDS =      -515.67776037
  atomic energy  EATOM  =     12460.60057749
  Solvation  Ediel_sol  =         0.00000000
  ---------------------------------------------------
  free energy    TOTEN  =      -583.96680292 eV

  energy without entropy =     -583.96422153  energy(sigma->0) =     -583.96551223


--------------------------------------------------------------------------------------------------------




--------------------------------------- Iteration      1(   6)  ---------------------------------------


    POTLOK:  cpu time      0.1755: real time      0.1779
    SETDIJ:  cpu time      1.0056: real time      1.0110
     EDDAV:  cpu time     20.7741: real time     20.9514
       DOS:  cpu time      0.0014: real time      0.0014
    CHARGE:  cpu time      1.0709: real time      1.0795
    MIXING:  cpu time      0.0046: real time      0.0047
    --------------------------------------------
      LOOP:  cpu time     23.0321: real time     23.2258

 eigenvalue-minimisations  :  8312
 total energy-change (2. order) : 0.8854719E+01  (-0.1399292E+01)
 number of electron     479.9999997 magnetization       1.0000000
 augmentation part      -48.1662120 magnetization      -0.0527201

 Broyden mixing:
  rms(total) = 0.14374E+01    rms(broyden)= 0.14374E+01
  rms(prec ) = 0.15318E+01
  weight for this iteration     100.00

 eigenvalues of (default mixing * dielectric matrix)
  average eigenvalue GAMMA=   1.7045
  1.7045

 Free energy of the ion-electron system (eV)
  ---------------------------------------------------
  alpha Z        PSCENC =       529.58409355
  Ewald energy   TEWEN  =    -12736.13710681
  -Hartree energ DENC   =     -1381.93971000
  -exchange      EXHF   =         0.00000000
  -V(xc)+E(xc)   XCENC  =     -1017.19800481
  PAW double counting   =     22266.77321265   -20313.51637357
  entropy T*S    EENTRO =        -0.00198764
  eigenvalues    EBANDS =      -383.27678442
  atomic energy  EATOM  =     12460.60057749
  Solvation  Ediel_sol  =         0.00000000
  ---------------------------------------------------
  free energy    TOTEN  =      -575.11208356 eV

  energy without entropy =     -575.11009591  energy(sigma->0) =     -575.11108974


--------------------------------------------------------------------------------------------------------




--------------------------------------- Iteration      1(   7)  ---------------------------------------


    POTLOK:  cpu time      0.1758: real time      0.1778
    SETDIJ:  cpu time      1.0044: real time      1.0102
     EDDAV:  cpu time     20.9710: real time     21.1612
       DOS:  cpu time      0.0014: real time      0.0014
    CHARGE:  cpu time      1.0752: real time      1.0851
    MIXING:  cpu time      0.0048: real time      0.0048
    --------------------------------------------
      LOOP:  cpu time     23.2326: real time     23.4406

 eigenvalue-minimisations  :  8416
 total energy-change (2. order) :-0.1607414E+00  (-0.1489337E+01)
 number of electron     479.9999997 magnetization       1.0000000
 augmentation part      -47.9986799 magnetization      -0.0500531

 Broyden mixing:
  rms(total) = 0.65824E+00    rms(broyden)= 0.65824E+00
  rms(prec ) = 0.90625E+00
  weight for this iteration     100.00

 eigenvalues of (default mixing * dielectric matrix)
  average eigenvalue GAMMA=   1.1892
  1.8578  0.5205

 Free energy of the ion-electron system (eV)
  ---------------------------------------------------
  alpha Z        PSCENC =       529.58409355
  Ewald energy   TEWEN  =    -12736.13710681
  -Hartree energ DENC   =     -1438.19231999
  -exchange      EXHF   =         0.00000000
  -V(xc)+E(xc)   XCENC  =     -1004.43733297
  PAW double counting   =     33776.16423085   -31828.53304277
  entropy T*S    EENTRO =        -0.00204688
  eigenvalues    EBANDS =      -334.31987745
  atomic energy  EATOM  =     12460.60057749
  Solvation  Ediel_sol  =         0.00000000
  ---------------------------------------------------
  free energy    TOTEN  =      -575.27282498 eV

  energy without entropy =     -575.27077810  energy(sigma->0) =     -575.27180154


--------------------------------------------------------------------------------------------------------




--------------------------------------- Iteration      1(   8)  ---------------------------------------


    POTLOK:  cpu time      0.1758: real time      0.1773
    SETDIJ:  cpu time      1.0046: real time      1.0103
     EDDAV:  cpu time     21.0056: real time     21.1879
       DOS:  cpu time      0.0014: real time      0.0014
    CHARGE:  cpu time      1.0737: real time      1.0825
    MIXING:  cpu time      0.0056: real time      0.0056
    --------------------------------------------
      LOOP:  cpu time     23.2667: real time     23.4649

 eigenvalue-minimisations  :  8424
 total energy-change (2. order) : 0.1071789E+01  (-0.4360704E+00)
 number of electron     479.9999997 magnetization       1.0000000
 augmentation part      -47.7598286 magnetization      -0.0559640

 Broyden mixing:
  rms(total) = 0.16054E+00    rms(broyden)= 0.16054E+00
  rms(prec ) = 0.17689E+00
  weight for this iteration     100.00

 eigenvalues of (default mixing * dielectric matrix)
  average eigenvalue GAMMA=   1.2189
  1.8397  1.2371  0.5798

 Free energy of the ion-electron system (eV)
  ---------------------------------------------------
  alpha Z        PSCENC =       529.58409355
  Ewald energy   TEWEN  =    -12736.13710681
  -Hartree energ DENC   =     -1463.37201786
  -exchange      EXHF   =         0.00000000
  -V(xc)+E(xc)   XCENC  =     -1001.45657732
  PAW double counting   =     38366.26488185   -36419.97333753
  entropy T*S    EENTRO =        -0.00199906
  eigenvalues    EBANDS =      -309.70955064
  atomic energy  EATOM  =     12460.60057749
  Solvation  Ediel_sol  =         0.00000000
  ---------------------------------------------------
  free energy    TOTEN  =      -574.20103632 eV

  energy without entropy =     -574.19903727  energy(sigma->0) =     -574.20003680


--------------------------------------------------------------------------------------------------------




--------------------------------------- Iteration      1(   9)  ---------------------------------------


    POTLOK:  cpu time      0.1755: real time      0.1771
    SETDIJ:  cpu time      1.0066: real time      1.0119
     EDDAV:  cpu time     20.1747: real time     20.3487
       DOS:  cpu time      0.0025: real time      0.0025
    CHARGE:  cpu time      1.0747: real time      1.0837
    MIXING:  cpu time      0.0046: real time      0.0047
    --------------------------------------------
      LOOP:  cpu time     22.4386: real time     22.6286

 eigenvalue-minimisations  :  8008
 total energy-change (2. order) :-0.6294395E-01  (-0.1372962E+00)
 number of electron     479.9999997 magnetization       1.0000000
 augmentation part      -47.8119379 magnetization      -0.0585071

 Broyden mixing:
  rms(total) = 0.12603E+00    rms(broyden)= 0.12603E+00
  rms(prec ) = 0.13871E+00
  weight for this iteration     100.00

 eigenvalues of (default mixing * dielectric matrix)
  average eigenvalue GAMMA=   1.1466
  1.7144  1.7144  0.6461  0.5114

 Free energy of the ion-electron system (eV)
  ---------------------------------------------------
  alpha Z        PSCENC =       529.58409355
  Ewald energy   TEWEN  =    -12736.13710681
  -Hartree energ DENC   =     -1454.55740549
  -exchange      EXHF   =         0.00000000
  -V(xc)+E(xc)   XCENC  =     -1002.21393161
  PAW double counting   =     39012.47094940   -37065.87522148
  entropy T*S    EENTRO =        -0.00189651
  eigenvalues    EBANDS =      -318.13403880
  atomic energy  EATOM  =     12460.60057749
  Solvation  Ediel_sol  =         0.00000000
  ---------------------------------------------------
  free energy    TOTEN  =      -574.26398027 eV

  energy without entropy =     -574.26208376  energy(sigma->0) =     -574.26303202


--------------------------------------------------------------------------------------------------------




--------------------------------------- Iteration      1(  10)  ---------------------------------------


    POTLOK:  cpu time      0.1742: real time      0.1773
    SETDIJ:  cpu time      1.0050: real time      1.0108
     EDDAV:  cpu time     20.0593: real time     20.2366
       DOS:  cpu time      0.0014: real time      0.0014
    CHARGE:  cpu time      1.0722: real time      1.0810
    MIXING:  cpu time      0.0052: real time      0.0052
    --------------------------------------------
      LOOP:  cpu time     22.3173: real time     22.5124

 eigenvalue-minimisations  :  7976
 total energy-change (2. order) : 0.1492136E-01  (-0.1673588E-01)
 number of electron     479.9999997 magnetization       1.0000000
 augmentation part      -47.8505179 magnetization      -0.0571067

 Broyden mixing:
  rms(total) = 0.74862E-01    rms(broyden)= 0.74862E-01
  rms(prec ) = 0.79209E-01
  weight for this iteration     100.00

 eigenvalues of (default mixing * dielectric matrix)
  average eigenvalue GAMMA=   1.0945
  1.7366  1.7366  0.8338  0.5829  0.5829

 Free energy of the ion-electron system (eV)
  ---------------------------------------------------
  alpha Z        PSCENC =       529.58409355
  Ewald energy   TEWEN  =    -12736.13710681
  -Hartree energ DENC   =     -1448.50408962
  -exchange      EXHF   =         0.00000000
  -V(xc)+E(xc)   XCENC  =     -1002.77381527
  PAW double counting   =     39202.27642976   -37255.43948171
  entropy T*S    EENTRO =        -0.00223404
  eigenvalues    EBANDS =      -323.85343226
  atomic energy  EATOM  =     12460.60057749
  Solvation  Ediel_sol  =         0.00000000
  ---------------------------------------------------
  free energy    TOTEN  =      -574.24905891 eV

  energy without entropy =     -574.24682487  energy(sigma->0) =     -574.24794189


--------------------------------------------------------------------------------------------------------




--------------------------------------- Iteration      1(  11)  ---------------------------------------


    POTLOK:  cpu time      0.1750: real time      0.1767
    SETDIJ:  cpu time      1.0052: real time      1.0114
     EDDAV:  cpu time     20.1566: real time     20.3612
       DOS:  cpu time      0.0015: real time      0.0015
    CHARGE:  cpu time      1.0685: real time      1.0777
    MIXING:  cpu time      0.0050: real time      0.0051
    --------------------------------------------
      LOOP:  cpu time     22.4118: real time     22.6335

 eigenvalue-minimisations  :  8048
 total energy-change (2. order) :-0.1559311E-02  (-0.4863531E-02)
 number of electron     479.9999997 magnetization       1.0000000
 augmentation part      -47.8470340 magnetization      -0.0567790

 Broyden mixing:
  rms(total) = 0.47442E-01    rms(broyden)= 0.47442E-01
  rms(prec ) = 0.59685E-01
  weight for this iteration     100.00

 eigenvalues of (default mixing * dielectric matrix)
  average eigenvalue GAMMA=   1.0481
  1.5789  1.4210  1.4210  0.6992  0.6992  0.4692

 Free energy of the ion-electron system (eV)
  ---------------------------------------------------
  alpha Z        PSCENC =       529.58409355
  Ewald energy   TEWEN  =    -12736.13710681
  -Hartree energ DENC   =     -1447.91649674
  -exchange      EXHF   =         0.00000000
  -V(xc)+E(xc)   XCENC  =     -1002.84869982
  PAW double counting   =     39277.88110881   -37331.01548145
  entropy T*S    EENTRO =        -0.00216373
  eigenvalues    EBANDS =      -324.39644952
  atomic energy  EATOM  =     12460.60057749
  Solvation  Ediel_sol  =         0.00000000
  ---------------------------------------------------
  free energy    TOTEN  =      -574.25061822 eV

  energy without entropy =     -574.24845449  energy(sigma->0) =     -574.24953635


--------------------------------------------------------------------------------------------------------




--------------------------------------- Iteration      1(  12)  ---------------------------------------


    POTLOK:  cpu time      0.1749: real time      0.1770
    SETDIJ:  cpu time      1.0078: real time      1.0137
     EDDAV:  cpu time     21.1773: real time     21.3538
       DOS:  cpu time      0.0015: real time      0.0015
    CHARGE:  cpu time      1.0681: real time      1.0766
    MIXING:  cpu time      0.0063: real time      0.0064
    --------------------------------------------
      LOOP:  cpu time     23.4359: real time     23.6290

 eigenvalue-minimisations  :  8536
 total energy-change (2. order) : 0.1721680E-02  (-0.2297261E-02)
 number of electron     479.9999997 magnetization       1.0000000
 augmentation part      -47.8424570 magnetization      -0.0574670

 Broyden mixing:
  rms(total) = 0.27152E-01    rms(broyden)= 0.27152E-01
  rms(prec ) = 0.35167E-01
  weight for this iteration     100.00

 eigenvalues of (default mixing * dielectric matrix)
  average eigenvalue GAMMA=   1.0781
  1.7206  1.7206  1.5757  0.8040  0.6908  0.6048  0.4305

 Free energy of the ion-electron system (eV)
  ---------------------------------------------------
  alpha Z        PSCENC =       529.58409355
  Ewald energy   TEWEN  =    -12736.13710681
  -Hartree energ DENC   =     -1448.71014194
  -exchange      EXHF   =         0.00000000
  -V(xc)+E(xc)   XCENC  =     -1002.80385528
  PAW double counting   =     39220.63244692   -37273.78768072
  entropy T*S    EENTRO =        -0.00214735
  eigenvalues    EBANDS =      -323.62508240
  atomic energy  EATOM  =     12460.60057749
  Solvation  Ediel_sol  =         0.00000000
  ---------------------------------------------------
  free energy    TOTEN  =      -574.24889654 eV

  energy without entropy =     -574.24674919  energy(sigma->0) =     -574.24782287


--------------------------------------------------------------------------------------------------------




--------------------------------------- Iteration      1(  13)  ---------------------------------------


    POTLOK:  cpu time      0.1744: real time      0.1769
    SETDIJ:  cpu time      1.0076: real time      1.0134
     EDDAV:  cpu time     21.3621: real time     21.5476
       DOS:  cpu time      0.0014: real time      0.0014
    CHARGE:  cpu time      1.0710: real time      1.0796
    MIXING:  cpu time      0.0053: real time      0.0054
    --------------------------------------------
      LOOP:  cpu time     23.6218: real time     23.8242

 eigenvalue-minimisations  :  8624
 total energy-change (2. order) : 0.2340352E-03  (-0.1037168E-02)
 number of electron     479.9999997 magnetization       1.0000000
 augmentation part      -47.8428620 magnetization      -0.0572092

 Broyden mixing:
  rms(total) = 0.17310E-01    rms(broyden)= 0.17310E-01
  rms(prec ) = 0.25674E-01
  weight for this iteration     100.00

 eigenvalues of (default mixing * dielectric matrix)
  average eigenvalue GAMMA=   1.0767
  2.0010  2.0010  1.5901  0.7653  0.7653  0.6464  0.4923  0.3518

 Free energy of the ion-electron system (eV)
  ---------------------------------------------------
  alpha Z        PSCENC =       529.58409355
  Ewald energy   TEWEN  =    -12736.13710681
  -Hartree energ DENC   =     -1448.45115606
  -exchange      EXHF   =         0.00000000
  -V(xc)+E(xc)   XCENC  =     -1002.83893276
  PAW double counting   =     39175.32661848   -37228.46687732
  entropy T*S    EENTRO =        -0.00199011
  eigenvalues    EBANDS =      -323.86388896
  atomic energy  EATOM  =     12460.60057749
  Solvation  Ediel_sol  =         0.00000000
  ---------------------------------------------------
  free energy    TOTEN  =      -574.24866251 eV

  energy without entropy =     -574.24667239  energy(sigma->0) =     -574.24766745


--------------------------------------------------------------------------------------------------------




--------------------------------------- Iteration      1(  14)  ---------------------------------------


    POTLOK:  cpu time      0.1753: real time      0.1770
    SETDIJ:  cpu time      1.0068: real time      1.0131
     EDDAV:  cpu time     21.2192: real time     21.4353
       DOS:  cpu time      0.0014: real time      0.0014
    CHARGE:  cpu time      1.0665: real time      1.0756
    MIXING:  cpu time      0.0059: real time      0.0060
    --------------------------------------------
      LOOP:  cpu time     23.4751: real time     23.7084

 eigenvalue-minimisations  :  8608
 total energy-change (2. order) : 0.5946150E-03  (-0.4350493E-03)
 number of electron     479.9999997 magnetization       1.0000000
 augmentation part      -47.8435648 magnetization      -0.0572118

 Broyden mixing:
[...]
   -.603E-01 0.350E+00 0.117E+02   0.876E-02 -.127E+00 -.117E+02   0.274E-01 -.860E-01 -.391E-01   0.174E-05 0.356E-05 -.101E-04
   -.467E-01 0.235E+00 -.117E+02   0.821E-02 -.143E+00 0.117E+02   0.275E-01 -.386E-02 -.254E-01   0.108E-05 0.917E-05 -.115E-04
   -.175E+00 -.105E+01 -.370E+02   -.219E+00 0.106E+01 0.371E+02   0.179E+00 0.105E+00 -.163E-01   0.400E-05 0.109E-04 -.407E-04
   0.181E+00 0.526E+00 -.219E+01   -.130E+00 -.557E+00 0.281E+01   0.121E-01 0.317E-01 -.246E+01   0.417E-05 0.766E-04 -.193E-04
   -.650E+01 0.247E+02 0.489E+02   0.561E+01 -.234E+02 -.470E+02   0.176E+00 -.200E+01 -.170E+01   0.712E-06 0.572E-04 0.657E-04
   0.482E+00 -.120E+01 0.377E+02   -.221E+00 0.171E+01 -.371E+02   0.176E+00 -.323E+00 -.244E+00   -.127E-04 0.555E-05 0.338E-04
   -.468E-01 0.244E+00 0.117E+02   0.822E-02 -.143E+00 -.117E+02   0.189E-01 -.163E-02 0.907E-02   0.604E-06 -.158E-06 0.103E-04
   -.112E-01 0.162E+00 -.119E+02   0.871E-02 -.162E+00 0.117E+02   0.664E-02 0.906E-01 0.198E+00   -.140E-05 -.417E-05 -.130E-04
   0.476E+00 -.120E+01 -.377E+02   -.221E+00 0.171E+01 0.371E+02   0.184E+00 -.310E+00 0.239E+00   -.139E-04 0.140E-05 0.749E-07
   -.371E+01 0.173E+02 -.594E+02   0.288E+01 -.165E+02 0.568E+02   0.156E+00 -.216E+01 0.339E+01   -.452E-05 0.620E-04 -.116E-04
   0.614E+01 -.111E+02 -.478E+02   -.563E+01 0.102E+02 0.467E+02   -.150E+00 0.933E+00 0.117E+01   0.236E-05 0.170E-04 0.527E-05
   -.263E+00 0.383E+00 0.438E+01   0.113E-01 -.326E+00 -.388E+01   -.774E-01 -.312E-01 -.110E+01   0.760E-05 -.410E-04 -.133E-04
   -.431E+00 -.144E+00 0.140E+02   -.119E-01 0.128E+00 -.136E+02   -.423E-01 0.134E-01 -.721E+00   0.161E-04 0.651E-04 0.193E-04
   -.629E+01 0.116E+02 -.474E+02   0.582E+01 -.107E+02 0.463E+02   0.149E+00 -.903E+00 0.114E+01   -.712E-05 0.287E-04 -.104E-03
   0.210E+00 -.327E+00 0.441E+01   -.103E-01 0.298E+00 -.392E+01   0.691E-01 0.175E-01 -.109E+01   -.803E-05 -.510E-04 0.258E-04
   -.168E+01 0.291E+01 0.116E+02   0.253E+00 -.280E+01 -.109E+02   0.688E+00 -.223E-02 -.637E+00   0.335E-05 -.594E-06 0.375E-04
   -.645E+01 0.115E+02 -.470E+02   0.582E+01 -.107E+02 0.463E+02   0.956E-01 -.935E+00 0.117E+01   0.250E-05 0.272E-04 -.114E-03
   0.265E+00 -.593E+00 0.288E+01   -.118E-01 0.326E+00 -.299E+01   -.351E-01 -.655E-01 -.709E+00   0.453E-06 0.517E-04 0.223E-04
   -.260E-01 0.119E+00 0.909E+01   0.100E-01 -.127E+00 -.792E+01   0.132E-02 0.394E-02 -.940E+00   0.265E-05 -.613E-04 0.354E-04
   0.629E+01 -.109E+02 -.474E+02   -.563E+01 0.102E+02 0.467E+02   -.105E+00 0.934E+00 0.119E+01   0.182E-04 0.190E-04 0.186E-04
   -.275E+00 0.218E+00 0.308E+01   0.108E-01 -.298E+00 -.295E+01   0.298E-01 0.290E-01 -.693E+00   -.797E-05 0.480E-04 -.962E-05
   0.841E+00 -.293E+01 0.114E+02   -.250E+00 0.280E+01 -.106E+02   -.851E+00 0.164E-01 -.675E+00   -.329E-05 -.376E-05 0.343E-04
   -.166E+01 0.291E+01 -.116E+02   0.253E+00 -.280E+01 0.109E+02   0.685E+00 -.203E-01 0.650E+00   0.641E-05 0.975E-05 0.126E-04
   0.277E+00 -.215E+00 -.311E+01   -.118E-01 0.326E+00 0.299E+01   -.427E-01 -.443E-01 0.682E+00   -.135E-05 -.439E-04 0.462E-05
   -.328E+00 -.464E+00 0.315E+02   0.278E+00 0.496E+00 -.312E+02   0.616E-01 -.755E-01 0.388E+00   0.464E-05 0.619E-04 0.313E-04
   -.349E-01 0.118E+00 -.908E+01   0.100E-01 -.127E+00 0.792E+01   0.134E-01 -.127E-01 0.949E+00   0.790E-06 0.792E-04 -.211E-04
   -.295E+00 0.192E+00 -.310E+01   0.108E-01 -.298E+00 0.295E+01   0.328E-01 0.310E-01 0.723E+00   0.484E-05 -.415E-04 0.653E-05
   0.513E+01 0.135E+02 0.170E+02   -.428E+01 -.145E+02 -.175E+02   -.704E-01 0.467E+00 0.561E+00   0.149E-05 0.155E-04 0.404E-04
   0.829E+00 -.294E+01 -.114E+02   -.250E+00 0.280E+01 0.106E+02   -.840E+00 0.145E-01 0.690E+00   -.145E-04 -.769E-05 -.544E-04
   -.265E+00 0.365E+00 -.436E+01   0.113E-01 -.326E+00 0.388E+01   -.745E-01 -.315E-01 0.110E+01   -.892E-05 0.428E-04 0.171E-04
   0.170E-01 0.100E+01 0.376E+02   0.181E+00 -.137E+01 -.377E+02   -.117E+00 0.455E-01 -.101E+00   -.220E-05 0.179E-04 0.458E-04
   -.437E+00 -.151E+00 -.140E+02   -.119E-01 0.128E+00 0.136E+02   -.264E-01 0.994E-02 0.719E+00   0.160E-04 -.836E-04 0.325E-06
   0.208E+00 -.385E-01 -.417E+01   -.104E-01 0.298E+00 0.392E+01   0.578E-01 0.105E+00 0.114E+01   0.444E-05 0.365E-04 0.969E-05
   -.462E+01 -.137E+02 0.164E+02   0.419E+01 0.145E+02 -.165E+02   0.829E-01 -.434E+00 0.644E+00   -.217E-04 -.158E-04 0.567E-04
   0.120E-01 0.101E+01 -.376E+02   0.181E+00 -.137E+01 0.377E+02   -.990E-01 0.456E-01 0.107E+00   0.427E-06 -.939E-05 -.212E-04
   0.267E+00 -.241E-01 0.416E+01   -.104E-01 0.298E+00 -.392E+01   0.271E-01 0.104E+00 -.112E+01   0.779E-05 -.538E-04 0.257E-04
   0.607E+01 -.236E+02 0.465E+02   -.585E+01 0.231E+02 -.459E+02   -.185E+00 0.129E+01 -.701E+00   -.120E-05 0.275E-04 0.634E-04
   -.326E+00 -.454E+00 -.315E+02   0.278E+00 0.496E+00 0.312E+02   0.805E-01 -.734E-01 -.415E+00   -.546E-06 -.923E-04 -.228E-04
   -.251E+00 0.206E+00 0.307E+01   0.108E-01 -.298E+00 -.295E+01   0.503E-02 0.422E-01 -.681E+00   0.815E-05 0.457E-04 -.107E-04
   0.167E+01 -.289E+01 0.114E+02   -.250E+00 0.280E+01 -.106E+02   -.690E+00 0.145E-01 -.634E+00   0.879E-05 0.152E-05 0.338E-04
   0.514E+01 0.136E+02 -.170E+02   -.428E+01 -.145E+02 0.175E+02   -.551E-01 0.457E+00 -.588E+00   0.218E-05 0.335E-04 -.497E-04
   -.250E+00 0.376E+00 0.436E+01   0.113E-01 -.326E+00 -.388E+01   -.745E-01 -.246E-01 -.110E+01   -.766E-05 -.445E-04 -.117E-04
   0.487E+00 -.114E+00 0.139E+02   -.119E-01 0.128E+00 -.136E+02   0.219E-01 -.997E-02 -.655E+00   -.142E-04 0.613E-04 0.213E-04
   -.461E+01 -.136E+02 -.164E+02   0.419E+01 0.145E+02 0.165E+02   0.925E-01 -.468E+00 -.642E+00   -.641E-05 -.812E-05 -.309E-04
   0.306E+00 -.203E+00 0.315E+01   -.118E-01 0.326E+00 -.299E+01   -.602E-01 -.360E-01 -.706E+00   -.388E-06 0.481E-04 0.207E-04
   -.766E-01 0.125E+00 0.907E+01   0.100E-01 -.127E+00 -.792E+01   0.376E-01 -.174E-02 -.915E+00   -.309E-05 -.565E-04 0.362E-04
   -.713E-01 0.123E+00 -.907E+01   0.998E-02 -.127E+00 0.792E+01   0.420E-01 -.893E-02 0.944E+00   -.168E-05 0.817E-04 -.243E-04
   -.233E+00 0.238E+00 -.305E+01   0.108E-01 -.298E+00 0.295E+01   -.774E-02 0.179E-01 0.667E+00   -.470E-05 -.368E-04 0.157E-04
   0.615E+01 -.111E+02 0.478E+02   -.563E+01 0.102E+02 -.467E+02   -.139E+00 0.917E+00 -.117E+01   -.581E-05 -.125E-04 0.744E-04
   0.500E+00 -.105E+00 -.139E+02   -.120E-01 0.128E+00 0.136E+02   0.159E-01 -.418E-01 0.693E+00   -.168E-04 -.836E-04 -.572E-05
   0.262E+00 -.336E+00 -.441E+01   -.104E-01 0.298E+00 0.392E+01   0.358E-01 0.191E-01 0.110E+01   -.447E-05 0.387E-04 0.457E-05
   -.645E+01 0.115E+02 0.470E+02   0.582E+01 -.107E+02 -.463E+02   0.789E-01 -.915E+00 -.117E+01   0.527E-05 0.262E-05 0.171E-04
   0.608E+01 -.236E+02 -.465E+02   -.585E+01 0.231E+02 0.459E+02   -.202E+00 0.130E+01 0.703E+00   0.433E-05 -.655E-04 -.910E-04
   0.290E+00 -.576E+00 -.290E+01   -.118E-01 0.326E+00 0.299E+01   -.596E-01 -.764E-01 0.744E+00   0.191E-05 -.497E-04 0.671E-05
   0.629E+01 -.109E+02 0.474E+02   -.563E+01 0.102E+02 -.467E+02   -.894E-01 0.906E+00 -.119E+01   0.228E-04 -.105E-04 0.747E-04
   0.166E+01 -.290E+01 -.114E+02   -.250E+00 0.280E+01 0.106E+02   -.673E+00 -.264E-02 0.656E+00   0.193E-04 -.881E-05 -.512E-04
   -.248E+00 0.387E+00 -.437E+01   0.113E-01 -.326E+00 0.388E+01   -.882E-01 -.364E-01 0.111E+01   0.861E-05 0.500E-04 0.825E-05
   -.629E+01 0.116E+02 0.474E+02   0.582E+01 -.107E+02 -.463E+02   0.131E+00 -.890E+00 -.114E+01   -.190E-04 -.331E-06 0.130E-04
 -----------------------------------------------------------------------------------------------
   -.193E+01 0.197E+01 -.152E-01   -.711E-13 -.355E-14 0.121E-12   0.169E+01 -.185E+01 0.190E+00   0.106E-05 0.582E-04 -.636E-04
 
 
 POSITION                                       TOTAL-FORCE (eV/Angst)
 -----------------------------------------------------------------------------------
      7.51559     16.05965      0.00000         0.136232      0.250167      0.332976
      0.77700      7.27215     18.83693         0.066173     -0.008136      1.851382
      3.67530     10.62865      3.84030         0.021699     -0.139660     -0.051522
      1.75515      7.91315      5.76045         0.000900     -0.089864      0.054722
      2.69715     15.41865     11.76468         0.054494     -0.009407     -1.846033
      2.69715     11.34540     11.76468         0.056699     -0.245346      0.082476
      7.51559      5.19765      0.00000         0.631587      1.294315     -0.833001
      5.59545      2.48215      1.92015         0.039532     -0.546087      0.376845
      3.67530     16.05965      3.84030         0.019251     -0.094953     -0.046300
      1.75515     13.34415      5.76045         0.020365     -0.083536      0.030848
      7.51559     10.62865      7.68060         0.034360     -0.550917     -0.375326
      0.77700     11.34540     13.17913         0.287742      0.154864     -0.264962
      4.61729     15.41865     18.83693         0.259964     -0.181904      0.547069
      5.59545      7.91315      1.92015         0.195001     -0.108504     -0.121879
      3.67530      5.19765      3.84030         0.030576     -0.097305     -0.027686
      1.75515      2.48215      5.76045         0.029040     -0.125852      0.055971
      7.51559     16.05965      7.68060         0.190953     -0.118244      0.122798
      5.59544     13.34415      9.60074         0.622085      1.323125      0.784209
      6.53744      3.19890     17.42248         0.287649      0.149196      0.265140
      1.75515     13.34415      1.92015         0.077607     -0.315957     -0.232784
      7.51559     10.62865      3.84030         0.033245     -0.131292     -0.053144
      5.59545      7.91315      5.76045         0.012148     -0.092228      0.051956
      3.67530      5.19765      7.68060         0.072652     -0.331060      0.234660
      6.53744      7.27215     11.76468         0.255461     -0.193548     -0.554731
      3.67530      5.19765      0.00000         0.625834      1.331074     -0.792751
      1.75515      2.48215      1.92015         0.043827     -0.540931      0.379696
      7.51559     16.05965      3.84030         0.003597     -0.096600     -0.053160
      5.59545     13.34415      5.76045         0.022755     -0.086552      0.025351
      3.67530     10.62865      7.68060         0.038088     -0.552258     -0.377199
      1.75515      7.91315      9.60074         0.135690      0.252818     -0.329259
      0.77700      3.19890     18.83693         0.061290     -0.219543     -0.083377
      1.75515      7.91315      1.92015         0.211458     -0.094221     -0.116395
      7.51559      5.19765      3.84030         0.022078     -0.084014     -0.019798
      5.59545      2.48215      5.76045         0.018638     -0.134798      0.053388
      3.67530     16.05965      7.68060         0.205386     -0.103016      0.118348
      1.75515     13.34415      9.60074         0.628660      1.295721      0.829097
      4.61729      7.27215     18.83693         0.050656      0.013916      1.840936
      3.67530      1.12440      1.92015        -0.062075      0.647472      0.227121
      1.75515     14.70190      3.84030         0.000788      0.086186     -0.061428
      7.51559     11.98640      5.76045        -0.013300      0.129258      0.039668
      5.59545      9.27090      7.68060        -0.057673      0.655837     -0.238086
      3.67530      6.55540      9.60074        -0.713242     -0.621669     -0.192286
      5.59545      9.27091      0.00000        -0.666020     -1.323933     -0.801896
      3.67530      6.55540      1.92015        -0.200562      0.122777     -0.117178
      1.75515      3.83990      3.84030        -0.011515      0.127854     -0.049882
      7.51559      1.12440      5.76045        -0.011172      0.090386      0.024788
      5.59545     14.70190      7.68060        -0.200319      0.128514      0.108771
      2.69715      3.19890     11.76468        -0.545909      0.254643     -0.298514
      5.59545     14.70191      0.00000         0.213435     -0.182819     -0.738725
      3.67530     11.98640      1.92015        -0.529358      0.206964      0.372743
      1.75515      9.27090      3.84030        -0.013878      0.085377     -0.028184
      7.51559      6.55540      5.76045         0.004462      0.435052     -0.428127
      5.59545      3.83990      7.68060        -0.526635      0.214066     -0.375483
      3.67530      1.12440      9.60074        -0.685484     -1.298656      0.840733
      0.77700     11.34540     18.83693        -0.548063      0.272489      0.305819
      7.51559      1.12440      1.92015        -0.076742      0.295194     -0.243188
      5.59544     14.70190      3.84030        -0.002490      0.445091      0.417383
      3.67530     11.98640      5.76045        -0.007377      0.125826      0.038667
      1.75515      9.27090      7.68060        -0.076058      0.302749      0.235431
      7.51559      6.55540      9.60074         0.210742     -0.193087      0.733314
      1.75515      9.27091      0.00000        -0.689391     -1.302140     -0.847368
      7.51559      6.55540      1.92015        -0.217351      0.111631     -0.123567
      5.59544      3.83990      3.84030        -0.022074      0.136317     -0.047825
      3.67530      1.12440      5.76045        -0.008985      0.087042      0.015271
      1.75515     14.70190      7.68060        -0.212753      0.119631      0.118875
      6.53744     15.41865     11.76468         0.064747     -0.000025     -1.840911
      1.75515     14.70191      0.00000        -0.710582     -0.629335      0.186084
      7.51559     11.98640      1.92015         0.438930      0.189361      0.361874
      5.59544      9.27090      3.84030        -0.017636      0.098017     -0.031090
      3.67530      6.55540      5.76045         0.006214      0.088811      0.051010
      1.75515      3.83990      7.68060         0.440444      0.198262     -0.377113
      7.51559      1.12440      9.60074        -0.671666     -1.323355      0.801354
      5.59544      2.48215      9.60074         0.364938      0.055221      0.059046
      0.77700      5.23553     14.59358        -0.327354      0.024638     -0.606756
      6.53744     15.41865     17.42248        -0.482722     -0.003521     -0.336509
      7.51559     11.98640      9.60074        -0.311943     -0.037719     -0.003085
      4.61729      9.30878     14.59358         0.270793     -0.011810     -0.603057
      2.69715      3.19890     17.42248        -0.732114      0.109070      0.108100
      3.67530     11.98640      9.60074        -0.529750     -0.172936      0.452038
      0.77700     13.38203     14.59358         0.219779     -0.333519     -0.825064
      6.53744      7.27215     17.42248        -0.012710     -0.005515      0.233560
      1.75515      2.48215      9.60074         0.557019      0.207471      0.496202
      4.61729      1.16228     14.59358        -0.232664     -0.052754     -0.563055
      2.69715     11.34540     17.42248        -0.258427     -0.116085      0.103979
      4.61729     11.34540     13.17913        -0.719475      0.087910     -0.098411
      2.69715      5.23553     16.00803         0.224237      0.066324      0.561864
      0.77700     15.41865     18.83693         0.014182     -0.044949      0.718791
      0.77700     15.41865     13.17913        -0.009446     -0.022696     -0.222715
      6.53744      9.30878     16.00803        -0.249234     -0.076264      0.572176
      4.61729      3.19890     18.83693         0.781773     -0.480869      0.096266
      4.61729      3.19890     13.17913        -0.258905     -0.125170     -0.090169
      2.69715     13.38203     16.00803        -0.326052      0.005932      0.614577
      5.59545     13.34415      1.92015         0.082667     -0.329324     -0.204766
      0.77700      7.27215     13.17913        -0.473758     -0.013666      0.354298
      6.53744      1.16228     16.00803         0.257683      0.363397      0.889189
      4.61729     11.34540     18.83693        -0.350557      0.431754      0.525290
      7.51559      5.19765      7.68060         0.095527     -0.316775      0.210398
      0.77700      9.30878     14.59358         0.285508      0.377223     -0.882503
      3.67530     16.05965      0.00000         0.038997      0.733588     -0.099321
      2.69715      7.27215     11.76468         0.035086     -0.032792     -0.736069
      0.77700      1.16228     14.59358        -0.233046     -0.051076     -0.564388
      6.53744     11.34540     17.42248         0.729362     -0.083800      0.136090
      6.53744     11.34540     11.76468         0.802879     -0.458597     -0.115088
      4.61729      5.23553     14.59358        -0.311547      0.024276     -0.614983
      2.69715     15.41865     17.42248         0.498805      0.003424     -0.324005
      6.53744      3.19890     11.76468        -0.324578      0.453195     -0.556883
      4.61729     13.38203     14.59358         0.235585      0.085832     -0.554277
      2.69715      7.27215     17.42248        -0.026987     -0.005465      0.236850
      4.61729     15.41865     13.17913        -0.017344     -0.014258     -0.214093
      2.69715      9.30878     16.00803        -0.227884     -0.043880      0.563432
      3.67530     10.62866      0.00000         0.384548      0.029978     -0.060637
      4.61729      7.27215     13.17913         0.505502     -0.019590      0.345332
      2.69715      1.16228     16.00803         0.289673     -0.019090      0.614708
      1.75515      3.83990      0.00000        -0.549185     -0.156979     -0.451430
      5.59544      7.91315      9.60074         0.027148      0.751729      0.103778
      6.53744      5.23553     16.00803         0.220562     -0.326745      0.830828
      7.51559     10.62866      0.00000         0.573400      0.181613     -0.501179
      0.77700      3.19890     13.17913         0.737216     -0.108140     -0.109010
      6.53744     13.38203     16.00803        -0.322595      0.023754      0.613869
      5.59545      3.83990      0.00000        -0.329417     -0.021588      0.000181
 -----------------------------------------------------------------------------------
    total drift:                               -0.241550      0.123774      0.174371


--------------------------------------------------------------------------------------------------------



  FREE ENERGIE OF THE ION-ELECTRON SYSTEM (eV)
  ---------------------------------------------------
  free  energy   TOTEN  =      -574.24810880 eV

  energy  without entropy=     -574.24588349  energy(sigma->0) =     -574.24699614
 


--------------------------------------------------------------------------------------------------------


    POTLOK:  cpu time      1.1876: real time      1.1945


--------------------------------------------------------------------------------------------------------


     LOOP+:  cpu time    623.8209: real time    629.8340
    4ORBIT:  cpu time      0.0000: real time      0.0000

 total amount of memory used by VASP MPI-rank0   166825. kBytes
=======================================================================

   base      :      30000. kBytes
   nonlr-proj:       6544. kBytes
   fftplans  :      18524. kBytes
   grid      :      14584. kBytes
   one-center:        129. kBytes
   wavefun   :      97044. kBytes
 
  
  
 General timing and accounting informations for this job:
 ========================================================
  
                  Total CPU time used (sec):      681.753
                            User time (sec):      646.817
                          System time (sec):       34.936
                         Elapsed time (sec):      690.216
  
                   Maximum memory used (kb):      429380.
                   Average memory used (kb):          N/A
  
                          Minor page faults:       120068
                          Major page faults:           28
                 Voluntary context switches:         1936
