 120 120   0   0
  0.2197472E+02  0.9406768E-09  0.1629300E-08  0.2107214E-08  0.5000000E-15
  1.000000000000000E-004
  CAR 
 Si and Ge interface calculation         
      9.00602064    -10.28073371  301      6.29995340      1.00000000
    -10.281  0.0000E+00  0.0000E+00  0.0000E+00  0.0000E+00
    -10.216  0.0000E+00  0.0000E+00  0.0000E+00  0.0000E+00
    -10.152  0.0000E+00  0.0000E+00  0.0000E+00  0.0000E+00
    -10.088  0.0000E+00  0.0000E+00  0.0000E+00  0.0000E+00
    -10.024  0.0000E+00  0.0000E+00  0.0000E+00  0.0000E+00
     -9.959  0.0000E+00  0.0000E+00  0.0000E+00  0.0000E+00
     -9.895  0.0000E+00  0.0000E+00  0.0000E+00  0.0000E+00
     -9.831  0.0000E+00  0.0000E+00  0.0000E+00  0.0000E+00
     -9.766  0.0000E+00  0.0000E+00  0.0000E+00  0.0000E+00
     -9.702  0.0000E+00  0.0000E+00  0.0000E+00  0.0000E+00
     -9.638  0.0000E+00  0.0000E+00  0.0000E+00  0.0000E+00
     -9.574  0.0000E+00  0.0000E+00  0.0000E+00  0.0000E+00
     -9.509  0.0000E+00  0.0000E+00  0.0000E+00  0.0000E+00
     -9.445  0.1404E-07  0.6900E-11  0.9025E-09  0.4436E-12
     -9.381  0.2288E+02  0.1499E+02  0.1471E+01  0.9638E+00
     -9.316  0.3930E+02  0.4670E+02  0.3998E+01  0.3966E+01
     -9.252  0.0000E+00  0.4800E+00  0.4000E+01  0.4000E+01
     -9.188  0.0000E+00  0.0000E+00  0.4000E+01  0.4000E+01
     -9.124  0.0000E+00  0.0000E+00  0.4000E+01  0.4000E+01
     -9.059  0.0000E+00  0.0000E+00  0.4000E+01  0.4000E+01
     -8.995  0.0000E+00  0.0000E+00  0.4000E+01  0.4000E+01
     -8.931  0.0000E+00  0.0000E+00  0.4000E+01  0.4000E+01
     -8.866  0.0000E+00  0.0000E+00  0.4000E+01  0.4000E+01
     -8.802  0.0000E+00  0.0000E+00  0.4000E+01  0.4000E+01
     -8.738  0.0000E+00  0.0000E+00  0.4000E+01  0.4000E+01
     -8.674  0.0000E+00  0.0000E+00  0.4000E+01  0.4000E+01
     -8.609  0.1083E-06  0.6795E-12  0.4000E+01  0.4000E+01
     -8.545  0.4699E+01  0.3758E+01  0.4302E+01  0.4242E+01
     -8.481  0.2623E+02  0.2370E+02  0.5989E+01  0.5765E+01
     -8.416  0.1714E+02  0.1209E+02  0.7091E+01  0.6542E+01
     -8.352  0.1414E+02  0.2228E+02  0.8000E+01  0.7975E+01
     -8.288  0.0000E+00  0.3938E+00  0.8000E+01  0.8000E+01
     -8.223  0.0000E+00  0.0000E+00  0.8000E+01  0.8000E+01
     -8.159  0.0000E+00  0.0000E+00  0.8000E+01  0.8000E+01
     -8.095  0.0000E+00  0.0000E+00  0.8000E+01  0.8000E+01
     -8.031  0.0000E+00  0.0000E+00  0.8000E+01  0.8000E+01
     -7.966  0.0000E+00  0.0000E+00  0.8000E+01  0.8000E+01
     -7.902  0.0000E+00  0.0000E+00  0.8000E+01  0.8000E+01
     -7.838  0.0000E+00  0.0000E+00  0.8000E+01  0.8000E+01
     -7.773  0.0000E+00  0.0000E+00  0.8000E+01  0.8000E+01
     -7.709  0.0000E+00  0.0000E+00  0.8000E+01  0.8000E+01
     -7.645  0.5139E-11  0.0000E+00  0.8000E+01  0.8000E+01
     -7.581  0.3819E+01  0.2378E+01  0.8245E+01  0.8153E+01
     -7.516  0.2583E+01  0.1563E+01  0.8412E+01  0.8253E+01
     -7.452  0.2227E+02  0.2336E+02  0.9843E+01  0.9755E+01
     -7.388  0.6916E+01  0.5610E+01  0.1029E+02  0.1012E+02
     -7.323  0.2274E+02  0.2541E+02  0.1175E+02  0.1175E+02
     -7.259  0.3782E+01  0.2291E+01  0.1199E+02  0.1190E+02
     -7.195  0.1066E+00  0.1598E+01  0.1200E+02  0.1200E+02
     -7.131  0.3828E+01  0.3528E+01  0.1225E+02  0.1223E+02
     -7.066  0.6510E-01  0.3612E+00  0.1225E+02  0.1225E+02
     -7.002  0.1616E+02  0.1294E+02  0.1329E+02  0.1308E+02
     -6.938  0.7163E+01  0.1039E+02  0.1375E+02  0.1375E+02
     -6.873  0.3979E+01  0.3886E+01  0.1401E+02  0.1400E+02
     -6.809  0.1920E+02  0.1862E+02  0.1524E+02  0.1520E+02
     -6.745  0.7885E+01  0.8271E+01  0.1575E+02  0.1573E+02
     -6.681  0.3674E-05  0.3257E+00  0.1575E+02  0.1575E+02
     -6.616  0.3889E+01  0.3888E+01  0.1600E+02  0.1600E+02
     -6.552  0.7931E+00  0.6337E-01  0.1605E+02  0.1600E+02
     -6.488  0.5305E+01  0.4356E+01  0.1639E+02  0.1628E+02
     -6.423  0.2393E+01  0.3387E+01  0.1655E+02  0.1650E+02
     -6.359  0.2498E+02  0.2351E+02  0.1815E+02  0.1801E+02
     -6.295  0.1702E+02  0.1889E+02  0.1925E+02  0.1923E+02
     -6.231  0.7833E+01  0.8111E+01  0.1975E+02  0.1975E+02
     -6.166  0.8977E-01  0.1118E-02  0.1976E+02  0.1975E+02
     -6.102  0.3394E+02  0.2994E+02  0.2194E+02  0.2167E+02
     -6.038  0.8730E+01  0.1283E+02  0.2250E+02  0.2250E+02
     -5.973  0.4505E+01  0.3992E+01  0.2279E+02  0.2276E+02
     -5.909  0.2528E+02  0.2437E+02  0.2441E+02  0.2432E+02
     -5.845  0.1279E+01  0.2744E+01  0.2450E+02  0.2450E+02
     -5.780  0.1556E+02  0.1020E+02  0.2550E+02  0.2516E+02
     -5.716  0.4794E+02  0.3984E+02  0.2858E+02  0.2772E+02
     -5.652  0.1426E+02  0.2748E+02  0.2950E+02  0.2949E+02
     -5.588  0.1318E+02  0.6632E+01  0.3035E+02  0.2992E+02
     -5.523  0.2560E+02  0.3117E+02  0.3199E+02  0.3192E+02
     -5.459  0.1559E+02  0.1362E+02  0.3300E+02  0.3280E+02
     -5.395  0.1166E+02  0.1477E+02  0.3375E+02  0.3375E+02
     -5.330  0.4974E+01  0.1914E+01  0.3407E+02  0.3387E+02
     -5.266  0.6725E+01  0.9754E+01  0.3450E+02  0.3450E+02
     -5.202  0.1163E+02  0.1166E+02  0.3525E+02  0.3525E+02
     -5.138  0.2719E+02  0.2663E+02  0.3700E+02  0.3696E+02
     -5.073  0.5292E+01  0.2790E+01  0.3734E+02  0.3714E+02
     -5.009  0.3088E+02  0.3086E+02  0.3933E+02  0.3913E+02
     -4.945  0.1048E+02  0.1326E+02  0.4000E+02  0.3998E+02
     -4.880  0.1485E+02  0.1279E+02  0.4095E+02  0.4080E+02
     -4.816  0.1234E+02  0.1229E+02  0.4175E+02  0.4159E+02
     -4.752  0.2572E+02  0.2356E+02  0.4340E+02  0.4311E+02
     -4.688  0.3266E+02  0.3720E+02  0.4550E+02  0.4550E+02
     -4.623  0.2644E+02  0.2441E+02  0.4720E+02  0.4707E+02
     -4.559  0.1529E+02  0.1212E+02  0.4819E+02  0.4785E+02
     -4.495  0.4927E+02  0.4939E+02  0.5135E+02  0.5102E+02
     -4.430  0.8976E+01  0.1006E+02  0.5194E+02  0.5167E+02
     -4.366  0.7172E+01  0.9500E+01  0.5240E+02  0.5228E+02
     -4.302  0.1265E+02  0.1270E+02  0.5321E+02  0.5310E+02
     -4.238  0.1347E+02  0.1205E+02  0.5408E+02  0.5388E+02
     -4.173  0.4287E+02  0.4133E+02  0.5684E+02  0.5653E+02
     -4.109  0.2588E+02  0.3060E+02  0.5850E+02  0.5850E+02
     -4.045  0.2423E+02  0.1733E+02  0.6006E+02  0.5961E+02
     -3.980  0.4204E+02  0.4829E+02  0.6276E+02  0.6272E+02
     -3.916  0.2934E+02  0.2797E+02  0.6465E+02  0.6452E+02
     -3.852  0.2066E+02  0.1919E+02  0.6598E+02  0.6576E+02
     -3.788  0.2730E+02  0.2876E+02  0.6774E+02  0.6760E+02
     -3.723  0.1104E+02  0.1179E+02  0.6845E+02  0.6836E+02
     -3.659  0.3418E+02  0.3153E+02  0.7065E+02  0.7039E+02
     -3.595  0.3651E+02  0.3744E+02  0.7300E+02  0.7280E+02
     -3.530  0.3089E+02  0.3106E+02  0.7498E+02  0.7479E+02
     -3.466  0.2215E+02  0.2159E+02  0.7641E+02  0.7618E+02
     -3.402  0.5763E+02  0.5429E+02  0.8011E+02  0.7967E+02
     -3.338  0.2324E+02  0.2182E+02  0.8161E+02  0.8108E+02
     -3.273  0.2928E+02  0.3440E+02  0.8349E+02  0.8329E+02
     -3.209  0.3425E+02  0.3314E+02  0.8570E+02  0.8542E+02
     -3.145  0.2417E+02  0.2801E+02  0.8725E+02  0.8723E+02
     -3.080  0.2497E+02  0.1767E+02  0.8886E+02  0.8836E+02
     -3.016  0.5024E+02  0.5672E+02  0.9209E+02  0.9201E+02
     -2.952  0.3598E+02  0.2831E+02  0.9440E+02  0.9384E+02
     -2.887  0.2969E+02  0.3636E+02  0.9631E+02  0.9618E+02
     -2.823  0.3159E+02  0.2865E+02  0.9834E+02  0.9802E+02
     -2.759  0.3743E+02  0.4201E+02  0.1007E+03  0.1007E+03
     -2.695  0.1815E+02  0.1476E+02  0.1019E+03  0.1017E+03
     -2.630  0.4252E+02  0.4415E+02  0.1047E+03  0.1045E+03
     -2.566  0.2121E+02  0.2125E+02  0.1060E+03  0.1059E+03
     -2.502  0.4229E+02  0.4112E+02  0.1087E+03  0.1085E+03
     -2.437  0.2356E+02  0.2679E+02  0.1103E+03  0.1102E+03
     -2.373  0.4425E+02  0.4067E+02  0.1131E+03  0.1129E+03
     -2.309  0.4763E+02  0.4600E+02  0.1162E+03  0.1158E+03
     -2.245  0.4492E+02  0.4346E+02  0.1191E+03  0.1186E+03
     -2.180  0.2632E+02  0.3266E+02  0.1207E+03  0.1207E+03
     -2.116  0.2639E+02  0.2365E+02  0.1224E+03  0.1222E+03
     -2.052  0.2843E+02  0.3128E+02  0.1243E+03  0.1242E+03
     -1.987  0.2788E+02  0.2595E+02  0.1261E+03  0.1259E+03
     -1.923  0.2183E+02  0.2120E+02  0.1275E+03  0.1273E+03
     -1.859  0.4363E+02  0.4083E+02  0.1303E+03  0.1299E+03
     -1.795  0.3373E+02  0.3553E+02  0.1325E+03  0.1322E+03
     -1.730  0.3815E+02  0.3882E+02  0.1349E+03  0.1347E+03
     -1.666  0.3988E+02  0.4100E+02  0.1375E+03  0.1373E+03
     -1.602  0.3617E+02  0.3342E+02  0.1398E+03  0.1395E+03
     -1.537  0.3316E+02  0.3355E+02  0.1419E+03  0.1416E+03
     -1.473  0.4069E+02  0.4142E+02  0.1446E+03  0.1443E+03
     -1.409  0.4521E+02  0.4645E+02  0.1475E+03  0.1473E+03
     -1.345  0.1621E+02  0.1884E+02  0.1485E+03  0.1485E+03
     -1.280  0.3649E+02  0.2766E+02  0.1508E+03  0.1503E+03
     -1.216  0.2395E+02  0.2928E+02  0.1524E+03  0.1522E+03
     -1.152  0.2792E+02  0.2677E+02  0.1542E+03  0.1539E+03
     -1.087  0.2947E+02  0.2524E+02  0.1561E+03  0.1555E+03
     -1.023  0.4068E+02  0.4510E+02  0.1587E+03  0.1584E+03
     -0.959  0.1785E+02  0.1841E+02  0.1598E+03  0.1596E+03
     -0.895  0.4753E+02  0.4487E+02  0.1629E+03  0.1625E+03
     -0.830  0.2765E+02  0.2624E+02  0.1647E+03  0.1642E+03
     -0.766  0.3996E+02  0.4728E+02  0.1672E+03  0.1672E+03
     -0.702  0.5220E+02  0.4115E+02  0.1706E+03  0.1698E+03
     -0.637  0.2204E+02  0.3014E+02  0.1720E+03  0.1718E+03
     -0.573  0.2311E+02  0.2313E+02  0.1735E+03  0.1733E+03
     -0.509  0.3557E+02  0.3397E+02  0.1758E+03  0.1755E+03
     -0.444  0.3802E+02  0.4095E+02  0.1782E+03  0.1781E+03
     -0.380  0.2868E+02  0.2919E+02  0.1801E+03  0.1800E+03
     -0.316  0.5163E+02  0.4506E+02  0.1834E+03  0.1829E+03
     -0.252  0.1743E+02  0.2288E+02  0.1845E+03  0.1843E+03
     -0.187  0.3602E+02  0.3702E+02  0.1868E+03  0.1867E+03
     -0.123  0.2446E+02  0.2423E+02  0.1884E+03  0.1883E+03
     -0.059  0.4575E+02  0.4230E+02  0.1914E+03  0.1910E+03
      0.006  0.3665E+02  0.3960E+02  0.1937E+03  0.1935E+03
      0.070  0.5211E+02  0.4884E+02  0.1971E+03  0.1967E+03
      0.134  0.2161E+02  0.1961E+02  0.1985E+03  0.1979E+03
      0.198  0.4054E+02  0.4459E+02  0.2011E+03  0.2008E+03
      0.263  0.3500E+02  0.2898E+02  0.2033E+03  0.2027E+03
      0.327  0.4421E+02  0.5229E+02  0.2062E+03  0.2060E+03
      0.391  0.3955E+02  0.3745E+02  0.2087E+03  0.2085E+03
      0.456  0.3470E+02  0.3386E+02  0.2109E+03  0.2106E+03
      0.520  0.3413E+02  0.3336E+02  0.2131E+03  0.2128E+03
      0.584  0.3549E+02  0.3658E+02  0.2154E+03  0.2151E+03
      0.648  0.4004E+02  0.3238E+02  0.2180E+03  0.2172E+03
      0.713  0.3398E+02  0.4108E+02  0.2202E+03  0.2199E+03
      0.777  0.5188E+02  0.4896E+02  0.2235E+03  0.2230E+03
      0.841  0.4879E+02  0.5193E+02  0.2267E+03  0.2263E+03
      0.906  0.1977E+02  0.1486E+02  0.2279E+03  0.2273E+03
      0.970  0.4711E+02  0.5239E+02  0.2310E+03  0.2307E+03
      1.034  0.4740E+02  0.5136E+02  0.2340E+03  0.2340E+03
      1.098  0.2748E+02  0.2573E+02  0.2358E+03  0.2356E+03
      1.163  0.3846E+02  0.3927E+02  0.2382E+03  0.2382E+03
      1.227  0.4471E+02  0.3725E+02  0.2411E+03  0.2406E+03
      1.291  0.1999E+02  0.2663E+02  0.2424E+03  0.2423E+03
      1.356  0.4770E+02  0.4755E+02  0.2455E+03  0.2453E+03
      1.420  0.1588E+02  0.1411E+02  0.2465E+03  0.2462E+03
      1.484  0.4321E+02  0.3939E+02  0.2493E+03  0.2488E+03
      1.548  0.5162E+02  0.5400E+02  0.2526E+03  0.2522E+03
      1.613  0.3115E+02  0.2826E+02  0.2546E+03  0.2541E+03
      1.677  0.4538E+02  0.4771E+02  0.2575E+03  0.2571E+03
      1.741  0.5927E+02  0.5337E+02  0.2613E+03  0.2606E+03
      1.806  0.3536E+02  0.3530E+02  0.2636E+03  0.2628E+03
      1.870  0.5511E+02  0.5567E+02  0.2672E+03  0.2664E+03
      1.934  0.3929E+02  0.4463E+02  0.2697E+03  0.2693E+03
      1.998  0.2710E+02  0.2249E+02  0.2714E+03  0.2707E+03
      2.063  0.5359E+02  0.5880E+02  0.2749E+03  0.2745E+03
      2.127  0.3210E+02  0.3455E+02  0.2769E+03  0.2767E+03
      2.191  0.4088E+02  0.3669E+02  0.2796E+03  0.2791E+03
      2.256  0.5325E+02  0.5469E+02  0.2830E+03  0.2826E+03
      2.320  0.5705E+02  0.5683E+02  0.2867E+03  0.2863E+03
      2.384  0.3792E+02  0.3820E+02  0.2891E+03  0.2887E+03
      2.449  0.4960E+02  0.5290E+02  0.2923E+03  0.2921E+03
      2.513  0.3685E+02  0.3447E+02  0.2947E+03  0.2943E+03
      2.577  0.5083E+02  0.4966E+02  0.2979E+03  0.2975E+03
      2.641  0.5559E+02  0.5179E+02  0.3015E+03  0.3009E+03
      2.706  0.5108E+02  0.5823E+02  0.3048E+03  0.3046E+03
      2.770  0.4167E+02  0.3503E+02  0.3075E+03  0.3069E+03
      2.834  0.5105E+02  0.5841E+02  0.3108E+03  0.3106E+03
      2.899  0.5496E+02  0.5465E+02  0.3143E+03  0.3141E+03
      2.963  0.4796E+02  0.4615E+02  0.3174E+03  0.3171E+03
      3.027  0.3847E+02  0.3452E+02  0.3199E+03  0.3193E+03
      3.091  0.5169E+02  0.5295E+02  0.3232E+03  0.3227E+03
      3.156  0.5846E+02  0.5979E+02  0.3269E+03  0.3266E+03
      3.220  0.5068E+02  0.5469E+02  0.3302E+03  0.3301E+03
      3.284  0.5295E+02  0.4536E+02  0.3336E+03  0.3330E+03
      3.349  0.6639E+02  0.6838E+02  0.3379E+03  0.3374E+03
      3.413  0.5795E+02  0.5824E+02  0.3416E+03  0.3412E+03
      3.477  0.7137E+02  0.7143E+02  0.3462E+03  0.3458E+03
      3.541  0.4403E+02  0.4640E+02  0.3490E+03  0.3487E+03
      3.606  0.5932E+02  0.6166E+02  0.3528E+03  0.3527E+03
      3.670  0.6820E+02  0.6191E+02  0.3572E+03  0.3567E+03
      3.734  0.6024E+02  0.5921E+02  0.3611E+03  0.3605E+03
      3.799  0.6466E+02  0.6965E+02  0.3653E+03  0.3650E+03
      3.863  0.7441E+02  0.7073E+02  0.3700E+03  0.3695E+03
      3.927  0.7291E+02  0.7309E+02  0.3747E+03  0.3742E+03
      3.991  0.5893E+02  0.5946E+02  0.3785E+03  0.3780E+03
      4.056  0.6318E+02  0.6401E+02  0.3826E+03  0.3822E+03
      4.120  0.6227E+02  0.6280E+02  0.3866E+03  0.3862E+03
      4.184  0.4755E+02  0.5059E+02  0.3897E+03  0.3895E+03
      4.249  0.3780E+02  0.3723E+02  0.3921E+03  0.3919E+03
      4.313  0.5963E+02  0.5923E+02  0.3959E+03  0.3957E+03
      4.377  0.6341E+02  0.6575E+02  0.4000E+03  0.3999E+03
      4.441  0.4290E+02  0.3796E+02  0.4028E+03  0.4023E+03
      4.506  0.5301E+02  0.5074E+02  0.4062E+03  0.4056E+03
      4.570  0.5497E+02  0.5938E+02  0.4097E+03  0.4094E+03
      4.634  0.4031E+02  0.3849E+02  0.4123E+03  0.4119E+03
      4.699  0.4212E+02  0.4787E+02  0.4150E+03  0.4150E+03
      4.763  0.4363E+02  0.4148E+02  0.4178E+03  0.4176E+03
      4.827  0.4159E+02  0.4360E+02  0.4205E+03  0.4204E+03
      4.892  0.3450E+02  0.3062E+02  0.4227E+03  0.4224E+03
      4.956  0.5339E+02  0.4901E+02  0.4262E+03  0.4256E+03
      5.020  0.4180E+02  0.4681E+02  0.4288E+03  0.4286E+03
      5.084  0.4985E+02  0.5329E+02  0.4320E+03  0.4320E+03
      5.149  0.4797E+02  0.4229E+02  0.4351E+03  0.4347E+03
      5.213  0.2941E+02  0.3239E+02  0.4370E+03  0.4368E+03
      5.277  0.3634E+02  0.3109E+02  0.4394E+03  0.4388E+03
      5.342  0.2598E+02  0.2991E+02  0.4410E+03  0.4407E+03
      5.406  0.5003E+02  0.5421E+02  0.4442E+03  0.4442E+03
      5.470  0.2078E+02  0.1685E+02  0.4456E+03  0.4453E+03
      5.534  0.3290E+02  0.2611E+02  0.4477E+03  0.4470E+03
      5.599  0.4674E+02  0.5214E+02  0.4507E+03  0.4503E+03
      5.663  0.2699E+02  0.2958E+02  0.4524E+03  0.4522E+03
      5.727  0.4342E+02  0.4011E+02  0.4552E+03  0.4548E+03
      5.792  0.4716E+02  0.4289E+02  0.4583E+03  0.4576E+03
      5.856  0.5187E+02  0.4473E+02  0.4616E+03  0.4605E+03
      5.920  0.3286E+02  0.4587E+02  0.4637E+03  0.4634E+03
      5.984  0.5717E+02  0.4529E+02  0.4674E+03  0.4663E+03
      6.049  0.3207E+02  0.4173E+02  0.4695E+03  0.4690E+03
      6.113  0.5537E+02  0.4534E+02  0.4730E+03  0.4719E+03
      6.177  0.3185E+02  0.4135E+02  0.4751E+03  0.4746E+03
      6.242  0.3805E+02  0.3835E+02  0.4775E+03  0.4770E+03
      6.306  0.5792E+02  0.3723E+02  0.4812E+03  0.4794E+03
      6.370  0.3715E+02  0.4672E+02  0.4836E+03  0.4824E+03
      6.434  0.3090E+02  0.4232E+02  0.4856E+03  0.4852E+03
      6.499  0.5804E+02  0.5191E+02  0.4893E+03  0.4885E+03
      6.563  0.4042E+02  0.4631E+02  0.4919E+03  0.4915E+03
      6.627  0.4353E+02  0.4893E+02  0.4947E+03  0.4946E+03
      6.692  0.4261E+02  0.3819E+02  0.4975E+03  0.4971E+03
      6.756  0.4709E+02  0.3839E+02  0.5005E+03  0.4996E+03
      6.820  0.4731E+02  0.5537E+02  0.5036E+03  0.5031E+03
      6.884  0.5514E+02  0.4688E+02  0.5071E+03  0.5061E+03
      6.949  0.4434E+02  0.5464E+02  0.5100E+03  0.5096E+03
      7.013  0.3808E+02  0.3538E+02  0.5124E+03  0.5119E+03
      7.077  0.5206E+02  0.5372E+02  0.5158E+03  0.5154E+03
      7.142  0.6279E+02  0.5588E+02  0.5198E+03  0.5190E+03
      7.206  0.6193E+02  0.5773E+02  0.5238E+03  0.5227E+03
      7.270  0.3522E+02  0.4549E+02  0.5261E+03  0.5256E+03
      7.335  0.5859E+02  0.6116E+02  0.5298E+03  0.5295E+03
      7.399  0.5293E+02  0.5198E+02  0.5332E+03  0.5329E+03
      7.463  0.4985E+02  0.5162E+02  0.5364E+03  0.5362E+03
      7.527  0.6703E+02  0.5916E+02  0.5408E+03  0.5400E+03
      7.592  0.6064E+02  0.6285E+02  0.5447E+03  0.5440E+03
      7.656  0.5611E+02  0.5866E+02  0.5483E+03  0.5478E+03
      7.720  0.6085E+02  0.5309E+02  0.5522E+03  0.5512E+03
      7.785  0.6555E+02  0.7343E+02  0.5564E+03  0.5560E+03
      7.849  0.6170E+02  0.6108E+02  0.5604E+03  0.5599E+03
      7.913  0.6948E+02  0.6809E+02  0.5648E+03  0.5643E+03
      7.977  0.5688E+02  0.5618E+02  0.5685E+03  0.5679E+03
      8.042  0.6791E+02  0.7084E+02  0.5729E+03  0.5724E+03
      8.106  0.3351E+02  0.4041E+02  0.5750E+03  0.5750E+03
      8.170  0.1525E+02  0.1493E+02  0.5760E+03  0.5760E+03
      8.235  0.0000E+00  0.0000E+00  0.5760E+03  0.5760E+03
      8.299  0.0000E+00  0.0000E+00  0.5760E+03  0.5760E+03
      8.363  0.0000E+00  0.0000E+00  0.5760E+03  0.5760E+03
      8.427  0.0000E+00  0.0000E+00  0.5760E+03  0.5760E+03
      8.492  0.0000E+00  0.0000E+00  0.5760E+03  0.5760E+03
      8.556  0.0000E+00  0.0000E+00  0.5760E+03  0.5760E+03
      8.620  0.0000E+00  0.0000E+00  0.5760E+03  0.5760E+03
      8.685  0.0000E+00  0.0000E+00  0.5760E+03  0.5760E+03
      8.749  0.0000E+00  0.0000E+00  0.5760E+03  0.5760E+03
      8.813  0.0000E+00  0.0000E+00  0.5760E+03  0.5760E+03
      8.877  0.0000E+00  0.0000E+00  0.5760E+03  0.5760E+03
      8.942  0.0000E+00  0.0000E+00  0.5760E+03  0.5760E+03
      9.006  0.0000E+00  0.0000E+00  0.5760E+03  0.5760E+03
