 264 264   0   0
  0.2741953E+02  0.1946760E-08  0.1946760E-08  0.1910025E-08  0.5000000E-15
  1.000000000000000E-004
  CAR 
 Si and Ge interface calculation         
      6.74350775     -8.82231207  301      4.14929442      1.00000000
     -8.822  0.0000E+00  0.0000E+00  0.0000E+00  0.0000E+00
     -8.770  0.0000E+00  0.0000E+00  0.0000E+00  0.0000E+00
     -8.719  0.0000E+00  0.0000E+00  0.0000E+00  0.0000E+00
     -8.667  0.0000E+00  0.0000E+00  0.0000E+00  0.0000E+00
     -8.615  0.0000E+00  0.0000E+00  0.0000E+00  0.0000E+00
     -8.563  0.0000E+00  0.0000E+00  0.0000E+00  0.0000E+00
     -8.511  0.0000E+00  0.0000E+00  0.0000E+00  0.0000E+00
     -8.459  0.0000E+00  0.0000E+00  0.0000E+00  0.0000E+00
     -8.407  0.0000E+00  0.0000E+00  0.0000E+00  0.0000E+00
     -8.355  0.0000E+00  0.0000E+00  0.0000E+00  0.0000E+00
     -8.303  0.0000E+00  0.0000E+00  0.0000E+00  0.0000E+00
     -8.252  0.0000E+00  0.0000E+00  0.0000E+00  0.0000E+00
     -8.200  0.0000E+00  0.0000E+00  0.0000E+00  0.0000E+00
     -8.148  0.1415E-04  0.3097E-05  0.7343E-06  0.1607E-06
     -8.096  0.9618E+01  0.9555E+01  0.4990E+00  0.4958E+00
     -8.044  0.1970E+02  0.1955E+02  0.1521E+01  0.1510E+01
     -7.992  0.9241E+01  0.9440E+01  0.2001E+01  0.2000E+01
     -7.940  0.2285E+02  0.2184E+02  0.3186E+01  0.3133E+01
     -7.888  0.1569E+02  0.1670E+02  0.4000E+01  0.4000E+01
     -7.836  0.9331E-01  0.4201E-01  0.4005E+01  0.4002E+01
     -7.785  0.2491E+02  0.2356E+02  0.5297E+01  0.5225E+01
     -7.733  0.3290E+02  0.3411E+02  0.7004E+01  0.6994E+01
     -7.681  0.2868E+02  0.2873E+02  0.8493E+01  0.8485E+01
     -7.629  0.1062E+02  0.9179E+01  0.9044E+01  0.8961E+01
     -7.577  0.2143E+02  0.2117E+02  0.1016E+02  0.1006E+02
     -7.525  0.6634E+01  0.8483E+01  0.1050E+02  0.1050E+02
     -7.473  0.9916E+01  0.9276E+01  0.1101E+02  0.1098E+02
     -7.421  0.1774E+02  0.1761E+02  0.1193E+02  0.1189E+02
     -7.370  0.2098E+02  0.2150E+02  0.1302E+02  0.1301E+02
     -7.318  0.5014E+02  0.4832E+02  0.1562E+02  0.1552E+02
     -7.266  0.9768E+01  0.1071E+02  0.1613E+02  0.1607E+02
     -7.214  0.2609E+02  0.2668E+02  0.1749E+02  0.1746E+02
     -7.162  0.4946E+02  0.4889E+02  0.2005E+02  0.1999E+02
     -7.110  0.2786E+02  0.2889E+02  0.2150E+02  0.2149E+02
     -7.058  0.2690E+02  0.2412E+02  0.2289E+02  0.2274E+02
     -7.006  0.4882E+02  0.5035E+02  0.2543E+02  0.2536E+02
     -6.954  0.4414E+02  0.4310E+02  0.2772E+02  0.2759E+02
     -6.903  0.3487E+02  0.3692E+02  0.2953E+02  0.2951E+02
     -6.851  0.2857E+02  0.2869E+02  0.3101E+02  0.3100E+02
     -6.799  0.3327E+02  0.3136E+02  0.3273E+02  0.3262E+02
     -6.747  0.4033E+02  0.4053E+02  0.3483E+02  0.3473E+02
     -6.695  0.5797E+02  0.5719E+02  0.3783E+02  0.3769E+02
     -6.643  0.4256E+02  0.4284E+02  0.4004E+02  0.3992E+02
     -6.591  0.3743E+02  0.3811E+02  0.4198E+02  0.4189E+02
     -6.539  0.5699E+02  0.5672E+02  0.4494E+02  0.4484E+02
     -6.487  0.2338E+02  0.2434E+02  0.4615E+02  0.4610E+02
     -6.436  0.3924E+02  0.3830E+02  0.4819E+02  0.4809E+02
     -6.384  0.6253E+02  0.6210E+02  0.5143E+02  0.5131E+02
     -6.332  0.3999E+02  0.4222E+02  0.5351E+02  0.5350E+02
     -6.280  0.4797E+02  0.4592E+02  0.5600E+02  0.5588E+02
     -6.228  0.4589E+02  0.4395E+02  0.5838E+02  0.5816E+02
     -6.176  0.3428E+02  0.3711E+02  0.6016E+02  0.6009E+02
     -6.124  0.5793E+02  0.5766E+02  0.6316E+02  0.6308E+02
     -6.072  0.6391E+02  0.6177E+02  0.6648E+02  0.6629E+02
     -6.020  0.7586E+02  0.7577E+02  0.7042E+02  0.7022E+02
     -5.969  0.6021E+02  0.6133E+02  0.7354E+02  0.7340E+02
     -5.917  0.7896E+02  0.7769E+02  0.7764E+02  0.7743E+02
     -5.865  0.7497E+02  0.7647E+02  0.8153E+02  0.8140E+02
     -5.813  0.7119E+02  0.7091E+02  0.8522E+02  0.8508E+02
     -5.761  0.7047E+02  0.6922E+02  0.8888E+02  0.8867E+02
     -5.709  0.7753E+02  0.7800E+02  0.9290E+02  0.9272E+02
     -5.657  0.7739E+02  0.7800E+02  0.9692E+02  0.9676E+02
     -5.605  0.9178E+02  0.9133E+02  0.1017E+03  0.1015E+03
     -5.553  0.7524E+02  0.7503E+02  0.1056E+03  0.1054E+03
     -5.502  0.7149E+02  0.7145E+02  0.1093E+03  0.1091E+03
     -5.450  0.8377E+02  0.8412E+02  0.1136E+03  0.1135E+03
     -5.398  0.5726E+02  0.5793E+02  0.1166E+03  0.1165E+03
     -5.346  0.8076E+02  0.8003E+02  0.1208E+03  0.1206E+03
     -5.294  0.6055E+02  0.6088E+02  0.1239E+03  0.1238E+03
     -5.242  0.9306E+02  0.9075E+02  0.1288E+03  0.1285E+03
     -5.190  0.6969E+02  0.7149E+02  0.1324E+03  0.1322E+03
     -5.138  0.6168E+02  0.6370E+02  0.1356E+03  0.1355E+03
     -5.087  0.5559E+02  0.5294E+02  0.1385E+03  0.1383E+03
     -5.035  0.7175E+02  0.7038E+02  0.1422E+03  0.1419E+03
     -4.983  0.8919E+02  0.9086E+02  0.1468E+03  0.1466E+03
     -4.931  0.5497E+02  0.5590E+02  0.1497E+03  0.1495E+03
     -4.879  0.7049E+02  0.7009E+02  0.1533E+03  0.1532E+03
     -4.827  0.5887E+02  0.5794E+02  0.1564E+03  0.1562E+03
     -4.775  0.9309E+02  0.9264E+02  0.1612E+03  0.1610E+03
     -4.723  0.1075E+03  0.1072E+03  0.1668E+03  0.1665E+03
     -4.671  0.1035E+03  0.1029E+03  0.1722E+03  0.1719E+03
     -4.620  0.1246E+03  0.1223E+03  0.1786E+03  0.1782E+03
     -4.568  0.1308E+03  0.1335E+03  0.1854E+03  0.1851E+03
     -4.516  0.9592E+02  0.9267E+02  0.1904E+03  0.1900E+03
     -4.464  0.1139E+03  0.1161E+03  0.1963E+03  0.1960E+03
     -4.412  0.1275E+03  0.1270E+03  0.2029E+03  0.2026E+03
     -4.360  0.8539E+02  0.8782E+02  0.2074E+03  0.2071E+03
     -4.308  0.8004E+02  0.7883E+02  0.2115E+03  0.2112E+03
     -4.256  0.7616E+02  0.7706E+02  0.2155E+03  0.2152E+03
     -4.204  0.5571E+02  0.5725E+02  0.2183E+03  0.2182E+03
     -4.153  0.7300E+02  0.7257E+02  0.2221E+03  0.2219E+03
     -4.101  0.7635E+02  0.7688E+02  0.2261E+03  0.2259E+03
     -4.049  0.6035E+02  0.5938E+02  0.2292E+03  0.2290E+03
     -3.997  0.4717E+02  0.4719E+02  0.2317E+03  0.2315E+03
     -3.945  0.5891E+02  0.6019E+02  0.2347E+03  0.2346E+03
     -3.893  0.7005E+02  0.7003E+02  0.2384E+03  0.2382E+03
     -3.841  0.7627E+02  0.7484E+02  0.2423E+03  0.2421E+03
     -3.789  0.6970E+02  0.7001E+02  0.2459E+03  0.2457E+03
     -3.737  0.6039E+02  0.6091E+02  0.2491E+03  0.2489E+03
     -3.686  0.6109E+02  0.5944E+02  0.2522E+03  0.2520E+03
     -3.634  0.6576E+02  0.6604E+02  0.2557E+03  0.2554E+03
     -3.582  0.7328E+02  0.7385E+02  0.2595E+03  0.2592E+03
     -3.530  0.7624E+02  0.7377E+02  0.2634E+03  0.2631E+03
     -3.478  0.4405E+02  0.4789E+02  0.2657E+03  0.2656E+03
     -3.426  0.6710E+02  0.6512E+02  0.2692E+03  0.2689E+03
     -3.374  0.9766E+02  0.9553E+02  0.2742E+03  0.2739E+03
     -3.322  0.6253E+02  0.6682E+02  0.2775E+03  0.2774E+03
     -3.271  0.6478E+02  0.6196E+02  0.2809E+03  0.2806E+03
     -3.219  0.7787E+02  0.7729E+02  0.2849E+03  0.2846E+03
     -3.167  0.7792E+02  0.7690E+02  0.2889E+03  0.2886E+03
     -3.115  0.8059E+02  0.8174E+02  0.2931E+03  0.2928E+03
     -3.063  0.7504E+02  0.7602E+02  0.2970E+03  0.2968E+03
     -3.011  0.6129E+02  0.6138E+02  0.3002E+03  0.2999E+03
     -2.959  0.7848E+02  0.7966E+02  0.3043E+03  0.3041E+03
     -2.907  0.6809E+02  0.6892E+02  0.3078E+03  0.3077E+03
     -2.855  0.8058E+02  0.7641E+02  0.3120E+03  0.3116E+03
     -2.804  0.9514E+02  0.9673E+02  0.3169E+03  0.3166E+03
     -2.752  0.9315E+02  0.9546E+02  0.3217E+03  0.3216E+03
     -2.700  0.8955E+02  0.8641E+02  0.3264E+03  0.3261E+03
     -2.648  0.1035E+03  0.1046E+03  0.3318E+03  0.3315E+03
     -2.596  0.9368E+02  0.9405E+02  0.3366E+03  0.3364E+03
     -2.544  0.1025E+03  0.1020E+03  0.3419E+03  0.3417E+03
     -2.492  0.1021E+03  0.1020E+03  0.3472E+03  0.3470E+03
     -2.440  0.1314E+03  0.1310E+03  0.3541E+03  0.3538E+03
     -2.388  0.9353E+02  0.9319E+02  0.3589E+03  0.3586E+03
     -2.337  0.8379E+02  0.8341E+02  0.3633E+03  0.3629E+03
     -2.285  0.1148E+03  0.1149E+03  0.3692E+03  0.3689E+03
     -2.233  0.9611E+02  0.9572E+02  0.3742E+03  0.3739E+03
     -2.181  0.1127E+03  0.1151E+03  0.3800E+03  0.3798E+03
     -2.129  0.4736E+02  0.4751E+02  0.3825E+03  0.3823E+03
     -2.077  0.4775E+02  0.4905E+02  0.3850E+03  0.3848E+03
     -2.025  0.3854E+02  0.3694E+02  0.3870E+03  0.3868E+03
     -1.973  0.7156E+02  0.7133E+02  0.3907E+03  0.3905E+03
     -1.921  0.6651E+02  0.6697E+02  0.3941E+03  0.3939E+03
     -1.870  0.1103E+03  0.1108E+03  0.3999E+03  0.3997E+03
     -1.818  0.9646E+02  0.9482E+02  0.4049E+03  0.4046E+03
     -1.766  0.6700E+02  0.7057E+02  0.4083E+03  0.4083E+03
     -1.714  0.6316E+02  0.6151E+02  0.4116E+03  0.4114E+03
     -1.662  0.1060E+03  0.1006E+03  0.4171E+03  0.4167E+03
     -1.610  0.1046E+03  0.1080E+03  0.4226E+03  0.4223E+03
     -1.558  0.9072E+02  0.9114E+02  0.4273E+03  0.4270E+03
     -1.506  0.5183E+02  0.5199E+02  0.4299E+03  0.4297E+03
     -1.454  0.1080E+03  0.1094E+03  0.4356E+03  0.4354E+03
     -1.403  0.6083E+02  0.5853E+02  0.4387E+03  0.4384E+03
     -1.351  0.5747E+02  0.6111E+02  0.4417E+03  0.4416E+03
     -1.299  0.5837E+02  0.5589E+02  0.4447E+03  0.4445E+03
     -1.247  0.6244E+02  0.6379E+02  0.4480E+03  0.4478E+03
     -1.195  0.5140E+02  0.5257E+02  0.4506E+03  0.4505E+03
     -1.143  0.5360E+02  0.5333E+02  0.4534E+03  0.4533E+03
     -1.091  0.5725E+02  0.5531E+02  0.4564E+03  0.4562E+03
     -1.039  0.4663E+02  0.4791E+02  0.4588E+03  0.4586E+03
     -0.988  0.4999E+02  0.5040E+02  0.4614E+03  0.4613E+03
     -0.936  0.5065E+02  0.4976E+02  0.4640E+03  0.4638E+03
     -0.884  0.4826E+02  0.4833E+02  0.4665E+03  0.4663E+03
     -0.832  0.4375E+02  0.4451E+02  0.4688E+03  0.4687E+03
     -0.780  0.4998E+02  0.4987E+02  0.4714E+03  0.4712E+03
     -0.728  0.8334E+02  0.7979E+02  0.4757E+03  0.4754E+03
     -0.676  0.5680E+02  0.5954E+02  0.4787E+03  0.4785E+03
     -0.624  0.4400E+02  0.4270E+02  0.4809E+03  0.4807E+03
     -0.572  0.6797E+02  0.6745E+02  0.4845E+03  0.4842E+03
     -0.521  0.4705E+02  0.5115E+02  0.4869E+03  0.4868E+03
     -0.469  0.2273E+02  0.2224E+02  0.4881E+03  0.4880E+03
     -0.417  0.2411E+02  0.2496E+02  0.4893E+03  0.4893E+03
     -0.365  0.4034E+02  0.3744E+02  0.4914E+03  0.4912E+03
     -0.313  0.4512E+02  0.4699E+02  0.4938E+03  0.4937E+03
     -0.261  0.4317E+02  0.4151E+02  0.4960E+03  0.4958E+03
     -0.209  0.9694E+02  0.9565E+02  0.5010E+03  0.5008E+03
     -0.157  0.7133E+02  0.7124E+02  0.5047E+03  0.5045E+03
     -0.105  0.7761E+02  0.7824E+02  0.5088E+03  0.5085E+03
     -0.054  0.1173E+03  0.1155E+03  0.5149E+03  0.5145E+03
     -0.002  0.1164E+03  0.1156E+03  0.5209E+03  0.5205E+03
      0.050  0.1172E+03  0.1169E+03  0.5270E+03  0.5266E+03
      0.102  0.1199E+03  0.1199E+03  0.5332E+03  0.5328E+03
      0.154  0.1492E+03  0.1477E+03  0.5409E+03  0.5405E+03
      0.206  0.1333E+03  0.1370E+03  0.5479E+03  0.5476E+03
      0.258  0.7894E+02  0.7823E+02  0.5520E+03  0.5517E+03
      0.310  0.8789E+02  0.8974E+02  0.5565E+03  0.5563E+03
      0.362  0.9119E+02  0.9054E+02  0.5612E+03  0.5610E+03
      0.413  0.8040E+02  0.8301E+02  0.5654E+03  0.5653E+03
      0.465  0.8794E+02  0.8477E+02  0.5700E+03  0.5697E+03
      0.517  0.9975E+02  0.1008E+03  0.5752E+03  0.5749E+03
      0.569  0.7612E+02  0.7435E+02  0.5791E+03  0.5788E+03
      0.621  0.1211E+03  0.1214E+03  0.5854E+03  0.5851E+03
      0.673  0.1625E+03  0.1588E+03  0.5938E+03  0.5933E+03
      0.725  0.1480E+03  0.1501E+03  0.6015E+03  0.6011E+03
      0.777  0.1342E+03  0.1338E+03  0.6085E+03  0.6081E+03
      0.828  0.1136E+03  0.1133E+03  0.6144E+03  0.6140E+03
      0.880  0.1225E+03  0.1225E+03  0.6207E+03  0.6203E+03
      0.932  0.1007E+03  0.1038E+03  0.6259E+03  0.6257E+03
      0.984  0.9474E+02  0.9376E+02  0.6308E+03  0.6306E+03
      1.036  0.1042E+03  0.1041E+03  0.6363E+03  0.6360E+03
      1.088  0.1268E+03  0.1252E+03  0.6428E+03  0.6425E+03
      1.140  0.1531E+03  0.1532E+03  0.6508E+03  0.6504E+03
      1.192  0.1276E+03  0.1259E+03  0.6574E+03  0.6569E+03
      1.244  0.1759E+03  0.1763E+03  0.6665E+03  0.6661E+03
      1.295  0.1655E+03  0.1637E+03  0.6751E+03  0.6746E+03
      1.347  0.1532E+03  0.1546E+03  0.6831E+03  0.6826E+03
      1.399  0.1877E+03  0.1862E+03  0.6928E+03  0.6923E+03
      1.451  0.1912E+03  0.1916E+03  0.7027E+03  0.7022E+03
      1.503  0.1722E+03  0.1735E+03  0.7117E+03  0.7112E+03
      1.555  0.1588E+03  0.1544E+03  0.7199E+03  0.7192E+03
      1.607  0.2242E+03  0.2237E+03  0.7315E+03  0.7308E+03
      1.659  0.1972E+03  0.1989E+03  0.7418E+03  0.7412E+03
      1.711  0.1691E+03  0.1725E+03  0.7505E+03  0.7501E+03
      1.762  0.1687E+03  0.1680E+03  0.7593E+03  0.7588E+03
      1.814  0.1993E+03  0.1954E+03  0.7696E+03  0.7690E+03
      1.866  0.1651E+03  0.1663E+03  0.7782E+03  0.7776E+03
      1.918  0.1734E+03  0.1737E+03  0.7872E+03  0.7866E+03
      1.970  0.1585E+03  0.1601E+03  0.7954E+03  0.7949E+03
      2.022  0.2161E+03  0.2132E+03  0.8066E+03  0.8060E+03
      2.074  0.1618E+03  0.1654E+03  0.8150E+03  0.8146E+03
      2.126  0.1801E+03  0.1795E+03  0.8244E+03  0.8239E+03
      2.178  0.1776E+03  0.1735E+03  0.8336E+03  0.8329E+03
      2.229  0.1862E+03  0.1863E+03  0.8432E+03  0.8425E+03
      2.281  0.1803E+03  0.1862E+03  0.8526E+03  0.8522E+03
      2.333  0.1587E+03  0.1552E+03  0.8608E+03  0.8602E+03
      2.385  0.1525E+03  0.1539E+03  0.8687E+03  0.8682E+03
      2.437  0.1853E+03  0.1820E+03  0.8784E+03  0.8777E+03
      2.489  0.1723E+03  0.1757E+03  0.8873E+03  0.8868E+03
      2.541  0.1451E+03  0.1496E+03  0.8948E+03  0.8946E+03
      2.593  0.1625E+03  0.1577E+03  0.9033E+03  0.9027E+03
      2.645  0.1551E+03  0.1574E+03  0.9113E+03  0.9109E+03
      2.696  0.1239E+03  0.1236E+03  0.9177E+03  0.9173E+03
      2.748  0.1244E+03  0.1236E+03  0.9242E+03  0.9237E+03
      2.800  0.1356E+03  0.1331E+03  0.9312E+03  0.9306E+03
      2.852  0.1329E+03  0.1363E+03  0.9381E+03  0.9377E+03
      2.904  0.1437E+03  0.1401E+03  0.9456E+03  0.9450E+03
      2.956  0.1402E+03  0.1402E+03  0.9529E+03  0.9522E+03
      3.008  0.1275E+03  0.1268E+03  0.9595E+03  0.9588E+03
      3.060  0.1269E+03  0.1287E+03  0.9661E+03  0.9655E+03
      3.111  0.1178E+03  0.1208E+03  0.9722E+03  0.9718E+03
      3.163  0.1209E+03  0.1180E+03  0.9784E+03  0.9779E+03
      3.215  0.1340E+03  0.1343E+03  0.9854E+03  0.9849E+03
      3.267  0.9010E+02  0.8745E+02  0.9901E+03  0.9894E+03
      3.319  0.9538E+02  0.9733E+02  0.9950E+03  0.9945E+03
      3.371  0.1156E+03  0.1136E+03  0.1001E+04  0.1000E+04
      3.423  0.1001E+03  0.1044E+03  0.1006E+04  0.1006E+04
      3.475  0.7389E+02  0.7987E+02  0.1010E+04  0.1010E+04
      3.527  0.6819E+02  0.6461E+02  0.1014E+04  0.1013E+04
      3.578  0.1015E+03  0.9728E+02  0.1019E+04  0.1018E+04
      3.630  0.1011E+03  0.1030E+03  0.1024E+04  0.1024E+04
      3.682  0.8434E+02  0.8072E+02  0.1028E+04  0.1028E+04
      3.734  0.7313E+02  0.7961E+02  0.1032E+04  0.1032E+04
      3.786  0.5935E+02  0.5864E+02  0.1035E+04  0.1035E+04
      3.838  0.4826E+02  0.4297E+02  0.1038E+04  0.1037E+04
      3.890  0.5476E+02  0.6059E+02  0.1041E+04  0.1040E+04
      3.942  0.4612E+02  0.4441E+02  0.1043E+04  0.1043E+04
      3.994  0.3506E+02  0.3721E+02  0.1045E+04  0.1045E+04
      4.045  0.5492E+02  0.5232E+02  0.1048E+04  0.1047E+04
      4.097  0.6128E+02  0.6077E+02  0.1051E+04  0.1050E+04
      4.149  0.9625E+02  0.8680E+02  0.1056E+04  0.1055E+04
      4.201  0.9248E+02  0.8983E+02  0.1061E+04  0.1060E+04
      4.253  0.9678E+02  0.1093E+03  0.1066E+04  0.1065E+04
      4.305  0.7937E+02  0.7894E+02  0.1070E+04  0.1069E+04
      4.357  0.1003E+03  0.8960E+02  0.1075E+04  0.1074E+04
      4.409  0.8232E+02  0.8879E+02  0.1079E+04  0.1079E+04
      4.461  0.1267E+03  0.1291E+03  0.1086E+04  0.1085E+04
      4.512  0.1090E+03  0.1010E+03  0.1092E+04  0.1091E+04
      4.564  0.1230E+03  0.1253E+03  0.1098E+04  0.1097E+04
      4.616  0.1020E+03  0.1060E+03  0.1103E+04  0.1103E+04
      4.668  0.9094E+02  0.9622E+02  0.1108E+04  0.1108E+04
      4.720  0.9025E+02  0.8341E+02  0.1113E+04  0.1112E+04
      4.772  0.1216E+03  0.1204E+03  0.1119E+04  0.1118E+04
      4.824  0.1232E+03  0.1262E+03  0.1125E+04  0.1125E+04
      4.876  0.1120E+03  0.1121E+03  0.1131E+04  0.1131E+04
      4.927  0.1347E+03  0.1281E+03  0.1138E+04  0.1137E+04
      4.979  0.1236E+03  0.1297E+03  0.1145E+04  0.1144E+04
      5.031  0.9934E+02  0.1000E+03  0.1150E+04  0.1149E+04
      5.083  0.1178E+03  0.1205E+03  0.1156E+04  0.1155E+04
      5.135  0.1358E+03  0.1280E+03  0.1163E+04  0.1162E+04
      5.187  0.1354E+03  0.1370E+03  0.1170E+04  0.1169E+04
      5.239  0.1081E+03  0.1123E+03  0.1176E+04  0.1175E+04
      5.291  0.9414E+02  0.9542E+02  0.1180E+04  0.1180E+04
      5.343  0.1011E+03  0.1011E+03  0.1186E+04  0.1185E+04
      5.394  0.1190E+03  0.1209E+03  0.1192E+04  0.1191E+04
      5.446  0.1148E+03  0.1117E+03  0.1198E+04  0.1197E+04
      5.498  0.1334E+03  0.1324E+03  0.1205E+04  0.1204E+04
      5.550  0.1564E+03  0.1576E+03  0.1213E+04  0.1212E+04
      5.602  0.1289E+03  0.1285E+03  0.1220E+04  0.1219E+04
      5.654  0.1626E+03  0.1635E+03  0.1228E+04  0.1227E+04
      5.706  0.1267E+03  0.1237E+03  0.1235E+04  0.1234E+04
      5.758  0.1278E+03  0.1329E+03  0.1241E+04  0.1241E+04
      5.810  0.1197E+03  0.1166E+03  0.1247E+04  0.1247E+04
      5.861  0.1385E+03  0.1421E+03  0.1255E+04  0.1254E+04
      5.913  0.1352E+03  0.1332E+03  0.1262E+04  0.1261E+04
      5.965  0.1308E+03  0.1385E+03  0.1268E+04  0.1268E+04
      6.017  0.6044E+02  0.6060E+02  0.1271E+04  0.1271E+04
      6.069  0.9964E+01  0.1192E+02  0.1272E+04  0.1272E+04
      6.121  0.0000E+00  0.0000E+00  0.1272E+04  0.1272E+04
      6.173  0.0000E+00  0.0000E+00  0.1272E+04  0.1272E+04
      6.225  0.0000E+00  0.0000E+00  0.1272E+04  0.1272E+04
      6.277  0.0000E+00  0.0000E+00  0.1272E+04  0.1272E+04
      6.328  0.0000E+00  0.0000E+00  0.1272E+04  0.1272E+04
      6.380  0.0000E+00  0.0000E+00  0.1272E+04  0.1272E+04
      6.432  0.0000E+00  0.0000E+00  0.1272E+04  0.1272E+04
      6.484  0.0000E+00  0.0000E+00  0.1272E+04  0.1272E+04
      6.536  0.0000E+00  0.0000E+00  0.1272E+04  0.1272E+04
      6.588  0.0000E+00  0.0000E+00  0.1272E+04  0.1272E+04
      6.640  0.0000E+00  0.0000E+00  0.1272E+04  0.1272E+04
      6.692  0.0000E+00  0.0000E+00  0.1272E+04  0.1272E+04
      6.744  0.0000E+00  0.0000E+00  0.1272E+04  0.1272E+04
