  96  96   0   0
  0.2243693E+02  0.1265123E-08  0.1265123E-08  0.1373516E-08  0.5000000E-15
  1.000000000000000E-004
  CAR 
 Si and Ge interface calculation         
      6.61790795    -11.13359417  301      3.69607800      1.00000000
    -11.134  0.0000E+00  0.0000E+00  0.0000E+00  0.0000E+00
    -11.074  0.0000E+00  0.0000E+00  0.0000E+00  0.0000E+00
    -11.015  0.0000E+00  0.0000E+00  0.0000E+00  0.0000E+00
    -10.956  0.0000E+00  0.0000E+00  0.0000E+00  0.0000E+00
    -10.897  0.0000E+00  0.0000E+00  0.0000E+00  0.0000E+00
    -10.838  0.0000E+00  0.0000E+00  0.0000E+00  0.0000E+00
    -10.779  0.0000E+00  0.0000E+00  0.0000E+00  0.0000E+00
    -10.719  0.0000E+00  0.0000E+00  0.0000E+00  0.0000E+00
    -10.660  0.0000E+00  0.0000E+00  0.0000E+00  0.0000E+00
    -10.601  0.0000E+00  0.0000E+00  0.0000E+00  0.0000E+00
    -10.542  0.0000E+00  0.0000E+00  0.0000E+00  0.0000E+00
    -10.483  0.0000E+00  0.0000E+00  0.0000E+00  0.0000E+00
    -10.424  0.0000E+00  0.0000E+00  0.0000E+00  0.0000E+00
    -10.364  0.1042E-06  0.2406E-12  0.6163E-08  0.1424E-13
    -10.305  0.1078E+02  0.5349E+01  0.6377E+00  0.3165E+00
    -10.246  0.2280E+02  0.2273E+02  0.1987E+01  0.1661E+01
    -10.187  0.2098E+00  0.5721E+01  0.2000E+01  0.2000E+01
    -10.128  0.3064E+00  0.8242E-03  0.2018E+01  0.2000E+01
    -10.069  0.2223E+02  0.2252E+02  0.3333E+01  0.3333E+01
    -10.009  0.0000E+00  0.0000E+00  0.3333E+01  0.3333E+01
     -9.950  0.0000E+00  0.0000E+00  0.3333E+01  0.3333E+01
     -9.891  0.1830E-02  0.2350E-06  0.3333E+01  0.3333E+01
     -9.832  0.2252E+02  0.2148E+02  0.4666E+01  0.4604E+01
     -9.773  0.3309E+02  0.3196E+02  0.6624E+01  0.6496E+01
     -9.713  0.7070E+00  0.2890E+01  0.6667E+01  0.6667E+01
     -9.654  0.0000E+00  0.0000E+00  0.6667E+01  0.6667E+01
     -9.595  0.6691E-08  0.1022E-13  0.6667E+01  0.6667E+01
     -9.536  0.2122E+02  0.9637E+01  0.7922E+01  0.7237E+01
     -9.477  0.1318E+01  0.1290E+02  0.8000E+01  0.8000E+01
     -9.418  0.0000E+00  0.0000E+00  0.8000E+01  0.8000E+01
     -9.358  0.0000E+00  0.0000E+00  0.8000E+01  0.8000E+01
     -9.299  0.2496E-10  0.0000E+00  0.8000E+01  0.8000E+01
     -9.240  0.1865E+02  0.5278E+01  0.9103E+01  0.8312E+01
     -9.181  0.3709E+02  0.4958E+02  0.1130E+02  0.1125E+02
     -9.122  0.8371E+00  0.1470E+01  0.1135E+02  0.1133E+02
     -9.063  0.1102E+02  0.1127E+02  0.1200E+02  0.1200E+02
     -9.003  0.0000E+00  0.0000E+00  0.1200E+02  0.1200E+02
     -8.944  0.0000E+00  0.0000E+00  0.1200E+02  0.1200E+02
     -8.885  0.0000E+00  0.0000E+00  0.1200E+02  0.1200E+02
     -8.826  0.0000E+00  0.0000E+00  0.1200E+02  0.1200E+02
     -8.767  0.0000E+00  0.0000E+00  0.1200E+02  0.1200E+02
     -8.708  0.0000E+00  0.0000E+00  0.1200E+02  0.1200E+02
     -8.648  0.7525E-01  0.6508E-03  0.1200E+02  0.1200E+02
     -8.589  0.1110E+02  0.5922E+01  0.1266E+02  0.1235E+02
     -8.530  0.9146E+01  0.9493E+01  0.1320E+02  0.1291E+02
     -8.471  0.1834E+02  0.2157E+02  0.1429E+02  0.1419E+02
     -8.412  0.6240E+01  0.6242E+01  0.1466E+02  0.1456E+02
     -8.353  0.2350E+02  0.2298E+02  0.1605E+02  0.1592E+02
     -8.293  0.3154E+02  0.3018E+02  0.1791E+02  0.1770E+02
     -8.234  0.1051E+02  0.1240E+02  0.1854E+02  0.1844E+02
     -8.175  0.2620E+02  0.2423E+02  0.2009E+02  0.1987E+02
     -8.116  0.2598E+02  0.2741E+02  0.2162E+02  0.2149E+02
     -8.057  0.2673E+02  0.2123E+02  0.2320E+02  0.2275E+02
     -7.997  0.3200E+02  0.3798E+02  0.2510E+02  0.2500E+02
     -7.938  0.1122E+02  0.1074E+02  0.2576E+02  0.2563E+02
     -7.879  0.1237E+02  0.1365E+02  0.2649E+02  0.2644E+02
     -7.820  0.2702E+02  0.2607E+02  0.2809E+02  0.2798E+02
     -7.761  0.1836E+02  0.1657E+02  0.2918E+02  0.2896E+02
     -7.702  0.2960E+02  0.2733E+02  0.3093E+02  0.3058E+02
     -7.642  0.3268E+02  0.3652E+02  0.3287E+02  0.3274E+02
     -7.583  0.1738E+02  0.1540E+02  0.3389E+02  0.3365E+02
     -7.524  0.3205E+02  0.3269E+02  0.3579E+02  0.3559E+02
     -7.465  0.3468E+02  0.3684E+02  0.3784E+02  0.3777E+02
     -7.406  0.9128E+01  0.9331E+01  0.3838E+02  0.3832E+02
     -7.347  0.1356E+02  0.1265E+02  0.3919E+02  0.3907E+02
     -7.287  0.2523E+02  0.2417E+02  0.4068E+02  0.4050E+02
     -7.228  0.2836E+02  0.2732E+02  0.4236E+02  0.4212E+02
     -7.169  0.1393E+02  0.1614E+02  0.4318E+02  0.4307E+02
     -7.110  0.3509E+02  0.3423E+02  0.4526E+02  0.4510E+02
     -7.051  0.2826E+02  0.2335E+02  0.4693E+02  0.4648E+02
     -6.992  0.2304E+02  0.2669E+02  0.4829E+02  0.4806E+02
     -6.932  0.2232E+02  0.2458E+02  0.4961E+02  0.4951E+02
     -6.873  0.2495E+02  0.2184E+02  0.5109E+02  0.5080E+02
     -6.814  0.2810E+02  0.2954E+02  0.5275E+02  0.5255E+02
     -6.755  0.2758E+02  0.2409E+02  0.5439E+02  0.5398E+02
     -6.696  0.3582E+02  0.3987E+02  0.5650E+02  0.5634E+02
     -6.637  0.2855E+02  0.2811E+02  0.5819E+02  0.5800E+02
     -6.577  0.1928E+02  0.2091E+02  0.5934E+02  0.5924E+02
     -6.518  0.1593E+02  0.1503E+02  0.6028E+02  0.6013E+02
     -6.459  0.2950E+02  0.2744E+02  0.6202E+02  0.6175E+02
     -6.400  0.2731E+02  0.2563E+02  0.6364E+02  0.6327E+02
     -6.341  0.3481E+02  0.3365E+02  0.6570E+02  0.6526E+02
     -6.282  0.3904E+02  0.4279E+02  0.6801E+02  0.6779E+02
     -6.222  0.2454E+02  0.2306E+02  0.6946E+02  0.6916E+02
     -6.163  0.3468E+02  0.3298E+02  0.7151E+02  0.7111E+02
     -6.104  0.2708E+02  0.3008E+02  0.7312E+02  0.7289E+02
     -6.045  0.2885E+02  0.2933E+02  0.7482E+02  0.7462E+02
     -5.986  0.1795E+02  0.2071E+02  0.7589E+02  0.7585E+02
     -5.926  0.7617E+01  0.8192E+01  0.7634E+02  0.7633E+02
     -5.867  0.3331E+02  0.2549E+02  0.7831E+02  0.7784E+02
     -5.808  0.1839E+02  0.2322E+02  0.7940E+02  0.7922E+02
     -5.749  0.2249E+02  0.2329E+02  0.8073E+02  0.8059E+02
     -5.690  0.1664E+02  0.1504E+02  0.8171E+02  0.8148E+02
     -5.631  0.2628E+02  0.2495E+02  0.8327E+02  0.8296E+02
     -5.571  0.2661E+02  0.2981E+02  0.8484E+02  0.8472E+02
     -5.512  0.2621E+02  0.2013E+02  0.8639E+02  0.8592E+02
     -5.453  0.2116E+02  0.2748E+02  0.8764E+02  0.8754E+02
     -5.394  0.1990E+02  0.1772E+02  0.8882E+02  0.8859E+02
     -5.335  0.3254E+02  0.3059E+02  0.9075E+02  0.9040E+02
     -5.276  0.2735E+02  0.3071E+02  0.9237E+02  0.9222E+02
     -5.216  0.3050E+02  0.2525E+02  0.9417E+02  0.9371E+02
     -5.157  0.2211E+02  0.2554E+02  0.9548E+02  0.9522E+02
     -5.098  0.3207E+02  0.3514E+02  0.9738E+02  0.9730E+02
     -5.039  0.1804E+02  0.1809E+02  0.9844E+02  0.9837E+02
     -4.980  0.2764E+02  0.2593E+02  0.1001E+03  0.9991E+02
     -4.921  0.1934E+02  0.2012E+02  0.1012E+03  0.1011E+03
     -4.861  0.2587E+02  0.2386E+02  0.1028E+03  0.1025E+03
     -4.802  0.2841E+02  0.3103E+02  0.1044E+03  0.1043E+03
     -4.743  0.2706E+02  0.2435E+02  0.1060E+03  0.1058E+03
     -4.684  0.2188E+02  0.2422E+02  0.1073E+03  0.1072E+03
     -4.625  0.3365E+02  0.3120E+02  0.1093E+03  0.1091E+03
     -4.566  0.2136E+02  0.2250E+02  0.1106E+03  0.1104E+03
     -4.506  0.3384E+02  0.3175E+02  0.1126E+03  0.1123E+03
     -4.447  0.2321E+02  0.2514E+02  0.1140E+03  0.1138E+03
     -4.388  0.2387E+02  0.2345E+02  0.1154E+03  0.1152E+03
     -4.329  0.1222E+02  0.1121E+02  0.1161E+03  0.1158E+03
     -4.270  0.2972E+02  0.3302E+02  0.1179E+03  0.1178E+03
     -4.211  0.1764E+02  0.1450E+02  0.1189E+03  0.1186E+03
     -4.151  0.1634E+02  0.1746E+02  0.1199E+03  0.1197E+03
     -4.092  0.2191E+02  0.2111E+02  0.1212E+03  0.1209E+03
     -4.033  0.1780E+02  0.1744E+02  0.1222E+03  0.1219E+03
     -3.974  0.2222E+02  0.2322E+02  0.1235E+03  0.1233E+03
     -3.915  0.2042E+02  0.2114E+02  0.1247E+03  0.1246E+03
     -3.855  0.1717E+02  0.1789E+02  0.1258E+03  0.1256E+03
     -3.796  0.1926E+02  0.2054E+02  0.1269E+03  0.1268E+03
     -3.737  0.1730E+02  0.1206E+02  0.1279E+03  0.1276E+03
     -3.678  0.2200E+02  0.2812E+02  0.1292E+03  0.1292E+03
     -3.619  0.1909E+02  0.1860E+02  0.1304E+03  0.1303E+03
     -3.560  0.3426E+02  0.3145E+02  0.1324E+03  0.1322E+03
     -3.500  0.1347E+02  0.1519E+02  0.1332E+03  0.1331E+03
     -3.441  0.2675E+02  0.2390E+02  0.1348E+03  0.1345E+03
     -3.382  0.3227E+02  0.3123E+02  0.1367E+03  0.1363E+03
     -3.323  0.2231E+02  0.2634E+02  0.1380E+03  0.1379E+03
     -3.264  0.2958E+02  0.2412E+02  0.1397E+03  0.1393E+03
     -3.205  0.3011E+02  0.3291E+02  0.1415E+03  0.1413E+03
     -3.145  0.2217E+02  0.2126E+02  0.1428E+03  0.1425E+03
     -3.086  0.2069E+02  0.2263E+02  0.1441E+03  0.1439E+03
     -3.027  0.2586E+02  0.2480E+02  0.1456E+03  0.1453E+03
     -2.968  0.2932E+02  0.2742E+02  0.1473E+03  0.1470E+03
     -2.909  0.2561E+02  0.2966E+02  0.1488E+03  0.1487E+03
     -2.850  0.2363E+02  0.2245E+02  0.1502E+03  0.1500E+03
     -2.790  0.2782E+02  0.2227E+02  0.1519E+03  0.1514E+03
     -2.731  0.2306E+02  0.2904E+02  0.1532E+03  0.1531E+03
     -2.672  0.3820E+02  0.3718E+02  0.1555E+03  0.1553E+03
     -2.613  0.2785E+02  0.2713E+02  0.1572E+03  0.1569E+03
     -2.554  0.3858E+02  0.3618E+02  0.1594E+03  0.1590E+03
     -2.495  0.2686E+02  0.2872E+02  0.1610E+03  0.1607E+03
     -2.435  0.2649E+02  0.2904E+02  0.1626E+03  0.1624E+03
     -2.376  0.3378E+02  0.2835E+02  0.1646E+03  0.1641E+03
     -2.317  0.3067E+02  0.3458E+02  0.1664E+03  0.1662E+03
     -2.258  0.2276E+02  0.2293E+02  0.1678E+03  0.1675E+03
     -2.199  0.4159E+02  0.3828E+02  0.1702E+03  0.1698E+03
     -2.139  0.3297E+02  0.3347E+02  0.1722E+03  0.1718E+03
     -2.080  0.2558E+02  0.2869E+02  0.1737E+03  0.1735E+03
     -2.021  0.2730E+02  0.2756E+02  0.1753E+03  0.1751E+03
     -1.962  0.1400E+02  0.1710E+02  0.1761E+03  0.1761E+03
     -1.903  0.2122E+02  0.1757E+02  0.1774E+03  0.1772E+03
     -1.844  0.2776E+02  0.2607E+02  0.1790E+03  0.1787E+03
     -1.784  0.1414E+02  0.1756E+02  0.1799E+03  0.1797E+03
     -1.725  0.1203E+02  0.1113E+02  0.1806E+03  0.1804E+03
     -1.666  0.2073E+02  0.1971E+02  0.1818E+03  0.1816E+03
     -1.607  0.1852E+02  0.2017E+02  0.1829E+03  0.1828E+03
     -1.548  0.7400E+01  0.9825E+01  0.1833E+03  0.1833E+03
     -1.489  0.4865E+01  0.3831E+01  0.1836E+03  0.1836E+03
     -1.429  0.2459E+02  0.2194E+02  0.1851E+03  0.1849E+03
     -1.370  0.1915E+02  0.2135E+02  0.1862E+03  0.1861E+03
     -1.311  0.1969E+02  0.1550E+02  0.1874E+03  0.1870E+03
     -1.252  0.1839E+02  0.2337E+02  0.1885E+03  0.1884E+03
     -1.193  0.1098E+02  0.1133E+02  0.1891E+03  0.1891E+03
     -1.134  0.1076E+02  0.6218E+01  0.1898E+03  0.1895E+03
     -1.074  0.2373E+02  0.2608E+02  0.1912E+03  0.1910E+03
     -1.015  0.2355E+02  0.2322E+02  0.1925E+03  0.1924E+03
     -0.956  0.3383E+02  0.3345E+02  0.1946E+03  0.1944E+03
     -0.897  0.3310E+02  0.3315E+02  0.1965E+03  0.1963E+03
     -0.838  0.1981E+02  0.2001E+02  0.1977E+03  0.1975E+03
     -0.779  0.4404E+02  0.4140E+02  0.2003E+03  0.2000E+03
     -0.719  0.4323E+02  0.3794E+02  0.2028E+03  0.2022E+03
     -0.660  0.2887E+02  0.2891E+02  0.2046E+03  0.2039E+03
     -0.601  0.4419E+02  0.4570E+02  0.2072E+03  0.2066E+03
     -0.542  0.5088E+02  0.5193E+02  0.2102E+03  0.2097E+03
     -0.483  0.3151E+02  0.3396E+02  0.2120E+03  0.2117E+03
     -0.424  0.2408E+02  0.2805E+02  0.2135E+03  0.2134E+03
     -0.364  0.2834E+02  0.2654E+02  0.2151E+03  0.2149E+03
     -0.305  0.4226E+02  0.4051E+02  0.2176E+03  0.2173E+03
     -0.246  0.4421E+02  0.4230E+02  0.2203E+03  0.2198E+03
     -0.187  0.4068E+02  0.3828E+02  0.2227E+03  0.2221E+03
     -0.128  0.3373E+02  0.4127E+02  0.2247E+03  0.2245E+03
     -0.068  0.5383E+02  0.4671E+02  0.2279E+03  0.2273E+03
     -0.009  0.3589E+02  0.3804E+02  0.2300E+03  0.2295E+03
      0.050  0.5007E+02  0.4933E+02  0.2329E+03  0.2325E+03
      0.109  0.4815E+02  0.5050E+02  0.2358E+03  0.2355E+03
      0.168  0.2424E+02  0.2764E+02  0.2372E+03  0.2371E+03
      0.227  0.5016E+02  0.4323E+02  0.2402E+03  0.2396E+03
      0.287  0.4238E+02  0.4234E+02  0.2427E+03  0.2422E+03
      0.346  0.4875E+02  0.5407E+02  0.2456E+03  0.2454E+03
      0.405  0.5275E+02  0.5115E+02  0.2487E+03  0.2484E+03
      0.464  0.5198E+02  0.4729E+02  0.2518E+03  0.2512E+03
      0.523  0.4339E+02  0.4747E+02  0.2543E+03  0.2540E+03
      0.582  0.4200E+02  0.4019E+02  0.2568E+03  0.2564E+03
      0.642  0.5019E+02  0.5253E+02  0.2598E+03  0.2595E+03
      0.701  0.5371E+02  0.5221E+02  0.2630E+03  0.2626E+03
      0.760  0.4548E+02  0.4649E+02  0.2657E+03  0.2653E+03
      0.819  0.6080E+02  0.5941E+02  0.2693E+03  0.2688E+03
      0.878  0.4328E+02  0.3896E+02  0.2718E+03  0.2711E+03
      0.937  0.5352E+02  0.5856E+02  0.2750E+03  0.2746E+03
      0.997  0.5118E+02  0.5046E+02  0.2780E+03  0.2776E+03
      1.056  0.6297E+02  0.5997E+02  0.2818E+03  0.2811E+03
      1.115  0.4386E+02  0.5049E+02  0.2843E+03  0.2841E+03
      1.174  0.5468E+02  0.5238E+02  0.2876E+03  0.2872E+03
      1.233  0.5168E+02  0.5247E+02  0.2906E+03  0.2903E+03
      1.292  0.5775E+02  0.5592E+02  0.2941E+03  0.2936E+03
      1.352  0.4821E+02  0.4793E+02  0.2969E+03  0.2965E+03
      1.411  0.3140E+02  0.3490E+02  0.2988E+03  0.2985E+03
      1.470  0.3722E+02  0.3323E+02  0.3010E+03  0.3005E+03
      1.529  0.4217E+02  0.4789E+02  0.3035E+03  0.3033E+03
      1.588  0.4080E+02  0.3396E+02  0.3059E+03  0.3054E+03
      1.647  0.4558E+02  0.4805E+02  0.3086E+03  0.3082E+03
      1.707  0.4055E+02  0.3968E+02  0.3110E+03  0.3105E+03
      1.766  0.4202E+02  0.4104E+02  0.3135E+03  0.3130E+03
      1.825  0.4744E+02  0.4967E+02  0.3163E+03  0.3159E+03
      1.884  0.2370E+02  0.2671E+02  0.3177E+03  0.3175E+03
      1.943  0.3846E+02  0.3365E+02  0.3200E+03  0.3195E+03
      2.003  0.3357E+02  0.3818E+02  0.3219E+03  0.3217E+03
      2.062  0.3354E+02  0.3178E+02  0.3239E+03  0.3236E+03
      2.121  0.4967E+02  0.5038E+02  0.3269E+03  0.3266E+03
      2.180  0.3501E+02  0.3448E+02  0.3289E+03  0.3286E+03
      2.239  0.2982E+02  0.3341E+02  0.3307E+03  0.3306E+03
      2.298  0.3774E+02  0.3236E+02  0.3329E+03  0.3325E+03
      2.358  0.2419E+02  0.2423E+02  0.3344E+03  0.3340E+03
      2.417  0.3933E+02  0.3892E+02  0.3367E+03  0.3363E+03
      2.476  0.3754E+02  0.4172E+02  0.3389E+03  0.3387E+03
      2.535  0.2626E+02  0.2746E+02  0.3405E+03  0.3404E+03
      2.594  0.4042E+02  0.3253E+02  0.3429E+03  0.3423E+03
      2.653  0.4615E+02  0.4845E+02  0.3456E+03  0.3452E+03
      2.713  0.4126E+02  0.4021E+02  0.3480E+03  0.3475E+03
      2.772  0.3071E+02  0.3359E+02  0.3498E+03  0.3495E+03
      2.831  0.3097E+02  0.3087E+02  0.3517E+03  0.3514E+03
      2.890  0.4744E+02  0.4091E+02  0.3545E+03  0.3538E+03
      2.949  0.2881E+02  0.3363E+02  0.3562E+03  0.3558E+03
      3.008  0.3474E+02  0.3398E+02  0.3583E+03  0.3578E+03
      3.068  0.3451E+02  0.3071E+02  0.3603E+03  0.3596E+03
      3.127  0.3767E+02  0.4147E+02  0.3625E+03  0.3620E+03
      3.186  0.4754E+02  0.3936E+02  0.3653E+03  0.3644E+03
      3.245  0.2941E+02  0.4054E+02  0.3671E+03  0.3668E+03
      3.304  0.4736E+02  0.4358E+02  0.3699E+03  0.3694E+03
      3.363  0.2212E+02  0.2605E+02  0.3712E+03  0.3709E+03
      3.423  0.5413E+02  0.4783E+02  0.3744E+03  0.3737E+03
      3.482  0.3879E+02  0.4353E+02  0.3767E+03  0.3763E+03
      3.541  0.2460E+02  0.2723E+02  0.3781E+03  0.3779E+03
      3.600  0.3694E+02  0.3469E+02  0.3803E+03  0.3800E+03
      3.659  0.3580E+02  0.3009E+02  0.3824E+03  0.3817E+03
      3.718  0.3899E+02  0.3831E+02  0.3848E+03  0.3840E+03
      3.778  0.2758E+02  0.3449E+02  0.3864E+03  0.3861E+03
      3.837  0.4588E+02  0.3970E+02  0.3891E+03  0.3884E+03
      3.896  0.2179E+02  0.3148E+02  0.3904E+03  0.3903E+03
      3.955  0.3025E+02  0.2282E+02  0.3922E+03  0.3916E+03
      4.014  0.2388E+02  0.2850E+02  0.3936E+03  0.3933E+03
      4.074  0.2226E+02  0.1956E+02  0.3949E+03  0.3945E+03
      4.133  0.3160E+02  0.3918E+02  0.3968E+03  0.3968E+03
      4.192  0.2641E+02  0.2207E+02  0.3983E+03  0.3981E+03
      4.251  0.3843E+02  0.3410E+02  0.4006E+03  0.4001E+03
      4.310  0.5714E+02  0.5491E+02  0.4040E+03  0.4033E+03
      4.369  0.3265E+02  0.3681E+02  0.4059E+03  0.4055E+03
      4.429  0.3352E+02  0.3066E+02  0.4079E+03  0.4073E+03
      4.488  0.3244E+02  0.3864E+02  0.4098E+03  0.4096E+03
      4.547  0.3391E+02  0.2895E+02  0.4118E+03  0.4113E+03
      4.606  0.4220E+02  0.4481E+02  0.4143E+03  0.4140E+03
      4.665  0.4029E+02  0.3299E+02  0.4167E+03  0.4159E+03
      4.724  0.3333E+02  0.3865E+02  0.4187E+03  0.4182E+03
      4.784  0.4275E+02  0.4255E+02  0.4212E+03  0.4207E+03
      4.843  0.5248E+02  0.5368E+02  0.4243E+03  0.4239E+03
      4.902  0.3509E+02  0.3532E+02  0.4264E+03  0.4260E+03
      4.961  0.3635E+02  0.3690E+02  0.4286E+03  0.4282E+03
      5.020  0.4139E+02  0.4126E+02  0.4310E+03  0.4306E+03
      5.079  0.3889E+02  0.4022E+02  0.4333E+03  0.4330E+03
      5.139  0.3346E+02  0.2872E+02  0.4353E+03  0.4347E+03
      5.198  0.5124E+02  0.5459E+02  0.4383E+03  0.4380E+03
      5.257  0.4452E+02  0.4320E+02  0.4410E+03  0.4405E+03
      5.316  0.3459E+02  0.3210E+02  0.4430E+03  0.4424E+03
      5.375  0.4454E+02  0.4248E+02  0.4456E+03  0.4449E+03
      5.434  0.3995E+02  0.4732E+02  0.4480E+03  0.4477E+03
      5.494  0.4722E+02  0.4505E+02  0.4508E+03  0.4504E+03
      5.553  0.3788E+02  0.3303E+02  0.4530E+03  0.4523E+03
      5.612  0.5089E+02  0.5567E+02  0.4560E+03  0.4556E+03
      5.671  0.5258E+02  0.5359E+02  0.4592E+03  0.4588E+03
      5.730  0.3985E+02  0.3549E+02  0.4615E+03  0.4609E+03
      5.790  0.3484E+02  0.3774E+02  0.4636E+03  0.4631E+03
      5.849  0.7132E+01  0.1454E+02  0.4640E+03  0.4640E+03
      5.908  0.0000E+00  0.0000E+00  0.4640E+03  0.4640E+03
      5.967  0.0000E+00  0.0000E+00  0.4640E+03  0.4640E+03
      6.026  0.0000E+00  0.0000E+00  0.4640E+03  0.4640E+03
      6.085  0.0000E+00  0.0000E+00  0.4640E+03  0.4640E+03
      6.145  0.0000E+00  0.0000E+00  0.4640E+03  0.4640E+03
      6.204  0.0000E+00  0.0000E+00  0.4640E+03  0.4640E+03
      6.263  0.0000E+00  0.0000E+00  0.4640E+03  0.4640E+03
      6.322  0.0000E+00  0.0000E+00  0.4640E+03  0.4640E+03
      6.381  0.0000E+00  0.0000E+00  0.4640E+03  0.4640E+03
      6.440  0.0000E+00  0.0000E+00  0.4640E+03  0.4640E+03
      6.500  0.0000E+00  0.0000E+00  0.4640E+03  0.4640E+03
      6.559  0.0000E+00  0.0000E+00  0.4640E+03  0.4640E+03
      6.618  0.0000E+00  0.0000E+00  0.4640E+03  0.4640E+03
