<?xml version="1.0" encoding="ISO-8859-1"?>
<modeling>
 <generator>
  <i name="program" type="string">vasp </i>
  <i name="version" type="string">6.4.3  </i>
  <i name="subversion" type="string">19Mar24 (build Oct 22 2024 11:23:12) complex                          parallel </i>
  <i name="platform" type="string">LinuxIFC </i>
  <i name="date" type="string">2025 06 04 </i>
  <i name="time" type="string">07:50:02 </i>
 </generator>
 <incar>
  <i type="string" name="SYSTEM">Si and Ge interface calculation</i>
  <i type="int" name="ISTART">     0</i>
  <i type="logical" name="ADDGRID"> T  </i>
  <i type="int" name="ISPIN">     2</i>
  <i name="AMIX">      0.60000000</i>
  <i type="int" name="ICHARG">     2</i>
  <i type="int" name="NELM">   100</i>
  <i name="EDIFF">      0.00000010</i>
  <i name="ENCUT">    700.00000000</i>
  <i name="ENAUG">    900.00000000</i>
  <i type="int" name="NBANDS">   231</i>
  <i name="NUPDOWN">      1.00000000</i>
  <i name="NELECT">    384.00000000</i>
  <i type="string" name="LREAL">AUTO</i>
  <i type="int" name="ISMEAR">     0</i>
  <i name="SIGMA">      0.01000000</i>
  <i type="int" name="LMAXMIX">     6</i>
  <i type="logical" name="LWAVE"> F  </i>
  <i type="logical" name="LVTOT"> F  </i>
  <i type="logical" name="LVHAR"> T  </i>
  <i type="logical" name="LASPH"> T  </i>
  <i type="logical" name="LMIXTAU"> T  </i>
 </incar>
 <primitive_cell>
  <structure name="primitive_cell" >
   <crystal>
    <varray name="basis" >
     <v>      12.65122604       0.00000000       0.00000000 </v>
     <v>       2.53024530      12.39562035       0.00000000 </v>
     <v>       0.00000000       0.00000000      13.73516273 </v>
    </varray>
    <i name="volume">   2153.94540375 </i>
    <varray name="rec_basis" >
     <v>       0.07904372      -0.01613473       0.00000000 </v>
     <v>       0.00000000       0.08067366       0.00000000 </v>
     <v>       0.00000000       0.00000000       0.07280584 </v>
    </varray>
   </crystal>
   <varray name="positions" >
    <v>       0.22591019       0.37751091       0.58408308 </v>
    <v>       0.99259037       0.94813251       0.00000002 </v>
    <v>       0.95092356       0.65646577       0.08408309 </v>
    <v>       0.90925682       0.36479890       0.16816616 </v>
    <v>       0.86759007       0.07313222       0.25224918 </v>
    <v>       0.26757705       0.66917771       0.50000006 </v>
    <v>       0.35091019       0.00251102       0.58408308 </v>
    <v>       0.49259037       0.44813251       0.00000003 </v>
    <v>       0.45092362       0.15646577       0.08408309 </v>
    <v>       0.40925688       0.86479896       0.16816616 </v>
    <v>       0.36759013       0.57313228       0.25224918 </v>
    <v>       0.32592338       0.28146553       0.33633223 </v>
    <v>       0.01757705       0.91917777       0.50000006 </v>
    <v>       0.36759040       0.82313263       0.00000001 </v>
    <v>       0.32592362       0.53146583       0.08408309 </v>
    <v>       0.28425688       0.23979901       0.16816619 </v>
    <v>       0.24259017       0.94813240       0.25224918 </v>
    <v>       0.20092338       0.65646565       0.33633223 </v>
    <v>       0.39257693       0.29417765       0.50000006 </v>
    <v>       0.86759049       0.32313258       0.00000001 </v>
    <v>       0.82592368       0.03146578       0.08408309 </v>
    <v>       0.78425688       0.73979890       0.16816616 </v>
    <v>       0.74259013       0.44813234       0.25224918 </v>
    <v>       0.76757705       0.16917777       0.50000006 </v>
    <v>       0.89257693       0.79417765       0.50000006 </v>
    <v>       0.24259035       0.69813263       0.00000000 </v>
    <v>       0.20092359       0.40646580       0.08408308 </v>
    <v>       0.15925685       0.11479896       0.16816616 </v>
    <v>       0.60091019       0.75251091       0.58408308 </v>
    <v>       0.07592334       0.53146553       0.33633217 </v>
    <v>       0.53425670       0.73979867       0.42041531 </v>
    <v>       0.74259043       0.19813251       0.00000002 </v>
    <v>       0.70092362       0.90646571       0.08408309 </v>
    <v>       0.65925688       0.61479890       0.16816616 </v>
    <v>       0.61759025       0.32313234       0.25224918 </v>
    <v>       0.57592344       0.03146547       0.33633217 </v>
    <v>       0.10091007       0.25251091       0.58408308 </v>
    <v>       0.11759036       0.07313251       0.00000002 </v>
    <v>       0.07592360       0.78146577       0.08408309 </v>
    <v>       0.03425685       0.48979896       0.16816616 </v>
    <v>       0.99259007       0.19813222       0.25224918 </v>
    <v>       0.14257705       0.54417765       0.50000006 </v>
    <v>       0.76757705       0.16917777       0.50000006 </v>
    <v>       0.61759049       0.57313258       0.00000001 </v>
    <v>       0.57592362       0.28146583       0.08408308 </v>
    <v>       0.53425694       0.98979902       0.16816619 </v>
    <v>       0.49259019       0.69813228       0.25224924 </v>
    <v>       0.93424344       0.33584419       0.66816616 </v>
    <v>       0.93424308       0.08584392       0.92041534 </v>
    <v>       0.65925658       0.86479867       0.42041528 </v>
    <v>       0.90925658       0.61479878       0.42041531 </v>
    <v>       0.80924344       0.21084416       0.66816616 </v>
    <v>       0.51757669       0.16917741       0.75224924 </v>
    <v>       0.22590995       0.12751067       0.83633232 </v>
    <v>       0.43424308       0.58584392       0.92041534 </v>
    <v>       0.03425656       0.23979878       0.42041528 </v>
    <v>       0.11759009       0.82313240       0.25224915 </v>
    <v>       0.30924344       0.71084422       0.66816616 </v>
    <v>       0.01757669       0.66917741       0.75224924 </v>
    <v>       0.72590995       0.62751067       0.83633232 </v>
    <v>       0.80924320       0.46084398       0.92041534 </v>
    <v>       0.82592332       0.78146553       0.33633217 </v>
    <v>       0.97591031       0.62751091       0.58408308 </v>
    <v>       0.68424350       0.58584422       0.66816616 </v>
    <v>       0.39257681       0.54417747       0.75224924 </v>
    <v>       0.10091007       0.50251073       0.83633232 </v>
    <v>       0.30924308       0.96084392       0.92041528 </v>
    <v>       0.70092338       0.15646553       0.33633217 </v>
    <v>       0.47591022       0.12751102       0.58408308 </v>
    <v>       0.18424344       0.08584416       0.66816616 </v>
    <v>       0.89257681       0.04417753       0.75224924 </v>
    <v>       0.60090995       0.00251067       0.83633232 </v>
    <v>       0.68424320       0.33584389       0.92041534 </v>
    <v>       0.95092338       0.90646553       0.33633223 </v>
    <v>       0.85091025       0.50251091       0.58408308 </v>
    <v>       0.55924350       0.46084416       0.66816616 </v>
    <v>       0.26757681       0.41917741       0.75224918 </v>
    <v>       0.97590995       0.37751067       0.83633226 </v>
    <v>       0.18424308       0.83584404       0.92041534 </v>
    <v>       0.28425661       0.98979878       0.42041531 </v>
    <v>       0.28425661       0.98979878       0.42041531 </v>
    <v>       0.05924344       0.96084416       0.66816616 </v>
    <v>       0.76757669       0.91917753       0.75224924 </v>
    <v>       0.47590992       0.87751079       0.83633232 </v>
    <v>       0.05924308       0.21084392       0.92041534 </v>
    <v>       0.51757693       0.41917768       0.50000006 </v>
    <v>       0.78425658       0.48979867       0.42041528 </v>
    <v>       0.45092344       0.40646553       0.33633226 </v>
    <v>       0.64257669       0.29417741       0.75224918 </v>
    <v>       0.35090995       0.25251067       0.83633232 </v>
    <v>       0.55924320       0.71084404       0.92041534 </v>
    <v>       0.15925664       0.36479878       0.42041531 </v>
    <v>       0.72591019       0.87751091       0.58408308 </v>
    <v>       0.43424356       0.83584428       0.66816616 </v>
    <v>       0.14257669       0.79417753       0.75224924 </v>
    <v>       0.85090995       0.75251079       0.83633232 </v>
   </varray>
  </structure>
  <varray name="primitive_index" >
   <v type="int" >        1 </v>
   <v type="int" >        2 </v>
   <v type="int" >        3 </v>
   <v type="int" >        4 </v>
   <v type="int" >        5 </v>
   <v type="int" >        6 </v>
   <v type="int" >        7 </v>
   <v type="int" >        8 </v>
   <v type="int" >        9 </v>
   <v type="int" >       10 </v>
   <v type="int" >       11 </v>
   <v type="int" >       12 </v>
   <v type="int" >       13 </v>
   <v type="int" >       14 </v>
   <v type="int" >       15 </v>
   <v type="int" >       16 </v>
   <v type="int" >       17 </v>
   <v type="int" >       18 </v>
   <v type="int" >       19 </v>
   <v type="int" >       20 </v>
   <v type="int" >       21 </v>
   <v type="int" >       22 </v>
   <v type="int" >       23 </v>
   <v type="int" >       24 </v>
   <v type="int" >       25 </v>
   <v type="int" >       26 </v>
   <v type="int" >       27 </v>
   <v type="int" >       28 </v>
   <v type="int" >       29 </v>
   <v type="int" >       30 </v>
   <v type="int" >       31 </v>
   <v type="int" >       32 </v>
   <v type="int" >       33 </v>
   <v type="int" >       34 </v>
   <v type="int" >       35 </v>
   <v type="int" >       36 </v>
   <v type="int" >       37 </v>
   <v type="int" >       38 </v>
   <v type="int" >       39 </v>
   <v type="int" >       40 </v>
   <v type="int" >       41 </v>
   <v type="int" >       42 </v>
   <v type="int" >       43 </v>
   <v type="int" >       44 </v>
   <v type="int" >       45 </v>
   <v type="int" >       46 </v>
   <v type="int" >       47 </v>
   <v type="int" >       48 </v>
   <v type="int" >       49 </v>
   <v type="int" >       50 </v>
   <v type="int" >       51 </v>
   <v type="int" >       52 </v>
   <v type="int" >       53 </v>
   <v type="int" >       54 </v>
   <v type="int" >       55 </v>
   <v type="int" >       56 </v>
   <v type="int" >       57 </v>
   <v type="int" >       58 </v>
   <v type="int" >       59 </v>
   <v type="int" >       60 </v>
   <v type="int" >       61 </v>
   <v type="int" >       62 </v>
   <v type="int" >       63 </v>
   <v type="int" >       64 </v>
   <v type="int" >       65 </v>
   <v type="int" >       66 </v>
   <v type="int" >       67 </v>
   <v type="int" >       68 </v>
   <v type="int" >       69 </v>
   <v type="int" >       70 </v>
   <v type="int" >       71 </v>
   <v type="int" >       72 </v>
   <v type="int" >       73 </v>
   <v type="int" >       74 </v>
   <v type="int" >       75 </v>
   <v type="int" >       76 </v>
   <v type="int" >       77 </v>
   <v type="int" >       78 </v>
   <v type="int" >       79 </v>
   <v type="int" >       80 </v>
   <v type="int" >       81 </v>
   <v type="int" >       82 </v>
   <v type="int" >       83 </v>
   <v type="int" >       84 </v>
   <v type="int" >       85 </v>
   <v type="int" >       86 </v>
   <v type="int" >       87 </v>
   <v type="int" >       88 </v>
   <v type="int" >       89 </v>
   <v type="int" >       90 </v>
   <v type="int" >       91 </v>
   <v type="int" >       92 </v>
   <v type="int" >       93 </v>
   <v type="int" >       94 </v>
   <v type="int" >       95 </v>
   <v type="int" >       96 </v>
  </varray>
 </primitive_cell>
 <kpoints>
  <generation param="Gamma">
   <v type="int" name="divisions">       3        3        2 </v>
   <v name="usershift">      0.00000000       0.00000000       0.00000000 </v>
   <v name="genvec1">      0.33333333       0.00000000       0.00000000 </v>
   <v name="genvec2">      0.00000000       0.33333333       0.00000000 </v>
   <v name="genvec3">      0.00000000       0.00000000       0.50000000 </v>
   <v name="shift">      0.00000000       0.00000000       0.00000000 </v>
  </generation>
  <varray name="kpointlist" >
   <v>       0.00000000       0.00000000       0.00000000 </v>
   <v>       0.33333333       0.00000000       0.00000000 </v>
   <v>       0.00000000      -0.33333333       0.00000000 </v>
   <v>       0.33333333       0.33333333       0.00000000 </v>
   <v>      -0.33333333       0.33333333       0.00000000 </v>
   <v>       0.00000000       0.00000000       0.50000000 </v>
   <v>       0.33333333       0.00000000       0.50000000 </v>
   <v>       0.00000000      -0.33333333       0.50000000 </v>
   <v>       0.33333333       0.33333333       0.50000000 </v>
   <v>      -0.33333333       0.33333333       0.50000000 </v>
  </varray>
  <varray name="weights" >
   <v>       0.05555556 </v>
   <v>       0.11111111 </v>
   <v>       0.11111111 </v>
   <v>       0.11111111 </v>
   <v>       0.11111111 </v>
   <v>       0.05555556 </v>
   <v>       0.11111111 </v>
   <v>       0.11111111 </v>
   <v>       0.11111111 </v>
   <v>       0.11111111 </v>
  </varray>
 </kpoints>
 <parameters>
  <separator name="general" >
   <i type="string" name="SYSTEM">Si and Ge interface calculation</i>
   <i type="logical" name="LCOMPAT"> F  </i>
  </separator>
  <separator name="electronic" >
   <i type="string" name="PREC">normal</i>
   <i name="ENMAX">    700.00000000</i>
   <i name="ENAUG">    900.00000000</i>
   <i name="EDIFF">      0.00000010</i>
   <i type="int" name="IALGO">    38</i>
   <i type="int" name="IWAVPR">    10</i>
   <i type="int" name="NBANDS">   232</i>
   <i type="int" name="NBANDSLOW">    -1</i>
   <i type="int" name="NBANDSHIGH">    -1</i>
   <i name="NELECT">    384.00000000</i>
   <i type="int" name="TURBO">     0</i>
   <i type="int" name="IRESTART">     0</i>
   <i type="int" name="NREBOOT">     0</i>
   <i type="int" name="NMIN">     0</i>
   <i name="EREF">      0.00000000</i>
   <separator name="electronic smearing" >
    <i type="int" name="ISMEAR">     0</i>
    <i name="SIGMA">      0.01000000</i>
    <i name="KSPACING">      0.50000000</i>
    <i type="logical" name="KGAMMA"> T  </i>
    <i type="logical" name="KBLOWUP"> T  </i>
   </separator>
   <separator name="electronic projectors" >
    <i type="logical" name="LREAL"> T  </i>
    <v name="ROPT">     -0.00050000</v>
    <i type="int" name="LMAXPAW">  -100</i>
    <i type="int" name="LMAXMIX">     6</i>
    <i type="logical" name="NLSPLINE"> F  </i>
   </separator>
   <separator name="electronic startup" >
    <i type="int" name="ISTART">     0</i>
    <i type="int" name="ICHARG">     2</i>
    <i type="int" name="INIWAV">     1</i>
   </separator>
   <separator name="electronic spin" >
    <i type="int" name="ISPIN">     2</i>
    <i type="logical" name="LNONCOLLINEAR"> F  </i>
    <v name="MAGMOM">      0.01041667      0.01041667      0.01041667      0.01041667      0.01041667      0.01041667      0.01041667      0.01041667      0.01041667      0.01041667      0.01041667      0.01041667      0.01041667      0.01041667      0.01041667      0.01041667      0.01041667      0.01041667      0.01041667      0.01041667
      0.01041667      0.01041667      0.01041667      0.01041667      0.01041667      0.01041667      0.01041667      0.01041667      0.01041667      0.01041667      0.01041667      0.01041667      0.01041667      0.01041667      0.01041667      0.01041667      0.01041667      0.01041667      0.01041667      0.01041667
      0.01041667      0.01041667      0.01041667      0.01041667      0.01041667      0.01041667      0.01041667      0.01041667      0.01041667      0.01041667      0.01041667      0.01041667      0.01041667      0.01041667      0.01041667      0.01041667      0.01041667      0.01041667      0.01041667      0.01041667
      0.01041667      0.01041667      0.01041667      0.01041667      0.01041667      0.01041667      0.01041667      0.01041667      0.01041667      0.01041667      0.01041667      0.01041667      0.01041667      0.01041667      0.01041667      0.01041667      0.01041667      0.01041667      0.01041667      0.01041667
      0.01041667      0.01041667      0.01041667      0.01041667      0.01041667      0.01041667      0.01041667      0.01041667      0.01041667      0.01041667      0.01041667      0.01041667      0.01041667      0.01041667      0.01041667      0.01041667</v>
    <i name="NUPDOWN">      1.00000000</i>
    <i type="logical" name="LSORBIT"> F  </i>
    <v name="SAXIS">      0.00000000      0.00000000      1.00000000</v>
    <i type="logical" name="LSPIRAL"> F  </i>
    <v name="QSPIRAL">      0.00000000      0.00000000      0.00000000</v>
    <i type="logical" name="LZEROZ"> F  </i>
   </separator>
   <separator name="electronic exchange-correlation" >
    <i type="logical" name="LASPH"> T  </i>
   </separator>
   <separator name="electronic convergence" >
    <i type="int" name="NELM">   100</i>
    <i type="int" name="NELMDL">    -5</i>
    <i type="int" name="NELMIN">     2</i>
    <i name="ENINI">    700.00000000</i>
    <separator name="electronic convergence detail" >
     <i type="logical" name="LDIAG"> T  </i>
     <i type="logical" name="LSUBROT"> F  </i>
     <i name="WEIMIN">      0.00000000</i>
     <i name="EBREAK">      0.00000000</i>
     <i name="DEPER">      0.30000000</i>
     <i type="int" name="NRMM">     4</i>
     <i name="TIME">      0.40000000</i>
    </separator>
   </separator>
   <separator name="electronic mixer" >
    <i name="AMIX">      0.60000000</i>
    <i name="BMIX">      1.00000000</i>
    <i name="AMIN">      0.10000000</i>
    <i name="AMIX_MAG">      2.40000000</i>
    <i name="BMIX_MAG">      1.00000000</i>
    <separator name="electronic mixer details" >
     <i type="int" name="IMIX">     4</i>
     <i type="logical" name="MIXFIRST"> F  </i>
     <i type="int" name="MAXMIX">   -45</i>
     <i name="WC">    100.00000000</i>
     <i type="int" name="INIMIX">     1</i>
     <i type="int" name="MIXPRE">     1</i>
     <i type="int" name="MREMOVE">     5</i>
    </separator>
   </separator>
   <separator name="electronic dipolcorrection" >
    <i type="logical" name="LDIPOL"> F  </i>
    <i type="logical" name="LMONO"> F  </i>
    <i type="int" name="IDIPOL">     0</i>
    <i name="EPSILON">      1.00000000</i>
    <v name="DIPOL">   -100.00000000   -100.00000000   -100.00000000</v>
    <i name="EFIELD">      0.00000000</i>
    <i type="logical" name="LVACPOTAV"> F  </i>
   </separator>
  </separator>
  <separator name="grids" >
   <i type="int" name="NGX">    84</i>
   <i type="int" name="NGY">    84</i>
   <i type="int" name="NGZ">    90</i>
   <i type="int" name="NGXF">   168</i>
   <i type="int" name="NGYF">   168</i>
   <i type="int" name="NGZF">   180</i>
   <i type="logical" name="ADDGRID"> T  </i>
  </separator>
  <separator name="ionic" >
   <i type="int" name="NSW">     0</i>
   <i type="int" name="IBRION">    -1</i>
   <i type="int" name="MDALGO">     0</i>
   <i type="int" name="ISIF">     2</i>
   <i name="PSTRESS">      0.00000000</i>
   <i name="EDIFFG">      0.00000100</i>
   <i type="int" name="NFREE">     0</i>
   <i name="POTIM">      0.50000000</i>
   <i name="SMASS">     -3.00000000</i>
   <i name="SCALEE">      1.00000000</i>
  </separator>
  <separator name="ionic md" >
   <i name="TEBEG">      0.00010000</i>
   <i name="TEEND">      0.00010000</i>
   <i type="int" name="NBLOCK">     1</i>
   <i type="int" name="KBLOCK">     1</i>
   <i type="int" name="NPACO">   256</i>
   <i name="APACO">     10.00000000</i>
  </separator>
  <separator name="symmetry" >
   <i type="int" name="ISYM">     2</i>
   <i name="SYMPREC">      0.00001000</i>
  </separator>
  <separator name="dos" >
   <i type="int" name="LORBIT">     0</i>
   <v name="RWIGS">     -1.00000000</v>
   <i type="int" name="NEDOS">   301</i>
   <i name="EMIN">     10.00000000</i>
   <i name="EMAX">    -10.00000000</i>
   <i name="EFERMI">      0.00000000</i>
  </separator>
  <separator name="writing" >
   <i type="int" name="NWRITE">     2</i>
   <i type="logical" name="LWAVE"> F  </i>
   <i type="logical" name="LDOWNSAMPLE"> F  </i>
   <i type="logical" name="LCHARG"> T  </i>
   <i type="logical" name="LPARD"> F  </i>
   <i type="logical" name="LVTOT"> F  </i>
   <i type="logical" name="LVHAR"> T  </i>
   <i type="logical" name="LELF"> F  </i>
   <i type="logical" name="LOPTICS"> F  </i>
   <v name="STM">      0.00000000      0.00000000      0.00000000      0.00000000      0.00000000      0.00000000      0.00000000</v>
  </separator>
  <separator name="performance" >
   <i type="int" name="NPAR">     4</i>
   <i type="int" name="NSIM">     4</i>
   <i type="int" name="NBLK">    -1</i>
   <i type="logical" name="LPLANE"> T  </i>
   <i type="logical" name="LSCALAPACK"> T  </i>
   <i type="logical" name="LSCAAWARE"> F  </i>
   <i type="logical" name="LSCALU"> F  </i>
   <i type="logical" name="LASYNC"> F  </i>
   <i type="logical" name="LORBITALREAL"> F  </i>
  </separator>
  <separator name="miscellaneous" >
   <i type="int" name="IDIOT">     3</i>
   <i type="int" name="PHON_NSTRUCT">    -1</i>
   <i type="logical" name="LMUSIC"> F  </i>
   <v name="POMASS">     72.61000000</v>
   <v name="DARWINR">      0.00000000</v>
   <v name="DARWINV">      1.00000000</v>
   <i type="logical" name="LCORR"> T  </i>
  </separator>
  <i type="logical" name="GGA_COMPAT"> T  </i>
  <i type="logical" name="LBERRY"> F  </i>
  <i type="int" name="ICORELEVEL">     0</i>
  <i type="logical" name="LDAU"> F  </i>
  <i type="int" name="I_CONSTRAINED_M">     0</i>
  <separator name="electronic exchange-correlation" >
   <i type="string" name="GGA    ">PE</i>
   <i type="string" name="XC_C">1</i>
   <i type="int" name="VOSKOWN">     0</i>
   <i type="logical" name="LHFCALC"> F  </i>
   <i type="string" name="PRECFOCK"></i>
   <i type="logical" name="LSYMGRAD"> F  </i>
   <i type="logical" name="LHFONE"> F  </i>
   <i type="logical" name="LRHFCALC"> F  </i>
   <i type="logical" name="LTHOMAS"> F  </i>
   <i type="logical" name="LMODELHF"> F  </i>
   <i type="logical" name="LFOCKACE"> F  </i>
   <i name="ENCUT4O">     -1.00000000</i>
   <i type="int" name="EXXOEP">     0</i>
   <i type="int" name="FOURORBIT">     0</i>
   <i name="AEXX">      0.00000000</i>
   <i name="HFALPHA">      0.00000000</i>
   <i name="MCALPHA">      0.00000000</i>
   <i name="ALDAX">      1.00000000</i>
   <i name="AGGAX">      1.00000000</i>
   <i name="AMGGAX">      1.00000000</i>
   <i name="ALDAC">      1.00000000</i>
   <i name="AGGAC">      1.00000000</i>
   <i name="AMGGAC">      1.00000000</i>
   <i type="int" name="NKREDX">     1</i>
   <i type="int" name="NKREDY">     1</i>
   <i type="int" name="NKREDZ">     1</i>
   <i type="logical" name="SHIFTRED"> F  </i>
   <i type="logical" name="ODDONLY"> F  </i>
   <i type="logical" name="EVENONLY"> F  </i>
   <i type="int" name="LMAXFOCK">     0</i>
   <i type="int" name="NMAXFOCKAE">     0</i>
   <i type="logical" name="LFOCKAEDFT"> F  </i>
   <i name="HFSCREEN">      0.00000000</i>
   <i name="HFSCREENC">      0.00000000</i>
   <i type="int" name="NBANDSGWLOW">     0</i>
  </separator>
  <separator name="vdW DFT" >
   <i type="logical" name="LUSE_VDW"> F  </i>
   <i type="int" name="IVDW_NL">    -1</i>
   <i type="logical" name="LSPIN_VDW"> F  </i>
   <i name="ZAB_VDW">     -0.84910000</i>
   <i name="GAMMA_VDW">      1.39626340</i>
   <i name="ALPHA_VDW">      0.00000000</i>
   <i name="PARAM1">      0.12340000</i>
   <i name="PARAM2">      1.00000000</i>
   <i name="BPARAM">      6.30000000</i>
   <i name="CPARAM">      0.00930000</i>
  </separator>
  <separator name="model GW" >
   <i type="int" name="MODEL_GW">     0</i>
   <i name="MODEL_EPS0">     13.46215877</i>
   <i name="MODEL_ALPHA">      1.00000000</i>
  </separator>
  <separator name="linear response parameters" >
   <i type="logical" name="LEPSILON"> F  </i>
   <i type="logical" name="LRPA"> F  </i>
   <i type="logical" name="LNABLA"> F  </i>
   <i type="logical" name="LVEL"> F  </i>
   <i name="CSHIFT">      0.10000000</i>
   <i name="OMEGAMAX">     -1.00000000</i>
   <i name="DEG_THRESHOLD">      0.00200000</i>
   <i name="RTIME">     -0.10000000</i>
   <i name="WPLASMAI">      0.00000000</i>
   <v name="DFIELD">      0.00000000      0.00000000      0.00000000</v>
   <v name="WPLASMA">      0.00000000      0.00000000      0.00000000      0.00000000      0.00000000      0.00000000      0.00000000      0.00000000      0.00000000</v>
  </separator>
  <separator name="orbital magnetization" >
   <i type="logical" name="NUCIND"> F  </i>
   <v name="MAGPOS">      0.00000000      0.00000000      0.00000000</v>
   <i type="logical" name="LNICSALL"> T  </i>
   <i type="logical" name="ORBITALMAG"> F  </i>
   <i type="logical" name="LMAGBLOCH"> F  </i>
   <i type="logical" name="LCHIMAG"> F  </i>
   <i type="logical" name="LGAUGE"> T  </i>
   <i type="int" name="MAGATOM">     0</i>
   <v name="MAGDIPOL">      0.00000000      0.00000000      0.00000000</v>
   <v name="AVECCONST">      0.00000000      0.00000000      0.00000000</v>
  </separator>
  <separator name="response functions" >
   <i type="logical" name="LALL_IN_ONE"> F  </i>
   <i type="int" name="IALL_IN_ONE">    -1</i>
   <i type="int" name="NBANDS_WAVE">    -1</i>
   <i type="logical" name="LFINITE_TEMPERATURE"> F  </i>
   <i type="logical" name="LADDER"> F  </i>
   <i type="logical" name="LRPAFORCE"> F  </i>
   <i type="logical" name="LFXC"> F  </i>
   <i type="logical" name="LHARTREE"> T  </i>
   <i type="int" name="IBSE">     0</i>
   <v type="int" name="KPOINT">    -1     0     0     0</v>
   <i type="logical" name="LTCTC"> F  </i>
   <i type="logical" name="LTCTE"> F  </i>
   <i type="logical" name="LTETE"> F  </i>
   <i type="logical" name="LTRIPLET"> F  </i>
   <i type="logical" name="LFXCEPS"> F  </i>
   <i type="logical" name="LFXHEG"> F  </i>
   <i type="int" name="NATURALO">     2</i>
   <i type="logical" name="LHOLEGF"> F  </i>
   <i type="logical" name="L2ORDER"> F  </i>
   <i type="logical" name="LDMP1"> F  </i>
   <i type="logical" name="LMP2LT"> F  </i>
   <i type="logical" name="LSMP2LT"> F  </i>
   <i type="logical" name="LGWLF"> F  </i>
   <i name="ENCUTGW">     -1.60000002</i>
   <i name="ENCUTGWSOFT">     -1.60000002</i>
   <i name="ENCUTLF">     -1.00000000</i>
   <i type="logical" name="ESF_SPLINES"> F  </i>
   <i name="ESF_CONV">      0.01000000</i>
   <i type="int" name="ESF_NINTER">    15</i>
   <i type="int" name="LMAXMP2">    -1</i>
   <i name="SCISSOR">      0.00000000</i>
   <i type="int" name="NOMEGA">     0</i>
   <i type="int" name="NOMEGAR">     0</i>
   <i type="int" name="NBANDSGW">    -1</i>
   <i type="int" name="NBANDSO">    -1</i>
   <i type="int" name="NBANDSV">    -1</i>
   <i type="int" name="NELMGW">     1</i>
   <i type="int" name="NELMHF">     1</i>
   <i type="int" name="DIM">     3</i>
   <i type="int" name="IESPILON">     4</i>
   <i type="int" name="ANTIRES">     0</i>
   <i name="OMEGAMAX">    -30.00000000</i>
   <i name="OMEGAMIN">    -30.00000000</i>
   <i name="OMEGATL">   -200.00000000</i>
   <i type="int" name="OMEGAGRID">     0</i>
   <i name="CSHIFT">     -0.10000000</i>
   <i type="logical" name="LSELFENERGY"> F  </i>
   <i type="logical" name="LSPECTRAL"> F  </i>
   <i type="logical" name="LSPECTRALGW"> F  </i>
   <i type="logical" name="LSINGLES"> F  </i>
   <i type="logical" name="LFERMIGW"> F  </i>
   <i type="logical" name="ODDONLYGW"> F  </i>
   <i type="logical" name="EVENONLYGW"> F  </i>
   <i type="int" name="NKREDLFX">     1</i>
   <i type="int" name="NKREDLFY">     1</i>
   <i type="int" name="NKREDLFZ">     1</i>
   <i type="int" name="MAXMEM">  2800</i>
   <i type="int" name="TELESCOPE">     0</i>
   <i type="int" name="NTAUPAR">    -1</i>
   <i type="int" name="NOMEGAPAR">    -1</i>
   <i name="DAMP_NEWTON">      0.80000001</i>
   <i name="LAMBDA">      1.00000000</i>
  </separator>
  <separator name="External order field" >
   <i name="OFIELD_KAPPA">      0.00000000</i>
   <v name="OFIELD_K">      0.00000000      0.00000000      0.00000000</v>
   <i name="OFIELD_Q6_NEAR">      0.00000000</i>
   <i name="OFIELD_Q6_FAR">      0.00000000</i>
   <i name="OFIELD_A">      0.00000000</i>
  </separator>
  <separator name="optional k-points parameters" >
   <i type="int" name="KPOINTS_OPT_MODE">     1</i>
   <i type="logical" name="LKPOINTS_OPT"> F  </i>
  </separator>
 </parameters>
 <atominfo>
  <atoms>      96 </atoms>
  <types>       1 </types>
  <array name="atoms" >
   <dimension dim="1">ion</dimension>
   <field type="string">element</field>
   <field type="int">atomtype</field>
   <set>
    <rc><c>Ge</c><c>   1</c></rc>
    <rc><c>Ge</c><c>   1</c></rc>
    <rc><c>Ge</c><c>   1</c></rc>
    <rc><c>Ge</c><c>   1</c></rc>
    <rc><c>Ge</c><c>   1</c></rc>
    <rc><c>Ge</c><c>   1</c></rc>
    <rc><c>Ge</c><c>   1</c></rc>
    <rc><c>Ge</c><c>   1</c></rc>
    <rc><c>Ge</c><c>   1</c></rc>
    <rc><c>Ge</c><c>   1</c></rc>
    <rc><c>Ge</c><c>   1</c></rc>
    <rc><c>Ge</c><c>   1</c></rc>
    <rc><c>Ge</c><c>   1</c></rc>
    <rc><c>Ge</c><c>   1</c></rc>
    <rc><c>Ge</c><c>   1</c></rc>
    <rc><c>Ge</c><c>   1</c></rc>
    <rc><c>Ge</c><c>   1</c></rc>
    <rc><c>Ge</c><c>   1</c></rc>
    <rc><c>Ge</c><c>   1</c></rc>
    <rc><c>Ge</c><c>   1</c></rc>
    <rc><c>Ge</c><c>   1</c></rc>
    <rc><c>Ge</c><c>   1</c></rc>
    <rc><c>Ge</c><c>   1</c></rc>
    <rc><c>Ge</c><c>   1</c></rc>
    <rc><c>Ge</c><c>   1</c></rc>
    <rc><c>Ge</c><c>   1</c></rc>
    <rc><c>Ge</c><c>   1</c></rc>
    <rc><c>Ge</c><c>   1</c></rc>
    <rc><c>Ge</c><c>   1</c></rc>
    <rc><c>Ge</c><c>   1</c></rc>
    <rc><c>Ge</c><c>   1</c></rc>
    <rc><c>Ge</c><c>   1</c></rc>
    <rc><c>Ge</c><c>   1</c></rc>
    <rc><c>Ge</c><c>   1</c></rc>
    <rc><c>Ge</c><c>   1</c></rc>
    <rc><c>Ge</c><c>   1</c></rc>
    <rc><c>Ge</c><c>   1</c></rc>
    <rc><c>Ge</c><c>   1</c></rc>
    <rc><c>Ge</c><c>   1</c></rc>
    <rc><c>Ge</c><c>   1</c></rc>
    <rc><c>Ge</c><c>   1</c></rc>
    <rc><c>Ge</c><c>   1</c></rc>
    <rc><c>Ge</c><c>   1</c></rc>
    <rc><c>Ge</c><c>   1</c></rc>
    <rc><c>Ge</c><c>   1</c></rc>
    <rc><c>Ge</c><c>   1</c></rc>
    <rc><c>Ge</c><c>   1</c></rc>
    <rc><c>Ge</c><c>   1</c></rc>
    <rc><c>Ge</c><c>   1</c></rc>
    <rc><c>Ge</c><c>   1</c></rc>
    <rc><c>Ge</c><c>   1</c></rc>
    <rc><c>Ge</c><c>   1</c></rc>
    <rc><c>Ge</c><c>   1</c></rc>
    <rc><c>Ge</c><c>   1</c></rc>
    <rc><c>Ge</c><c>   1</c></rc>
    <rc><c>Ge</c><c>   1</c></rc>
    <rc><c>Ge</c><c>   1</c></rc>
    <rc><c>Ge</c><c>   1</c></rc>
    <rc><c>Ge</c><c>   1</c></rc>
    <rc><c>Ge</c><c>   1</c></rc>
    <rc><c>Ge</c><c>   1</c></rc>
    <rc><c>Ge</c><c>   1</c></rc>
    <rc><c>Ge</c><c>   1</c></rc>
    <rc><c>Ge</c><c>   1</c></rc>
    <rc><c>Ge</c><c>   1</c></rc>
    <rc><c>Ge</c><c>   1</c></rc>
    <rc><c>Ge</c><c>   1</c></rc>
    <rc><c>Ge</c><c>   1</c></rc>
    <rc><c>Ge</c><c>   1</c></rc>
    <rc><c>Ge</c><c>   1</c></rc>
    <rc><c>Ge</c><c>   1</c></rc>
    <rc><c>Ge</c><c>   1</c></rc>
    <rc><c>Ge</c><c>   1</c></rc>
    <rc><c>Ge</c><c>   1</c></rc>
    <rc><c>Ge</c><c>   1</c></rc>
    <rc><c>Ge</c><c>   1</c></rc>
    <rc><c>Ge</c><c>   1</c></rc>
    <rc><c>Ge</c><c>   1</c></rc>
    <rc><c>Ge</c><c>   1</c></rc>
    <rc><c>Ge</c><c>   1</c></rc>
    <rc><c>Ge</c><c>   1</c></rc>
    <rc><c>Ge</c><c>   1</c></rc>
    <rc><c>Ge</c><c>   1</c></rc>
    <rc><c>Ge</c><c>   1</c></rc>
    <rc><c>Ge</c><c>   1</c></rc>
    <rc><c>Ge</c><c>   1</c></rc>
    <rc><c>Ge</c><c>   1</c></rc>
    <rc><c>Ge</c><c>   1</c></rc>
    <rc><c>Ge</c><c>   1</c></rc>
    <rc><c>Ge</c><c>   1</c></rc>
    <rc><c>Ge</c><c>   1</c></rc>
    <rc><c>Ge</c><c>   1</c></rc>
    <rc><c>Ge</c><c>   1</c></rc>
    <rc><c>Ge</c><c>   1</c></rc>
    <rc><c>Ge</c><c>   1</c></rc>
    <rc><c>Ge</c><c>   1</c></rc>
   </set>
  </array>
  <array name="atomtypes" >
   <dimension dim="1">type</dimension>
   <field type="int">atomspertype</field>
   <field type="string">element</field>
   <field>mass</field>
   <field>valence</field>
   <field type="string">pseudopotential</field>
   <set>
    <rc><c>  96</c><c>Ge</c><c>     72.61000000</c><c>      4.00000000</c><c>  PAW_PBE Ge 05Jan2001                  </c></rc>
   </set>
  </array>
 </atominfo>
 <structure name="initialpos" >
  <crystal>
   <varray name="basis" >
    <v>      12.65122604       0.00000000       0.00000000 </v>
    <v>       2.53024530      12.39562035       0.00000000 </v>
    <v>       0.00000000       0.00000000      13.73516273 </v>
   </varray>
   <i name="volume">   2153.94540375 </i>
   <varray name="rec_basis" >
    <v>       0.07904372      -0.01613473       0.00000000 </v>
    <v>       0.00000000       0.08067366       0.00000000 </v>
    <v>       0.00000000       0.00000000       0.07280584 </v>
   </varray>
  </crystal>
  <varray name="positions" >
   <v>       0.22591019       0.37751091       0.58408308 </v>
   <v>       0.99259037       0.94813251       0.00000002 </v>
   <v>       0.95092356       0.65646577       0.08408309 </v>
   <v>       0.90925682       0.36479890       0.16816616 </v>
   <v>       0.86759007       0.07313222       0.25224918 </v>
   <v>       0.26757705       0.66917771       0.50000006 </v>
   <v>       0.35091019       0.00251102       0.58408308 </v>
   <v>       0.49259037       0.44813251       0.00000003 </v>
   <v>       0.45092362       0.15646577       0.08408309 </v>
   <v>       0.40925688       0.86479896       0.16816616 </v>
   <v>       0.36759013       0.57313228       0.25224918 </v>
   <v>       0.32592338       0.28146553       0.33633223 </v>
   <v>       0.01757705       0.91917777       0.50000006 </v>
   <v>       0.36759040       0.82313263       0.00000001 </v>
   <v>       0.32592362       0.53146583       0.08408309 </v>
   <v>       0.28425688       0.23979901       0.16816619 </v>
   <v>       0.24259017       0.94813240       0.25224918 </v>
   <v>       0.20092338       0.65646565       0.33633223 </v>
   <v>       0.39257693       0.29417765       0.50000006 </v>
   <v>       0.86759049       0.32313258       0.00000001 </v>
   <v>       0.82592368       0.03146578       0.08408309 </v>
   <v>       0.78425688       0.73979890       0.16816616 </v>
   <v>       0.74259013       0.44813234       0.25224918 </v>
   <v>       0.76757705       0.16917777       0.50000006 </v>
   <v>       0.89257693       0.79417765       0.50000006 </v>
   <v>       0.24259035       0.69813263       0.00000000 </v>
   <v>       0.20092359       0.40646580       0.08408308 </v>
   <v>       0.15925685       0.11479896       0.16816616 </v>
   <v>       0.60091019       0.75251091       0.58408308 </v>
   <v>       0.07592334       0.53146553       0.33633217 </v>
   <v>       0.53425670       0.73979867       0.42041531 </v>
   <v>       0.74259043       0.19813251       0.00000002 </v>
   <v>       0.70092362       0.90646571       0.08408309 </v>
   <v>       0.65925688       0.61479890       0.16816616 </v>
   <v>       0.61759025       0.32313234       0.25224918 </v>
   <v>       0.57592344       0.03146547       0.33633217 </v>
   <v>       0.10091007       0.25251091       0.58408308 </v>
   <v>       0.11759036       0.07313251       0.00000002 </v>
   <v>       0.07592360       0.78146577       0.08408309 </v>
   <v>       0.03425685       0.48979896       0.16816616 </v>
   <v>       0.99259007       0.19813222       0.25224918 </v>
   <v>       0.14257705       0.54417765       0.50000006 </v>
   <v>       0.76757705       0.16917777       0.50000006 </v>
   <v>       0.61759049       0.57313258       0.00000001 </v>
   <v>       0.57592362       0.28146583       0.08408308 </v>
   <v>       0.53425694       0.98979902       0.16816619 </v>
   <v>       0.49259019       0.69813228       0.25224924 </v>
   <v>       0.93424344       0.33584419       0.66816616 </v>
   <v>       0.93424308       0.08584392       0.92041534 </v>
   <v>       0.65925658       0.86479867       0.42041528 </v>
   <v>       0.90925658       0.61479878       0.42041531 </v>
   <v>       0.80924344       0.21084416       0.66816616 </v>
   <v>       0.51757669       0.16917741       0.75224924 </v>
   <v>       0.22590995       0.12751067       0.83633232 </v>
   <v>       0.43424308       0.58584392       0.92041534 </v>
   <v>       0.03425656       0.23979878       0.42041528 </v>
   <v>       0.11759009       0.82313240       0.25224915 </v>
   <v>       0.30924344       0.71084422       0.66816616 </v>
   <v>       0.01757669       0.66917741       0.75224924 </v>
   <v>       0.72590995       0.62751067       0.83633232 </v>
   <v>       0.80924320       0.46084398       0.92041534 </v>
   <v>       0.82592332       0.78146553       0.33633217 </v>
   <v>       0.97591031       0.62751091       0.58408308 </v>
   <v>       0.68424350       0.58584422       0.66816616 </v>
   <v>       0.39257681       0.54417747       0.75224924 </v>
   <v>       0.10091007       0.50251073       0.83633232 </v>
   <v>       0.30924308       0.96084392       0.92041528 </v>
   <v>       0.70092338       0.15646553       0.33633217 </v>
   <v>       0.47591022       0.12751102       0.58408308 </v>
   <v>       0.18424344       0.08584416       0.66816616 </v>
   <v>       0.89257681       0.04417753       0.75224924 </v>
   <v>       0.60090995       0.00251067       0.83633232 </v>
   <v>       0.68424320       0.33584389       0.92041534 </v>
   <v>       0.95092338       0.90646553       0.33633223 </v>
   <v>       0.85091025       0.50251091       0.58408308 </v>
   <v>       0.55924350       0.46084416       0.66816616 </v>
   <v>       0.26757681       0.41917741       0.75224918 </v>
   <v>       0.97590995       0.37751067       0.83633226 </v>
   <v>       0.18424308       0.83584404       0.92041534 </v>
   <v>       0.28425661       0.98979878       0.42041531 </v>
   <v>       0.28425661       0.98979878       0.42041531 </v>
   <v>       0.05924344       0.96084416       0.66816616 </v>
   <v>       0.76757669       0.91917753       0.75224924 </v>
   <v>       0.47590992       0.87751079       0.83633232 </v>
   <v>       0.05924308       0.21084392       0.92041534 </v>
   <v>       0.51757693       0.41917768       0.50000006 </v>
   <v>       0.78425658       0.48979867       0.42041528 </v>
   <v>       0.45092344       0.40646553       0.33633226 </v>
   <v>       0.64257669       0.29417741       0.75224918 </v>
   <v>       0.35090995       0.25251067       0.83633232 </v>
   <v>       0.55924320       0.71084404       0.92041534 </v>
   <v>       0.15925664       0.36479878       0.42041531 </v>
   <v>       0.72591019       0.87751091       0.58408308 </v>
   <v>       0.43424356       0.83584428       0.66816616 </v>
   <v>       0.14257669       0.79417753       0.75224924 </v>
   <v>       0.85090995       0.75251079       0.83633232 </v>
  </varray>
 </structure>
 <calculation>
  <scstep>
   <time name="dav">   19.22   19.38</time>
   <time name="total">   20.88   21.06</time>
   <energy>
    <i name="alphaZ">    817.79019152 </i>
    <i name="ewald"> -10407.34581591 </i>
    <i name="hartreedc">   -952.99628674 </i>
    <i name="XCdc">   -727.24687510 </i>
    <i name="pawpsdc">   8461.93788731 </i>
    <i name="pawaedc">  -7071.13096423 </i>
    <i name="eentropy">     -0.00077869 </i>
    <i name="bandstr">   1457.40809941 </i>
    <i name="atom">  10079.60734648 </i>
    <i name="e_fr_energy">   1658.02280406 </i>
    <i name="e_wo_entrp">   1658.02358275 </i>
    <i name="e_0_energy">   1658.02319341 </i>
   </energy>
  </scstep>
  <scstep>
   <time name="dav">   21.54   21.73</time>
   <time name="total">   21.55   21.73</time>
   <energy>
    <i name="e_fr_energy">   -440.81494083 </i>
    <i name="e_wo_entrp">   -440.81315698 </i>
    <i name="e_0_energy">   -440.81404890 </i>
   </energy>
  </scstep>
  <scstep>
   <time name="dav">   22.65   22.87</time>
   <time name="total">   22.65   22.87</time>
   <energy>
    <i name="e_fr_energy">   -661.35330122 </i>
    <i name="e_wo_entrp">   -661.35140063 </i>
    <i name="e_0_energy">   -661.35235092 </i>
   </energy>
  </scstep>
  <scstep>
   <time name="dav">   22.34   22.53</time>
   <time name="total">   22.34   22.53</time>
   <energy>
    <i name="e_fr_energy">   -670.61725217 </i>
    <i name="e_wo_entrp">   -670.61574404 </i>
    <i name="e_0_energy">   -670.61649810 </i>
   </energy>
  </scstep>
  <scstep>
   <time name="dav">   23.34   23.54</time>
   <time name="total">   24.44   24.65</time>
   <energy>
    <i name="e_fr_energy">   -671.00150069 </i>
    <i name="e_wo_entrp">   -671.00003887 </i>
    <i name="e_0_energy">   -671.00076978 </i>
   </energy>
  </scstep>
  <scstep>
   <time name="dav">   21.39   21.57</time>
   <time name="total">   24.15   24.34</time>
   <energy>
    <i name="e_fr_energy">   -659.84079801 </i>
    <i name="e_wo_entrp">   -659.83902646 </i>
    <i name="e_0_energy">   -659.83991224 </i>
   </energy>
  </scstep>
  <scstep>
   <time name="dav">   26.09   26.31</time>
   <time name="total">   28.86   29.09</time>
   <energy>
    <i name="e_fr_energy">   -662.57825939 </i>
    <i name="e_wo_entrp">   -662.57609319 </i>
    <i name="e_0_energy">   -662.57717629 </i>
   </energy>
  </scstep>
  <scstep>
   <time name="dav">   28.50   28.74</time>
   <time name="total">   31.27   31.52</time>
   <energy>
    <i name="e_fr_energy">   -656.78148889 </i>
    <i name="e_wo_entrp">   -656.77973185 </i>
    <i name="e_0_energy">   -656.78061037 </i>
   </energy>
  </scstep>
  <scstep>
   <time name="dav">   22.11   22.29</time>
   <time name="total">   24.87   25.08</time>
   <energy>
    <i name="e_fr_energy">   -658.15643436 </i>
    <i name="e_wo_entrp">   -658.15393802 </i>
    <i name="e_0_energy">   -658.15518619 </i>
   </energy>
  </scstep>
  <scstep>
   <time name="dav">   21.22   21.40</time>
   <time name="total">   23.97   24.17</time>
   <energy>
    <i name="e_fr_energy">   -657.34871209 </i>
    <i name="e_wo_entrp">   -657.34620036 </i>
    <i name="e_0_energy">   -657.34745623 </i>
   </energy>
  </scstep>
  <scstep>
   <time name="dav">   21.65   21.85</time>
   <time name="total">   24.41   24.61</time>
   <energy>
    <i name="e_fr_energy">   -656.94423544 </i>
    <i name="e_wo_entrp">   -656.94190831 </i>
    <i name="e_0_energy">   -656.94307187 </i>
   </energy>
  </scstep>
  <scstep>
   <time name="dav">   20.75   20.93</time>
   <time name="total">   23.48   23.68</time>
   <energy>
    <i name="e_fr_energy">   -656.53575921 </i>
    <i name="e_wo_entrp">   -656.53465526 </i>
    <i name="e_0_energy">   -656.53520724 </i>
   </energy>
  </scstep>
  <scstep>
   <time name="dav">   22.73   22.93</time>
   <time name="total">   25.46   25.68</time>
   <energy>
    <i name="e_fr_energy">   -656.47452499 </i>
    <i name="e_wo_entrp">   -656.47366045 </i>
    <i name="e_0_energy">   -656.47409272 </i>
   </energy>
  </scstep>
  <scstep>
   <time name="dav">   22.24   22.43</time>
   <time name="total">   24.97   25.17</time>
   <energy>
    <i name="e_fr_energy">   -656.47129267 </i>
    <i name="e_wo_entrp">   -656.47042501 </i>
    <i name="e_0_energy">   -656.47085884 </i>
   </energy>
  </scstep>
  <scstep>
   <time name="dav">   22.32   22.51</time>
   <time name="total">   25.06   25.26</time>
   <energy>
    <i name="e_fr_energy">   -656.47147282 </i>
    <i name="e_wo_entrp">   -656.47058682 </i>
    <i name="e_0_energy">   -656.47102982 </i>
   </energy>
  </scstep>
  <scstep>
   <time name="dav">   22.53   22.74</time>
   <time name="total">   25.25   25.47</time>
   <energy>
    <i name="e_fr_energy">   -656.47160374 </i>
    <i name="e_wo_entrp">   -656.47071177 </i>
    <i name="e_0_energy">   -656.47115776 </i>
   </energy>
  </scstep>
  <scstep>
   <time name="dav">   21.41   21.61</time>
   <time name="total">   24.13   24.34</time>
   <energy>
    <i name="e_fr_energy">   -656.47148655 </i>
    <i name="e_wo_entrp">   -656.47059553 </i>
    <i name="e_0_energy">   -656.47104104 </i>
   </energy>
  </scstep>
  <scstep>
   <time name="dav">   21.36   21.55</time>
   <time name="total">   24.08   24.28</time>
   <energy>
    <i name="e_fr_energy">   -656.47145903 </i>
    <i name="e_wo_entrp">   -656.47056569 </i>
    <i name="e_0_energy">   -656.47101236 </i>
   </energy>
  </scstep>
  <scstep>
   <time name="dav">   21.98   22.18</time>
   <time name="total">   24.70   24.91</time>
   <energy>
    <i name="e_fr_energy">   -656.47146079 </i>
    <i name="e_wo_entrp">   -656.47056639 </i>
    <i name="e_0_energy">   -656.47101359 </i>
   </energy>
  </scstep>
  <scstep>
   <time name="dav">   21.82   22.00</time>
   <time name="total">   24.58   24.78</time>
   <energy>
    <i name="e_fr_energy">   -656.47145631 </i>
    <i name="e_wo_entrp">   -656.47056230 </i>
    <i name="e_0_energy">   -656.47100930 </i>
   </energy>
  </scstep>
  <scstep>
   <time name="dav">   21.99   22.17</time>
   <time name="total">   24.72   24.92</time>
   <energy>
    <i name="e_fr_energy">   -656.47145583 </i>
    <i name="e_wo_entrp">   -656.47056200 </i>
    <i name="e_0_energy">   -656.47100891 </i>
   </energy>
  </scstep>
  <scstep>
   <time name="dav">   15.80   15.94</time>
   <time name="total">   17.44   17.58</time>
   <energy>
    <i name="alphaZ">    817.79019152 </i>
    <i name="ewald"> -10407.34581591 </i>
    <i name="hartreedc">  -1066.92146481 </i>
    <i name="XCdc">   -700.26493768 </i>
    <i name="pawpsdc">  27977.28606656 </i>
    <i name="pawaedc"> -26614.05158452 </i>
    <i name="eentropy">     -0.00089419 </i>
    <i name="bandstr">   -742.57036335 </i>
    <i name="atom">  10079.60734648 </i>
    <i name="e_fr_energy">   -656.47145590 </i>
    <i name="e_wo_entrp">   -656.47056172 </i>
    <i name="e_0_energy">   -656.47100881 </i>
   </energy>
  </scstep>
  <structure>
   <crystal>
    <varray name="basis" >
     <v>      12.65122604       0.00000000       0.00000000 </v>
     <v>       2.53024530      12.39562035       0.00000000 </v>
     <v>       0.00000000       0.00000000      13.73516273 </v>
    </varray>
    <i name="volume">   2153.94540375 </i>
    <varray name="rec_basis" >
     <v>       0.07904372      -0.01613473       0.00000000 </v>
     <v>       0.00000000       0.08067366       0.00000000 </v>
     <v>       0.00000000       0.00000000       0.07280584 </v>
    </varray>
   </crystal>
   <varray name="positions" >
    <v>       0.22591019       0.37751091       0.58408308 </v>
    <v>       0.99259037       0.94813251       0.00000002 </v>
    <v>       0.95092356       0.65646577       0.08408309 </v>
    <v>       0.90925682       0.36479890       0.16816616 </v>
    <v>       0.86759007       0.07313222       0.25224918 </v>
    <v>       0.26757705       0.66917771       0.50000006 </v>
    <v>       0.35091019       0.00251102       0.58408308 </v>
    <v>       0.49259037       0.44813251       0.00000003 </v>
    <v>       0.45092362       0.15646577       0.08408309 </v>
    <v>       0.40925688       0.86479896       0.16816616 </v>
    <v>       0.36759013       0.57313228       0.25224918 </v>
    <v>       0.32592338       0.28146553       0.33633223 </v>
    <v>       0.01757705       0.91917777       0.50000006 </v>
    <v>       0.36759040       0.82313263       0.00000001 </v>
    <v>       0.32592362       0.53146583       0.08408309 </v>
    <v>       0.28425688       0.23979901       0.16816619 </v>
    <v>       0.24259017       0.94813240       0.25224918 </v>
    <v>       0.20092338       0.65646565       0.33633223 </v>
    <v>       0.39257693       0.29417765       0.50000006 </v>
    <v>       0.86759049       0.32313258       0.00000001 </v>
    <v>       0.82592368       0.03146578       0.08408309 </v>
    <v>       0.78425688       0.73979890       0.16816616 </v>
    <v>       0.74259013       0.44813234       0.25224918 </v>
    <v>       0.76757705       0.16917777       0.50000006 </v>
    <v>       0.89257693       0.79417765       0.50000006 </v>
    <v>       0.24259035       0.69813263       0.00000000 </v>
    <v>       0.20092359       0.40646580       0.08408308 </v>
    <v>       0.15925685       0.11479896       0.16816616 </v>
    <v>       0.60091019       0.75251091       0.58408308 </v>
    <v>       0.07592334       0.53146553       0.33633217 </v>
    <v>       0.53425670       0.73979867       0.42041531 </v>
    <v>       0.74259043       0.19813251       0.00000002 </v>
    <v>       0.70092362       0.90646571       0.08408309 </v>
    <v>       0.65925688       0.61479890       0.16816616 </v>
    <v>       0.61759025       0.32313234       0.25224918 </v>
    <v>       0.57592344       0.03146547       0.33633217 </v>
    <v>       0.10091007       0.25251091       0.58408308 </v>
    <v>       0.11759036       0.07313251       0.00000002 </v>
    <v>       0.07592360       0.78146577       0.08408309 </v>
    <v>       0.03425685       0.48979896       0.16816616 </v>
    <v>       0.99259007       0.19813222       0.25224918 </v>
    <v>       0.14257705       0.54417765       0.50000006 </v>
    <v>       0.76757705       0.16917777       0.50000006 </v>
    <v>       0.61759049       0.57313258       0.00000001 </v>
    <v>       0.57592362       0.28146583       0.08408308 </v>
    <v>       0.53425694       0.98979902       0.16816619 </v>
    <v>       0.49259019       0.69813228       0.25224924 </v>
    <v>       0.93424344       0.33584419       0.66816616 </v>
    <v>       0.93424308       0.08584392       0.92041534 </v>
    <v>       0.65925658       0.86479867       0.42041528 </v>
    <v>       0.90925658       0.61479878       0.42041531 </v>
    <v>       0.80924344       0.21084416       0.66816616 </v>
    <v>       0.51757669       0.16917741       0.75224924 </v>
    <v>       0.22590995       0.12751067       0.83633232 </v>
    <v>       0.43424308       0.58584392       0.92041534 </v>
    <v>       0.03425656       0.23979878       0.42041528 </v>
    <v>       0.11759009       0.82313240       0.25224915 </v>
    <v>       0.30924344       0.71084422       0.66816616 </v>
    <v>       0.01757669       0.66917741       0.75224924 </v>
    <v>       0.72590995       0.62751067       0.83633232 </v>
    <v>       0.80924320       0.46084398       0.92041534 </v>
    <v>       0.82592332       0.78146553       0.33633217 </v>
    <v>       0.97591031       0.62751091       0.58408308 </v>
    <v>       0.68424350       0.58584422       0.66816616 </v>
    <v>       0.39257681       0.54417747       0.75224924 </v>
    <v>       0.10091007       0.50251073       0.83633232 </v>
    <v>       0.30924308       0.96084392       0.92041528 </v>
    <v>       0.70092338       0.15646553       0.33633217 </v>
    <v>       0.47591022       0.12751102       0.58408308 </v>
    <v>       0.18424344       0.08584416       0.66816616 </v>
    <v>       0.89257681       0.04417753       0.75224924 </v>
    <v>       0.60090995       0.00251067       0.83633232 </v>
    <v>       0.68424320       0.33584389       0.92041534 </v>
    <v>       0.95092338       0.90646553       0.33633223 </v>
    <v>       0.85091025       0.50251091       0.58408308 </v>
    <v>       0.55924350       0.46084416       0.66816616 </v>
    <v>       0.26757681       0.41917741       0.75224918 </v>
    <v>       0.97590995       0.37751067       0.83633226 </v>
    <v>       0.18424308       0.83584404       0.92041534 </v>
    <v>       0.28425661       0.98979878       0.42041531 </v>
    <v>       0.28425661       0.98979878       0.42041531 </v>
    <v>       0.05924344       0.96084416       0.66816616 </v>
    <v>       0.76757669       0.91917753       0.75224924 </v>
    <v>       0.47590992       0.87751079       0.83633232 </v>
    <v>       0.05924308       0.21084392       0.92041534 </v>
    <v>       0.51757693       0.41917768       0.50000006 </v>
    <v>       0.78425658       0.48979867       0.42041528 </v>
    <v>       0.45092344       0.40646553       0.33633226 </v>
    <v>       0.64257669       0.29417741       0.75224918 </v>
    <v>       0.35090995       0.25251067       0.83633232 </v>
    <v>       0.55924320       0.71084404       0.92041534 </v>
    <v>       0.15925664       0.36479878       0.42041531 </v>
    <v>       0.72591019       0.87751091       0.58408308 </v>
    <v>       0.43424356       0.83584428       0.66816616 </v>
    <v>       0.14257669       0.79417753       0.75224924 </v>
    <v>       0.85090995       0.75251079       0.83633232 </v>
   </varray>
  </structure>
  <varray name="forces" >
   <v>       0.60749853      -0.30455416       1.59758402 </v>
   <v>       0.60300436      -5.73116074       2.96984421 </v>
   <v>      -0.49987180      -0.31862057      -0.94375499 </v>
   <v>       0.24303353       0.04677204       0.48891177 </v>
   <v>       0.07893581       0.10931076      -0.08417097 </v>
   <v>       0.60760924      -0.07748264       0.03418715 </v>
   <v>       0.75221687       0.54136257       2.28703649 </v>
   <v>       0.77236513      -5.79449894       2.99456146 </v>
   <v>      -0.49226616      -0.23548929      -0.89015487 </v>
   <v>       0.29591474       0.07931429       0.42254015 </v>
   <v>       0.22763591       0.13545370      -0.02600933 </v>
   <v>       0.04840274      -0.37847507      -0.39731738 </v>
   <v>       0.66026518      -0.31517189       0.09918813 </v>
   <v>       2.56028289      -4.85847107       4.82790076 </v>
   <v>      -0.66933860      -0.20434479       1.02406429 </v>
   <v>       0.20310165       0.00562956      -0.22719186 </v>
   <v>      -0.55929914      -0.14451466      -1.67295175 </v>
   <v>       0.22638383       0.71769214      -0.97476234 </v>
   <v>       0.60629856      -1.09693139       1.41120659 </v>
   <v>       2.58094377      -4.79255805       4.70286680 </v>
   <v>      -0.62459714      -0.16905600       1.12923711 </v>
   <v>       0.10613517       0.06017610      -0.39042829 </v>
   <v>       0.01088347      -0.09014711       0.01216627 </v>
   <v>      -0.00981157       0.17828850       0.18583650 </v>
   <v>       0.75116894       0.88872703       2.48312985 </v>
   <v>       0.62726442      -5.73693233       2.97410740 </v>
   <v>      -0.54516372      -0.26774671      -0.94642233 </v>
   <v>       0.09118163       0.08558995       0.38652914 </v>
   <v>      -0.02407252      -0.79113921       0.98349845 </v>
   <v>      -0.53854502       0.50509382      -1.65063918 </v>
   <v>      -0.29358981      -0.21513906      -0.11182193 </v>
   <v>       0.63409776      -5.73529410       2.94461714 </v>
   <v>      -0.48803994      -0.23753460      -0.77102139 </v>
   <v>       0.27202986       0.04600164       0.45092014 </v>
   <v>       0.10588018       0.16306420       0.20606281 </v>
   <v>      -0.60679723       0.34712112       0.59877739 </v>
   <v>      -0.14705342      -0.79967269       0.98416408 </v>
   <v>       2.60196304      -4.74610382       4.77224267 </v>
   <v>      -0.67371090      -0.16221627       1.01599007 </v>
   <v>       0.10095630       0.05528890      -0.42051874 </v>
   <v>       0.10196048      -0.16705913      -0.06062241 </v>
   <v>       0.81386580       0.91942155       2.58082720 </v>
   <v>      -0.00981157       0.17828850       0.18583650 </v>
   <v>       2.53057053      -4.80543636       4.72599802 </v>
   <v>      -0.74646053      -0.29963748       1.06031031 </v>
   <v>       0.07811762       0.25871237       0.05566378 </v>
   <v>      -0.09608866      -0.07815072       0.05809274 </v>
   <v>      -0.02214040      -0.08035451       0.01040977 </v>
   <v>      -2.60196304       4.74610382      -4.77224267 </v>
   <v>      -0.60629856       1.09693139      -1.41120659 </v>
   <v>      -0.81386580      -0.91942155      -2.58082720 </v>
   <v>       0.55929914       0.14451466       1.67295175 </v>
   <v>      -0.07811762      -0.25871237      -0.05566378 </v>
   <v>       0.62459714       0.16905600      -1.12923711 </v>
   <v>      -2.53057053       4.80543636      -4.72599802 </v>
   <v>      -0.66026518       0.31517189      -0.09918813 </v>
   <v>       0.02214040       0.08035451      -0.01040977 </v>
   <v>      -0.01088347       0.09014711      -0.01216627 </v>
   <v>      -0.10095630      -0.05528890       0.42051874 </v>
   <v>       0.66933860       0.20434479      -1.02406429 </v>
   <v>      -0.62726442       5.73693233      -2.97410740 </v>
   <v>      -0.60749853       0.30455416      -1.59758402 </v>
   <v>       0.53854502      -0.50509382       1.65063918 </v>
   <v>      -0.22763591      -0.13545370       0.02600933 </v>
   <v>      -0.27202986      -0.04600164      -0.45092014 </v>
   <v>       0.49987180       0.31862057       0.94375499 </v>
   <v>      -0.63409776       5.73529410      -2.94461714 </v>
   <v>      -0.75221687      -0.54136257      -2.28703649 </v>
   <v>       0.60679723      -0.34712112      -0.59877739 </v>
   <v>      -0.07893581      -0.10931076       0.08417097 </v>
   <v>      -0.09118163      -0.08558995      -0.38652914 </v>
   <v>       0.49226616       0.23548929       0.89015487 </v>
   <v>      -2.56028289       4.85847107      -4.82790076 </v>
   <v>       0.14705342       0.79967269      -0.98416408 </v>
   <v>      -0.22638383      -0.71769214       0.97476234 </v>
   <v>       0.09608866       0.07815072      -0.05809274 </v>
   <v>      -0.10613517      -0.06017610       0.39042829 </v>
   <v>       0.67371090       0.16221627      -1.01599007 </v>
   <v>      -2.58094377       4.79255805      -4.70286680 </v>
   <v>       0.00981157      -0.17828850      -0.18583650 </v>
   <v>       0.00981157      -0.17828850      -0.18583650 </v>
   <v>      -0.10196048       0.16705913       0.06062241 </v>
   <v>      -0.20310165      -0.00562956       0.22719186 </v>
   <v>       0.74646053       0.29963748      -1.06031031 </v>
   <v>      -0.60300436       5.73116074      -2.96984421 </v>
   <v>       0.29358981       0.21513906       0.11182193 </v>
   <v>      -0.60760924       0.07748264      -0.03418715 </v>
   <v>       0.02407252       0.79113921      -0.98349845 </v>
   <v>      -0.29591474      -0.07931429      -0.42254015 </v>
   <v>       0.48803994       0.23753460       0.77102139 </v>
   <v>      -0.77236513       5.79449894      -2.99456146 </v>
   <v>      -0.75116894      -0.88872703      -2.48312985 </v>
   <v>      -0.04840274       0.37847507       0.39731738 </v>
   <v>      -0.10588018      -0.16306420      -0.20606281 </v>
   <v>      -0.24303353      -0.04677204      -0.48891177 </v>
   <v>       0.54516372       0.26774671       0.94642233 </v>
  </varray>
  <varray name="stress" >
   <v>      86.31855271      -5.31082536      10.09916464 </v>
   <v>      -5.31082590     115.70668230     -36.61829716 </v>
   <v>      10.09915078     -36.61826292     130.71359574 </v>
  </varray>
  <energy>
   <i name="e_fr_energy">   -656.47145590 </i>
   <i name="e_wo_entrp">   -656.47056172 </i>
   <i name="e_0_energy">   -656.47100881 </i>
  </energy>
  <time name="totalsc">  568.24  573.42</time>
  <eigenvalues>
   <array>
    <dimension dim="1">band</dimension>
    <dimension dim="2">kpoint</dimension>
    <dimension dim="3">spin</dimension>
    <field>eigene</field>
    <field>occ</field>
    <set>
     <set comment="spin 1">
      <set comment="kpoint 1">
       <r>  -10.3267    1.0000 </r>
       <r>   -9.8572    1.0000 </r>
       <r>   -9.8518    1.0000 </r>
       <r>   -9.7925    1.0000 </r>
       <r>   -9.1898    1.0000 </r>
       <r>   -9.1090    1.0000 </r>
       <r>   -8.5906    1.0000 </r>
       <r>   -8.4889    1.0000 </r>
       <r>   -8.2524    1.0000 </r>
       <r>   -8.0580    1.0000 </r>
       <r>   -8.0561    1.0000 </r>
       <r>   -8.0211    1.0000 </r>
       <r>   -7.9886    1.0000 </r>
       <r>   -7.9178    1.0000 </r>
       <r>   -7.8374    1.0000 </r>
       <r>   -7.7420    1.0000 </r>
       <r>   -7.6870    1.0000 </r>
       <r>   -7.6136    1.0000 </r>
       <r>   -7.5160    1.0000 </r>
       <r>   -7.4907    1.0000 </r>
       <r>   -7.4054    1.0000 </r>
       <r>   -7.2394    1.0000 </r>
       <r>   -7.2212    1.0000 </r>
       <r>   -7.0617    1.0000 </r>
       <r>   -7.0607    1.0000 </r>
       <r>   -6.8458    1.0000 </r>
       <r>   -6.7374    1.0000 </r>
       <r>   -6.5603    1.0000 </r>
       <r>   -6.5367    1.0000 </r>
       <r>   -6.5080    1.0000 </r>
       <r>   -6.4359    1.0000 </r>
       <r>   -6.3512    1.0000 </r>
       <r>   -6.3089    1.0000 </r>
       <r>   -6.2771    1.0000 </r>
       <r>   -6.2284    1.0000 </r>
       <r>   -6.1162    1.0000 </r>
       <r>   -6.0876    1.0000 </r>
       <r>   -6.0504    1.0000 </r>
       <r>   -5.8650    1.0000 </r>
       <r>   -5.8433    1.0000 </r>
       <r>   -5.6495    1.0000 </r>
       <r>   -5.5909    1.0000 </r>
       <r>   -5.4966    1.0000 </r>
       <r>   -5.4094    1.0000 </r>
       <r>   -5.4089    1.0000 </r>
       <r>   -5.3742    1.0000 </r>
       <r>   -5.3477    1.0000 </r>
       <r>   -5.3051    1.0000 </r>
       <r>   -5.1406    1.0000 </r>
       <r>   -5.1268    1.0000 </r>
       <r>   -4.9344    1.0000 </r>
       <r>   -4.8462    1.0000 </r>
       <r>   -4.7312    1.0000 </r>
       <r>   -4.6524    1.0000 </r>
       <r>   -4.6153    1.0000 </r>
       <r>   -4.5925    1.0000 </r>
       <r>   -4.4906    1.0000 </r>
       <r>   -4.4148    1.0000 </r>
       <r>   -4.4036    1.0000 </r>
       <r>   -4.1814    1.0000 </r>
       <r>   -4.1458    1.0000 </r>
       <r>   -4.1179    1.0000 </r>
       <r>   -4.0407    1.0000 </r>
       <r>   -3.9243    1.0000 </r>
       <r>   -3.7489    1.0000 </r>
       <r>   -3.7372    1.0000 </r>
       <r>   -3.6345    1.0000 </r>
       <r>   -3.4223    1.0000 </r>
       <r>   -3.4109    1.0000 </r>
       <r>   -3.3774    1.0000 </r>
       <r>   -3.1657    1.0000 </r>
       <r>   -3.1544    1.0000 </r>
       <r>   -3.0671    1.0000 </r>
       <r>   -2.8220    1.0000 </r>
       <r>   -2.8208    1.0000 </r>
       <r>   -2.7084    1.0000 </r>
       <r>   -2.6154    1.0000 </r>
       <r>   -2.6115    1.0000 </r>
       <r>   -2.5463    1.0000 </r>
       <r>   -2.5056    1.0000 </r>
       <r>   -2.4604    1.0000 </r>
       <r>   -2.3086    1.0000 </r>
       <r>   -2.2654    1.0000 </r>
       <r>   -2.2160    1.0000 </r>
       <r>   -2.1545    1.0000 </r>
       <r>   -2.0956    1.0000 </r>
       <r>   -2.0877    1.0000 </r>
       <r>   -1.9046    1.0000 </r>
       <r>   -1.8002    1.0000 </r>
       <r>   -1.7904    1.0000 </r>
       <r>   -1.7012    1.0000 </r>
       <r>   -1.6287    1.0000 </r>
       <r>   -1.4254    1.0000 </r>
       <r>   -1.3373    1.0000 </r>
       <r>   -1.3020    1.0000 </r>
       <r>   -1.2242    1.0000 </r>
       <r>   -1.2117    1.0000 </r>
       <r>   -1.0224    1.0000 </r>
       <r>   -0.9936    1.0000 </r>
       <r>   -0.9524    1.0000 </r>
       <r>   -0.8498    1.0000 </r>
       <r>   -0.8112    1.0000 </r>
       <r>   -0.5900    1.0000 </r>
       <r>   -0.5662    1.0000 </r>
       <r>   -0.5411    1.0000 </r>
       <r>   -0.5176    1.0000 </r>
       <r>   -0.4683    1.0000 </r>
       <r>   -0.3990    1.0000 </r>
       <r>   -0.3165    1.0000 </r>
       <r>   -0.2729    1.0000 </r>
       <r>   -0.2021    1.0000 </r>
       <r>   -0.1089    1.0000 </r>
       <r>   -0.1035    1.0000 </r>
       <r>   -0.0818    1.0000 </r>
       <r>   -0.0213    1.0000 </r>
       <r>    0.0156    1.0000 </r>
       <r>    0.0565    1.0000 </r>
       <r>    0.1488    1.0000 </r>
       <r>    0.2040    1.0000 </r>
       <r>    0.2154    1.0000 </r>
       <r>    0.2782    1.0000 </r>
       <r>    0.2850    1.0000 </r>
       <r>    0.3730    1.0000 </r>
       <r>    0.3807    1.0000 </r>
       <r>    0.3879    1.0000 </r>
       <r>    0.4151    1.0000 </r>
       <r>    0.4196    1.0000 </r>
       <r>    0.4349    1.0000 </r>
       <r>    0.6151    1.0000 </r>
       <r>    0.6157    1.0000 </r>
       <r>    0.6398    1.0000 </r>
       <r>    0.6627    1.0000 </r>
       <r>    0.7578    1.0000 </r>
       <r>    0.7746    1.0000 </r>
       <r>    0.8393    1.0000 </r>
       <r>    0.8445    1.0000 </r>
       <r>    0.8669    1.0000 </r>
       <r>    0.8823    1.0000 </r>
       <r>    0.9732    1.0000 </r>
       <r>    1.0505    1.0000 </r>
       <r>    1.0535    1.0000 </r>
       <r>    1.1337    1.0000 </r>
       <r>    1.1458    1.0000 </r>
       <r>    1.2540    1.0000 </r>
       <r>    1.2822    1.0000 </r>
       <r>    1.3082    1.0000 </r>
       <r>    1.3490    1.0000 </r>
       <r>    1.3956    1.0000 </r>
       <r>    1.4065    1.0000 </r>
       <r>    1.4706    1.0000 </r>
       <r>    1.4879    1.0000 </r>
       <r>    1.5066    1.0000 </r>
       <r>    1.5597    1.0000 </r>
       <r>    1.5925    1.0000 </r>
       <r>    1.6514    1.0000 </r>
       <r>    1.6521    1.0000 </r>
       <r>    1.7135    1.0000 </r>
       <r>    1.8508    1.0000 </r>
       <r>    1.9539    1.0000 </r>
       <r>    1.9682    1.0000 </r>
       <r>    1.9895    1.0000 </r>
       <r>    2.0728    1.0000 </r>
       <r>    2.0731    1.0000 </r>
       <r>    2.0886    1.0000 </r>
       <r>    2.1639    1.0000 </r>
       <r>    2.1642    1.0000 </r>
       <r>    2.2917    1.0000 </r>
       <r>    2.3742    1.0000 </r>
       <r>    2.4087    1.0000 </r>
       <r>    2.4487    1.0000 </r>
       <r>    2.5568    1.0000 </r>
       <r>    2.5867    1.0000 </r>
       <r>    2.5971    1.0000 </r>
       <r>    2.6970    1.0000 </r>
       <r>    2.7976    1.0000 </r>
       <r>    2.8496    1.0000 </r>
       <r>    2.8846    1.0000 </r>
       <r>    2.9020    1.0000 </r>
       <r>    2.9521    1.0000 </r>
       <r>    2.9717    1.0000 </r>
       <r>    3.0003    1.0000 </r>
       <r>    3.0547    1.0000 </r>
       <r>    3.1238    1.0000 </r>
       <r>    3.1624    1.0000 </r>
       <r>    3.2133    1.0000 </r>
       <r>    3.3108    1.0000 </r>
       <r>    3.3996    1.0000 </r>
       <r>    3.4518    1.0000 </r>
       <r>    3.4968    1.0000 </r>
       <r>    3.5489    1.0000 </r>
       <r>    3.6259    1.0000 </r>
       <r>    3.7260    0.6325 </r>
       <r>    3.7565    0.0000 </r>
       <r>    3.7929    0.0000 </r>
       <r>    3.8100    0.0000 </r>
       <r>    3.9398    0.0000 </r>
       <r>    3.9585    0.0000 </r>
       <r>    4.1600    0.0000 </r>
       <r>    4.1610    0.0000 </r>
       <r>    4.2250    0.0000 </r>
       <r>    4.2392    0.0000 </r>
       <r>    4.2820    0.0000 </r>
       <r>    4.3067    0.0000 </r>
       <r>    4.3573    0.0000 </r>
       <r>    4.3894    0.0000 </r>
       <r>    4.3997    0.0000 </r>
       <r>    4.5455    0.0000 </r>
       <r>    4.6279    0.0000 </r>
       <r>    4.6648    0.0000 </r>
       <r>    4.6928    0.0000 </r>
       <r>    4.7348    0.0000 </r>
       <r>    4.8027    0.0000 </r>
       <r>    4.8273    0.0000 </r>
       <r>    4.8287    0.0000 </r>
       <r>    4.9065    0.0000 </r>
       <r>    4.9976    0.0000 </r>
       <r>    5.0223    0.0000 </r>
       <r>    5.1750    0.0000 </r>
       <r>    5.1980    0.0000 </r>
       <r>    5.2259    0.0000 </r>
       <r>    5.2427    0.0000 </r>
       <r>    5.3174    0.0000 </r>
       <r>    5.3674    0.0000 </r>
       <r>    5.3674    0.0000 </r>
       <r>    5.3763    0.0000 </r>
       <r>    5.4108    0.0000 </r>
       <r>    5.5299    0.0000 </r>
       <r>    5.5414    0.0000 </r>
       <r>    5.5775    0.0000 </r>
       <r>    5.5871    0.0000 </r>
       <r>    5.7094    0.0000 </r>
       <r>    5.7851    0.0000 </r>
      </set>
      <set comment="kpoint 2">
       <r>  -10.2699    1.0000 </r>
       <r>  -10.1060    1.0000 </r>
       <r>   -9.7878    1.0000 </r>
       <r>   -9.5469    1.0000 </r>
       <r>   -9.2512    1.0000 </r>
       <r>   -9.2078    1.0000 </r>
       <r>   -8.5273    1.0000 </r>
       <r>   -8.3976    1.0000 </r>
       <r>   -8.3329    1.0000 </r>
       <r>   -8.2232    1.0000 </r>
       <r>   -8.1634    1.0000 </r>
       <r>   -8.1001    1.0000 </r>
       <r>   -8.0386    1.0000 </r>
       <r>   -7.8395    1.0000 </r>
       <r>   -7.7085    1.0000 </r>
       <r>   -7.6897    1.0000 </r>
       <r>   -7.5710    1.0000 </r>
       <r>   -7.5643    1.0000 </r>
       <r>   -7.5083    1.0000 </r>
       <r>   -7.4210    1.0000 </r>
       <r>   -7.3039    1.0000 </r>
       <r>   -7.1564    1.0000 </r>
       <r>   -7.1308    1.0000 </r>
       <r>   -7.0454    1.0000 </r>
       <r>   -7.0049    1.0000 </r>
       <r>   -6.9144    1.0000 </r>
       <r>   -6.7764    1.0000 </r>
       <r>   -6.7233    1.0000 </r>
       <r>   -6.7131    1.0000 </r>
       <r>   -6.6346    1.0000 </r>
       <r>   -6.4278    1.0000 </r>
       <r>   -6.3629    1.0000 </r>
       <r>   -6.3434    1.0000 </r>
       <r>   -6.3131    1.0000 </r>
       <r>   -6.2304    1.0000 </r>
       <r>   -6.1835    1.0000 </r>
       <r>   -6.0852    1.0000 </r>
       <r>   -6.0174    1.0000 </r>
       <r>   -5.9113    1.0000 </r>
       <r>   -5.8121    1.0000 </r>
       <r>   -5.7793    1.0000 </r>
       <r>   -5.6223    1.0000 </r>
       <r>   -5.5580    1.0000 </r>
       <r>   -5.4511    1.0000 </r>
       <r>   -5.4002    1.0000 </r>
       <r>   -5.2929    1.0000 </r>
       <r>   -5.2512    1.0000 </r>
       <r>   -5.1562    1.0000 </r>
       <r>   -5.0260    1.0000 </r>
       <r>   -4.9893    1.0000 </r>
       <r>   -4.9568    1.0000 </r>
       <r>   -4.8158    1.0000 </r>
       <r>   -4.7063    1.0000 </r>
       <r>   -4.6661    1.0000 </r>
       <r>   -4.6180    1.0000 </r>
       <r>   -4.5595    1.0000 </r>
       <r>   -4.5143    1.0000 </r>
       <r>   -4.5117    1.0000 </r>
       <r>   -4.4286    1.0000 </r>
       <r>   -4.2975    1.0000 </r>
       <r>   -4.1116    1.0000 </r>
       <r>   -4.0560    1.0000 </r>
       <r>   -3.9233    1.0000 </r>
       <r>   -3.8967    1.0000 </r>
       <r>   -3.7381    1.0000 </r>
       <r>   -3.5987    1.0000 </r>
       <r>   -3.5910    1.0000 </r>
       <r>   -3.4597    1.0000 </r>
       <r>   -3.3832    1.0000 </r>
       <r>   -3.3051    1.0000 </r>
       <r>   -3.2415    1.0000 </r>
       <r>   -3.1885    1.0000 </r>
       <r>   -3.0609    1.0000 </r>
       <r>   -2.9854    1.0000 </r>
       <r>   -2.8946    1.0000 </r>
       <r>   -2.7787    1.0000 </r>
       <r>   -2.7358    1.0000 </r>
       <r>   -2.6412    1.0000 </r>
       <r>   -2.5668    1.0000 </r>
       <r>   -2.4440    1.0000 </r>
       <r>   -2.3860    1.0000 </r>
       <r>   -2.3499    1.0000 </r>
       <r>   -2.3375    1.0000 </r>
       <r>   -2.2187    1.0000 </r>
       <r>   -2.2065    1.0000 </r>
       <r>   -2.1287    1.0000 </r>
       <r>   -2.0736    1.0000 </r>
       <r>   -1.9342    1.0000 </r>
       <r>   -1.8461    1.0000 </r>
       <r>   -1.7633    1.0000 </r>
       <r>   -1.6732    1.0000 </r>
       <r>   -1.6136    1.0000 </r>
       <r>   -1.4659    1.0000 </r>
       <r>   -1.3861    1.0000 </r>
       <r>   -1.1327    1.0000 </r>
       <r>   -1.0397    1.0000 </r>
       <r>   -1.0018    1.0000 </r>
       <r>   -0.9673    1.0000 </r>
       <r>   -0.9395    1.0000 </r>
       <r>   -0.8250    1.0000 </r>
       <r>   -0.7812    1.0000 </r>
       <r>   -0.7604    1.0000 </r>
       <r>   -0.6742    1.0000 </r>
       <r>   -0.6204    1.0000 </r>
       <r>   -0.5687    1.0000 </r>
       <r>   -0.5464    1.0000 </r>
       <r>   -0.4255    1.0000 </r>
       <r>   -0.3919    1.0000 </r>
       <r>   -0.3376    1.0000 </r>
       <r>   -0.3230    1.0000 </r>
       <r>   -0.2814    1.0000 </r>
       <r>   -0.2683    1.0000 </r>
       <r>   -0.2036    1.0000 </r>
       <r>   -0.1044    1.0000 </r>
       <r>   -0.0491    1.0000 </r>
       <r>    0.0028    1.0000 </r>
       <r>    0.0455    1.0000 </r>
       <r>    0.1114    1.0000 </r>
       <r>    0.1731    1.0000 </r>
       <r>    0.2274    1.0000 </r>
       <r>    0.2473    1.0000 </r>
       <r>    0.3024    1.0000 </r>
       <r>    0.3202    1.0000 </r>
       <r>    0.3509    1.0000 </r>
       <r>    0.4103    1.0000 </r>
       <r>    0.4808    1.0000 </r>
       <r>    0.5154    1.0000 </r>
       <r>    0.5605    1.0000 </r>
       <r>    0.5869    1.0000 </r>
       <r>    0.6228    1.0000 </r>
       <r>    0.6828    1.0000 </r>
       <r>    0.7162    1.0000 </r>
       <r>    0.7478    1.0000 </r>
       <r>    0.7641    1.0000 </r>
       <r>    0.7882    1.0000 </r>
       <r>    0.8675    1.0000 </r>
       <r>    0.9042    1.0000 </r>
       <r>    0.9116    1.0000 </r>
       <r>    1.0039    1.0000 </r>
       <r>    1.0329    1.0000 </r>
       <r>    1.0461    1.0000 </r>
       <r>    1.1057    1.0000 </r>
       <r>    1.1281    1.0000 </r>
       <r>    1.1427    1.0000 </r>
       <r>    1.1868    1.0000 </r>
       <r>    1.2315    1.0000 </r>
       <r>    1.2403    1.0000 </r>
       <r>    1.2980    1.0000 </r>
       <r>    1.3491    1.0000 </r>
       <r>    1.3914    1.0000 </r>
       <r>    1.4651    1.0000 </r>
       <r>    1.4881    1.0000 </r>
       <r>    1.5530    1.0000 </r>
       <r>    1.6019    1.0000 </r>
       <r>    1.6382    1.0000 </r>
       <r>    1.6663    1.0000 </r>
       <r>    1.7461    1.0000 </r>
       <r>    1.7901    1.0000 </r>
       <r>    1.8229    1.0000 </r>
       <r>    1.8912    1.0000 </r>
       <r>    1.9442    1.0000 </r>
       <r>    1.9735    1.0000 </r>
       <r>    2.0967    1.0000 </r>
       <r>    2.1536    1.0000 </r>
       <r>    2.1700    1.0000 </r>
       <r>    2.2485    1.0000 </r>
       <r>    2.2958    1.0000 </r>
       <r>    2.3551    1.0000 </r>
       <r>    2.3933    1.0000 </r>
       <r>    2.4607    1.0000 </r>
       <r>    2.5597    1.0000 </r>
       <r>    2.6206    1.0000 </r>
       <r>    2.6780    1.0000 </r>
       <r>    2.7794    1.0000 </r>
       <r>    2.8016    1.0000 </r>
       <r>    2.8551    1.0000 </r>
       <r>    2.8843    1.0000 </r>
       <r>    2.9627    1.0000 </r>
       <r>    2.9826    1.0000 </r>
       <r>    3.0687    1.0000 </r>
       <r>    3.0926    1.0000 </r>
       <r>    3.2176    1.0000 </r>
       <r>    3.2490    1.0000 </r>
       <r>    3.3670    1.0000 </r>
       <r>    3.3761    1.0000 </r>
       <r>    3.4182    1.0000 </r>
       <r>    3.4311    1.0000 </r>
       <r>    3.4717    1.0000 </r>
       <r>    3.5746    1.0000 </r>
       <r>    3.6226    1.0000 </r>
       <r>    3.6530    1.0000 </r>
       <r>    3.6895    1.0000 </r>
       <r>    3.7338    0.2238 </r>
       <r>    3.8020    0.0000 </r>
       <r>    3.8159    0.0000 </r>
       <r>    3.9089    0.0000 </r>
       <r>    3.9678    0.0000 </r>
       <r>    4.0449    0.0000 </r>
       <r>    4.0795    0.0000 </r>
       <r>    4.1665    0.0000 </r>
       <r>    4.2203    0.0000 </r>
       <r>    4.2705    0.0000 </r>
       <r>    4.3188    0.0000 </r>
       <r>    4.3880    0.0000 </r>
       <r>    4.4252    0.0000 </r>
       <r>    4.4514    0.0000 </r>
       <r>    4.5248    0.0000 </r>
       <r>    4.5506    0.0000 </r>
       <r>    4.5881    0.0000 </r>
       <r>    4.6650    0.0000 </r>
       <r>    4.6717    0.0000 </r>
       <r>    4.7486    0.0000 </r>
       <r>    4.8613    0.0000 </r>
       <r>    4.8712    0.0000 </r>
       <r>    4.9519    0.0000 </r>
       <r>    4.9902    0.0000 </r>
       <r>    4.9998    0.0000 </r>
       <r>    5.0447    0.0000 </r>
       <r>    5.1729    0.0000 </r>
       <r>    5.1878    0.0000 </r>
       <r>    5.2338    0.0000 </r>
       <r>    5.2626    0.0000 </r>
       <r>    5.3080    0.0000 </r>
       <r>    5.3676    0.0000 </r>
       <r>    5.4783    0.0000 </r>
       <r>    5.4938    0.0000 </r>
       <r>    5.6007    0.0000 </r>
       <r>    5.6246    0.0000 </r>
       <r>    5.6757    0.0000 </r>
       <r>    5.6964    0.0000 </r>
       <r>    5.7495    0.0000 </r>
       <r>    5.7808    0.0000 </r>
      </set>
      <set comment="kpoint 3">
       <r>  -10.2702    1.0000 </r>
       <r>  -10.1067    1.0000 </r>
       <r>   -9.7877    1.0000 </r>
       <r>   -9.5453    1.0000 </r>
       <r>   -9.2492    1.0000 </r>
       <r>   -9.2090    1.0000 </r>
       <r>   -8.5249    1.0000 </r>
       <r>   -8.3949    1.0000 </r>
       <r>   -8.3250    1.0000 </r>
       <r>   -8.2315    1.0000 </r>
       <r>   -8.1866    1.0000 </r>
       <r>   -8.0444    1.0000 </r>
       <r>   -8.0219    1.0000 </r>
       <r>   -7.8667    1.0000 </r>
       <r>   -7.7739    1.0000 </r>
       <r>   -7.6771    1.0000 </r>
       <r>   -7.6534    1.0000 </r>
       <r>   -7.5051    1.0000 </r>
       <r>   -7.4972    1.0000 </r>
       <r>   -7.3684    1.0000 </r>
       <r>   -7.3235    1.0000 </r>
       <r>   -7.2436    1.0000 </r>
       <r>   -7.1196    1.0000 </r>
       <r>   -7.0882    1.0000 </r>
       <r>   -6.9968    1.0000 </r>
       <r>   -6.8648    1.0000 </r>
       <r>   -6.8113    1.0000 </r>
       <r>   -6.7546    1.0000 </r>
       <r>   -6.6176    1.0000 </r>
       <r>   -6.6000    1.0000 </r>
       <r>   -6.4237    1.0000 </r>
       <r>   -6.3844    1.0000 </r>
       <r>   -6.3024    1.0000 </r>
       <r>   -6.2718    1.0000 </r>
       <r>   -6.1577    1.0000 </r>
       <r>   -6.1115    1.0000 </r>
       <r>   -6.0504    1.0000 </r>
       <r>   -5.9592    1.0000 </r>
       <r>   -5.9013    1.0000 </r>
       <r>   -5.8666    1.0000 </r>
       <r>   -5.7497    1.0000 </r>
       <r>   -5.6651    1.0000 </r>
       <r>   -5.6191    1.0000 </r>
       <r>   -5.5084    1.0000 </r>
       <r>   -5.3708    1.0000 </r>
       <r>   -5.3392    1.0000 </r>
       <r>   -5.2642    1.0000 </r>
       <r>   -5.2231    1.0000 </r>
       <r>   -5.2143    1.0000 </r>
       <r>   -5.1205    1.0000 </r>
       <r>   -5.0253    1.0000 </r>
       <r>   -4.8868    1.0000 </r>
       <r>   -4.7854    1.0000 </r>
       <r>   -4.7113    1.0000 </r>
       <r>   -4.5871    1.0000 </r>
       <r>   -4.4941    1.0000 </r>
       <r>   -4.4552    1.0000 </r>
       <r>   -4.3886    1.0000 </r>
       <r>   -4.3033    1.0000 </r>
       <r>   -4.2108    1.0000 </r>
       <r>   -4.1333    1.0000 </r>
       <r>   -4.0013    1.0000 </r>
       <r>   -3.8416    1.0000 </r>
       <r>   -3.8257    1.0000 </r>
       <r>   -3.7100    1.0000 </r>
       <r>   -3.6609    1.0000 </r>
       <r>   -3.5471    1.0000 </r>
       <r>   -3.4313    1.0000 </r>
       <r>   -3.3689    1.0000 </r>
       <r>   -3.2749    1.0000 </r>
       <r>   -3.2149    1.0000 </r>
       <r>   -3.1344    1.0000 </r>
       <r>   -3.0307    1.0000 </r>
       <r>   -2.9756    1.0000 </r>
       <r>   -2.9371    1.0000 </r>
       <r>   -2.7933    1.0000 </r>
       <r>   -2.6804    1.0000 </r>
       <r>   -2.6378    1.0000 </r>
       <r>   -2.5938    1.0000 </r>
       <r>   -2.5120    1.0000 </r>
       <r>   -2.4760    1.0000 </r>
       <r>   -2.3742    1.0000 </r>
       <r>   -2.3645    1.0000 </r>
       <r>   -2.2755    1.0000 </r>
       <r>   -2.2204    1.0000 </r>
       <r>   -2.1747    1.0000 </r>
       <r>   -2.1082    1.0000 </r>
       <r>   -2.0141    1.0000 </r>
       <r>   -1.9487    1.0000 </r>
       <r>   -1.7267    1.0000 </r>
       <r>   -1.6711    1.0000 </r>
       <r>   -1.4811    1.0000 </r>
       <r>   -1.4464    1.0000 </r>
       <r>   -1.4077    1.0000 </r>
       <r>   -1.1412    1.0000 </r>
       <r>   -1.0985    1.0000 </r>
       <r>   -1.0374    1.0000 </r>
       <r>   -1.0267    1.0000 </r>
       <r>   -0.9824    1.0000 </r>
       <r>   -0.8078    1.0000 </r>
       <r>   -0.7305    1.0000 </r>
       <r>   -0.6696    1.0000 </r>
       <r>   -0.6512    1.0000 </r>
       <r>   -0.6046    1.0000 </r>
       <r>   -0.5774    1.0000 </r>
       <r>   -0.5046    1.0000 </r>
[...]
       <r>    -9.2993     0.0000     8.0000 </r>
       <r>    -9.2401     5.2778     8.3123 </r>
       <r>    -9.1809    49.5761    11.2458 </r>
       <r>    -9.1218     1.4697    11.3334 </r>
       <r>    -9.0626    11.2657    12.0000 </r>
       <r>    -9.0034     0.0000    12.0000 </r>
       <r>    -8.9442     0.0000    12.0000 </r>
       <r>    -8.8851     0.0000    12.0000 </r>
       <r>    -8.8259     0.0000    12.0000 </r>
       <r>    -8.7667     0.0000    12.0000 </r>
       <r>    -8.7076     0.0000    12.0000 </r>
       <r>    -8.6484     0.0007    12.0000 </r>
       <r>    -8.5892     5.9223    12.3505 </r>
       <r>    -8.5300     9.4928    12.9122 </r>
       <r>    -8.4709    21.5736    14.1887 </r>
       <r>    -8.4117     6.2421    14.5581 </r>
       <r>    -8.3525    22.9825    15.9180 </r>
       <r>    -8.2934    30.1768    17.7036 </r>
       <r>    -8.2342    12.4028    18.4379 </r>
       <r>    -8.1750    24.2321    19.8718 </r>
       <r>    -8.1158    27.4087    21.4937 </r>
       <r>    -8.0567    21.2269    22.7499 </r>
       <r>    -7.9975    37.9849    24.9975 </r>
       <r>    -7.9383    10.7401    25.6330 </r>
       <r>    -7.8792    13.6490    26.4406 </r>
       <r>    -7.8200    26.0657    27.9830 </r>
       <r>    -7.7608    16.5734    28.9637 </r>
       <r>    -7.7016    27.3304    30.5809 </r>
       <r>    -7.6425    36.5155    32.7416 </r>
       <r>    -7.5833    15.3957    33.6527 </r>
       <r>    -7.5241    32.6880    35.5871 </r>
       <r>    -7.4650    36.8399    37.7673 </r>
       <r>    -7.4058     9.3308    38.3197 </r>
       <r>    -7.3466    12.6464    39.0681 </r>
       <r>    -7.2874    24.1749    40.4986 </r>
       <r>    -7.2283    27.3158    42.1151 </r>
       <r>    -7.1691    16.1416    43.0703 </r>
       <r>    -7.1099    34.2271    45.0956 </r>
       <r>    -7.0507    23.3531    46.4775 </r>
       <r>    -6.9916    26.6889    48.0567 </r>
       <r>    -6.9324    24.5813    49.5112 </r>
       <r>    -6.8732    21.8399    50.8038 </r>
       <r>    -6.8141    29.5397    52.5517 </r>
       <r>    -6.7549    24.0917    53.9773 </r>
       <r>    -6.6957    39.8705    56.3367 </r>
       <r>    -6.6365    28.1095    58.0000 </r>
       <r>    -6.5774    20.9122    59.2374 </r>
       <r>    -6.5182    15.0301    60.1267 </r>
       <r>    -6.4590    27.4439    61.7507 </r>
       <r>    -6.3999    25.6269    63.2670 </r>
       <r>    -6.3407    33.6548    65.2585 </r>
       <r>    -6.2815    42.7949    67.7909 </r>
       <r>    -6.2223    23.0566    69.1556 </r>
       <r>    -6.1632    32.9803    71.1072 </r>
       <r>    -6.1040    30.0842    72.8873 </r>
       <r>    -6.0448    29.3334    74.6231 </r>
       <r>    -5.9857    20.7086    75.8485 </r>
       <r>    -5.9265     8.1919    76.3334 </r>
       <r>    -5.8673    25.4868    77.8416 </r>
       <r>    -5.8081    23.2208    79.2157 </r>
       <r>    -5.7490    23.2875    80.5937 </r>
       <r>    -5.6898    15.0432    81.4839 </r>
       <r>    -5.6306    24.9520    82.9603 </r>
       <r>    -5.5715    29.8127    84.7244 </r>
       <r>    -5.5123    20.1252    85.9153 </r>
       <r>    -5.4531    27.4772    87.5412 </r>
       <r>    -5.3939    17.7178    88.5896 </r>
       <r>    -5.3348    30.5865    90.3995 </r>
       <r>    -5.2756    30.7119    92.2168 </r>
       <r>    -5.2164    25.2468    93.7107 </r>
       <r>    -5.1573    25.5419    95.2222 </r>
       <r>    -5.0981    35.1403    97.3016 </r>
       <r>    -5.0389    18.0878    98.3719 </r>
       <r>    -4.9797    25.9345    99.9066 </r>
       <r>    -4.9206    20.1198   101.0975 </r>
       <r>    -4.8614    23.8600   102.5093 </r>
       <r>    -4.8022    31.0267   104.3455 </r>
       <r>    -4.7431    24.3494   105.7866 </r>
       <r>    -4.6839    24.2226   107.2200 </r>
       <r>    -4.6247    31.1971   109.0660 </r>
       <r>    -4.5655    22.5002   110.3973 </r>
       <r>    -4.5064    31.7455   112.2758 </r>
       <r>    -4.4472    25.1371   113.7632 </r>
       <r>    -4.3880    23.4531   115.1511 </r>
       <r>    -4.3289    11.2124   115.8146 </r>
       <r>    -4.2697    33.0223   117.7685 </r>
       <r>    -4.2105    14.5044   118.6269 </r>
       <r>    -4.1513    17.4588   119.6600 </r>
       <r>    -4.0922    21.1065   120.9089 </r>
       <r>    -4.0330    17.4394   121.9409 </r>
       <r>    -3.9738    23.2213   123.3149 </r>
       <r>    -3.9146    21.1427   124.5660 </r>
       <r>    -3.8555    17.8887   125.6245 </r>
       <r>    -3.7963    20.5353   126.8398 </r>
       <r>    -3.7371    12.0593   127.5533 </r>
       <r>    -3.6780    28.1199   129.2172 </r>
       <r>    -3.6188    18.5981   130.3180 </r>
       <r>    -3.5596    31.4500   132.1791 </r>
       <r>    -3.5004    15.1878   133.0780 </r>
       <r>    -3.4413    23.8998   134.4922 </r>
       <r>    -3.3821    31.2307   136.3402 </r>
       <r>    -3.3229    26.3448   137.8993 </r>
       <r>    -3.2638    24.1159   139.3263 </r>
       <r>    -3.2046    32.9073   141.2736 </r>
       <r>    -3.1454    21.2622   142.5317 </r>
       <r>    -3.0862    22.6273   143.8707 </r>
       <r>    -3.0271    24.7978   145.3380 </r>
       <r>    -2.9679    27.4185   146.9606 </r>
       <r>    -2.9087    29.6562   148.7154 </r>
       <r>    -2.8496    22.4470   150.0440 </r>
       <r>    -2.7904    22.2716   151.3619 </r>
       <r>    -2.7312    29.0424   153.0807 </r>
       <r>    -2.6720    37.1800   155.2807 </r>
       <r>    -2.6129    27.1343   156.8863 </r>
       <r>    -2.5537    36.1776   159.0270 </r>
       <r>    -2.4945    28.7225   160.7265 </r>
       <r>    -2.4354    29.0406   162.4450 </r>
       <r>    -2.3762    28.3493   164.1225 </r>
       <r>    -2.3170    34.5849   166.1689 </r>
       <r>    -2.2578    22.9298   167.5259 </r>
       <r>    -2.1987    38.2758   169.7908 </r>
       <r>    -2.1395    33.4695   171.7713 </r>
       <r>    -2.0803    28.6879   173.4690 </r>
       <r>    -2.0212    27.5594   175.0997 </r>
       <r>    -1.9620    17.0980   176.1115 </r>
       <r>    -1.9028    17.5707   177.1513 </r>
       <r>    -1.8436    26.0684   178.6942 </r>
       <r>    -1.7845    17.5586   179.7332 </r>
       <r>    -1.7253    11.1349   180.3921 </r>
       <r>    -1.6661    19.7076   181.5582 </r>
       <r>    -1.6070    20.1689   182.7518 </r>
       <r>    -1.5478     9.8247   183.3333 </r>
       <r>    -1.4886     3.8314   183.5601 </r>
       <r>    -1.4294    21.9407   184.8583 </r>
       <r>    -1.3703    21.3533   186.1218 </r>
       <r>    -1.3111    15.5044   187.0393 </r>
       <r>    -1.2519    23.3658   188.4219 </r>
       <r>    -1.1928    11.3284   189.0923 </r>
       <r>    -1.1336     6.2177   189.4603 </r>
       <r>    -1.0744    26.0781   191.0034 </r>
       <r>    -1.0152    23.2164   192.3772 </r>
       <r>    -0.9561    33.4524   194.3567 </r>
       <r>    -0.8969    33.1478   196.3182 </r>
       <r>    -0.8377    20.0093   197.5024 </r>
       <r>    -0.7786    41.4031   199.9523 </r>
       <r>    -0.7194    37.9373   202.1974 </r>
       <r>    -0.6602    28.9064   203.9078 </r>
       <r>    -0.6010    45.6974   206.6118 </r>
       <r>    -0.5419    51.9293   209.6846 </r>
       <r>    -0.4827    33.9603   211.6944 </r>
       <r>    -0.4235    28.0463   213.3540 </r>
       <r>    -0.3643    26.5421   214.9250 </r>
       <r>    -0.3052    40.5127   217.3223 </r>
       <r>    -0.2460    42.2979   219.8253 </r>
       <r>    -0.1868    38.2807   222.0905 </r>
       <r>    -0.1277    41.2727   224.5328 </r>
       <r>    -0.0685    46.7107   227.2968 </r>
       <r>    -0.0093    38.0366   229.5479 </r>
       <r>     0.0499    49.3251   232.4666 </r>
       <r>     0.1090    50.4951   235.4546 </r>
       <r>     0.1682    27.6445   237.0904 </r>
       <r>     0.2274    43.2255   239.6482 </r>
       <r>     0.2865    42.3417   242.1536 </r>
       <r>     0.3457    54.0735   245.3533 </r>
       <r>     0.4049    51.1521   248.3802 </r>
       <r>     0.4641    47.2943   251.1791 </r>
       <r>     0.5232    47.4661   253.9881 </r>
       <r>     0.5824    40.1940   256.3666 </r>
       <r>     0.6416    52.5290   259.4749 </r>
       <r>     0.7007    52.2082   262.5646 </r>
       <r>     0.7599    46.4949   265.3162 </r>
       <r>     0.8191    59.4145   268.8321 </r>
       <r>     0.8783    38.9550   271.1376 </r>
       <r>     0.9374    58.5623   274.6029 </r>
       <r>     0.9966    50.4598   277.5891 </r>
       <r>     1.0558    59.9700   281.1380 </r>
       <r>     1.1149    50.4883   284.1258 </r>
       <r>     1.1741    52.3800   287.2253 </r>
       <r>     1.2333    52.4675   290.3301 </r>
       <r>     1.2925    55.9164   293.6394 </r>
       <r>     1.3516    47.9336   296.4757 </r>
       <r>     1.4108    34.9036   298.5412 </r>
       <r>     1.4700    33.2277   300.5074 </r>
       <r>     1.5291    47.8931   303.3414 </r>
       <r>     1.5883    33.9627   305.3510 </r>
       <r>     1.6475    48.0527   308.1945 </r>
       <r>     1.7067    39.6783   310.5424 </r>
       <r>     1.7658    41.0364   312.9706 </r>
       <r>     1.8250    49.6719   315.9098 </r>
       <r>     1.8842    26.7108   317.4905 </r>
       <r>     1.9433    33.6525   319.4817 </r>
       <r>     2.0025    38.1811   321.7410 </r>
       <r>     2.0617    31.7818   323.6217 </r>
       <r>     2.1209    50.3751   326.6025 </r>
       <r>     2.1800    34.4768   328.6426 </r>
       <r>     2.2392    33.4099   330.6198 </r>
       <r>     2.2984    32.3637   332.5349 </r>
       <r>     2.3575    24.2311   333.9687 </r>
       <r>     2.4167    38.9163   336.2715 </r>
       <r>     2.4759    41.7152   338.7401 </r>
       <r>     2.5351    27.4650   340.3654 </r>
       <r>     2.5942    32.5319   342.2906 </r>
       <r>     2.6534    48.4542   345.1578 </r>
       <r>     2.7126    40.2057   347.5369 </r>
       <r>     2.7717    33.5861   349.5244 </r>
       <r>     2.8309    30.8701   351.3511 </r>
       <r>     2.8901    40.9060   353.7716 </r>
       <r>     2.9493    33.6309   355.7617 </r>
       <r>     3.0084    33.9796   357.7724 </r>
       <r>     3.0676    30.7072   359.5895 </r>
       <r>     3.1268    41.4704   362.0434 </r>
       <r>     3.1860    39.3626   364.3729 </r>
       <r>     3.2451    40.5428   366.7720 </r>
       <r>     3.3043    43.5769   369.3505 </r>
       <r>     3.3635    26.0527   370.8921 </r>
       <r>     3.4226    47.8308   373.7223 </r>
       <r>     3.4818    43.5321   376.2984 </r>
       <r>     3.5410    27.2276   377.9101 </r>
       <r>     3.6002    34.6887   379.9632 </r>
       <r>     3.6593    30.0905   381.7437 </r>
       <r>     3.7185    38.3128   384.0109 </r>
       <r>     3.7777    34.4889   386.0517 </r>
       <r>     3.8368    39.6952   388.4005 </r>
       <r>     3.8960    31.4762   390.2630 </r>
       <r>     3.9552    22.8175   391.6134 </r>
       <r>     4.0144    28.5031   393.3000 </r>
       <r>     4.0735    19.5585   394.4573 </r>
       <r>     4.1327    39.1827   396.7758 </r>
       <r>     4.1919    22.0717   398.0820 </r>
       <r>     4.2510    34.1002   400.0999 </r>
       <r>     4.3102    54.9087   403.3489 </r>
       <r>     4.3694    36.8052   405.5269 </r>
       <r>     4.4286    30.6639   407.3413 </r>
       <r>     4.4877    38.6390   409.6278 </r>
       <r>     4.5469    28.9458   411.3408 </r>
       <r>     4.6061    44.8113   413.9923 </r>
       <r>     4.6652    32.9897   415.9444 </r>
       <r>     4.7244    38.6549   418.2319 </r>
       <r>     4.7836    42.5495   420.7496 </r>
       <r>     4.8428    53.6754   423.9258 </r>
       <r>     4.9019    35.3160   426.0156 </r>
       <r>     4.9611    36.9033   428.1993 </r>
       <r>     5.0203    41.2613   430.6408 </r>
       <r>     5.0794    40.2208   433.0208 </r>
       <r>     5.1386    28.7154   434.7203 </r>
       <r>     5.1978    54.5852   437.9504 </r>
       <r>     5.2570    43.1962   440.5064 </r>
       <r>     5.3161    32.0996   442.4058 </r>
       <r>     5.3753    42.4840   444.9199 </r>
       <r>     5.4345    47.3211   447.7200 </r>
       <r>     5.4936    45.0459   450.3859 </r>
       <r>     5.5528    33.0336   452.3408 </r>
       <r>     5.6120    55.6692   455.6349 </r>
       <r>     5.6712    53.5929   458.8061 </r>
       <r>     5.7303    35.4942   460.9064 </r>
       <r>     5.7895    37.7420   463.1399 </r>
       <r>     5.8487    14.5358   464.0000 </r>
       <r>     5.9078     0.0000   464.0000 </r>
       <r>     5.9670     0.0000   464.0000 </r>
       <r>     6.0262     0.0000   464.0000 </r>
       <r>     6.0854     0.0000   464.0000 </r>
       <r>     6.1445     0.0000   464.0000 </r>
       <r>     6.2037     0.0000   464.0000 </r>
       <r>     6.2629     0.0000   464.0000 </r>
       <r>     6.3220     0.0000   464.0000 </r>
       <r>     6.3812     0.0000   464.0000 </r>
       <r>     6.4404     0.0000   464.0000 </r>
       <r>     6.4996     0.0000   464.0000 </r>
       <r>     6.5587     0.0000   464.0000 </r>
       <r>     6.6179     0.0000   464.0000 </r>
      </set>
     </set>
    </array>
   </total>
  </dos>
 </calculation>
 <structure name="finalpos" >
  <crystal>
   <varray name="basis" >
    <v>      12.65122604       0.00000000       0.00000000 </v>
    <v>       2.53024530      12.39562035       0.00000000 </v>
    <v>       0.00000000       0.00000000      13.73516273 </v>
   </varray>
   <i name="volume">   2153.94540375 </i>
   <varray name="rec_basis" >
    <v>       0.07904372      -0.01613473       0.00000000 </v>
    <v>       0.00000000       0.08067366       0.00000000 </v>
    <v>       0.00000000       0.00000000       0.07280584 </v>
   </varray>
  </crystal>
  <varray name="positions" >
   <v>       0.22591019       0.37751091       0.58408308 </v>
   <v>       0.99259037       0.94813251       0.00000002 </v>
   <v>       0.95092356       0.65646577       0.08408309 </v>
   <v>       0.90925682       0.36479890       0.16816616 </v>
   <v>       0.86759007       0.07313222       0.25224918 </v>
   <v>       0.26757705       0.66917771       0.50000006 </v>
   <v>       0.35091019       0.00251102       0.58408308 </v>
   <v>       0.49259037       0.44813251       0.00000003 </v>
   <v>       0.45092362       0.15646577       0.08408309 </v>
   <v>       0.40925688       0.86479896       0.16816616 </v>
   <v>       0.36759013       0.57313228       0.25224918 </v>
   <v>       0.32592338       0.28146553       0.33633223 </v>
   <v>       0.01757705       0.91917777       0.50000006 </v>
   <v>       0.36759040       0.82313263       0.00000001 </v>
   <v>       0.32592362       0.53146583       0.08408309 </v>
   <v>       0.28425688       0.23979901       0.16816619 </v>
   <v>       0.24259017       0.94813240       0.25224918 </v>
   <v>       0.20092338       0.65646565       0.33633223 </v>
   <v>       0.39257693       0.29417765       0.50000006 </v>
   <v>       0.86759049       0.32313258       0.00000001 </v>
   <v>       0.82592368       0.03146578       0.08408309 </v>
   <v>       0.78425688       0.73979890       0.16816616 </v>
   <v>       0.74259013       0.44813234       0.25224918 </v>
   <v>       0.76757705       0.16917777       0.50000006 </v>
   <v>       0.89257693       0.79417765       0.50000006 </v>
   <v>       0.24259035       0.69813263       0.00000000 </v>
   <v>       0.20092359       0.40646580       0.08408308 </v>
   <v>       0.15925685       0.11479896       0.16816616 </v>
   <v>       0.60091019       0.75251091       0.58408308 </v>
   <v>       0.07592334       0.53146553       0.33633217 </v>
   <v>       0.53425670       0.73979867       0.42041531 </v>
   <v>       0.74259043       0.19813251       0.00000002 </v>
   <v>       0.70092362       0.90646571       0.08408309 </v>
   <v>       0.65925688       0.61479890       0.16816616 </v>
   <v>       0.61759025       0.32313234       0.25224918 </v>
   <v>       0.57592344       0.03146547       0.33633217 </v>
   <v>       0.10091007       0.25251091       0.58408308 </v>
   <v>       0.11759036       0.07313251       0.00000002 </v>
   <v>       0.07592360       0.78146577       0.08408309 </v>
   <v>       0.03425685       0.48979896       0.16816616 </v>
   <v>       0.99259007       0.19813222       0.25224918 </v>
   <v>       0.14257705       0.54417765       0.50000006 </v>
   <v>       0.76757705       0.16917777       0.50000006 </v>
   <v>       0.61759049       0.57313258       0.00000001 </v>
   <v>       0.57592362       0.28146583       0.08408308 </v>
   <v>       0.53425694       0.98979902       0.16816619 </v>
   <v>       0.49259019       0.69813228       0.25224924 </v>
   <v>       0.93424344       0.33584419       0.66816616 </v>
   <v>       0.93424308       0.08584392       0.92041534 </v>
   <v>       0.65925658       0.86479867       0.42041528 </v>
   <v>       0.90925658       0.61479878       0.42041531 </v>
   <v>       0.80924344       0.21084416       0.66816616 </v>
   <v>       0.51757669       0.16917741       0.75224924 </v>
   <v>       0.22590995       0.12751067       0.83633232 </v>
   <v>       0.43424308       0.58584392       0.92041534 </v>
   <v>       0.03425656       0.23979878       0.42041528 </v>
   <v>       0.11759009       0.82313240       0.25224915 </v>
   <v>       0.30924344       0.71084422       0.66816616 </v>
   <v>       0.01757669       0.66917741       0.75224924 </v>
   <v>       0.72590995       0.62751067       0.83633232 </v>
   <v>       0.80924320       0.46084398       0.92041534 </v>
   <v>       0.82592332       0.78146553       0.33633217 </v>
   <v>       0.97591031       0.62751091       0.58408308 </v>
   <v>       0.68424350       0.58584422       0.66816616 </v>
   <v>       0.39257681       0.54417747       0.75224924 </v>
   <v>       0.10091007       0.50251073       0.83633232 </v>
   <v>       0.30924308       0.96084392       0.92041528 </v>
   <v>       0.70092338       0.15646553       0.33633217 </v>
   <v>       0.47591022       0.12751102       0.58408308 </v>
   <v>       0.18424344       0.08584416       0.66816616 </v>
   <v>       0.89257681       0.04417753       0.75224924 </v>
   <v>       0.60090995       0.00251067       0.83633232 </v>
   <v>       0.68424320       0.33584389       0.92041534 </v>
   <v>       0.95092338       0.90646553       0.33633223 </v>
   <v>       0.85091025       0.50251091       0.58408308 </v>
   <v>       0.55924350       0.46084416       0.66816616 </v>
   <v>       0.26757681       0.41917741       0.75224918 </v>
   <v>       0.97590995       0.37751067       0.83633226 </v>
   <v>       0.18424308       0.83584404       0.92041534 </v>
   <v>       0.28425661       0.98979878       0.42041531 </v>
   <v>       0.28425661       0.98979878       0.42041531 </v>
   <v>       0.05924344       0.96084416       0.66816616 </v>
   <v>       0.76757669       0.91917753       0.75224924 </v>
   <v>       0.47590992       0.87751079       0.83633232 </v>
   <v>       0.05924308       0.21084392       0.92041534 </v>
   <v>       0.51757693       0.41917768       0.50000006 </v>
   <v>       0.78425658       0.48979867       0.42041528 </v>
   <v>       0.45092344       0.40646553       0.33633226 </v>
   <v>       0.64257669       0.29417741       0.75224918 </v>
   <v>       0.35090995       0.25251067       0.83633232 </v>
   <v>       0.55924320       0.71084404       0.92041534 </v>
   <v>       0.15925664       0.36479878       0.42041531 </v>
   <v>       0.72591019       0.87751091       0.58408308 </v>
   <v>       0.43424356       0.83584428       0.66816616 </v>
   <v>       0.14257669       0.79417753       0.75224924 </v>
   <v>       0.85090995       0.75251079       0.83633232 </v>
  </varray>
 </structure>
</modeling>
