Si and Ge interface calculation         
           1
    13.303180    0.000000    0.000000
    -6.651589   14.873406    0.000000
     0.000000    0.000000    8.390059
   Si   C 
    36    84
Direct configuration=     1
   0.99715096  0.98005658  0.00000000
   0.96381754  0.74672317  0.14474383
   0.93048412  0.51338983  0.28948766
   0.33048421  0.31338987  0.00000000
   0.29715079  0.08005647  0.14474383
   0.26381737  0.84672308  0.28948766
   0.66381747  0.64672315  0.00000000
   0.63048405  0.41338971  0.14474383
   0.59715062  0.18005633  0.28948766
   0.31381753  0.94672334  0.07237176
   0.28048411  0.71338999  0.21711558
   0.24715069  0.48005658  0.36185935
   0.64715082  0.28005657  0.07237176
   0.61381739  0.04672319  0.21711555
   0.58048397  0.81338978  0.36185938
   0.98048443  0.61338985  0.07237179
   0.94715101  0.38005647  0.21711555
   0.91381758  0.14672309  0.36185935
   0.16381757  0.64672309  0.00000000
   0.13048416  0.41338971  0.14474383
   0.09715075  0.18005632  0.28948766
   0.49715090  0.98005664  0.00000000
   0.46381742  0.74672317  0.14474377
   0.43048406  0.51338983  0.28948760
   0.83048415  0.31338987  0.00000000
   0.79715073  0.08005653  0.14474377
   0.76381731  0.84672308  0.28948760
   0.14715090  0.28005657  0.07237177
   0.11381748  0.04672317  0.21711558
   0.08048407  0.81338978  0.36185938
   0.48048422  0.61338991  0.07237177
   0.44715083  0.38005653  0.21711555
   0.41381741  0.14672317  0.36185938
   0.81381750  0.94672328  0.07237176
   0.78048414  0.71338987  0.21711555
   0.74715072  0.48005646  0.36185938
   0.58843803  0.95157731  0.75222486
   0.38843790  0.55157739  0.56210440
   0.48843795  0.25157735  0.65716469
   0.87415236  0.09443444  0.75222486
   0.67415214  0.69443452  0.56210440
   0.77415228  0.39443448  0.65716469
   0.15986657  0.23729152  0.75222486
   0.95986646  0.83729160  0.56210440
   0.05986655  0.53729159  0.65716469
   0.44558090  0.38014877  0.75222486
   0.24558076  0.98014885  0.56210440
   0.34558082  0.68014884  0.65716469
   0.73129517  0.52300590  0.75222486
   0.53129500  0.12300602  0.56210440
   0.63129508  0.82300597  0.65716469
   0.01700950  0.66586304  0.75222486
   0.81700927  0.26586315  0.56210440
   0.91700935  0.96586311  0.65716469
   0.30272365  0.80872011  0.75222486
   0.10272348  0.40872029  0.56210440
   0.20272362  0.10872024  0.65716469
   0.56700951  0.26586312  0.79975486
   0.36700934  0.86586326  0.60963446
   0.46700943  0.56586325  0.70469463
   0.70986658  0.83729166  0.79975486
   0.50986642  0.43729174  0.60963446
   0.60986650  0.13729170  0.70469463
   0.99558085  0.98014897  0.79975486
   0.79558063  0.58014905  0.60963446
   0.89558071  0.28014898  0.70469469
   0.28129518  0.12300607  0.79975480
   0.08129501  0.72300613  0.60963446
   0.18129504  0.42300609  0.70469469
   0.85272378  0.40872020  0.79975486
   0.65272361  0.00872040  0.60963446
   0.75272369  0.70872021  0.70469463
   0.13843799  0.55157751  0.79975486
   0.93843782  0.15157759  0.60963446
   0.03843784  0.85157752  0.70469463
   0.42415214  0.69443452  0.79975486
   0.22415197  0.29443467  0.60963446
   0.32415211  0.99443460  0.70469463
   0.65986663  0.23729149  0.75222486
   0.45986640  0.83729166  0.56210440
   0.55986655  0.53729159  0.65716469
   0.51700944  0.66586304  0.75222486
   0.31700933  0.26586312  0.56210440
   0.41700938  0.96586305  0.65716469
   0.80272371  0.80872011  0.75222486
   0.60272354  0.40872025  0.56210440
   0.70272362  0.10872021  0.65716469
   0.08843792  0.95157725  0.75222486
   0.88843781  0.55157733  0.56210440
   0.98843801  0.25157732  0.65716469
   0.37415230  0.09443437  0.75222486
   0.17415214  0.69443452  0.56210440
   0.27415216  0.39443442  0.65716469
   0.94558084  0.38014877  0.75222486
   0.74558067  0.98014885  0.56210440
   0.84558082  0.68014878  0.65716469
   0.23129511  0.52300584  0.75222486
   0.03129494  0.12300598  0.56210440
   0.13129508  0.82300592  0.65716469
   0.49558085  0.98014897  0.79975486
   0.29558068  0.58014905  0.60963446
   0.39558077  0.28014898  0.70469469
   0.78129518  0.12300605  0.79975486
   0.58129501  0.72300613  0.60963446
   0.68129510  0.42300609  0.70469469
   0.06700945  0.26586318  0.79975486
   0.86700928  0.86586326  0.60963446
   0.96700937  0.56586313  0.70469469
   0.63843805  0.55157757  0.79975486
   0.43843788  0.15157765  0.60963446
   0.53843790  0.85157758  0.70469463
   0.92415232  0.69443464  0.79975480
   0.72415215  0.29443473  0.60963446
   0.82415217  0.99443460  0.70469469
   0.20986640  0.83729160  0.79975480
   0.00986624  0.43729168  0.60963446
   0.10986638  0.13729167  0.70469463
   0.35272372  0.40872020  0.79975492
   0.15272343  0.00872040  0.60963446
   0.25272357  0.70872021  0.70469469
