 168 168   0   0
  0.2780971E+02  0.1131560E-08  0.1959920E-08  0.2580094E-08  0.5000000E-15
  1.000000000000000E-004
  CAR 
 Si and Ge interface calculation         
      6.30058402     -9.85483841  301      3.35110020      1.00000000
     -9.855  0.0000E+00  0.0000E+00  0.0000E+00  0.0000E+00
     -9.801  0.0000E+00  0.0000E+00  0.0000E+00  0.0000E+00
     -9.747  0.0000E+00  0.0000E+00  0.0000E+00  0.0000E+00
     -9.693  0.0000E+00  0.0000E+00  0.0000E+00  0.0000E+00
     -9.639  0.0000E+00  0.0000E+00  0.0000E+00  0.0000E+00
     -9.586  0.0000E+00  0.0000E+00  0.0000E+00  0.0000E+00
     -9.532  0.0000E+00  0.0000E+00  0.0000E+00  0.0000E+00
     -9.478  0.0000E+00  0.0000E+00  0.0000E+00  0.0000E+00
     -9.424  0.0000E+00  0.0000E+00  0.0000E+00  0.0000E+00
     -9.370  0.0000E+00  0.0000E+00  0.0000E+00  0.0000E+00
     -9.316  0.0000E+00  0.0000E+00  0.0000E+00  0.0000E+00
     -9.262  0.0000E+00  0.0000E+00  0.0000E+00  0.0000E+00
     -9.209  0.0000E+00  0.0000E+00  0.0000E+00  0.0000E+00
     -9.155  0.3891E-05  0.4815E-07  0.2096E-06  0.2593E-08
     -9.101  0.6172E+01  0.6035E+01  0.3324E+00  0.3250E+00
     -9.047  0.1738E-01  0.1546E+00  0.3333E+00  0.3333E+00
     -8.993  0.1955E+02  0.1353E+02  0.1386E+01  0.1062E+01
     -8.939  0.1758E+02  0.2347E+02  0.2333E+01  0.2326E+01
     -8.886  0.1241E-01  0.1407E+00  0.2333E+01  0.2333E+01
     -8.832  0.1796E+00  0.1842E-01  0.2343E+01  0.2334E+01
     -8.778  0.1839E+02  0.1854E+02  0.3333E+01  0.3332E+01
     -8.724  0.1331E+02  0.1250E+02  0.4050E+01  0.4006E+01
     -8.670  0.3703E+02  0.3462E+02  0.6044E+01  0.5870E+01
     -8.616  0.3459E+02  0.3485E+02  0.7907E+01  0.7747E+01
     -8.562  0.1387E+02  0.1560E+02  0.8654E+01  0.8586E+01
     -8.509  0.4221E+00  0.1504E+01  0.8677E+01  0.8667E+01
     -8.455  0.5643E+02  0.5192E+02  0.1172E+02  0.1146E+02
     -8.401  0.1765E+02  0.2230E+02  0.1267E+02  0.1266E+02
     -8.347  0.3784E+02  0.3576E+02  0.1470E+02  0.1459E+02
     -8.293  0.2168E+02  0.1733E+02  0.1587E+02  0.1552E+02
     -8.239  0.3189E+02  0.3519E+02  0.1759E+02  0.1742E+02
     -8.185  0.1880E+02  0.1548E+02  0.1860E+02  0.1825E+02
     -8.132  0.2549E+02  0.2772E+02  0.1997E+02  0.1974E+02
     -8.078  0.4998E+02  0.5415E+02  0.2267E+02  0.2266E+02
     -8.024  0.1262E+02  0.1254E+02  0.2335E+02  0.2334E+02
     -7.970  0.1054E+02  0.7847E+01  0.2391E+02  0.2376E+02
     -7.916  0.2021E+02  0.2307E+02  0.2500E+02  0.2500E+02
     -7.862  0.3053E+02  0.2668E+02  0.2665E+02  0.2644E+02
     -7.808  0.3129E+02  0.3485E+02  0.2833E+02  0.2831E+02
     -7.755  0.1618E+02  0.1218E+02  0.2920E+02  0.2897E+02
     -7.701  0.2103E+02  0.2532E+02  0.3034E+02  0.3033E+02
     -7.647  0.1324E+02  0.1252E+02  0.3105E+02  0.3101E+02
     -7.593  0.4224E+02  0.3524E+02  0.3332E+02  0.3291E+02
     -7.539  0.3782E+02  0.4477E+02  0.3536E+02  0.3532E+02
     -7.485  0.5099E+02  0.4525E+02  0.3811E+02  0.3775E+02
     -7.432  0.2664E+02  0.3048E+02  0.3954E+02  0.3940E+02
     -7.378  0.3038E+02  0.2918E+02  0.4118E+02  0.4097E+02
     -7.324  0.1615E+02  0.1899E+02  0.4205E+02  0.4199E+02
     -7.270  0.3349E+02  0.2941E+02  0.4385E+02  0.4357E+02
     -7.216  0.4806E+02  0.4724E+02  0.4644E+02  0.4612E+02
     -7.162  0.7104E+02  0.7291E+02  0.5026E+02  0.5004E+02
     -7.108  0.1987E+02  0.2380E+02  0.5133E+02  0.5132E+02
     -7.055  0.4105E+02  0.3931E+02  0.5354E+02  0.5344E+02
     -7.001  0.2904E+02  0.2778E+02  0.5511E+02  0.5494E+02
     -6.947  0.4744E+02  0.4777E+02  0.5766E+02  0.5751E+02
     -6.893  0.4724E+02  0.4380E+02  0.6021E+02  0.5987E+02
     -6.839  0.4828E+02  0.4868E+02  0.6281E+02  0.6249E+02
     -6.785  0.6272E+02  0.6036E+02  0.6618E+02  0.6574E+02
     -6.731  0.3772E+02  0.4173E+02  0.6822E+02  0.6799E+02
     -6.678  0.2634E+02  0.2832E+02  0.6963E+02  0.6951E+02
     -6.624  0.5110E+02  0.4862E+02  0.7239E+02  0.7213E+02
     -6.570  0.3105E+02  0.2884E+02  0.7406E+02  0.7368E+02
     -6.516  0.4361E+02  0.4469E+02  0.7641E+02  0.7609E+02
     -6.462  0.2321E+02  0.2646E+02  0.7766E+02  0.7752E+02
     -6.408  0.5281E+02  0.4899E+02  0.8050E+02  0.8015E+02
     -6.354  0.7317E+02  0.7666E+02  0.8444E+02  0.8428E+02
     -6.301  0.3128E+02  0.3229E+02  0.8612E+02  0.8602E+02
     -6.247  0.6952E+02  0.6278E+02  0.8987E+02  0.8940E+02
     -6.193  0.6386E+02  0.6462E+02  0.9331E+02  0.9288E+02
     -6.139  0.4602E+02  0.5211E+02  0.9579E+02  0.9569E+02
     -6.085  0.3496E+02  0.3675E+02  0.9767E+02  0.9767E+02
     -6.031  0.3685E+02  0.3574E+02  0.9965E+02  0.9959E+02
     -5.978  0.4857E+02  0.4579E+02  0.1023E+03  0.1021E+03
     -5.924  0.2436E+02  0.2642E+02  0.1036E+03  0.1035E+03
     -5.870  0.3265E+02  0.3440E+02  0.1053E+03  0.1053E+03
     -5.816  0.4178E+02  0.3899E+02  0.1076E+03  0.1074E+03
     -5.762  0.4961E+02  0.4819E+02  0.1103E+03  0.1100E+03
     -5.708  0.3630E+02  0.3830E+02  0.1122E+03  0.1121E+03
     -5.654  0.2162E+02  0.2332E+02  0.1134E+03  0.1133E+03
     -5.601  0.2460E+02  0.2426E+02  0.1147E+03  0.1147E+03
     -5.547  0.2799E+02  0.2477E+02  0.1162E+03  0.1160E+03
     -5.493  0.7528E+02  0.7227E+02  0.1203E+03  0.1199E+03
     -5.439  0.5584E+02  0.6012E+02  0.1233E+03  0.1231E+03
     -5.385  0.6893E+02  0.6427E+02  0.1270E+03  0.1266E+03
     -5.331  0.6928E+02  0.7071E+02  0.1307E+03  0.1304E+03
     -5.277  0.3469E+02  0.3813E+02  0.1326E+03  0.1324E+03
     -5.224  0.7784E+02  0.7796E+02  0.1368E+03  0.1366E+03
     -5.170  0.3825E+02  0.3764E+02  0.1388E+03  0.1387E+03
     -5.116  0.7237E+02  0.7318E+02  0.1427E+03  0.1426E+03
     -5.062  0.3441E+02  0.3216E+02  0.1446E+03  0.1443E+03
     -5.008  0.2631E+02  0.3092E+02  0.1460E+03  0.1460E+03
     -4.954  0.5359E+02  0.4397E+02  0.1489E+03  0.1484E+03
     -4.901  0.5755E+02  0.6555E+02  0.1520E+03  0.1519E+03
     -4.847  0.5882E+02  0.5739E+02  0.1552E+03  0.1550E+03
     -4.793  0.7280E+02  0.7188E+02  0.1591E+03  0.1589E+03
     -4.739  0.3404E+02  0.3474E+02  0.1609E+03  0.1607E+03
     -4.685  0.7574E+02  0.7413E+02  0.1650E+03  0.1647E+03
     -4.631  0.4602E+02  0.4846E+02  0.1675E+03  0.1673E+03
     -4.577  0.6577E+02  0.6808E+02  0.1710E+03  0.1710E+03
     -4.524  0.2299E+02  0.2111E+02  0.1722E+03  0.1721E+03
     -4.470  0.3856E+02  0.3450E+02  0.1743E+03  0.1740E+03
     -4.416  0.6173E+02  0.6348E+02  0.1776E+03  0.1774E+03
     -4.362  0.5840E+02  0.6041E+02  0.1808E+03  0.1807E+03
     -4.308  0.6581E+02  0.6156E+02  0.1843E+03  0.1840E+03
     -4.254  0.2987E+02  0.3404E+02  0.1859E+03  0.1858E+03
     -4.200  0.2131E+02  0.1487E+02  0.1871E+03  0.1866E+03
     -4.147  0.5083E+02  0.5209E+02  0.1898E+03  0.1894E+03
     -4.093  0.7264E+02  0.6579E+02  0.1937E+03  0.1930E+03
     -4.039  0.6600E+02  0.7452E+02  0.1973E+03  0.1970E+03
     -3.985  0.3375E+02  0.3333E+02  0.1991E+03  0.1988E+03
     -3.931  0.7448E+02  0.7824E+02  0.2031E+03  0.2030E+03
     -3.877  0.6496E+02  0.6478E+02  0.2066E+03  0.2065E+03
     -3.823  0.3145E+02  0.2705E+02  0.2083E+03  0.2079E+03
     -3.770  0.3233E+02  0.3875E+02  0.2101E+03  0.2100E+03
     -3.716  0.5753E+02  0.4894E+02  0.2132E+03  0.2127E+03
     -3.662  0.8857E+02  0.8681E+02  0.2179E+03  0.2173E+03
     -3.608  0.3398E+02  0.4378E+02  0.2198E+03  0.2197E+03
     -3.554  0.6615E+02  0.6435E+02  0.2233E+03  0.2231E+03
     -3.500  0.3464E+02  0.3233E+02  0.2252E+03  0.2249E+03
     -3.447  0.4180E+02  0.4076E+02  0.2274E+03  0.2271E+03
     -3.393  0.2943E+02  0.3563E+02  0.2290E+03  0.2290E+03
     -3.339  0.5985E+02  0.5455E+02  0.2322E+03  0.2319E+03
     -3.285  0.4047E+02  0.4000E+02  0.2344E+03  0.2341E+03
     -3.231  0.5002E+02  0.5205E+02  0.2371E+03  0.2369E+03
     -3.177  0.2833E+02  0.3029E+02  0.2386E+03  0.2385E+03
     -3.123  0.4509E+02  0.4326E+02  0.2411E+03  0.2409E+03
     -3.070  0.4874E+02  0.5225E+02  0.2437E+03  0.2437E+03
     -3.016  0.3831E+02  0.3470E+02  0.2458E+03  0.2455E+03
     -2.962  0.6368E+02  0.6419E+02  0.2492E+03  0.2490E+03
     -2.908  0.4839E+02  0.4502E+02  0.2518E+03  0.2514E+03
     -2.854  0.4674E+02  0.5179E+02  0.2543E+03  0.2542E+03
     -2.800  0.2536E+02  0.2703E+02  0.2557E+03  0.2557E+03
     -2.746  0.6252E+02  0.5669E+02  0.2590E+03  0.2587E+03
     -2.693  0.7080E+02  0.7103E+02  0.2629E+03  0.2625E+03
     -2.639  0.4156E+02  0.4085E+02  0.2651E+03  0.2647E+03
     -2.585  0.6521E+02  0.6830E+02  0.2686E+03  0.2684E+03
     -2.531  0.5107E+02  0.4742E+02  0.2714E+03  0.2710E+03
     -2.477  0.5486E+02  0.5874E+02  0.2743E+03  0.2741E+03
     -2.423  0.4139E+02  0.3904E+02  0.2765E+03  0.2762E+03
     -2.369  0.6352E+02  0.6077E+02  0.2800E+03  0.2795E+03
     -2.316  0.4402E+02  0.5188E+02  0.2823E+03  0.2823E+03
     -2.262  0.2538E+02  0.2416E+02  0.2837E+03  0.2836E+03
     -2.208  0.2837E+02  0.2686E+02  0.2852E+03  0.2851E+03
     -2.154  0.4247E+02  0.4192E+02  0.2875E+03  0.2873E+03
     -2.100  0.1550E+02  0.1430E+02  0.2883E+03  0.2881E+03
     -2.046  0.2936E+02  0.2973E+02  0.2899E+03  0.2897E+03
     -1.993  0.2545E+02  0.2090E+02  0.2913E+03  0.2908E+03
     -1.939  0.5651E+02  0.6541E+02  0.2943E+03  0.2943E+03
     -1.885  0.3096E+02  0.2816E+02  0.2960E+03  0.2958E+03
     -1.831  0.3094E+02  0.3250E+02  0.2977E+03  0.2976E+03
     -1.777  0.3209E+02  0.2707E+02  0.2994E+03  0.2991E+03
     -1.723  0.4212E+02  0.4851E+02  0.3017E+03  0.3017E+03
     -1.669  0.4227E+02  0.3511E+02  0.3039E+03  0.3036E+03
     -1.616  0.3817E+02  0.4535E+02  0.3060E+03  0.3060E+03
     -1.562  0.2467E+02  0.2356E+02  0.3073E+03  0.3073E+03
     -1.508  0.2038E+02  0.1981E+02  0.3084E+03  0.3083E+03
     -1.454  0.5437E+02  0.5338E+02  0.3114E+03  0.3112E+03
     -1.400  0.1661E+02  0.1737E+02  0.3122E+03  0.3121E+03
     -1.346  0.7745E+01  0.9630E+01  0.3127E+03  0.3127E+03
     -1.292  0.6187E+01  0.2355E+01  0.3130E+03  0.3128E+03
     -1.239  0.4331E+02  0.4709E+02  0.3153E+03  0.3153E+03
     -1.185  0.2535E+01  0.1072E+01  0.3155E+03  0.3154E+03
     -1.131  0.2224E+02  0.2377E+02  0.3167E+03  0.3167E+03
     -1.077  0.1327E+02  0.1162E+02  0.3174E+03  0.3173E+03
     -1.023  0.2476E+02  0.2570E+02  0.3187E+03  0.3187E+03
     -0.969  0.3360E+02  0.2997E+02  0.3205E+03  0.3203E+03
     -0.916  0.1503E+02  0.1942E+02  0.3213E+03  0.3213E+03
     -0.862  0.7355E-03  0.4063E-04  0.3213E+03  0.3213E+03
     -0.808  0.2483E+02  0.2460E+02  0.3227E+03  0.3227E+03
     -0.754  0.1868E+02  0.1873E+02  0.3237E+03  0.3237E+03
     -0.700  0.3250E+02  0.2742E+02  0.3254E+03  0.3251E+03
     -0.646  0.5881E+02  0.5731E+02  0.3286E+03  0.3282E+03
     -0.592  0.8051E+02  0.8128E+02  0.3329E+03  0.3326E+03
     -0.539  0.5131E+02  0.4855E+02  0.3357E+03  0.3352E+03
     -0.485  0.5043E+02  0.5172E+02  0.3384E+03  0.3380E+03
     -0.431  0.7777E+02  0.8109E+02  0.3426E+03  0.3424E+03
     -0.377  0.4431E+02  0.4175E+02  0.3450E+03  0.3446E+03
     -0.323  0.7438E+02  0.7602E+02  0.3490E+03  0.3487E+03
     -0.269  0.1002E+03  0.9458E+02  0.3544E+03  0.3538E+03
     -0.215  0.8915E+02  0.9697E+02  0.3592E+03  0.3590E+03
     -0.162  0.7096E+02  0.6762E+02  0.3630E+03  0.3627E+03
     -0.108  0.5845E+02  0.5730E+02  0.3662E+03  0.3658E+03
     -0.054  0.8346E+02  0.8484E+02  0.3706E+03  0.3703E+03
     -0.000  0.6279E+02  0.6213E+02  0.3740E+03  0.3737E+03
      0.054  0.6483E+02  0.6755E+02  0.3775E+03  0.3773E+03
      0.108  0.8200E+02  0.7294E+02  0.3819E+03  0.3812E+03
      0.162  0.7538E+02  0.7954E+02  0.3860E+03  0.3855E+03
      0.215  0.9682E+02  0.1013E+03  0.3912E+03  0.3910E+03
      0.269  0.6586E+02  0.6518E+02  0.3948E+03  0.3945E+03
      0.323  0.1109E+03  0.1067E+03  0.4007E+03  0.4002E+03
      0.377  0.9423E+02  0.9347E+02  0.4058E+03  0.4053E+03
      0.431  0.1138E+03  0.1192E+03  0.4119E+03  0.4117E+03
      0.485  0.1266E+03  0.1142E+03  0.4187E+03  0.4178E+03
      0.538  0.1283E+03  0.1331E+03  0.4257E+03  0.4250E+03
      0.592  0.1186E+03  0.1169E+03  0.4320E+03  0.4313E+03
      0.646  0.1384E+03  0.1386E+03  0.4395E+03  0.4388E+03
      0.700  0.1271E+03  0.1278E+03  0.4463E+03  0.4456E+03
      0.754  0.1221E+03  0.1219E+03  0.4529E+03  0.4522E+03
      0.808  0.1239E+03  0.1291E+03  0.4596E+03  0.4592E+03
      0.862  0.9098E+02  0.9583E+02  0.4645E+03  0.4643E+03
      0.915  0.8867E+02  0.8063E+02  0.4693E+03  0.4687E+03
      0.969  0.1132E+03  0.1170E+03  0.4754E+03  0.4750E+03
      1.023  0.7823E+02  0.7676E+02  0.4796E+03  0.4791E+03
      1.077  0.9719E+02  0.9541E+02  0.4848E+03  0.4842E+03
      1.131  0.1339E+03  0.1302E+03  0.4920E+03  0.4912E+03
      1.185  0.1067E+03  0.1156E+03  0.4978E+03  0.4975E+03
      1.239  0.1221E+03  0.1131E+03  0.5043E+03  0.5036E+03
      1.292  0.1180E+03  0.1176E+03  0.5107E+03  0.5099E+03
      1.346  0.1078E+03  0.1101E+03  0.5165E+03  0.5158E+03
      1.400  0.9255E+02  0.9703E+02  0.5215E+03  0.5210E+03
      1.454  0.1119E+03  0.1101E+03  0.5275E+03  0.5270E+03
      1.508  0.1261E+03  0.1229E+03  0.5343E+03  0.5336E+03
      1.562  0.1255E+03  0.1252E+03  0.5411E+03  0.5403E+03
      1.616  0.1128E+03  0.1206E+03  0.5471E+03  0.5468E+03
      1.669  0.1185E+03  0.1139E+03  0.5535E+03  0.5530E+03
      1.723  0.1024E+03  0.1055E+03  0.5590E+03  0.5586E+03
      1.777  0.1028E+03  0.9763E+02  0.5646E+03  0.5639E+03
      1.831  0.1376E+03  0.1355E+03  0.5720E+03  0.5712E+03
      1.885  0.5925E+02  0.6758E+02  0.5752E+03  0.5748E+03
      1.939  0.1264E+03  0.1302E+03  0.5820E+03  0.5819E+03
      1.992  0.6558E+02  0.5226E+02  0.5855E+03  0.5847E+03
      2.046  0.1099E+03  0.1202E+03  0.5914E+03  0.5911E+03
      2.100  0.6963E+02  0.6520E+02  0.5952E+03  0.5947E+03
      2.154  0.7541E+02  0.7325E+02  0.5992E+03  0.5986E+03
      2.208  0.8343E+02  0.9112E+02  0.6037E+03  0.6035E+03
      2.262  0.7738E+02  0.7106E+02  0.6079E+03  0.6073E+03
      2.316  0.8264E+02  0.9002E+02  0.6123E+03  0.6122E+03
      2.369  0.6634E+02  0.6406E+02  0.6159E+03  0.6156E+03
      2.423  0.7369E+02  0.7117E+02  0.6199E+03  0.6195E+03
      2.477  0.8565E+02  0.8278E+02  0.6245E+03  0.6239E+03
      2.531  0.9701E+02  0.9670E+02  0.6297E+03  0.6291E+03
      2.585  0.6718E+02  0.6085E+02  0.6333E+03  0.6324E+03
      2.639  0.4100E+02  0.5343E+02  0.6355E+03  0.6353E+03
      2.693  0.9127E+02  0.8349E+02  0.6405E+03  0.6398E+03
      2.746  0.6328E+02  0.7261E+02  0.6439E+03  0.6437E+03
      2.800  0.6145E+02  0.5747E+02  0.6472E+03  0.6468E+03
      2.854  0.3592E+02  0.3814E+02  0.6491E+03  0.6488E+03
      2.908  0.5732E+02  0.5414E+02  0.6522E+03  0.6518E+03
      2.962  0.5034E+02  0.5437E+02  0.6549E+03  0.6547E+03
      3.016  0.2587E+02  0.2551E+02  0.6563E+03  0.6561E+03
      3.069  0.5408E+02  0.5059E+02  0.6592E+03  0.6588E+03
      3.123  0.3543E+02  0.3706E+02  0.6611E+03  0.6608E+03
      3.177  0.3761E+02  0.3232E+02  0.6632E+03  0.6625E+03
      3.231  0.6519E+02  0.6387E+02  0.6667E+03  0.6660E+03
      3.285  0.5194E+02  0.5554E+02  0.6695E+03  0.6689E+03
      3.339  0.2893E+02  0.3183E+02  0.6710E+03  0.6707E+03
      3.393  0.1741E+02  0.2016E+02  0.6720E+03  0.6717E+03
      3.446  0.3211E+02  0.3384E+02  0.6737E+03  0.6736E+03
      3.500  0.2499E+02  0.1982E+02  0.6750E+03  0.6746E+03
      3.554  0.4990E+02  0.5159E+02  0.6777E+03  0.6774E+03
      3.608  0.1667E+02  0.1470E+02  0.6786E+03  0.6782E+03
      3.662  0.6484E+02  0.6095E+02  0.6821E+03  0.6815E+03
      3.716  0.2239E+02  0.3132E+02  0.6833E+03  0.6832E+03
      3.770  0.1811E+02  0.1167E+02  0.6843E+03  0.6838E+03
      3.823  0.7075E+01  0.1610E+02  0.6847E+03  0.6847E+03
      3.877  0.7418E+01  0.6272E+01  0.6851E+03  0.6850E+03
      3.931  0.2297E+02  0.2161E+02  0.6863E+03  0.6862E+03
      3.985  0.1713E+02  0.1388E+02  0.6872E+03  0.6869E+03
      4.039  0.4555E+02  0.4769E+02  0.6897E+03  0.6895E+03
      4.093  0.2727E+02  0.2461E+02  0.6911E+03  0.6908E+03
      4.147  0.5145E+02  0.5470E+02  0.6939E+03  0.6938E+03
      4.200  0.2487E+02  0.2527E+02  0.6953E+03  0.6951E+03
      4.254  0.1940E+02  0.1912E+02  0.6963E+03  0.6961E+03
      4.308  0.3850E+02  0.3310E+02  0.6984E+03  0.6979E+03
      4.362  0.5202E+02  0.5713E+02  0.7012E+03  0.7010E+03
      4.416  0.6791E+02  0.6703E+02  0.7048E+03  0.7046E+03
      4.470  0.6967E+02  0.6644E+02  0.7086E+03  0.7082E+03
      4.523  0.5710E+02  0.6044E+02  0.7117E+03  0.7114E+03
      4.577  0.5214E+02  0.5087E+02  0.7145E+03  0.7142E+03
      4.631  0.8010E+02  0.8160E+02  0.7188E+03  0.7186E+03
      4.685  0.7370E+02  0.6986E+02  0.7228E+03  0.7223E+03
      4.739  0.9544E+02  0.9498E+02  0.7279E+03  0.7275E+03
      4.793  0.6192E+02  0.6179E+02  0.7312E+03  0.7308E+03
      4.847  0.8924E+02  0.9274E+02  0.7360E+03  0.7358E+03
      4.900  0.1005E+03  0.1029E+03  0.7414E+03  0.7413E+03
      4.954  0.1104E+03  0.1040E+03  0.7474E+03  0.7469E+03
      5.008  0.9902E+02  0.9875E+02  0.7527E+03  0.7522E+03
      5.062  0.1314E+03  0.1303E+03  0.7598E+03  0.7593E+03
      5.116  0.1007E+03  0.9991E+02  0.7652E+03  0.7646E+03
      5.170  0.1034E+03  0.1076E+03  0.7708E+03  0.7704E+03
      5.224  0.1010E+03  0.9865E+02  0.7762E+03  0.7757E+03
      5.277  0.1007E+03  0.1011E+03  0.7816E+03  0.7812E+03
      5.331  0.1249E+03  0.1269E+03  0.7884E+03  0.7880E+03
      5.385  0.9424E+02  0.9129E+02  0.7934E+03  0.7929E+03
      5.439  0.9668E+02  0.9822E+02  0.7986E+03  0.7982E+03
      5.493  0.1032E+03  0.9539E+02  0.8042E+03  0.8034E+03
      5.547  0.6036E+02  0.6097E+02  0.8075E+03  0.8066E+03
      5.601  0.1004E+02  0.2511E+02  0.8080E+03  0.8080E+03
      5.654  0.0000E+00  0.0000E+00  0.8080E+03  0.8080E+03
      5.708  0.0000E+00  0.0000E+00  0.8080E+03  0.8080E+03
      5.762  0.0000E+00  0.0000E+00  0.8080E+03  0.8080E+03
      5.816  0.0000E+00  0.0000E+00  0.8080E+03  0.8080E+03
      5.870  0.0000E+00  0.0000E+00  0.8080E+03  0.8080E+03
      5.924  0.0000E+00  0.0000E+00  0.8080E+03  0.8080E+03
      5.977  0.0000E+00  0.0000E+00  0.8080E+03  0.8080E+03
      6.031  0.0000E+00  0.0000E+00  0.8080E+03  0.8080E+03
      6.085  0.0000E+00  0.0000E+00  0.8080E+03  0.8080E+03
      6.139  0.0000E+00  0.0000E+00  0.8080E+03  0.8080E+03
      6.193  0.0000E+00  0.0000E+00  0.8080E+03  0.8080E+03
      6.247  0.0000E+00  0.0000E+00  0.8080E+03  0.8080E+03
      6.301  0.0000E+00  0.0000E+00  0.8080E+03  0.8080E+03
