 vasp.6.4.3 19Mar24 (build Oct 22 2024 11:23:12) complex                        
  
 executed on             LinuxIFC date 2025.06.04  07:33:43
 running   64 mpi-ranks, on    4 nodes
 distrk:  each k-point on   64 cores,    1 groups
 distr:  one band on NCORE=  16 cores,    4 groups


--------------------------------------------------------------------------------------------------------


 INCAR:
   SYSTEM = Si and Ge interface calculation
   ISTART = 0
   ICHARG = 2
   LWAVE = .FALSE.
   LREAL = AUTO
   ENCUT = 700
   ENAUG = 900
   ADDGRID = .TRUE.
   LMAXMIX = 6
   LASPH = .TRUE.
   LMIXTAU = .TRUE.
   NCORE = 16
   NELM = 100
   NBANDS = 231
   EDIFF = 1d-7
   AMIX = 0.6
   ISMEAR = 0
   SIGMA = 0.01
   NELECT = 384
   ISPIN = 2
   NUPDOWN = 1
   LVTOT = .FALSE.
   LVHAR = .TRUE.

 POTCAR:    PAW_PBE Ge 05Jan2001                  
 -----------------------------------------------------------------------------
|                                                                             |
|           W    W    AA    RRRRR   N    N  II  N    N   GGGG   !!!           |
|           W    W   A  A   R    R  NN   N  II  NN   N  G    G  !!!           |
|           W    W  A    A  R    R  N N  N  II  N N  N  G       !!!           |
|           W WW W  AAAAAA  RRRRR   N  N N  II  N  N N  G  GGG   !            |
|           WW  WW  A    A  R   R   N   NN  II  N   NN  G    G                |
|           W    W  A    A  R    R  N    N  II  N    N   GGGG   !!!           |
|                                                                             |
|     You use a magnetic or noncollinear calculation, but did not specify     |
|     the initial magnetic moment with the MAGMOM tag. Note that a            |
|     default of 0.01 will be used for all atoms. This ferromagnetic          |
|     setup may break the symmetry of the crystal, in particular it may       |
|     rule out finding an antiferromagnetic solution. Thence, we              |
|     recommend setting the initial magnetic moment manually or verifying     |
|     carefully that this magnetic setup is desired.                          |
|                                                                             |
 -----------------------------------------------------------------------------

 POTCAR:    PAW_PBE Ge 05Jan2001                  
   VRHFIN =Ge: s2p2                                                                                 
   LEXCH  = PE                                                                                      
   EATOM  =   104.9960 eV,    7.7170 Ry                                                             
                                                                                                    
   TITEL  = PAW_PBE Ge 05Jan2001                                                                    
   LULTRA =        F    use ultrasoft PP ?                                                          
   IUNSCR =        1    unscreen: 0-lin 1-nonlin 2-no                                               
   RPACOR =    2.170    partial core radius                                                         
   POMASS =   72.610; ZVAL   =    4.000    mass and valenz                                          
   RCORE  =    2.300    outmost cutoff radius                                                       
   RWIGS  =    2.300; RWIGS  =    1.217    wigner-seitz radius (au A)                               
   ENMAX  =  173.807; ENMIN  =  130.355 eV                                                          
   ICORE  =        3    local potential                                                             
   LCOR   =        T    correct aug charges                                                         
   LPAW   =        T    paw PP                                                                      
   EAUG   =  385.843                                                                                
   DEXC   =    0.000                                                                                
   RMAX   =    2.342    core radius for proj-oper                                                   
   RAUG   =    1.300    factor for augmentation sphere                                              
   RDEP   =    2.318    radius for radial grids                                                     
   RDEPT  =    2.103    core radius for aug-charge                                                  
                                                                                                    
   Atomic configuration                                                                             
   10 entries                                                                                       
     n  l   j            E        occ.                                                              
     1  0  0.50    -10959.8463   2.0000                                                             
     2  0  0.50     -1371.6056   2.0000                                                             
     2  1  1.50     -1198.4791   6.0000                                                             
     3  0  0.50      -168.4733   2.0000                                                             
     3  1  1.50      -115.6019   6.0000                                                             
     3  2  2.50       -29.3106  10.0000                                                             
     4  0  0.50       -11.7309   2.0000                                                             
     4  1  0.50        -3.8952   2.0000                                                             
     4  2  1.50        -4.0817   0.0000                                                             
     4  3  2.50        -4.0817   0.0000                                                             
   Description                                                                                      
     l       E           TYP  RCUT    TYP  RCUT                                                     
     0    -11.7309493     23  2.300                                                                 
     0     -7.4578696     23  2.300                                                                 
     1     -3.8952261     23  2.300                                                                 
     1      6.1178114     23  2.300                                                                 
     2     -4.0817478     23  2.300                                                                 
     3     -1.3605826      7  2.300                                                                 
  local pseudopotential read in
  partial core-charges read in
  partial kinetic energy density read in
  atomic valenz-charges read in
  non local Contribution for L=           0  read in
    real space projection operators read in
  non local Contribution for L=           0  read in
    real space projection operators read in
  non local Contribution for L=           1  read in
    real space projection operators read in
  non local Contribution for L=           1  read in
    real space projection operators read in
  non local Contribution for L=           2  read in
    real space projection operators read in
    PAW grid and wavefunctions read in
 
   number of l-projection  operators is LMAX  =           5
   number of lm-projection operators is LMMAX =          13
 
 Optimization of the real space projectors (new method)

 maximal supplied QI-value         = 16.25
 optimisation between [QCUT,QGAM] = [ 13.49, 26.98] = [ 50.95,203.80] Ry 
 Optimized for a Real-space Cutoff    1.25 Angstroem

   l    n(q)    QCUT    max X(q) W(low)/X(q) W(high)/X(q)  e(spline) 
   0     10    13.489    65.336    0.91E-04    0.11E-03    0.34E-06
   0     10    13.489    52.220    0.89E-04    0.11E-03    0.34E-06
   1     10    13.489    36.409    0.22E-03    0.27E-03    0.14E-06
   1     10    13.489    21.334    0.21E-03    0.27E-03    0.14E-06
   2      9    13.489     4.673    0.11E-03    0.12E-03    0.19E-06
  PAW_PBE Ge 05Jan2001                  :
 energy of atom  1       EATOM= -104.9960
 kinetic energy error for atom=    0.0001 (will be added to EATOM!!)
 
 
 POSCAR: Ge+Ge
  positions in direct lattice
  No initial velocities read in


 exchange-correlation table for PE
   RHO(1)=    0.500       N(1)  =     2000
   RHO(2)=  100.500       N(2)  =     4000
 


--------------------------------------------------------------------------------------------------------


 ion  position               nearest neighbor table
   1  0.784  0.490  0.414-  51 2.45  57 2.45   7 2.48  29 2.48
   2  0.993  0.948  0.000-  49 2.14  38 2.45  21 2.45  39 2.45  79 2.74
   3  0.951  0.656  0.083-  22 2.45  39 2.45  40 2.45
   4  0.909  0.365  0.166-  20 2.45  41 2.45  51 2.45  40 2.45
   5  0.868  0.073  0.249-  21 2.45  41 2.45  24 2.45  58 2.45
   6  0.826  0.781  0.332-  22 2.45  56 2.45  58 2.45  57 2.45  25 2.48  19 2.48
   7  0.843  0.503  0.583-  29 0.00  63 2.45  31 2.45  18 2.45   1 2.48
   8  0.493  0.448  0.000-  55 2.14  45 2.45  15 2.45  44 2.45  73 2.74
   9  0.451  0.156  0.083-  45 2.45  16 2.45  46 2.45
  10  0.409  0.865  0.166-  14 2.45  47 2.45  17 2.45  46 2.45
  11  0.510  0.419  0.500-  13 2.45  76 2.45  74 2.48
  12  0.326  0.281  0.332-  16 2.45  43 2.45  74 2.45  50 2.45  92 2.45  13 2.48
  13  0.385  0.294  0.500-  69 2.45  11 2.45  87 2.45  12 2.48  43 2.53
  14  0.368  0.823  0.000-  67 2.14  10 2.45  26 2.45  79 2.67  91 2.74  84 2.82
  15  0.326  0.531  0.083-  86 2.45  27 2.45   8 2.45  26 2.45  55 2.82
  16  0.284  0.240  0.166-  12 2.45  28 2.45   9 2.45  27 2.45
  17  0.243  0.948  0.249-  28 2.45  10 2.45  75 2.45
  18  0.926  0.336  0.666-  78 2.45  23 2.45  52 2.45   7 2.45  29 2.45
  19  0.885  0.794  0.500-  25 0.00  93 2.45  63 2.45   6 2.48  57 2.53
  20  0.868  0.323  0.000-  61 2.14   4 2.45  32 2.45  73 2.67  85 2.74  78 2.82
  21  0.826  0.031  0.083-   5 2.45   2 2.45  32 2.45  33 2.45  49 2.82
  22  0.784  0.740  0.166-   6 2.45   3 2.45  34 2.45  33 2.45
  23  0.093  0.253  0.583-  18 2.45  87 2.45  70 2.45
  24  0.701  0.156  0.332-  36 2.45   5 2.45  35 2.45
  25  0.885  0.794  0.500-  19 0.00  93 2.45  63 2.45   6 2.48  57 2.53
  26  0.243  0.698  0.000-  79 2.14  14 2.45  39 2.45  15 2.45  55 2.74
  27  0.201  0.406  0.083-  15 2.45  40 2.45  16 2.45
  28  0.159  0.115  0.166-  17 2.45  38 2.45  16 2.45  41 2.45
  29  0.843  0.503  0.583-   7 0.00  63 2.45  31 2.45  18 2.45   1 2.48
  30  0.076  0.531  0.332-  40 2.45  57 2.45  50 2.45  92 2.45  88 2.45  68 2.45  48 2.48
  31  0.676  0.586  0.666-  60 2.45  29 2.45   7 2.45  76 2.45  37 2.45
  32  0.743  0.198  0.000-  73 2.14  21 2.45  20 2.45  45 2.45  49 2.74
  33  0.701  0.906  0.083-  46 2.45  21 2.45  22 2.45
  34  0.659  0.615  0.166-  51 2.45  44 2.45  22 2.45  47 2.45
  35  0.618  0.323  0.249-  51 2.45  24 2.45  45 2.45  74 2.45
  36  0.576  0.031  0.332-  46 2.45  24 2.45  56 2.45  43 2.45  80 2.48
  37  0.593  0.753  0.583-  93 2.45  94 2.45  31 2.45  64 2.48
  38  0.118  0.073  0.000-  85 2.14   2 2.45  28 2.45  49 2.67  67 2.74  54 2.82
  39  0.076  0.781  0.083-  75 2.45   3 2.45  26 2.45   2 2.45  79 2.82
  40  0.034  0.490  0.166-  30 2.45  27 2.45   4 2.45   3 2.45
  41  0.993  0.198  0.249-   5 2.45   4 2.45  28 2.45
  42  0.301  0.711  0.666-  94 2.45  95 2.45  62 2.45  65 2.45
  43  0.409  0.115  0.414-  12 2.45  36 2.45  69 2.48  13 2.53
  44  0.618  0.573  0.000-  91 2.14  34 2.45   8 2.45  55 2.67  61 2.74  60 2.82
  45  0.576  0.281  0.083-   8 2.45   9 2.45  35 2.45  32 2.45  73 2.82
  46  0.534  0.990  0.166-  36 2.45  33 2.45  10 2.45   9 2.45
  47  0.493  0.698  0.249-  64 2.45  86 2.45  10 2.45  34 2.45
  48  0.135  0.544  0.500-  63 2.45  87 2.45  62 2.45  30 2.48  50 2.53  92 2.53
  49  0.926  0.086  0.914-   2 2.14  71 2.45  85 2.45  38 2.67  32 2.74  21 2.82
  50  0.159  0.365  0.414-  92 0.00  12 2.45  30 2.45  87 2.48  48 2.53
  51  0.743  0.448  0.249-  35 2.45  34 2.45   1 2.45   4 2.45
  52  0.801  0.211  0.666-  89 2.45  71 2.45  18 2.45
  53  0.510  0.169  0.749-  89 2.45  90 2.45  69 2.45  72 2.45
  54  0.218  0.128  0.832-  67 2.45  90 2.45  70 2.45  85 2.45  38 2.82
  55  0.426  0.586  0.914-   8 2.14  65 2.45  91 2.45  44 2.67  26 2.74  15 2.82
  56  0.659  0.865  0.414-  64 2.45   6 2.45  36 2.45  93 2.48  80 2.53
  57  0.909  0.615  0.414-   1 2.45   6 2.45  30 2.45  63 2.48  19 2.53  25 2.53
  58  0.951  0.906  0.332-  75 2.45   5 2.45   6 2.45
  59  0.010  0.669  0.749-  66 2.45  96 2.45  95 2.45  63 2.45
  60  0.718  0.628  0.832-  31 2.45  61 2.45  91 2.45  96 2.45  44 2.82
  61  0.801  0.461  0.914-  20 2.14  60 2.45  73 2.45  78 2.45  44 2.74
  62  0.260  0.669  0.500-  42 2.45  48 2.45  68 2.48  88 2.48
  63  0.968  0.628  0.583-  48 2.45  29 2.45   7 2.45  19 2.45  25 2.45  59 2.45  57 2.48
  64  0.534  0.740  0.414-  56 2.45  47 2.45  37 2.48
  65  0.385  0.544  0.749-  55 2.45  76 2.45  42 2.45  77 2.45
  66  0.093  0.503  0.832-  77 2.45  59 2.45  78 2.45
  67  0.301  0.961  0.914-  14 2.14  79 2.45  54 2.45  84 2.45  38 2.74
  68  0.201  0.656  0.332-  88 0.00  86 2.45  75 2.45  30 2.45  62 2.48
  69  0.468  0.128  0.583-  13 2.45  81 2.45  80 2.45  53 2.45  43 2.48
  70  0.176  0.086  0.666-  82 2.45  54 2.45  81 2.45  23 2.45
  71  0.885  0.044  0.749-  49 2.45  52 2.45  82 2.45  83 2.45
  72  0.593  0.003  0.832-  84 2.45  83 2.45  53 2.45
  73  0.676  0.336  0.914-  32 2.14  61 2.45  89 2.45  20 2.67   8 2.74  45 2.82
  74  0.451  0.406  0.332-  12 2.45  86 2.45  35 2.45  11 2.48
  75  0.118  0.823  0.249-  58 2.45  39 2.45  17 2.45  68 2.45  88 2.45
  76  0.551  0.461  0.666-  65 2.45  89 2.45  31 2.45  11 2.45
  77  0.260  0.419  0.749-  87 2.45  66 2.45  90 2.45  65 2.45
  78  0.968  0.378  0.832-  18 2.45  85 2.45  61 2.45  66 2.45  20 2.82
  79  0.176  0.836  0.914-  26 2.14  67 2.45  95 2.45  14 2.67   2 2.74  39 2.82
  80  0.635  0.044  0.500-  69 2.45  93 2.45  36 2.48  56 2.53
  81  0.343  0.003  0.583-  69 2.45  70 2.45  94 2.45
  82  0.051  0.961  0.666-  95 2.45  70 2.45  71 2.45
  83  0.760  0.919  0.749-  72 2.45  71 2.45  96 2.45  93 2.45
  84  0.468  0.878  0.832-  72 2.45  94 2.45  67 2.45  91 2.45  14 2.82
  85  0.051  0.211  0.914-  38 2.14  49 2.45  78 2.45  54 2.45  20 2.74
  86  0.368  0.573  0.249-  15 2.45  47 2.45  68 2.45  88 2.45  74 2.45
  87  0.218  0.378  0.583-  77 2.45  13 2.45  48 2.45  23 2.45  50 2.48  92 2.48
  88  0.201  0.656  0.332-  68 0.00  86 2.45  75 2.45  30 2.45  62 2.48
  89  0.635  0.294  0.749-  76 2.45  52 2.45  53 2.45  73 2.45
  90  0.343  0.253  0.832-  54 2.45  53 2.45  77 2.45
  91  0.551  0.711  0.914-  44 2.14  60 2.45  84 2.45  55 2.45  14 2.74
  92  0.159  0.365  0.414-  50 0.00  12 2.45  30 2.45  87 2.48  48 2.53
  93  0.718  0.878  0.583-  37 2.45  25 2.45  19 2.45  83 2.45  80 2.45  56 2.48
  94  0.426  0.836  0.666-  84 2.45  42 2.45  37 2.45  81 2.45
  95  0.135  0.794  0.749-  79 2.45  82 2.45  42 2.45  59 2.45
  96  0.843  0.753  0.832-  83 2.45  59 2.45  60 2.45
 
 -----------------------------------------------------------------------------
|                                                                             |
|           W    W    AA    RRRRR   N    N  II  N    N   GGGG   !!!           |
|           W    W   A  A   R    R  NN   N  II  NN   N  G    G  !!!           |
|           W    W  A    A  R    R  N N  N  II  N N  N  G       !!!           |
|           W WW W  AAAAAA  RRRRR   N  N N  II  N  N N  G  GGG   !            |
|           WW  WW  A    A  R   R   N   NN  II  N   NN  G    G                |
|           W    W  A    A  R    R  N    N  II  N    N   GGGG   !!!           |
|                                                                             |
|     The distance between some ions is very small. Please check the          |
|     nearest-neighbor list in the OUTCAR file.                               |
|     I HOPE YOU KNOW WHAT YOU ARE DOING!                                     |
|                                                                             |
 -----------------------------------------------------------------------------

  LATTYP: Found a base centered orthorhombic cell.
 ALAT       =    16.0026764918
 B/A-ratio  =     1.2247448613
 C/A-ratio  =     0.8707237428
  
  Lattice vectors:
  
 A1 = (  -2.5302453040, -12.3956203460,   0.0000000000)
 A2 = (  12.6512260440,   0.0000000000,   0.0000000000)
 A3 = (   0.0000000000,   0.0000000000,  13.9339103700)


Analysis of symmetry for initial positions (statically):
=====================================================================
 Subroutine PRICEL returns:
 Original cell was already a primitive cell.
 

 Routine SETGRP: Setting up the symmetry group for a 
 base centered orthorhombic supercell.


 Subroutine GETGRP returns: Found  2 space group operations
 (whereof  1 operations were pure point group operations)
 out of a pool of  8 trial point group operations.


The static configuration has the point symmetry C_1 .
 The point group associated with its full space group is S_2 .


Analysis of symmetry for dynamics (positions and initial velocities):
=====================================================================
 Subroutine PRICEL returns:
 Original cell was already a primitive cell.
 

 Routine SETGRP: Setting up the symmetry group for a 
 base centered orthorhombic supercell.


 Subroutine GETGRP returns: Found  2 space group operations
 (whereof  1 operations were pure point group operations)
 out of a pool of  8 trial point group operations.


The dynamic configuration has the point symmetry C_1 .
 The point group associated with its full space group is S_2 .


Analysis of structural, dynamic, and magnetic symmetry:
=====================================================================
 Subroutine PRICEL returns:
 Original cell was already a primitive cell.
 

 Routine SETGRP: Setting up the symmetry group for a 
 base centered orthorhombic supercell.


 Subroutine GETGRP returns: Found  2 space group operations
 (whereof  1 operations were pure point group operations)
 out of a pool of  8 trial point group operations.


The overall configuration has the point symmetry C_1 .
 The point group associated with its full space group is S_2 .


 Subroutine INISYM returns: Found  2 space group operations
 (whereof  1 operations are pure point group operations),
 and found     1 'primitive' translations


----------------------------------------------------------------------------------------

                                     Primitive cell                                     

  volume of cell :    2185.1130

  direct lattice vectors                    reciprocal lattice vectors
    12.651226044  0.000000000  0.000000000     0.079043722 -0.016134732  0.000000000
     2.530245304 12.395620346  0.000000000     0.000000000  0.080673655  0.000000000
     0.000000000  0.000000000 13.933910370     0.000000000  0.000000000  0.071767363

  length of vectors
    12.651226044 12.651227018 13.933910370     0.080673661  0.080673655  0.071767363

  position of ions in fractional coordinates (direct lattice)
     0.784256577  0.489798665  0.414418638
     0.992590368  0.948132515  0.000000022
     0.950923562  0.656465769  0.082883760
     0.909256816  0.364798903  0.165767506
     0.867590070  0.073132217  0.248651221
     0.825923324  0.781465530  0.331534892
     0.842973709  0.502510905  0.582883716
     0.492590368  0.448132515  0.000000028
     0.450923622  0.156465769  0.082883760
     0.409256876  0.864798963  0.165767506
     0.509640455  0.419177681  0.500000000
     0.325923383  0.281465530  0.331534922
     0.384640455  0.294177651  0.500000000
     0.367590398  0.823132634  0.000000012
     0.325923622  0.531465828  0.082883760
     0.284256876  0.239799008  0.165767536
     0.242590174  0.948132396  0.248651192
     0.926306963  0.335844189  0.665767550
     0.884640455  0.794177651  0.500000000
     0.867590487  0.323132575  0.000000012
     0.825923681  0.031465776  0.082883760
     0.784256876  0.739798903  0.165767506
     0.092973590  0.252510905  0.582883716
     0.700923383  0.156465530  0.331534892
     0.884640455  0.794177651  0.500000000
     0.242590353  0.698132634  0.000000000
     0.200923592  0.406465799  0.082883753
     0.159256846  0.114798956  0.165767506
     0.842973709  0.502510905  0.582883716
     0.075923339  0.531465530  0.331534892
     0.676307023  0.585844219  0.665767550
     0.742590427  0.198132515  0.000000021
     0.700923622  0.906465709  0.082883768
     0.659256876  0.614798903  0.165767506
     0.617590249  0.323132336  0.248651221
     0.575923443  0.031465471  0.331534892
     0.592973650  0.752510905  0.582883716
     0.117590360  0.073132515  0.000000021
     0.075923599  0.781465769  0.082883760
     0.034256846  0.489798963  0.165767506
     0.992590070  0.198132217  0.248651221
     0.301306963  0.710844219  0.665767550
     0.409256607  0.114798844  0.414418697
     0.617590487  0.573132575  0.000000012
     0.575923622  0.281465828  0.082883753
     0.534256935  0.989799023  0.165767536
     0.492590189  0.698132277  0.248651251
     0.134640455  0.544177651  0.500000000
     0.926306605  0.085843921  0.914418697
     0.159256637  0.364798784  0.414418697
     0.742590129  0.448132336  0.248651192
     0.801306903  0.210844159  0.665767550
     0.509640157  0.169177413  0.748651266
     0.217973471  0.127510667  0.831534982
     0.426306605  0.585843921  0.914418697
     0.659256577  0.864798665  0.414418638
     0.909256577  0.614798784  0.414418697
     0.950923383  0.906465530  0.331534922
     0.009640217  0.669177413  0.748651266
     0.717973411  0.627510667  0.831534982
     0.801306725  0.460843980  0.914418697
     0.259640574  0.669177711  0.500000000
     0.967973769  0.627510905  0.582883716
     0.534256697  0.739798665  0.414418697
     0.384640336  0.544177473  0.748651266
     0.092973590  0.502510726  0.831534982
     0.301306605  0.960843921  0.914418578
     0.200923383  0.656465650  0.331534922
     0.467973709  0.127511024  0.582883716
     0.176306963  0.085844159  0.665767550
     0.884640276  0.044177532  0.748651266
     0.592973471  0.002510667  0.831534982
     0.676306665  0.335843891  0.914418697
     0.450923443  0.406465530  0.331534952
     0.117590085  0.823132396  0.248651177
     0.551306963  0.460844159  0.665767550
     0.259640217  0.419177413  0.748651147
     0.967973471  0.377510667  0.831534863
     0.176306605  0.835844040  0.914418697
     0.634640455  0.044177771  0.500000000
     0.342973709  0.002511024  0.582883716
     0.051306963  0.960844159  0.665767550
     0.759640217  0.919177532  0.748651266
     0.467973411  0.877510786  0.831534982
     0.051306605  0.210843921  0.914418697
     0.367590129  0.573132277  0.248651221
     0.217973709  0.377510905  0.582883716
     0.200923383  0.656465650  0.331534922
     0.634640157  0.294177413  0.748651147
     0.342973471  0.252510667  0.831534982
     0.551306725  0.710844040  0.914418697
     0.159256637  0.364798784  0.414418697
     0.717973709  0.877510905  0.582883716
     0.426306963  0.835844278  0.665767550
     0.134640217  0.794177532  0.748651266
     0.842973471  0.752510786  0.831534982

  ion indices of the primitive-cell ions
   primitive index   ion index
                 1           1
                 2           2
                 3           3
                 4           4
                 5           5
                 6           6
                 7           7
                 8           8
                 9           9
                10          10
                11          11
                12          12
                13          13
                14          14
                15          15
                16          16
                17          17
                18          18
                19          19
                20          20
                21          21
                22          22
                23          23
                24          24
                25          25
                26          26
                27          27
                28          28
                29          29
                30          30
                31          31
                32          32
                33          33
                34          34
                35          35
                36          36
                37          37
                38          38
                39          39
                40          40
                41          41
                42          42
                43          43
                44          44
                45          45
                46          46
                47          47
                48          48
                49          49
                50          50
                51          51
                52          52
                53          53
                54          54
                55          55
                56          56
                57          57
                58          58
                59          59
                60          60
                61          61
                62          62
                63          63
                64          64
                65          65
                66          66
                67          67
                68          68
                69          69
                70          70
                71          71
                72          72
                73          73
                74          74
                75          75
                76          76
                77          77
                78          78
                79          79
                80          80
                81          81
                82          82
                83          83
                84          84
                85          85
                86          86
                87          87
                88          88
                89          89
                90          90
                91          91
                92          92
                93          93
                94          94
                95          95
                96          96

----------------------------------------------------------------------------------------

 
 
 KPOINTS: Automatic KPOINTS generated             

Automatic generation of k-mesh.
 Grid dimensions read from file:
 generate k-points for:    3    3    2

 Generating k-lattice:

  Cartesian coordinates                     Fractional coordinates (reciprocal lattice)
     0.026347907 -0.005378244  0.000000000     0.333333333 -0.000000000  0.000000000
     0.000000000  0.026891218  0.000000000     0.000000000  0.333333333  0.000000000
     0.000000000  0.000000000  0.035883681     0.000000000  0.000000000  0.500000000

  Length of vectors
     0.026891220  0.026891218  0.035883681

  Shift w.r.t. Gamma in fractional coordinates (k-lattice)
     0.000000000  0.000000000  0.000000000

 
 Subroutine IBZKPT returns following result:
 ===========================================
 
 Found     10 irreducible k-points:
 
 Following reciprocal coordinates:
            Coordinates               Weight
  0.000000  0.000000  0.000000      1.000000
  0.333333  0.000000  0.000000      2.000000
  0.000000 -0.333333  0.000000      2.000000
  0.333333  0.333333  0.000000      2.000000
 -0.333333  0.333333  0.000000      2.000000
  0.000000  0.000000  0.500000      1.000000
  0.333333  0.000000  0.500000      2.000000
  0.000000 -0.333333  0.500000      2.000000
  0.333333  0.333333  0.500000      2.000000
 -0.333333  0.333333  0.500000      2.000000
 
 Following cartesian coordinates:
            Coordinates               Weight
  0.000000  0.000000  0.000000      1.000000
  0.026348 -0.005378  0.000000      2.000000
  0.000000 -0.026891  0.000000      2.000000
  0.026348  0.021513  0.000000      2.000000
 -0.026348  0.032269  0.000000      2.000000
  0.000000  0.000000  0.035884      1.000000
  0.026348 -0.005378  0.035884      2.000000
  0.000000 -0.026891  0.035884      2.000000
  0.026348  0.021513  0.035884      2.000000
 -0.026348  0.032269  0.035884      2.000000
 
 -----------------------------------------------------------------------------
|                                                                             |
|           W    W    AA    RRRRR   N    N  II  N    N   GGGG   !!!           |
|           W    W   A  A   R    R  NN   N  II  NN   N  G    G  !!!           |
|           W    W  A    A  R    R  N N  N  II  N N  N  G       !!!           |
|           W WW W  AAAAAA  RRRRR   N  N N  II  N  N N  G  GGG   !            |
|           WW  WW  A    A  R   R   N   NN  II  N   NN  G    G                |
|           W    W  A    A  R    R  N    N  II  N    N   GGGG   !!!           |
|                                                                             |
|     The number of bands has been changed from the values supplied in        |
|     the INCAR file. This is a result of running the parallel version.       |
|     The orbitals not found in the WAVECAR file will be initialized with     |
|     random numbers, which is usually adequate. For correlated               |
|     calculations, however, you should redo the groundstate calculation.     |
|     I found NBANDS = 231. Now, NBANDS = 232.                                |
|                                                                             |
 -----------------------------------------------------------------------------



--------------------------------------------------------------------------------------------------------




 Dimension of arrays:
   k-points           NKPTS =     10   k-points in BZ     NKDIM =     10   number of bands    NBANDS=    232
   number of dos      NEDOS =    301   number of ions     NIONS =     96
   non local maximal  LDIM  =      5   non local SUM 2l+1 LMDIM =     13
   total plane-waves  NPLWV = 635040
   max r-space proj   IRMAX =   2405   max aug-charges    IRDMAX= 126548
   dimension x,y,z NGX =    84 NGY =   84 NGZ =   90
   dimension x,y,z NGXF=   168 NGYF=  168 NGZF=  180
   support grid    NGXF=   336 NGYF=  336 NGZF=  360
   ions per type =              96
   NGX,Y,Z   is equivalent  to a cutoff of  11.04, 11.04, 10.74 a.u.
   NGXF,Y,Z  is equivalent  to a cutoff of  22.08, 22.08, 21.48 a.u.

 SYSTEM =  Si and Ge interface calculation         
 POSCAR =  Ge+Ge                                   

 Startparameter for this run:
   NWRITE =      2    write-flag & timer
   PREC   = normal    normal or accurate (medium, high low for compatibility)
   ISTART =      0    job   : 0-new  1-cont  2-samecut
   ICHARG =      2    charge: 1-file 2-atom 10-const
   ISPIN  =      2    spin polarized calculation?
   LNONCOLLINEAR =      F non collinear calculations
   LSORBIT =      F    spin-orbit coupling
   INIWAV =      1    electr: 0-lowe 1-rand  2-diag
   LASPH  =      T    aspherical Exc in radial PAW
 Electronic Relaxation 1
   ENCUT  =  700.0 eV  51.45 Ry    7.17 a.u.  27.29 27.29 30.06*2*pi/ulx,y,z
   ENINI  =  700.0     initial cutoff
   ENAUG  =  900.0 eV  augmentation charge cutoff
   NELM   =    100;   NELMIN=  2; NELMDL= -5     # of ELM steps 
   EDIFF  = 0.1E-06   stopping-criterion for ELM
   LREAL  =      T    real-space projection
   NLSPLINE    = F    spline interpolate recip. space projectors
   LCOMPAT=      F    compatible to vasp.4.4
   GGA_COMPAT  = T    GGA compatible to vasp.4.4-vasp.4.6
   LMAXPAW     = -100 max onsite density
   LMAXMIX     =    6 max onsite mixed and CHGCAR
   VOSKOWN=      0    Vosko Wilk Nusair interpolation
   ROPT   =   -0.00050
 Ionic relaxation
   EDIFFG = 0.1E-05   stopping-criterion for IOM
   NSW    =      0    number of steps for IOM
   NBLOCK =      1;   KBLOCK =      1    inner block; outer block 
   IBRION =     -1    ionic relax: 0-MD 1-quasi-New 2-CG
   NFREE  =      0    steps in history (QN), initial steepest desc. (CG)
   ISIF   =      2    stress and relaxation
   IWAVPR =     10    prediction:  0-non 1-charg 2-wave 3-comb
   ISYM   =      2    0-nonsym 1-usesym 2-fastsym
   LCORR  =      T    Harris-Foulkes like correction to forces

   POTIM  = 0.5000    time-step for ionic-motion
   TEIN   =    0.0    initial temperature
   TEBEG  =    0.0;   TEEND  =   0.0 temperature during run
   SMASS  =  -3.00    Nose mass-parameter (am)
   estimated Nose-frequenzy (Omega)   =  0.10E-29 period in steps = 0.13E+47 mass=  -0.366E-26a.u.
   SCALEE = 1.0000    scale energy and forces
   NPACO  =    256;   APACO  = 10.0  distance and # of slots for P.C.
   PSTRESS=    0.0 pullay stress

  Mass of Ions in am
   POMASS =  72.61
  Ionic Valenz
   ZVAL   =   4.00
  Atomic Wigner-Seitz radii
   RWIGS  =  -1.00
  virtual crystal weights 
   VCA    =   1.00
   NELECT =     384.0000    total number of electrons
   NUPDOWN=       1.0000    fix difference up-down

 DOS related values:
   EMIN   =  10.00;   EMAX   =-10.00  energy-range for DOS
   EFERMI =   0.00;   METHOD = LEGACY      
   ISMEAR =     0;   SIGMA  =   0.01  broadening in eV -4-tet -1-fermi 0-gaus

 Electronic relaxation 2 (details)
   IALGO  =     38    algorithm
   LDIAG  =      T    sub-space diagonalisation (order eigenvalues)
   LSUBROT=      F    optimize rotation matrix (better conditioning)
   TURBO    =      0    0=normal 1=particle mesh
   IRESTART =      0    0=no restart 2=restart with 2 vectors
   NREBOOT  =      0    no. of reboots
   NMIN     =      0    reboot dimension
   EREF     =   0.00    reference energy to select bands
   IMIX   =      4    mixing-type and parameters
     AMIX     =   0.60;   BMIX     =  1.00
     AMIX_MAG =   2.40;   BMIX_MAG =  1.00
     AMIN     =   0.10
     WC   =   100.;   INIMIX=   1;  MIXPRE=   1;  MAXMIX= -45

 Intra band minimization:
   WEIMIN = 0.0000     energy-eigenvalue tresh-hold
   EBREAK =  0.11E-09  absolut break condition
   DEPER  =   0.30     relativ break condition  

   TIME   =   0.40     timestep for ELM

  volume/ion in A,a.u.               =      22.76       153.60
  Fermi-wavevector in a.u.,A,eV,Ry     =   0.916982  1.732844 11.440530  0.840855
  Thomas-Fermi vector in A             =   2.041899
 
 Write flags
   LWAVE        =      F    write WAVECAR
   LDOWNSAMPLE  =      F    k-point downsampling of WAVECAR
   LCHARG       =      T    write CHGCAR
   LVTOT        =      F    write LOCPOT, total local potential
   LVHAR        =      T    write LOCPOT, Hartree potential only
   WRT_POTENTIAL=  hartree ionic  ! write potential to hdf5 file
   LELF         =      F    write electronic localiz. function (ELF)
   LORBIT       =      0    0 simple, 1 ext, 2 COOP (PROOUT), +10 PAW based schemes


 Dipole corrections
   LMONO      =      F    monopole corrections only (constant potential shift)
   LDIPOL     =      F    correct potential (dipole corrections)
   IDIPOL     =      0    1-x, 2-y, 3-z, 4-all directions 
   EPSILON    =  1.0000000 bulk dielectric constant
   LVACPOTAV  =      F  vacuum potentials using an averaging scheme for the charge density
   VACPOTFLAT =  0.1000000 required flatness to determine vacuum potential
 Exchange correlation treatment:
   GGA     = PE    functional components
   XC_C    = 1    coefficients multiplying the functional components
   LIBXC   =     F    Libxc                    
   VOSKOWN =     0    Vosko Wilk Nusair interpolation
   LHFCALC =     F    Hartree Fock is set to
   LHFONE  =     F    Hartree Fock one center treatment
   AEXX    =    0.0000 exact exchange contribution

 Parameters of functionals:
   PE:
     No parameter
 
 Van der Waals corrections
   IVDW    =     0    specifies the selected vdW correction

 Linear response parameters
   LEPSILON=     F    determine dielectric tensor
   LRPA    =     F    only Hartree local field effects (RPA)
   LNABLA  =     F    use nabla operator in PAW spheres
   LVEL    =     F    velocity operator in full k-point grid
   CSHIFT  =0.1000    complex shift for real part using Kramers Kronig
   OMEGAMAX=  -1.0    maximum frequency
   DEG_THRESHOLD= 0.2000000E-02 threshold for treating states as degnerate
   RTIME   =   -0.100 relaxation time in fs
  (WPLASMAI=    0.000 imaginary part of plasma frequency in eV, 0.658/RTIME)
   DFIELD  = 0.0000000 0.0000000 0.0000000 field for delta impulse in time
 
  Optional k-point grid parameters
   LKPOINTS_OPT  =     F    use optional k-point grid
   KPOINTS_OPT_MODE=     1    mode for optional k-point grid
 
 Orbital magnetization related:
   ORBITALMAG=     F  switch on orbital magnetization
   LCHIMAG   =     F  perturbation theory with respect to B field
   DQ        =  0.001000  dq finite difference perturbation B field
   LLRAUG    =     F  two centre corrections for induced B field
   LBONE     =     F  B-component reconstruction in AE one-centre
   LVGVCALC  =     T  calculate vGv susceptibility
   LVGVAPPL  =     F  apply vGv susceptibility instead of pGv for G=0

 Random number generation:
   RANDOM_GENERATOR = DEFAULT
   PCG_SEED         = not used


--------------------------------------------------------------------------------------------------------


 Static calculation
 charge density and potential will be updated during run
 spin polarized calculation
 Variant of blocked Davidson
 Davidson routine will perform the subspace rotation
 perform sub-space diagonalisation
    after iterative eigenvector-optimisation
 modified Broyden-mixing scheme, WC =      100.0
 initial mixing is a Kerker type mixing with AMIX =  0.6000 and BMIX =      1.0000
 Hartree-type preconditioning will be used
 using additional bands           40
 real space projection scheme for non local part
 use partial core corrections
 calculate Harris-corrections to forces 
   (improved forces if not selfconsistent)
 use gradient corrections 
 use of overlap-Matrix (Vanderbilt PP)
 Gauss-broadening in eV      SIGMA  =   0.01


--------------------------------------------------------------------------------------------------------


  energy-cutoff  :      700.00
  volume of cell :     2185.11
      direct lattice vectors                 reciprocal lattice vectors
    12.651226044  0.000000000  0.000000000     0.079043722 -0.016134732  0.000000000
     2.530245304 12.395620346  0.000000000     0.000000000  0.080673655  0.000000000
     0.000000000  0.000000000 13.933910370     0.000000000  0.000000000  0.071767363

  length of vectors
    12.651226044 12.651227018 13.933910370     0.080673661  0.080673655  0.071767363


 
 k-points in units of 2pi/SCALE and weight: Automatic KPOINTS generated             
   0.00000000  0.00000000  0.00000000       0.056
   0.02634791 -0.00537824  0.00000000       0.111
   0.00000000 -0.02689122  0.00000000       0.111
   0.02634791  0.02151297  0.00000000       0.111
  -0.02634791  0.03226946  0.00000000       0.111
   0.00000000  0.00000000  0.03588368       0.056
   0.02634791 -0.00537824  0.03588368       0.111
   0.00000000 -0.02689122  0.03588368       0.111
   0.02634791  0.02151297  0.03588368       0.111
  -0.02634791  0.03226946  0.03588368       0.111
 
 k-points in reciprocal lattice and weights: Automatic KPOINTS generated             
   0.00000000  0.00000000  0.00000000       0.056
   0.33333333  0.00000000  0.00000000       0.111
   0.00000000 -0.33333333  0.00000000       0.111
   0.33333333  0.33333333  0.00000000       0.111
  -0.33333333  0.33333333  0.00000000       0.111
   0.00000000  0.00000000  0.50000000       0.056
   0.33333333  0.00000000  0.50000000       0.111
   0.00000000 -0.33333333  0.50000000       0.111
   0.33333333  0.33333333  0.50000000       0.111
  -0.33333333  0.33333333  0.50000000       0.111
 
 position of ions in fractional coordinates (direct lattice) 
   0.78425658  0.48979867  0.41441864
   0.99259037  0.94813251  0.00000002
   0.95092356  0.65646577  0.08288376
   0.90925682  0.36479890  0.16576751
   0.86759007  0.07313222  0.24865122
   0.82592332  0.78146553  0.33153489
   0.84297371  0.50251091  0.58288372
   0.49259037  0.44813251  0.00000003
   0.45092362  0.15646577  0.08288376
   0.40925688  0.86479896  0.16576751
   0.50964046  0.41917768  0.50000000
   0.32592338  0.28146553  0.33153492
   0.38464046  0.29417765  0.50000000
   0.36759040  0.82313263  0.00000001
   0.32592362  0.53146583  0.08288376
   0.28425688  0.23979901  0.16576754
   0.24259017  0.94813240  0.24865119
   0.92630696  0.33584419  0.66576755
   0.88464046  0.79417765  0.50000000
   0.86759049  0.32313258  0.00000001
   0.82592368  0.03146578  0.08288376
   0.78425688  0.73979890  0.16576751
   0.09297359  0.25251091  0.58288372
   0.70092338  0.15646553  0.33153489
   0.88464046  0.79417765  0.50000000
   0.24259035  0.69813263  0.00000000
   0.20092359  0.40646580  0.08288375
   0.15925685  0.11479896  0.16576751
   0.84297371  0.50251091  0.58288372
   0.07592334  0.53146553  0.33153489
   0.67630702  0.58584422  0.66576755
   0.74259043  0.19813251  0.00000002
   0.70092362  0.90646571  0.08288377
   0.65925688  0.61479890  0.16576751
   0.61759025  0.32313234  0.24865122
   0.57592344  0.03146547  0.33153489
   0.59297365  0.75251091  0.58288372
   0.11759036  0.07313251  0.00000002
   0.07592360  0.78146577  0.08288376
   0.03425685  0.48979896  0.16576751
   0.99259007  0.19813222  0.24865122
   0.30130696  0.71084422  0.66576755
   0.40925661  0.11479884  0.41441870
   0.61759049  0.57313258  0.00000001
   0.57592362  0.28146583  0.08288375
   0.53425694  0.98979902  0.16576754
   0.49259019  0.69813228  0.24865125
   0.13464046  0.54417765  0.50000000
   0.92630661  0.08584392  0.91441870
   0.15925664  0.36479878  0.41441870
   0.74259013  0.44813234  0.24865119
   0.80130690  0.21084416  0.66576755
   0.50964016  0.16917741  0.74865127
   0.21797347  0.12751067  0.83153498
   0.42630661  0.58584392  0.91441870
   0.65925658  0.86479867  0.41441864
   0.90925658  0.61479878  0.41441870
   0.95092338  0.90646553  0.33153492
   0.00964022  0.66917741  0.74865127
   0.71797341  0.62751067  0.83153498
   0.80130673  0.46084398  0.91441870
   0.25964057  0.66917771  0.50000000
   0.96797377  0.62751091  0.58288372
   0.53425670  0.73979867  0.41441870
   0.38464034  0.54417747  0.74865127
   0.09297359  0.50251073  0.83153498
   0.30130661  0.96084392  0.91441858
   0.20092338  0.65646565  0.33153492
   0.46797371  0.12751102  0.58288372
   0.17630696  0.08584416  0.66576755
   0.88464028  0.04417753  0.74865127
   0.59297347  0.00251067  0.83153498
   0.67630666  0.33584389  0.91441870
   0.45092344  0.40646553  0.33153495
   0.11759009  0.82313240  0.24865118
   0.55130696  0.46084416  0.66576755
   0.25964022  0.41917741  0.74865115
   0.96797347  0.37751067  0.83153486
   0.17630661  0.83584404  0.91441870
   0.63464046  0.04417777  0.50000000
   0.34297371  0.00251102  0.58288372
   0.05130696  0.96084416  0.66576755
   0.75964022  0.91917753  0.74865127
   0.46797341  0.87751079  0.83153498
   0.05130661  0.21084392  0.91441870
   0.36759013  0.57313228  0.24865122
   0.21797371  0.37751091  0.58288372
   0.20092338  0.65646565  0.33153492
   0.63464016  0.29417741  0.74865115
   0.34297347  0.25251067  0.83153498
   0.55130673  0.71084404  0.91441870
   0.15925664  0.36479878  0.41441870
   0.71797371  0.87751091  0.58288372
   0.42630696  0.83584428  0.66576755
   0.13464022  0.79417753  0.74865127
   0.84297347  0.75251079  0.83153498
 
 position of ions in cartesian coordinates  (Angst):
  11.16111800  6.07135830  5.77447216
  14.95649296 11.75269069  0.00000031
  13.69136836  8.13730044  1.15489488
  12.42624422  4.52190870  2.30978957
  11.16112054  0.90651920  3.46468383
  12.42624215  9.68675002  4.61957747
  11.93612680  6.22893440  8.12184945
   7.36575728  5.55488052  0.00000039
   6.10063345  1.93949027  1.15489488
   7.36575476 10.71971962  2.30978957
   7.50819896  5.19596739  6.96695518
   4.83550723  3.48893985  4.61957789
   5.61051496  3.64651448  6.96695518
   6.73319670 10.20323963  0.00000017
   5.46807233  6.58784863  1.15489488
   4.20294831  2.97245746  2.30978999
   5.46807067 11.75268922  3.46468342
  12.56868696  4.16299706  9.27674537
  13.20125064  9.84432465  6.96695518
  11.79368805  4.00542872  0.00000017
  10.52856332  0.39003781  1.15489488
  11.79368372  9.17026633  2.30978957
   1.81514443  3.13002931  8.12184945
   9.26343633  1.93948731  4.61957747
  13.20125064  9.84432465  6.96695518
   4.83551221  8.65378708  0.00000000
   3.57038796  5.03839573  1.15489479
   2.30526388  1.42300427  2.30978957
  11.93612680  6.22893440  8.12184945
   2.30526149  6.58784494  4.61957747
  10.03844261  7.26190252  9.27674537
   9.89600322  2.45597543  0.00000029
  11.16112378 11.23620479  1.15489499
   9.89599980  7.62081379  2.30978957
   8.63087792  4.00542576  3.46468383
   7.36575302  0.39003403  4.61957747
   9.40588087  9.32783948  8.12184945
   1.67270543  0.90652289  0.00000029
   2.93782671  9.68675299  1.15489488
   1.67270263  6.07136199  2.30978957
  13.05880446  2.45597174  3.46468383
   5.61051274  8.81135506  9.27674537
   5.46806708  1.42300289  5.77447298
   9.26344286  7.10433381  0.00000017
   7.99831752  3.48894354  1.15489479
   9.26343958 12.26917291  2.30978999
   7.99831574  8.65378266  3.46468424
   3.08026978  6.74541956  6.96695518
  11.93612042  1.06408865 12.74142816
   2.93782212  4.52190723  5.77447298
  10.52856032  5.55487830  3.46468342
  10.67100220  2.61354415  9.27674537
   6.87563318  2.09705898 10.43163964
   3.08026492  1.58057382 11.58653391
   6.87563005  7.26189883 12.74142816
  10.52855674 10.71971593  5.77447216
  13.05880222  7.62081232  5.77447298
  14.32392682 11.23620257  4.61957789
   1.81514357  8.29486916 10.43163964
  10.67099983  7.77838399 11.58653391
  11.30356082  5.71244701 12.74142816
   4.97795535  8.29487285  6.96695518
  13.83381148  7.77838694  8.12184945
   8.63087434  9.17026338  5.77447298
   6.24307433  6.74541736 10.43163964
   2.44770531  6.22893218 11.58653391
   6.24306879 11.91025646 12.74142651
   4.20294626  8.13729897  4.61957789
   6.24307534  1.58057824  8.12184945
   2.44770602  1.06409160  9.27674537
  11.30356409  0.54760791 10.43163964
   7.50819402  0.03112127 11.58653391
   9.40587592  4.16299337 12.74142816
   6.73319190  5.03839239  4.61957831
   3.57038563 10.20323668  3.46468321
   8.14075778  5.71244923  9.27674537
   4.34538876  5.19596407 10.43163798
  13.20124578  4.67947890 11.58653225
   4.34538517 10.36080539 12.74142816
   8.14076045  0.54761088  6.96695518
   4.34539143  0.03112570  8.12184945
   3.08026741 11.91025941  9.27674537
  11.93612473 11.39377572 10.43163964
   8.14075495 10.87729055 11.58653391
   1.18257830  2.61354120 12.74142816
   6.10063107  7.10433011  3.46468383
   3.71282986  4.67948185  8.12184945
   4.20294626  8.13729897  4.61957789
   8.77331710  3.64651153 10.43163798
   4.97794884  3.13002636 11.58653391
   8.77331579  8.81135285 12.74142816
   2.93782212  4.52190723  5.77447298
  11.30356553 10.87729203  8.12184945
   7.50819681 10.36080834  9.27674537
   3.71282779  9.84432317 10.43163964
  12.56868481  9.32783801 11.58653391
 


--------------------------------------------------------------------------------------------------------


 k-point     1 :   0.0000 0.0000 0.0000  plane waves:   91969
 k-point     2 :   0.3333 0.0000 0.0000  plane waves:   91887
 k-point     3 :   0.0000-0.3333 0.0000  plane waves:   91887
 k-point     4 :   0.3333 0.3333 0.0000  plane waves:   91872
 k-point     5 :  -0.3333 0.3333 0.0000  plane waves:   91872
 k-point     6 :   0.0000 0.0000 0.5000  plane waves:   91840
 k-point     7 :   0.3333 0.0000 0.5000  plane waves:   91922
 k-point     8 :   0.0000-0.3333 0.5000  plane waves:   91922
 k-point     9 :   0.3333 0.3333 0.5000  plane waves:   91906
 k-point    10 :  -0.3333 0.3333 0.5000  plane waves:   91900

 maximum and minimum number of plane-waves per node :      5801     5702

 maximum number of plane-waves:     91969
 maximum index in each direction: 
   IXMAX=   27   IYMAX=   27   IZMAX=   30
   IXMIN=  -27   IYMIN=  -27   IZMIN=  -30


 real space projection operators:
  total allocation   :      22309.62 KBytes
  max/ min on nodes  :       1569.75       1310.66


 parallel 3D FFT for wavefunctions:
    minimum data exchange during FFTs selected (reduces bandwidth)
 parallel 3D FFT for charge:
    minimum data exchange during FFTs selected (reduces bandwidth)


 total amount of memory used by VASP MPI-rank0   168771. kBytes
=======================================================================

   base      :      30000. kBytes
   nonlr-proj:       5814. kBytes
   fftplans  :      14311. kBytes
   grid      :      10233. kBytes
   one-center:         97. kBytes
   wavefun   :     108316. kBytes
 
     INWAV:  cpu time      0.0000: real time      0.0003
 Broyden mixing: mesh for mixing (old mesh)
   NGX = 55   NGY = 55   NGZ = 61
  (NGX  =168   NGY  =168   NGZ  =180)
  gives a total of 184525 points

 initial charge density was supplied:
 charge density of overlapping atoms calculated
 number of electron     384.0000000 magnetization       1.0000000
 keeping initial charge density in first step


--------------------------------------------------------------------------------------------------------


 Maximum index for non-local projection operator          386
 Maximum index for augmentation-charges         5418 (set IRDMAX)


--------------------------------------------------------------------------------------------------------


 First call to EWALD:  gamma=   0.137
 Maximum number of real-space cells 3x 3x 3
 Maximum number of reciprocal cells 3x 3x 3

    FEWALD:  cpu time      0.0045: real time      0.0045


--------------------------------------- Ionic step        1  -------------------------------------------




--------------------------------------- Iteration      1(   1)  ---------------------------------------


    POTLOK:  cpu time      0.1890: real time      0.1910
    SETDIJ:  cpu time      1.4292: real time      1.4366
     EDDAV:  cpu time     19.6142: real time     19.7917
       DOS:  cpu time      0.0022: real time      0.0022
    --------------------------------------------
      LOOP:  cpu time     21.2346: real time     21.4215

 eigenvalue-minimisations  :  9280
 total energy-change (2. order) : 0.1426945E+04  (-0.1692316E+05)
 number of electron     384.0000000 magnetization       1.0000000
 augmentation part      384.0000000 magnetization       1.0000000

 Free energy of the ion-electron system (eV)
  ---------------------------------------------------
  alpha Z        PSCENC =       806.12556457
  Ewald energy   TEWEN  =     -9918.62482516
  -Hartree energ DENC   =     -1608.10713074
  -exchange      EXHF   =         0.00000000
  -V(xc)+E(xc)   XCENC  =      -734.80501523
  PAW double counting   =      8461.93788731    -7071.13096423
  entropy T*S    EENTRO =        -0.00252798
  eigenvalues    EBANDS =      1411.94442966
  atomic energy  EATOM  =     10079.60734648
  Solvation  Ediel_sol  =         0.00000000
  ---------------------------------------------------
  free energy    TOTEN  =      1426.94476468 eV

  energy without entropy =     1426.94729266  energy(sigma->0) =     1426.94602867


--------------------------------------------------------------------------------------------------------




--------------------------------------- Iteration      1(   2)  ---------------------------------------


     EDDAV:  cpu time     22.0461: real time     22.2477
       DOS:  cpu time      0.0017: real time      0.0017
    --------------------------------------------
      LOOP:  cpu time     22.0478: real time     22.2494

 eigenvalue-minimisations  : 10856
 total energy-change (2. order) :-0.2142190E+04  (-0.2074749E+04)
 number of electron     384.0000000 magnetization       1.0000000
 augmentation part      384.0000000 magnetization       1.0000000

 Free energy of the ion-electron system (eV)
  ---------------------------------------------------
  alpha Z        PSCENC =       806.12556457
  Ewald energy   TEWEN  =     -9918.62482516
  -Hartree energ DENC   =     -1608.10713074
  -exchange      EXHF   =         0.00000000
  -V(xc)+E(xc)   XCENC  =      -734.80501523
  PAW double counting   =      8461.93788731    -7071.13096423
  entropy T*S    EENTRO =        -0.00104861
  eigenvalues    EBANDS =      -730.24712541
  atomic energy  EATOM  =     10079.60734648
  Solvation  Ediel_sol  =         0.00000000
  ---------------------------------------------------
  free energy    TOTEN  =      -715.24531101 eV

  energy without entropy =     -715.24426240  energy(sigma->0) =     -715.24478670


--------------------------------------------------------------------------------------------------------




--------------------------------------- Iteration      1(   3)  ---------------------------------------


     EDDAV:  cpu time     23.1610: real time     23.3728
       DOS:  cpu time      0.0017: real time      0.0017
    --------------------------------------------
      LOOP:  cpu time     23.1627: real time     23.3745

 eigenvalue-minimisations  : 11552
 total energy-change (2. order) :-0.2291408E+03  (-0.2189088E+03)
 number of electron     384.0000000 magnetization       1.0000000
 augmentation part      384.0000000 magnetization       1.0000000

 Free energy of the ion-electron system (eV)
  ---------------------------------------------------
  alpha Z        PSCENC =       806.12556457
  Ewald energy   TEWEN  =     -9918.62482516
  -Hartree energ DENC   =     -1608.10713074
  -exchange      EXHF   =         0.00000000
  -V(xc)+E(xc)   XCENC  =      -734.80501523
  PAW double counting   =      8461.93788731    -7071.13096423
  entropy T*S    EENTRO =        -0.00220899
  eigenvalues    EBANDS =      -959.38676034
  atomic energy  EATOM  =     10079.60734648
  Solvation  Ediel_sol  =         0.00000000
  ---------------------------------------------------
  free energy    TOTEN  =      -944.38610632 eV

  energy without entropy =     -944.38389733  energy(sigma->0) =     -944.38500183


--------------------------------------------------------------------------------------------------------




--------------------------------------- Iteration      1(   4)  ---------------------------------------


     EDDAV:  cpu time     22.9467: real time     23.1526
       DOS:  cpu time      0.0017: real time      0.0017
    --------------------------------------------
      LOOP:  cpu time     22.9484: real time     23.1543

 eigenvalue-minimisations  : 11400
 total energy-change (2. order) :-0.1126390E+02  (-0.1085181E+02)
 number of electron     384.0000000 magnetization       1.0000000
 augmentation part      384.0000000 magnetization       1.0000000

 Free energy of the ion-electron system (eV)
  ---------------------------------------------------
  alpha Z        PSCENC =       806.12556457
  Ewald energy   TEWEN  =     -9918.62482516
  -Hartree energ DENC   =     -1608.10713074
  -exchange      EXHF   =         0.00000000
  -V(xc)+E(xc)   XCENC  =      -734.80501523
  PAW double counting   =      8461.93788731    -7071.13096423
  entropy T*S    EENTRO =        -0.00287006
  eigenvalues    EBANDS =      -970.64999504
  atomic energy  EATOM  =     10079.60734648
  Solvation  Ediel_sol  =         0.00000000
  ---------------------------------------------------
  free energy    TOTEN  =      -955.65000209 eV

  energy without entropy =     -955.64713203  energy(sigma->0) =     -955.64856706


--------------------------------------------------------------------------------------------------------




--------------------------------------- Iteration      1(   5)  ---------------------------------------


     EDDAV:  cpu time     24.5686: real time     24.7895
       DOS:  cpu time      0.0018: real time      0.0018
    CHARGE:  cpu time      1.1296: real time      1.1367
    MIXING:  cpu time      0.0040: real time      0.0040
    --------------------------------------------
      LOOP:  cpu time     25.7039: real time     25.9320

 eigenvalue-minimisations  : 12496
 total energy-change (2. order) :-0.5499613E+00  (-0.5430709E+00)
 number of electron     383.9999997 magnetization       1.0000000
 augmentation part      -61.2330114 magnetization      -0.0471609

 Broyden mixing:
  rms(total) = 0.65385E+01    rms(broyden)= 0.65385E+01
  rms(prec ) = 0.68681E+01
  weight for this iteration     100.00

 Free energy of the ion-electron system (eV)
  ---------------------------------------------------
  alpha Z        PSCENC =       806.12556457
  Ewald energy   TEWEN  =     -9918.62482516
  -Hartree energ DENC   =     -1608.10713074
  -exchange      EXHF   =         0.00000000
  -V(xc)+E(xc)   XCENC  =      -734.80501523
  PAW double counting   =      8461.93788731    -7071.13096423
  entropy T*S    EENTRO =        -0.00295510
  eigenvalues    EBANDS =      -971.19987134
  atomic energy  EATOM  =     10079.60734648
  Solvation  Ediel_sol  =         0.00000000
  ---------------------------------------------------
  free energy    TOTEN  =      -956.19996342 eV

  energy without entropy =     -956.19700833  energy(sigma->0) =     -956.19848588


--------------------------------------------------------------------------------------------------------




--------------------------------------- Iteration      1(   6)  ---------------------------------------


    POTLOK:  cpu time      0.1538: real time      0.1552
    SETDIJ:  cpu time      1.4170: real time      1.4235
     EDDAV:  cpu time     21.3186: real time     21.5109
       DOS:  cpu time      0.0017: real time      0.0017
    CHARGE:  cpu time      1.1196: real time      1.1265
    MIXING:  cpu time      0.0038: real time      0.0038
    --------------------------------------------
      LOOP:  cpu time     24.0144: real time     24.2217

 eigenvalue-minimisations  : 10360
 total energy-change (2. order) :-0.7251542E+01  (-0.3664236E+02)
 number of electron     383.9999997 magnetization       1.0000000
 augmentation part      -62.2488497 magnetization      -0.0969806

 Broyden mixing:
  rms(total) = 0.29863E+01    rms(broyden)= 0.29862E+01
  rms(prec ) = 0.48098E+01
  weight for this iteration     100.00

 eigenvalues of (default mixing * dielectric matrix)
  average eigenvalue GAMMA=   1.2700
  1.2700

 Free energy of the ion-electron system (eV)
  ---------------------------------------------------
  alpha Z        PSCENC =       806.12556457
  Ewald energy   TEWEN  =     -9918.62482516
  -Hartree energ DENC   =     -1772.91256261
  -exchange      EXHF   =         0.00000000
  -V(xc)+E(xc)   XCENC  =      -719.36735868
  PAW double counting   =     18704.30563444   -17347.49193743
  entropy T*S    EENTRO =        -0.00198327
  eigenvalues    EBANDS =      -795.09138405
  atomic energy  EATOM  =     10079.60734648
  Solvation  Ediel_sol  =         0.00000000
  ---------------------------------------------------
  free energy    TOTEN  =      -963.45150570 eV

  energy without entropy =     -963.44952243  energy(sigma->0) =     -963.45051407


--------------------------------------------------------------------------------------------------------




--------------------------------------- Iteration      1(   7)  ---------------------------------------


    POTLOK:  cpu time      0.1534: real time      0.1552
    SETDIJ:  cpu time      1.4189: real time      1.4253
     EDDAV:  cpu time     24.4279: real time     24.6461
       DOS:  cpu time      0.0017: real time      0.0017
    CHARGE:  cpu time      1.1212: real time      1.1285
    MIXING:  cpu time      0.0039: real time      0.0040
    --------------------------------------------
      LOOP:  cpu time     27.1270: real time     27.3608

 eigenvalue-minimisations  : 12328
 total energy-change (2. order) : 0.3349187E+02  (-0.7920885E+01)
 number of electron     383.9999997 magnetization       1.0000000
 augmentation part      -60.3786990 magnetization      -0.0658129

 Broyden mixing:
  rms(total) = 0.26766E+01    rms(broyden)= 0.26766E+01
  rms(prec ) = 0.34504E+01
  weight for this iteration     100.00

 eigenvalues of (default mixing * dielectric matrix)
  average eigenvalue GAMMA=   1.2669
  2.0717  0.4620

 Free energy of the ion-electron system (eV)
  ---------------------------------------------------
  alpha Z        PSCENC =       806.12556457
  Ewald energy   TEWEN  =     -9918.62482516
  -Hartree energ DENC   =     -1688.07154903
  -exchange      EXHF   =         0.00000000
  -V(xc)+E(xc)   XCENC  =      -714.81086931
  PAW double counting   =     22252.14108460   -20891.72839636
  entropy T*S    EENTRO =        -0.00265394
  eigenvalues    EBANDS =      -854.59534235
  atomic energy  EATOM  =     10079.60734648
  Solvation  Ediel_sol  =         0.00000000
  ---------------------------------------------------
  free energy    TOTEN  =      -929.95964051 eV

  energy without entropy =     -929.95698657  energy(sigma->0) =     -929.95831354


--------------------------------------------------------------------------------------------------------




--------------------------------------- Iteration      1(   8)  ---------------------------------------


    POTLOK:  cpu time      0.1555: real time      0.1568
    SETDIJ:  cpu time      1.4177: real time      1.4239
     EDDAV:  cpu time     21.6772: real time     21.8723
       DOS:  cpu time      0.0017: real time      0.0017
    CHARGE:  cpu time      1.1271: real time      1.1341
    MIXING:  cpu time      0.0038: real time      0.0039
    --------------------------------------------
      LOOP:  cpu time     24.3831: real time     24.5927

 eigenvalue-minimisations  : 10584
 total energy-change (2. order) : 0.2761899E+01  (-0.5050246E+01)
 number of electron     383.9999997 magnetization       1.0000000
 augmentation part      -61.0435489 magnetization      -0.0644297

 Broyden mixing:
  rms(total) = 0.11117E+01    rms(broyden)= 0.11117E+01
  rms(prec ) = 0.15773E+01
  weight for this iteration     100.00

 eigenvalues of (default mixing * dielectric matrix)
  average eigenvalue GAMMA=   1.0985
  2.2065  0.5445  0.5445

 Free energy of the ion-electron system (eV)
  ---------------------------------------------------
  alpha Z        PSCENC =       806.12556457
  Ewald energy   TEWEN  =     -9918.62482516
  -Hartree energ DENC   =     -1709.25371201
  -exchange      EXHF   =         0.00000000
  -V(xc)+E(xc)   XCENC  =      -706.28204943
  PAW double counting   =     32206.28477335   -30858.67953403
  entropy T*S    EENTRO =        -0.00219191
  eigenvalues    EBANDS =      -826.37311377
  atomic energy  EATOM  =     10079.60734648
  Solvation  Ediel_sol  =         0.00000000
  ---------------------------------------------------
  free energy    TOTEN  =      -927.19774193 eV

  energy without entropy =     -927.19555002  energy(sigma->0) =     -927.19664597


--------------------------------------------------------------------------------------------------------




--------------------------------------- Iteration      1(   9)  ---------------------------------------


    POTLOK:  cpu time      0.1535: real time      0.1551
    SETDIJ:  cpu time      1.4170: real time      1.4244
     EDDAV:  cpu time     22.4832: real time     22.7214
       DOS:  cpu time      0.0018: real time      0.0018
    CHARGE:  cpu time      1.1284: real time      1.1368
    MIXING:  cpu time      0.0040: real time      0.0041
    --------------------------------------------
      LOOP:  cpu time     25.1878: real time     25.4436

 eigenvalue-minimisations  : 11112
 total energy-change (2. order) : 0.2348575E+01  (-0.1734937E+01)
 number of electron     383.9999997 magnetization       1.0000000
 augmentation part      -61.8520844 magnetization      -0.0844009

 Broyden mixing:
  rms(total) = 0.33234E+00    rms(broyden)= 0.33234E+00
  rms(prec ) = 0.36655E+00
  weight for this iteration     100.00

 eigenvalues of (default mixing * dielectric matrix)
  average eigenvalue GAMMA=   1.0196
  2.2925  0.5002  0.6428  0.6428

 Free energy of the ion-electron system (eV)
  ---------------------------------------------------
  alpha Z        PSCENC =       806.12556457
  Ewald energy   TEWEN  =     -9918.62482516
  -Hartree energ DENC   =     -1731.14390630
  -exchange      EXHF   =         0.00000000
  -V(xc)+E(xc)   XCENC  =      -704.76541451
  PAW double counting   =     34867.99726634   -33525.61866305
  entropy T*S    EENTRO =        -0.00290405
  eigenvalues    EBANDS =      -798.42363170
  atomic energy  EATOM  =     10079.60734648
  Solvation  Ediel_sol  =         0.00000000
  ---------------------------------------------------
  free energy    TOTEN  =      -924.84916739 eV

  energy without entropy =     -924.84626334  energy(sigma->0) =     -924.84771537


--------------------------------------------------------------------------------------------------------




--------------------------------------- Iteration      1(  10)  ---------------------------------------


    POTLOK:  cpu time      0.1534: real time      0.1553
    SETDIJ:  cpu time      1.4177: real time      1.4251
     EDDAV:  cpu time     21.2773: real time     21.5070
       DOS:  cpu time      0.0017: real time      0.0017
    CHARGE:  cpu time      1.1276: real time      1.1356
    MIXING:  cpu time      0.0042: real time      0.0042
    --------------------------------------------
      LOOP:  cpu time     23.9819: real time     24.2290

 eigenvalue-minimisations  : 10352
 total energy-change (2. order) :-0.1057734E+00  (-0.2987382E+00)
 number of electron     383.9999997 magnetization       1.0000000
 augmentation part      -61.8882500 magnetization      -0.0794011

 Broyden mixing:
  rms(total) = 0.17661E+00    rms(broyden)= 0.17661E+00
  rms(prec ) = 0.23369E+00
  weight for this iteration     100.00

 eigenvalues of (default mixing * dielectric matrix)
  average eigenvalue GAMMA=   1.0461
  2.1732  1.2074  0.5359  0.5359  0.7781

 Free energy of the ion-electron system (eV)
  ---------------------------------------------------
  alpha Z        PSCENC =       806.12556457
  Ewald energy   TEWEN  =     -9918.62482516
  -Hartree energ DENC   =     -1728.13599620
  -exchange      EXHF   =         0.00000000
  -V(xc)+E(xc)   XCENC  =      -704.88792046
  PAW double counting   =     34813.34824356   -33468.94943769
  entropy T*S    EENTRO =        -0.00238823
  eigenvalues    EBANDS =      -803.43552763
  atomic energy  EATOM  =     10079.60734648
  Solvation  Ediel_sol  =         0.00000000
  ---------------------------------------------------
  free energy    TOTEN  =      -924.95494076 eV

  energy without entropy =     -924.95255253  energy(sigma->0) =     -924.95374664


--------------------------------------------------------------------------------------------------------




--------------------------------------- Iteration      1(  11)  ---------------------------------------


    POTLOK:  cpu time      0.1543: real time      0.1558
    SETDIJ:  cpu time      1.4262: real time      1.4334
     EDDAV:  cpu time     21.8715: real time     22.1082
       DOS:  cpu time      0.0018: real time      0.0018
    CHARGE:  cpu time      1.1272: real time      1.1357
    MIXING:  cpu time      0.0044: real time      0.0044
    --------------------------------------------
      LOOP:  cpu time     24.5853: real time     24.8392

 eigenvalue-minimisations  : 10768
 total energy-change (2. order) : 0.7275830E-01  (-0.5450878E-01)
 number of electron     383.9999997 magnetization       1.0000000
 augmentation part      -61.8730287 magnetization      -0.0815574

 Broyden mixing:
  rms(total) = 0.92946E-01    rms(broyden)= 0.92946E-01
  rms(prec ) = 0.14546E+00
  weight for this iteration     100.00

 eigenvalues of (default mixing * dielectric matrix)
  average eigenvalue GAMMA=   1.0476
  2.0674  1.5496  1.0378  0.5558  0.5558  0.5192

 Free energy of the ion-electron system (eV)
  ---------------------------------------------------
  alpha Z        PSCENC =       806.12556457
  Ewald energy   TEWEN  =     -9918.62482516
  -Hartree energ DENC   =     -1728.07348516
  -exchange      EXHF   =         0.00000000
  -V(xc)+E(xc)   XCENC  =      -705.72238109
  PAW double counting   =     34046.39699988   -32699.77750726
  entropy T*S    EENTRO =        -0.00318565
  eigenvalues    EBANDS =      -804.81070906
  atomic energy  EATOM  =     10079.60734648
  Solvation  Ediel_sol  =         0.00000000
  ---------------------------------------------------
  free energy    TOTEN  =      -924.88218245 eV

  energy without entropy =     -924.87899680  energy(sigma->0) =     -924.88058963


--------------------------------------------------------------------------------------------------------




--------------------------------------- Iteration      1(  12)  ---------------------------------------


    POTLOK:  cpu time      0.1535: real time      0.1558
    SETDIJ:  cpu time      1.4245: real time      1.4316
     EDDAV:  cpu time     23.2569: real time     23.5119
       DOS:  cpu time      0.0017: real time      0.0017
    CHARGE:  cpu time      1.1163: real time      1.1244
    MIXING:  cpu time      0.0045: real time      0.0045
    --------------------------------------------
      LOOP:  cpu time     25.9574: real time     26.2300

 eigenvalue-minimisations  : 11640
 total energy-change (2. order) : 0.3917736E-02  (-0.1974936E-01)
 number of electron     383.9999997 magnetization       1.0000000
 augmentation part      -61.8980114 magnetization      -0.0799045

 Broyden mixing:
  rms(total) = 0.64746E-01    rms(broyden)= 0.64746E-01
  rms(prec ) = 0.11328E+00
  weight for this iteration     100.00

 eigenvalues of (default mixing * dielectric matrix)
  average eigenvalue GAMMA=   0.9855
  2.0294  1.4620  1.3366  0.5666  0.5666  0.5479  0.3896

 Free energy of the ion-electron system (eV)
  ---------------------------------------------------
  alpha Z        PSCENC =       806.12556457
  Ewald energy   TEWEN  =     -9918.62482516
  -Hartree energ DENC   =     -1729.28395475
  -exchange      EXHF   =         0.00000000
  -V(xc)+E(xc)   XCENC  =      -705.93572784
  PAW double counting   =     33834.45574904   -32487.47813998
  entropy T*S    EENTRO =        -0.00252340
  eigenvalues    EBANDS =      -803.74175367
  atomic energy  EATOM  =     10079.60734648
  Solvation  Ediel_sol  =         0.00000000
  ---------------------------------------------------
  free energy    TOTEN  =      -924.87826472 eV

  energy without entropy =     -924.87574132  energy(sigma->0) =     -924.87700302


--------------------------------------------------------------------------------------------------------




--------------------------------------- Iteration      1(  13)  ---------------------------------------


    POTLOK:  cpu time      0.1542: real time      0.1558
    SETDIJ:  cpu time      1.4245: real time      1.4318
     EDDAV:  cpu time     22.6432: real time     22.8825
       DOS:  cpu time      0.0019: real time      0.0019
    CHARGE:  cpu time      1.1207: real time      1.1290
    MIXING:  cpu time      0.0066: real time      0.0066
    --------------------------------------------
      LOOP:  cpu time     25.3510: real time     25.6075

 eigenvalue-minimisations  : 11272
 total energy-change (2. order) : 0.1746536E-01  (-0.8601237E-02)
 number of electron     383.9999997 magnetization       1.0000000
 augmentation part      -61.9229544 magnetization      -0.0802282

 Broyden mixing:
  rms(total) = 0.24710E-01    rms(broyden)= 0.24709E-01
  rms(prec ) = 0.33752E-01
  weight for this iteration     100.00

 eigenvalues of (default mixing * dielectric matrix)
  average eigenvalue GAMMA=   0.9759
  1.9384  1.9384  1.0815  0.8513  0.5603  0.5603  0.5362  0.3405

 Free energy of the ion-electron system (eV)
  ---------------------------------------------------
  alpha Z        PSCENC =       806.12556457
  Ewald energy   TEWEN  =     -9918.62482516
  -Hartree energ DENC   =     -1729.64622641
  -exchange      EXHF   =         0.00000000
  -V(xc)+E(xc)   XCENC  =      -706.00063054
  PAW double counting   =     33739.27244058   -32392.18271620
  entropy T*S    EENTRO =        -0.00283540
  eigenvalues    EBANDS =      -803.40891727
  atomic energy  EATOM  =     10079.60734648
  Solvation  Ediel_sol  =         0.00000000
  ---------------------------------------------------
  free energy    TOTEN  =      -924.86079935 eV

  energy without entropy =     -924.85796395  energy(sigma->0) =     -924.85938165


--------------------------------------------------------------------------------------------------------




--------------------------------------- Iteration      1(  14)  ---------------------------------------


    POTLOK:  cpu time      0.1564: real time      0.1578
    SETDIJ:  cpu time      1.4261: real time      1.4325
     EDDAV:  cpu time     22.6489: real time     22.8499
       DOS:  cpu time      0.0017: real time      0.0017
    CHARGE:  cpu time      1.1165: real time      1.1238
    MIXING:  cpu time      0.0050: real time      0.0051
    --------------------------------------------
      LOOP:  cpu time     25.3548: real time     25.5708

 eigenvalue-minimisations  : 11264
 total energy-change (2. order) : 0.2076591E-03  (-0.2466502E-02)
 number of electron     383.9999997 magnetization       1.0000000
 augmentation part      -61.9026383 magnetization      -0.0805319

 Broyden mixing:
  rms(total) = 0.15744E-01    rms(broyden)= 0.15744E-01
  rms(prec ) = 0.20976E-01
  weight for this iteration     100.00

 eigenvalues of (default mixing * dielectric matrix)
  average eigenvalue GAMMA=   0.9810
  1.9885  1.9885  1.1276  1.1276  0.6850  0.5425  0.5425  0.4845  0.3427

 Free energy of the ion-electron system (eV)
  ---------------------------------------------------
  alpha Z        PSCENC =       806.12556457
  Ewald energy   TEWEN  =     -9918.62482516
  -Hartree energ DENC   =     -1729.54520406
  -exchange      EXHF   =         0.00000000
  -V(xc)+E(xc)   XCENC  =      -706.04289950
  PAW double counting   =     33660.10225074   -32312.70324812
  entropy T*S    EENTRO =        -0.00281027
  eigenvalues    EBANDS =      -803.77676635
  atomic energy  EATOM  =     10079.60734648
  Solvation  Ediel_sol  =         0.00000000
  ---------------------------------------------------
  free energy    TOTEN  =      -924.86059169 eV

  energy without entropy =     -924.85778142  energy(sigma->0) =     -924.85918656


--------------------------------------------------------------------------------------------------------




--------------------------------------- Iteration      1(  15)  ---------------------------------------


    POTLOK:  cpu time      0.1549: real time      0.1562
    SETDIJ:  cpu time      1.4274: real time      1.4336
     EDDAV:  cpu time     22.4308: real time     22.6298
       DOS:  cpu time      0.0017: real time      0.0017
    CHARGE:  cpu time      1.1270: real time      1.1340
    MIXING:  cpu time      0.0050: real time      0.0050
    --------------------------------------------
      LOOP:  cpu time     25.1467: real time     25.3604

 eigenvalue-minimisations  : 11088
 total energy-change (2. order) : 0.3054601E-03  (-0.3547265E-03)
 number of electron     383.9999997 magnetization       1.0000000
 augmentation part      -61.9100698 magnetization      -0.0799596

 Broyden mixing:
  rms(total) = 0.69416E-02    rms(broyden)= 0.69415E-02
  rms(prec ) = 0.72865E-02
  weight for this iteration     100.00

 eigenvalues of (default mixing * dielectric matrix)
  average eigenvalue GAMMA=   0.9859
  1.9826  1.9826  1.5164  0.9472  0.9472  0.5421  0.5421  0.5815  0.4781  0.3389

 Free energy of the ion-electron system (eV)
  ---------------------------------------------------
  alpha Z        PSCENC =       806.12556457
  Ewald energy   TEWEN  =     -9918.62482516
  -Hartree energ DENC   =     -1729.71401191
  -exchange      EXHF   =         0.00000000
  -V(xc)+E(xc)   XCENC  =      -706.05960452
  PAW double counting   =     33619.98582618   -32272.60827046
  entropy T*S    EENTRO =        -0.00276488
  eigenvalues    EBANDS =      -803.56954654
  atomic energy  EATOM  =     10079.60734648
  Solvation  Ediel_sol  =         0.00000000
  ---------------------------------------------------
  free energy    TOTEN  =      -924.86028623 eV

  energy without entropy =     -924.85752136  energy(sigma->0) =     -924.85890379


--------------------------------------------------------------------------------------------------------




--------------------------------------- Iteration      1(  16)  ---------------------------------------


    POTLOK:  cpu time      0.1546: real time      0.1560
    SETDIJ:  cpu time      1.4105: real time      1.4169
     EDDAV:  cpu time     22.6673: real time     22.8705
       DOS:  cpu time      0.0018: real time      0.0018
    CHARGE:  cpu time      1.1291: real time      1.1362
    MIXING:  cpu time      0.0055: real time      0.0055
    --------------------------------------------
      LOOP:  cpu time     25.3688: real time     25.5869

 eigenvalue-minimisations  : 11216
 total energy-change (2. order) :-0.1049560E-03  (-0.9529382E-04)
 number of electron     383.9999997 magnetization       1.0000000
 augmentation part      -61.9117351 magnetization      -0.0803393

 Broyden mixing:
  rms(total) = 0.50741E-02    rms(broyden)= 0.50741E-02
  rms(prec ) = 0.64333E-02
  weight for this iteration     100.00

 eigenvalues of (default mixing * dielectric matrix)
  average eigenvalue GAMMA=   1.0038
  2.1905  2.1905  1.4320  1.2328  0.8424  0.7615  0.5481  0.5481  0.3375  0.4895
  0.4685

 Free energy of the ion-electron system (eV)
  ---------------------------------------------------
  alpha Z        PSCENC =       806.12556457
  Ewald energy   TEWEN  =     -9918.62482516
  -Hartree energ DENC   =     -1729.81730119
  -exchange      EXHF   =         0.00000000
  -V(xc)+E(xc)   XCENC  =      -706.05443957
  PAW double counting   =     33601.38397263   -32254.02033735
  entropy T*S    EENTRO =        -0.00276975
  eigenvalues    EBANDS =      -803.45760185
  atomic energy  EATOM  =     10079.60734648
  Solvation  Ediel_sol  =         0.00000000
  ---------------------------------------------------
  free energy    TOTEN  =      -924.86039119 eV

  energy without entropy =     -924.85762144  energy(sigma->0) =     -924.85900631


--------------------------------------------------------------------------------------------------------




--------------------------------------- Iteration      1(  17)  ---------------------------------------


    POTLOK:  cpu time      0.1540: real time      0.1558
    SETDIJ:  cpu time      1.4087: real time      1.4152
     EDDAV:  cpu time     22.4704: real time     22.6701
       DOS:  cpu time      0.0018: real time      0.0018
    CHARGE:  cpu time      1.1571: real time      1.1642
    MIXING:  cpu time      0.0052: real time      0.0053
    --------------------------------------------
      LOOP:  cpu time     25.1972: real time     25.4123

 eigenvalue-minimisations  : 11120
 total energy-change (2. order) : 0.3644537E-04  (-0.2465513E-04)
 number of electron     383.9999997 magnetization       1.0000000
 augmentation part      -61.9093445 magnetization      -0.0799518

 Broyden mixing:
  rms(total) = 0.24751E-02    rms(broyden)= 0.24751E-02
  rms(prec ) = 0.26599E-02
  weight for this iteration     100.00

 eigenvalues of (default mixing * dielectric matrix)
  average eigenvalue GAMMA=   0.9894
  2.2098  2.2098  1.4323  1.3680  0.8113  0.8113  0.6678  0.5453  0.5453  0.5019
  0.3375  0.4325

 Free energy of the ion-electron system (eV)
  ---------------------------------------------------
[...]
   0.348E+02 0.599E+02 0.181E+02   -.352E+02 -.602E+02 -.195E+02   0.950E-01 0.713E-01 0.736E+00   -.253E-04 -.801E-04 0.143E-05
   -.337E+02 -.175E+02 -.324E+02   0.341E+02 0.176E+02 0.329E+02   -.307E+00 -.141E+00 0.221E+00   0.251E-04 0.606E-05 0.904E-05
   -.395E+02 -.642E+02 -.194E+02   0.415E+02 0.663E+02 0.214E+02   -.456E+00 -.426E+00 -.780E+00   0.353E-04 0.418E-04 -.470E-06
   0.210E+02 0.313E+02 0.172E+01   -.210E+02 -.325E+02 -.137E+01   0.807E+00 -.290E+01 0.160E+01   -.698E-05 0.699E-05 -.271E-04
   0.836E+01 0.164E+02 0.399E+02   -.917E+01 -.171E+02 -.414E+02   0.237E+00 0.410E+00 0.768E+00   -.355E-05 -.166E-04 -.375E-04
   -.315E+01 0.121E+01 -.238E+02   0.270E+01 -.153E+01 0.240E+02   0.369E+00 0.252E+00 0.429E+00   -.139E-04 -.148E-04 0.204E-04
   0.259E+02 0.397E+02 -.203E+01   -.257E+02 -.403E+02 0.269E+01   -.731E+00 0.851E-02 -.543E+00   0.144E-04 -.178E-04 -.145E-04
   0.393E+02 0.100E+02 0.513E+02   -.401E+02 -.981E+01 -.524E+02   -.108E+01 0.381E-02 -.134E+01   -.523E-04 0.782E-05 -.418E-05
   0.371E+02 -.472E+01 -.841E+01   -.376E+02 0.531E+01 0.899E+01   -.582E+00 -.995E-01 0.170E+00   -.518E-04 0.160E-04 0.262E-04
   0.225E+02 0.399E+02 -.612E+01   -.226E+02 -.411E+02 0.656E+01   0.725E+00 -.276E+01 0.160E+01   -.479E-06 -.817E-05 0.264E-04
   0.875E+01 0.433E+00 0.311E+02   -.923E+01 -.782E+00 -.322E+02   0.452E-01 0.964E-01 0.387E+00   0.106E-04 0.119E-04 0.208E-05
   -.416E+01 -.429E+01 -.529E+01   0.422E+01 0.410E+01 0.456E+01   0.131E+00 0.156E+00 0.923E+00   0.990E-05 -.992E-05 -.156E-05
   -.128E+02 0.912E+01 -.163E+02   0.127E+02 -.929E+01 0.161E+02   0.234E+00 0.255E+00 0.266E+00   0.267E-04 -.279E-04 0.446E-05
   0.102E+02 -.378E+01 0.213E+02   -.995E+01 0.437E+01 -.227E+02   -.275E+00 -.224E+00 -.279E+00   0.704E-05 0.232E-04 0.773E-05
   0.340E+02 0.135E+01 -.217E+01   -.341E+02 -.151E+01 0.240E+01   -.365E+00 -.458E+00 0.829E-01   -.491E-04 0.408E-04 0.587E-05
   -.257E+02 -.201E+01 -.272E+02   0.269E+02 0.739E+00 0.290E+02   0.676E+00 -.186E+01 0.172E+01   -.475E-05 0.394E-05 -.395E-05
   0.208E+02 0.116E+01 0.182E+01   -.206E+02 -.191E+01 -.934E+00   -.869E+00 0.653E+00 -.214E-01   -.238E-04 0.218E-04 -.249E-04
   0.108E+02 0.108E+02 0.278E+02   -.105E+02 -.106E+02 -.284E+02   -.318E+00 -.112E+00 -.229E+00   -.332E-04 -.731E-05 -.291E-04
   -.698E+00 0.107E+02 -.521E+02   0.118E+01 -.104E+02 0.534E+02   -.956E-01 -.706E-01 -.869E+00   -.294E-04 -.318E-04 0.332E-04
   -.176E+01 -.147E+02 0.150E+02   0.181E+01 0.146E+02 -.149E+02   0.150E+00 0.121E+00 0.354E+00   0.393E-05 0.267E-04 0.359E-05
   0.366E+02 0.437E+02 0.187E+02   -.382E+02 -.453E+02 -.193E+02   0.107E+00 -.358E+00 -.439E+00   0.311E-06 -.266E-04 0.505E-05
   -.254E+02 -.135E+01 -.258E+02   0.266E+02 0.377E-01 0.274E+02   0.744E+00 -.182E+01 0.220E+01   0.757E-05 -.142E-05 0.855E-05
   0.171E+02 0.191E+02 -.718E+01   -.171E+02 -.200E+02 0.816E+01   -.606E+00 0.702E+00 -.834E-03   0.134E-04 -.148E-04 0.128E-04
   0.359E+01 -.366E+01 0.897E+01   -.325E+01 0.390E+01 -.936E+01   -.337E+00 -.278E+00 -.128E-01   0.849E-05 0.139E-04 0.305E-06
   -.509E+01 -.105E+02 -.149E+02   0.537E+01 0.106E+02 0.143E+02   -.167E+00 -.569E-01 0.523E+00   0.318E-04 0.632E-05 -.348E-05
   -.211E+02 -.250E+02 -.494E+02   0.217E+02 0.257E+02 0.505E+02   0.139E-01 0.762E+00 0.141E+01   -.142E-04 0.303E-04 0.377E-04
   0.257E+02 0.201E+01 0.272E+02   -.269E+02 -.739E+00 -.290E+02   -.676E+00 0.186E+01 -.172E+01   0.226E-05 -.457E-05 0.974E-05
   0.395E+02 0.642E+02 0.194E+02   -.415E+02 -.663E+02 -.214E+02   0.456E+00 0.426E+00 0.780E+00   -.376E-04 -.414E-04 -.586E-05
   0.176E+01 0.147E+02 -.150E+02   -.181E+01 -.146E+02 0.149E+02   -.150E+00 -.121E+00 -.354E+00   -.323E-05 -.260E-04 -.483E-05
   0.543E+01 0.231E+02 0.524E+02   -.616E+01 -.235E+02 -.537E+02   0.229E+00 0.163E+00 0.874E+00   0.123E-04 -.443E-04 -.312E-04
   -.359E+01 0.366E+01 -.897E+01   0.325E+01 -.390E+01 0.936E+01   0.337E+00 0.278E+00 0.128E-01   -.537E-05 -.156E-04 0.915E-06
   -.183E+02 -.892E+01 0.990E+01   0.183E+02 0.963E+01 -.110E+02   0.824E+00 -.560E+00 0.121E+00   -.398E-06 -.843E-05 -.115E-04
   0.254E+02 0.135E+01 0.258E+02   -.266E+02 -.377E-01 -.274E+02   -.744E+00 0.182E+01 -.220E+01   -.446E-05 0.222E-05 -.176E-05
   0.309E+02 -.120E+02 0.267E+02   -.323E+02 0.109E+02 -.280E+02   -.271E+00 0.418E+00 -.749E+00   -.343E-04 0.455E-04 -.209E-04
   0.211E+02 0.250E+02 0.494E+02   -.217E+02 -.257E+02 -.505E+02   -.139E-01 -.762E+00 -.141E+01   0.114E-04 -.300E-04 -.445E-04
   -.348E+02 -.599E+02 -.181E+02   0.352E+02 0.602E+02 0.195E+02   -.950E-01 -.713E-01 -.736E+00   0.223E-04 0.804E-04 -.626E-05
   -.108E+02 -.108E+02 -.278E+02   0.105E+02 0.106E+02 0.284E+02   0.318E+00 0.112E+00 0.229E+00   0.295E-04 0.881E-05 0.313E-04
   -.141E+02 -.169E+02 -.535E+01   0.141E+02 0.180E+02 0.470E+01   0.676E+00 -.909E+00 -.322E+00   -.106E-04 0.180E-04 0.425E-04
   -.210E+02 -.313E+02 -.172E+01   0.210E+02 0.325E+02 0.137E+01   -.807E+00 0.290E+01 -.160E+01   0.642E-05 -.582E-05 0.336E-04
   -.504E+02 -.512E+02 -.317E+02   0.503E+02 0.514E+02 0.311E+02   0.107E+01 0.118E+00 0.116E+01   0.152E-04 0.378E-04 0.654E-04
   -.393E+02 -.100E+02 -.513E+02   0.401E+02 0.981E+01 0.524E+02   0.108E+01 -.381E-02 0.134E+01   0.488E-04 -.711E-05 -.598E-06
   0.416E+02 0.668E+01 0.949E+00   -.424E+02 -.642E+01 -.603E+00   0.558E+00 -.325E+00 0.152E-01   -.119E-04 0.273E-04 -.701E-05
   0.416E+01 0.429E+01 0.529E+01   -.422E+01 -.410E+01 -.456E+01   -.131E+00 -.156E+00 -.923E+00   -.752E-05 0.999E-05 0.326E-05
   -.122E+02 -.330E+01 -.390E+02   0.127E+02 0.385E+01 0.401E+02   -.261E-01 -.199E+00 -.480E+00   0.170E-04 -.112E-04 0.277E-04
   -.225E+02 -.399E+02 0.612E+01   0.226E+02 0.411E+02 -.656E+01   -.725E+00 0.276E+01 -.160E+01   0.120E-05 0.743E-05 -.204E-04
   -.259E+02 -.397E+02 0.203E+01   0.257E+02 0.403E+02 -.269E+01   0.731E+00 -.851E-02 0.543E+00   -.160E-04 0.181E-04 0.931E-05
   -.102E+02 0.378E+01 -.213E+02   0.995E+01 -.437E+01 0.227E+02   0.275E+00 0.224E+00 0.279E+00   -.398E-05 -.239E-04 -.121E-04
   0.124E+02 0.129E+02 0.306E+02   -.124E+02 -.130E+02 -.305E+02   0.294E-01 -.496E-01 -.384E+00   -.843E-05 -.202E-04 -.259E-04
   0.315E+01 -.121E+01 0.238E+02   -.270E+01 0.153E+01 -.240E+02   -.369E+00 -.252E+00 -.429E+00   0.118E-04 0.147E-04 -.187E-04
   -.759E+01 -.111E+02 -.293E+02   0.826E+01 0.116E+02 0.307E+02   -.139E+00 -.288E+00 -.674E+00   -.949E-05 0.424E-05 -.927E-07
   0.268E+02 0.821E+01 0.240E+02   -.280E+02 -.699E+01 -.259E+02   -.732E+00 0.190E+01 -.186E+01   0.125E-06 -.115E-04 0.232E-04
   -.340E+02 -.135E+01 0.217E+01   0.341E+02 0.151E+01 -.240E+01   0.365E+00 0.458E+00 -.829E-01   0.523E-04 -.411E-04 -.102E-04
   -.453E+01 -.538E+02 -.602E+01   0.423E+01 0.549E+02 0.547E+01   0.742E-01 0.329E+00 -.461E-01   -.185E-04 0.841E-04 -.777E-05
   0.509E+01 0.105E+02 0.149E+02   -.537E+01 -.106E+02 -.143E+02   0.167E+00 0.569E-01 -.523E+00   -.282E-04 -.716E-05 0.124E-05
   -.467E+01 0.627E+01 -.211E+02   0.452E+01 -.665E+01 0.210E+02   0.394E+00 0.306E+00 0.597E+00   -.341E-05 -.571E-05 0.195E-04
   -.208E+02 -.116E+01 -.182E+01   0.206E+02 0.191E+01 0.934E+00   0.869E+00 -.653E+00 0.214E-01   0.206E-04 -.211E-04 0.292E-04
   0.251E+02 -.491E+01 0.278E+02   -.262E+02 0.617E+01 -.296E+02   -.783E+00 0.185E+01 -.180E+01   0.647E-06 0.563E-05 -.891E-05
   -.366E+02 -.437E+02 -.187E+02   0.382E+02 0.453E+02 0.193E+02   -.107E+00 0.358E+00 0.439E+00   0.213E-05 0.263E-04 -.109E-04
   0.337E+02 0.175E+02 0.324E+02   -.341E+02 -.176E+02 -.329E+02   0.307E+00 0.141E+00 -.221E+00   -.236E-04 -.604E-05 -.131E-04
   0.698E+00 -.107E+02 0.521E+02   -.118E+01 0.104E+02 -.534E+02   0.956E-01 0.706E-01 0.869E+00   0.262E-04 0.327E-04 -.344E-04
   -.219E+01 -.166E+02 -.145E+02   0.193E+01 0.164E+02 0.153E+02   0.156E+00 0.116E+00 -.814E-01   -.822E-05 0.257E-04 0.147E-04
   -.171E+02 -.191E+02 0.718E+01   0.171E+02 0.200E+02 -.816E+01   0.606E+00 -.702E+00 0.834E-03   -.102E-04 0.143E-04 -.774E-05
   -.226E+02 -.306E+02 0.463E+01   0.226E+02 0.318E+02 -.499E+01   -.832E+00 0.293E+01 -.171E+01   0.745E-05 -.483E-05 -.248E-05
   -.371E+02 0.472E+01 0.841E+01   0.376E+02 -.531E+01 -.899E+01   0.582E+00 0.995E-01 -.170E+00   0.540E-04 -.161E-04 -.279E-04
   -.174E+02 0.168E+02 -.583E+02   0.172E+02 -.170E+02 0.596E+02   0.908E+00 0.552E-01 0.207E+01   0.912E-05 -.226E-04 0.551E-04
   -.259E+02 -.397E+02 0.203E+01   0.257E+02 0.403E+02 -.269E+01   0.731E+00 -.851E-02 0.543E+00   -.160E-04 0.181E-04 0.931E-05
   0.557E+01 0.165E+02 0.151E+02   -.518E+01 -.169E+02 -.148E+02   -.337E+00 0.213E+00 -.679E+00   -.760E-05 -.289E-04 -.112E-05
   -.875E+01 -.433E+00 -.311E+02   0.923E+01 0.783E+00 0.322E+02   -.452E-01 -.964E-01 -.387E+00   -.933E-05 -.134E-04 0.196E-05
   -.213E+02 -.407E+02 0.288E+01   0.214E+02 0.420E+02 -.326E+01   -.716E+00 0.272E+01 -.170E+01   0.901E-06 0.954E-05 0.193E-05
   0.395E+02 0.642E+02 0.194E+02   -.415E+02 -.663E+02 -.214E+02   0.456E+00 0.426E+00 0.780E+00   -.376E-04 -.414E-04 -.586E-05
   0.940E+01 -.427E+02 -.395E+02   -.985E+01 0.430E+02 0.408E+02   -.218E+00 0.201E+00 0.579E+00   -.344E-04 0.694E-04 0.166E-04
   0.128E+02 -.912E+01 0.163E+02   -.127E+02 0.929E+01 -.161E+02   -.234E+00 -.255E+00 -.266E+00   -.238E-04 0.281E-04 -.530E-05
   0.154E+01 -.994E+01 0.125E+02   -.168E+01 0.106E+02 -.123E+02   -.104E+00 -.496E+00 -.624E+00   0.252E-04 0.215E-04 -.223E-05
   -.836E+01 -.164E+02 -.399E+02   0.917E+01 0.171E+02 0.414E+02   -.237E+00 -.410E+00 -.768E+00   0.188E-05 0.175E-04 0.427E-04
 -----------------------------------------------------------------------------------------------
   -.732E-02 -.188E-02 0.196E-03   -.444E-13 0.139E-12 0.725E-12   -.944E-15 -.350E-14 -.167E-14   -.343E-06 -.138E-06 0.772E-06
 
 
 POSITION                                       TOTAL-FORCE (eV/Angst)
 -----------------------------------------------------------------------------------
     11.16112      6.07136      5.77447        -0.957872     -0.319962     -0.541754
     14.95649     11.75269      0.00000         0.823711     -4.073678      2.066924
     13.69137      8.13730      1.15489        -0.484210     -0.343100     -0.642941
     12.42624      4.52191      2.30979         0.242964     -0.145191      0.488337
     11.16112      0.90652      3.46468         0.044390      0.123098      0.279889
     12.42624      9.68675      4.61958        -0.750102      0.178275     -3.348572
     11.93613      6.22893      8.12185        -0.512389     -0.558835      0.111948
      7.36576      5.55488      0.00000         0.595992     -3.983770      2.078303
      6.10063      1.93949      1.15489        -0.527817     -0.243594     -0.775468
      7.36575     10.71972      2.30979        -0.058376      0.242510      0.442697
      7.50820      5.19597      6.96696         0.243442      0.058237     -0.360658
      4.83551      3.48894      4.61958         0.674050     -0.478081     -1.831946
      5.61051      3.64651      6.96696         1.585043      0.711279      2.015863
      6.73320     10.20324      0.00000         1.945422     -3.117356      3.739401
      5.46807      6.58785      1.15489        -0.595172     -0.140509      0.967868
      4.20295      2.97246      2.30979         0.108110      0.054553     -0.650116
      5.46807     11.75269      3.46468         0.506456      0.233956      0.480196
     12.56869      4.16300      9.27675         0.223422     -1.507741      0.604878
     13.20125      9.84432      6.96696         1.554609      1.650510      1.172371
     11.79369      4.00543      0.00000         1.899829     -3.110749      3.657878
     10.52856      0.39004      1.15489        -0.800486     -0.146187      0.958559
     11.79368      9.17027      2.30979        -0.239654      0.074161     -0.522838
      1.81514      3.13003      8.12185        -0.314234     -0.218641     -0.713153
      9.26344      1.93949      4.61958         0.091347      0.003523      0.665398
     13.20125      9.84432      6.96696         1.554609      1.650510      1.172371
      4.83551      8.65379      0.00000         0.794567     -4.070672      1.954643
      3.57039      5.03840      1.15489        -0.567685     -0.319989     -0.802894
      2.30526      1.42300      2.30979        -0.078347     -0.072883      0.615888
     11.93613      6.22893      8.12185        -0.512389     -0.558835      0.111948
      2.30526      6.58784      4.61958        -1.955259      0.231840     -2.416052
     10.03844      7.26190      9.27675        -1.122938      0.486939      0.753633
      9.89600      2.45598      0.00000         0.676185     -3.952691      2.038340
     11.16112     11.23620      1.15489        -0.436090     -0.253053     -0.719819
      9.89600      7.62081      2.30979         0.183396     -0.031503      0.195707
      8.63088      4.00543      3.46468         0.112661      0.083690      0.116384
      7.36575      0.39003      4.61958         0.017408      0.361190     -1.727553
      9.40588      9.32784      8.12185        -0.518168     -0.620955      0.314767
      1.67271      0.90652      0.00000         1.882156     -3.134312      3.583869
      2.93783      9.68675      1.15489        -0.724094     -0.103221      0.861993
      1.67270      6.07136      2.30979        -0.025620      0.081313     -0.807148
     13.05880      2.45597      3.46468         0.385589      0.243347      0.413045
      5.61051      8.81136      9.27675         0.198771      0.037156      0.424777
      5.46807      1.42300      5.77447        -1.501783     -2.018427     -1.050699
      9.26344      7.10433      0.00000         1.989014     -3.131184      3.838734
      7.99832      3.48894      1.15489        -0.563533     -0.166316      0.984190
      9.26344     12.26917      2.30979         0.002882     -0.042454     -0.405704
      7.99832      8.65378      3.46468         0.112245      0.055179     -0.040199
      3.08027      6.74542      6.96696         0.671128      1.424225      2.490622
     11.93612      1.06409     12.74143        -1.882156      3.134312     -3.583869
      2.93782      4.52191      5.77447        -1.554609     -1.650510     -1.172371
     10.52856      5.55488      3.46468        -0.198771     -0.037156     -0.424777
     10.67100      2.61354      9.27675        -0.506456     -0.233956     -0.480196
      6.87563      2.09706     10.43164        -0.002882      0.042454      0.405704
      3.08026      1.58057     11.58653         0.800486      0.146187     -0.958559
      6.87563      7.26190     12.74143        -1.989014      3.131184     -3.838734
     10.52856     10.71972      5.77447        -1.585043     -0.711279     -2.015863
     13.05880      7.62081      5.77447        -0.671128     -1.424225     -2.490622
     14.32393     11.23620      4.61958         0.314234      0.218641      0.713153
      1.81514      8.29487     10.43164         0.025620     -0.081313      0.807148
     10.67100      7.77838     11.58653         0.595172      0.140509     -0.967868
     11.30356      5.71245     12.74143        -0.794567      4.070672     -1.954643
      4.97796      8.29487      6.96696         0.957872      0.319962      0.541754
     13.83381      7.77839      8.12185         1.955259     -0.231840      2.416052
      8.63087      9.17026      5.77447        -0.243442     -0.058237      0.360658
      6.24307      6.74542     10.43164        -0.183396      0.031503     -0.195707
      2.44771      6.22893     11.58653         0.484210      0.343100      0.642941
      6.24307     11.91026     12.74143        -0.676185      3.952691     -2.038340
      4.20295      8.13730      4.61958         0.512389      0.558835     -0.111948
      6.24308      1.58058      8.12185        -0.017408     -0.361190      1.727553
      2.44771      1.06409      9.27675        -0.044390     -0.123098     -0.279889
     11.30356      0.54761     10.43164         0.078347      0.072883     -0.615888
      7.50819      0.03112     11.58653         0.527817      0.243594      0.775468
      9.40588      4.16299     12.74143        -1.945422      3.117356     -3.739401
      6.73319      5.03839      4.61958         0.518168      0.620955     -0.314767
      3.57039     10.20324      3.46468        -0.223422      1.507741     -0.604878
      8.14076      5.71245      9.27675        -0.112245     -0.055179      0.040199
      4.34539      5.19596     10.43164         0.239654     -0.074161      0.522838
     13.20125      4.67948     11.58653         0.724094      0.103221     -0.861993
      4.34539     10.36081     12.74143        -1.899829      3.110749     -3.657878
      8.14076      0.54761      6.96696         1.501783      2.018427      1.050699
      4.34539      0.03113      8.12185        -0.091347     -0.003523     -0.665398
      3.08027     11.91026      9.27675        -0.385589     -0.243347     -0.413045
     11.93612     11.39378     10.43164        -0.108110     -0.054553      0.650116
      8.14075     10.87729     11.58653         0.563533      0.166316     -0.984190
      1.18258      2.61354     12.74143        -0.823711      4.073678     -2.066924
      6.10063      7.10433      3.46468         1.122938     -0.486939     -0.753633
      3.71283      4.67948      8.12185         0.750102     -0.178275      3.348572
      4.20295      8.13730      4.61958         0.512389      0.558835     -0.111948
      8.77332      3.64651     10.43164         0.058376     -0.242510     -0.442697
      4.97795      3.13003     11.58653         0.436090      0.253053      0.719819
      8.77332      8.81135     12.74143        -0.595992      3.983770     -2.078303
      2.93782      4.52191      5.77447        -1.554609     -1.650510     -1.172371
     11.30357     10.87729      8.12185        -0.674050      0.478081      1.831946
      7.50820     10.36081      9.27675        -0.112661     -0.083690     -0.116384
      3.71283      9.84432     10.43164        -0.242964      0.145191     -0.488337
     12.56868      9.32784     11.58653         0.567685      0.319989      0.802894
 -----------------------------------------------------------------------------------
    total drift:                               -0.007325     -0.001885      0.000197


--------------------------------------------------------------------------------------------------------



  FREE ENERGIE OF THE ION-ELECTRON SYSTEM (eV)
  ---------------------------------------------------
  free  energy   TOTEN  =      -924.86037248 eV

  energy  without entropy=     -924.85759434  energy(sigma->0) =     -924.85898341
 


--------------------------------------------------------------------------------------------------------


    POTLOK:  cpu time      1.5394: real time      1.5465


--------------------------------------------------------------------------------------------------------


     LOOP+:  cpu time    595.3054: real time    600.8506
    4ORBIT:  cpu time      0.0000: real time      0.0000

 total amount of memory used by VASP MPI-rank0   168771. kBytes
=======================================================================

   base      :      30000. kBytes
   nonlr-proj:       5814. kBytes
   fftplans  :      14311. kBytes
   grid      :      10233. kBytes
   one-center:         97. kBytes
   wavefun   :     108316. kBytes
 
  
  
 General timing and accounting informations for this job:
 ========================================================
  
                  Total CPU time used (sec):      646.298
                            User time (sec):      606.802
                          System time (sec):       39.496
                         Elapsed time (sec):      653.107
  
                   Maximum memory used (kb):      436332.
                   Average memory used (kb):          N/A
  
                          Minor page faults:       148341
                          Major page faults:           32
                 Voluntary context switches:         1448
