Si Bulk DFT energetics calculations using VASP\n
This script is running on comp030.cluster.local in /lustre/home/ah1365/projects/127870/upgrade_report/case_studies/common/structures/interfaces/168_Ge96Sn72_111_111_a0.823899_b0.314465_c2.262296_interface1shift8\n
Job started on: Mon  9 Jun 01:48:48 UTC 2025\n
 running   64 mpi-ranks, on    4 nodes
 distrk:  each k-point on   64 cores,    1 groups
 distr:  one band on   16 cores,    4 groups
 vasp.6.4.3 19Mar24 (build Oct 22 2024 11:23:12) complex                        
  
 POSCAR found type information on POSCAR GeSn
 POSCAR found :  2 types and     168 ions
 -----------------------------------------------------------------------------
|                                                                             |
|           W    W    AA    RRRRR   N    N  II  N    N   GGGG   !!!           |
|           W    W   A  A   R    R  NN   N  II  NN   N  G    G  !!!           |
|           W    W  A    A  R    R  N N  N  II  N N  N  G       !!!           |
|           W WW W  AAAAAA  RRRRR   N  N N  II  N  N N  G  GGG   !            |
|           WW  WW  A    A  R   R   N   NN  II  N   NN  G    G                |
|           W    W  A    A  R    R  N    N  II  N    N   GGGG   !!!           |
|                                                                             |
|     You use a magnetic or noncollinear calculation, but did not specify     |
|     the initial magnetic moment with the MAGMOM tag. Note that a            |
|     default of 5.952e-3 will be used for all atoms. This ferromagnetic      |
|     setup may break the symmetry of the crystal, in particular it may       |
|     rule out finding an antiferromagnetic solution. Thence, we              |
|     recommend setting the initial magnetic moment manually or verifying     |
|     carefully that this magnetic setup is desired.                          |
|                                                                             |
 -----------------------------------------------------------------------------

 scaLAPACK will be used
 WARNING: PSMAXN for non-local potential too small
 LDA part: xc-table for (Slater+PW92), standard interpolation
 POSCAR, INCAR and KPOINTS ok, starting setup
 FFT: planning ... GRIDC
 FFT: planning ... GRID_SOFT
 FFT: planning ... GRID
 WAVECAR not read
 entering main loop
       N       E                     dE             d eps       ncg     rms          rms(c)
DAV:   1     0.339216584108E+04    0.33922E+04   -0.28191E+05 12928   0.168E+03
DAV:   2    -0.271714411999E+03   -0.36639E+04   -0.35417E+04 15136   0.198E+02
DAV:   3    -0.675832044425E+03   -0.40412E+03   -0.39213E+03 15968   0.642E+01
DAV:   4    -0.692463555436E+03   -0.16632E+02   -0.16310E+02 15608   0.128E+01
DAV:   5    -0.693158326083E+03   -0.69477E+00   -0.68955E+00 16960   0.225E+00    0.284E+01
DAV:   6    -0.684504646336E+03    0.86537E+01   -0.17446E+01 19632   0.709E+00    0.139E+01
DAV:   7    -0.685042433945E+03   -0.53779E+00   -0.19857E+01 16488   0.773E+00    0.594E+00
DAV:   8    -0.683227306612E+03    0.18151E+01   -0.68335E+00 16264   0.499E+00    0.171E+00
DAV:   9    -0.683264175591E+03   -0.36869E-01   -0.19633E+00 15520   0.186E+00    0.108E+00
DAV:  10    -0.683267430734E+03   -0.32551E-02   -0.37468E-01 15312   0.682E-01    0.540E-01
DAV:  11    -0.683269064541E+03   -0.16338E-02   -0.51360E-02 15424   0.280E-01    0.276E-01
DAV:  12    -0.683268688561E+03    0.37598E-03   -0.10344E-02 14592   0.131E-01    0.177E-01
DAV:  13    -0.683269113125E+03   -0.42456E-03   -0.19872E-03 14888   0.547E-02    0.715E-02
DAV:  14    -0.683269221397E+03   -0.10827E-03   -0.25902E-04 14696   0.250E-02    0.325E-02
DAV:  15    -0.683269253105E+03   -0.31708E-04   -0.64029E-05 14464   0.119E-02    0.162E-02
DAV:  16    -0.683269268482E+03   -0.15377E-04   -0.10701E-05 14680   0.520E-03    0.851E-03
DAV:  17    -0.683269273912E+03   -0.54308E-05   -0.39010E-06 14672   0.301E-03    0.597E-03
DAV:  18    -0.683269276225E+03   -0.23128E-05   -0.14029E-06 14464   0.170E-03    0.370E-03
DAV:  19    -0.683269276965E+03   -0.73997E-06   -0.84862E-07 14464   0.122E-03    0.264E-03
DAV:  20    -0.683269277223E+03   -0.25775E-06   -0.41481E-07 11696   0.102E-03    0.163E-03
DAV:  21    -0.683269277011E+03    0.21161E-06   -0.15937E-07  8944   0.618E-04    0.955E-04
DAV:  22    -0.683269276918E+03    0.93532E-07   -0.64144E-08  7872   0.397E-04
   1 F= -.68326928E+03 E0= -.68326747E+03  d E =-.360786E-02  mag=     1.0000
Job ended on: Mon  9 Jun 02:27:19 UTC 2025\n
