<?xml version="1.0" encoding="ISO-8859-1"?>
<modeling>
 <generator>
  <i name="program" type="string">vasp </i>
  <i name="version" type="string">6.4.3  </i>
  <i name="subversion" type="string">19Mar24 (build Oct 22 2024 11:23:12) complex                          parallel </i>
  <i name="platform" type="string">LinuxIFC </i>
  <i name="date" type="string">2025 06 09 </i>
  <i name="time" type="string">02:48:49 </i>
 </generator>
 <incar>
  <i type="string" name="SYSTEM">Si and Ge interface calculation</i>
  <i type="int" name="ISTART">     0</i>
  <i type="logical" name="ADDGRID"> T  </i>
  <i type="int" name="ISPIN">     2</i>
  <i name="AMIX">      0.60000000</i>
  <i type="int" name="ICHARG">     2</i>
  <i type="int" name="NELM">   100</i>
  <i name="EDIFF">      0.00000010</i>
  <i name="ENCUT">    700.00000000</i>
  <i name="ENAUG">    900.00000000</i>
  <i type="int" name="NBANDS">   404</i>
  <i name="NUPDOWN">      1.00000000</i>
  <i name="NELECT">    672.00000000</i>
  <i type="string" name="LREAL">AUTO</i>
  <i type="int" name="ISMEAR">     0</i>
  <i name="SIGMA">      0.01000000</i>
  <i type="int" name="LMAXMIX">     6</i>
  <i type="logical" name="LWAVE"> F  </i>
  <i type="logical" name="LVTOT"> F  </i>
  <i type="logical" name="LVHAR"> T  </i>
  <i type="logical" name="LASPH"> T  </i>
  <i type="logical" name="LMIXTAU"> T  </i>
 </incar>
 <primitive_cell>
  <structure name="primitive_cell" >
   <crystal>
    <varray name="basis" >
     <v>       8.00133800       0.00000000       0.00000000 </v>
     <v>      -4.00066900       6.92936230       0.00000000 </v>
     <v>       0.00000000       0.00000000      20.30400658 </v>
    </varray>
    <i name="volume">   1125.73879025 </i>
    <varray name="rec_basis" >
     <v>       0.12497910       0.07215671       0.00000000 </v>
     <v>       0.00000000       0.14431342       0.00000000 </v>
     <v>       0.00000000       0.00000000       0.04925136 </v>
    </varray>
   </crystal>
   <varray name="positions" >
    <v>       0.97153461       0.98576713       0.00000000 </v>
    <v>       0.30486768       0.65243369       0.16088121 </v>
    <v>       0.63820088       0.31910038       0.32176241 </v>
    <v>       0.30486789       0.65243387       0.04022032 </v>
    <v>       0.63820112       0.31910026       0.20110148 </v>
    <v>       0.97153437       0.98576689       0.36198270 </v>
    <v>       0.47153458       0.48576725       0.00000001 </v>
    <v>       0.80486774       0.15243387       0.16088121 </v>
    <v>       0.13820080       0.81910020       0.32176241 </v>
    <v>       0.80486798       0.15243375       0.04022027 </v>
    <v>       0.13820103       0.81910032       0.20110148 </v>
    <v>       0.47153449       0.48576713       0.36198267 </v>
    <v>       0.47153455       0.98576719       0.00000001 </v>
    <v>       0.80486774       0.65243369       0.16088119 </v>
    <v>       0.13820083       0.31910038       0.32176241 </v>
    <v>       0.80486798       0.65243393       0.04022029 </v>
    <v>       0.13820100       0.31910026       0.20110147 </v>
    <v>       0.47153449       0.98576695       0.36198261 </v>
    <v>       0.97153461       0.48576725       0.00000001 </v>
    <v>       0.30486768       0.15243387       0.16088121 </v>
    <v>       0.63820088       0.81910020       0.32176241 </v>
    <v>       0.30486795       0.15243387       0.04022032 </v>
    <v>       0.63820124       0.81910044       0.20110148 </v>
    <v>       0.97153449       0.48576713       0.36198270 </v>
    <v>       0.64779878       0.65374917       0.47340384 </v>
    <v>       0.64779878       0.32041597       0.65792614 </v>
    <v>       0.64779878       0.98708272       0.84244847 </v>
    <v>       0.31446552       0.98708248       0.47340384 </v>
    <v>       0.31446552       0.65374947       0.65792614 </v>
    <v>       0.31446552       0.32041621       0.84244835 </v>
    <v>       0.98113215       0.32041597       0.47340384 </v>
    <v>       0.98113215       0.98708248       0.65792608 </v>
    <v>       0.98113215       0.65374947       0.84244847 </v>
    <v>       0.64779878       0.32041597       0.51953441 </v>
    <v>       0.64779878       0.98708272       0.70405668 </v>
    <v>       0.64779878       0.65374923       0.88857901 </v>
    <v>       0.31446552       0.65374923       0.51953441 </v>
    <v>       0.31446552       0.32041597       0.70405674 </v>
    <v>       0.31446552       0.98708296       0.88857901 </v>
    <v>       0.98113215       0.98708236       0.51953441 </v>
    <v>       0.98113215       0.65374947       0.70405668 </v>
    <v>       0.98113227       0.32041645       0.88857901 </v>
   </varray>
  </structure>
  <varray name="primitive_index" >
   <v type="int" >        1 </v>
   <v type="int" >        8 </v>
   <v type="int" >       12 </v>
   <v type="int" >       16 </v>
   <v type="int" >       14 </v>
   <v type="int" >       21 </v>
   <v type="int" >       28 </v>
   <v type="int" >       26 </v>
   <v type="int" >       33 </v>
   <v type="int" >       43 </v>
   <v type="int" >       38 </v>
   <v type="int" >       48 </v>
   <v type="int" >       49 </v>
   <v type="int" >       50 </v>
   <v type="int" >       60 </v>
   <v type="int" >       70 </v>
   <v type="int" >       62 </v>
   <v type="int" >       69 </v>
   <v type="int" >       76 </v>
   <v type="int" >       80 </v>
   <v type="int" >       81 </v>
   <v type="int" >       85 </v>
   <v type="int" >       86 </v>
   <v type="int" >       96 </v>
   <v type="int" >       97 </v>
   <v type="int" >       98 </v>
   <v type="int" >      135 </v>
   <v type="int" >      136 </v>
   <v type="int" >      101 </v>
   <v type="int" >      102 </v>
   <v type="int" >      115 </v>
   <v type="int" >      152 </v>
   <v type="int" >      117 </v>
   <v type="int" >      106 </v>
   <v type="int" >      143 </v>
   <v type="int" >      108 </v>
   <v type="int" >      109 </v>
   <v type="int" >      110 </v>
   <v type="int" >      147 </v>
   <v type="int" >      160 </v>
   <v type="int" >      125 </v>
   <v type="int" >      126 </v>
  </varray>
 </primitive_cell>
 <kpoints>
  <generation param="Gamma">
   <v type="int" name="divisions">       2        2        2 </v>
   <v name="usershift">      0.00000000       0.00000000       0.00000000 </v>
   <v name="genvec1">      0.50000000       0.00000000       0.00000000 </v>
   <v name="genvec2">      0.00000000       0.50000000       0.00000000 </v>
   <v name="genvec3">      0.00000000       0.00000000       0.50000000 </v>
   <v name="shift">      0.00000000       0.00000000       0.00000000 </v>
  </generation>
  <varray name="kpointlist" >
   <v>       0.00000000       0.00000000       0.00000000 </v>
   <v>       0.50000000       0.00000000       0.00000000 </v>
   <v>       0.00000000       0.50000000       0.00000000 </v>
   <v>       0.50000000       0.50000000       0.00000000 </v>
   <v>       0.00000000       0.00000000       0.50000000 </v>
   <v>       0.50000000       0.00000000       0.50000000 </v>
   <v>       0.00000000       0.50000000       0.50000000 </v>
   <v>       0.50000000       0.50000000       0.50000000 </v>
  </varray>
  <varray name="weights" >
   <v>       0.12500000 </v>
   <v>       0.12500000 </v>
   <v>       0.12500000 </v>
   <v>       0.12500000 </v>
   <v>       0.12500000 </v>
   <v>       0.12500000 </v>
   <v>       0.12500000 </v>
   <v>       0.12500000 </v>
  </varray>
 </kpoints>
 <parameters>
  <separator name="general" >
   <i type="string" name="SYSTEM">Si and Ge interface calculation</i>
   <i type="logical" name="LCOMPAT"> F  </i>
  </separator>
  <separator name="electronic" >
   <i type="string" name="PREC">normal</i>
   <i name="ENMAX">    700.00000000</i>
   <i name="ENAUG">    900.00000000</i>
   <i name="EDIFF">      0.00000010</i>
   <i type="int" name="IALGO">    38</i>
   <i type="int" name="IWAVPR">    10</i>
   <i type="int" name="NBANDS">   404</i>
   <i type="int" name="NBANDSLOW">    -1</i>
   <i type="int" name="NBANDSHIGH">    -1</i>
   <i name="NELECT">    672.00000000</i>
   <i type="int" name="TURBO">     0</i>
   <i type="int" name="IRESTART">     0</i>
   <i type="int" name="NREBOOT">     0</i>
   <i type="int" name="NMIN">     0</i>
   <i name="EREF">      0.00000000</i>
   <separator name="electronic smearing" >
    <i type="int" name="ISMEAR">     0</i>
    <i name="SIGMA">      0.01000000</i>
    <i name="KSPACING">      0.50000000</i>
    <i type="logical" name="KGAMMA"> T  </i>
    <i type="logical" name="KBLOWUP"> T  </i>
   </separator>
   <separator name="electronic projectors" >
    <i type="logical" name="LREAL"> T  </i>
    <v name="ROPT">     -0.00050000     -0.00050000</v>
    <i type="int" name="LMAXPAW">  -100</i>
    <i type="int" name="LMAXMIX">     6</i>
    <i type="logical" name="NLSPLINE"> F  </i>
   </separator>
   <separator name="electronic startup" >
    <i type="int" name="ISTART">     0</i>
    <i type="int" name="ICHARG">     2</i>
    <i type="int" name="INIWAV">     1</i>
   </separator>
   <separator name="electronic spin" >
    <i type="int" name="ISPIN">     2</i>
    <i type="logical" name="LNONCOLLINEAR"> F  </i>
    <v name="MAGMOM">      0.00595238      0.00595238      0.00595238      0.00595238      0.00595238      0.00595238      0.00595238      0.00595238      0.00595238      0.00595238      0.00595238      0.00595238      0.00595238      0.00595238      0.00595238      0.00595238      0.00595238      0.00595238      0.00595238      0.00595238
      0.00595238      0.00595238      0.00595238      0.00595238      0.00595238      0.00595238      0.00595238      0.00595238      0.00595238      0.00595238      0.00595238      0.00595238      0.00595238      0.00595238      0.00595238      0.00595238      0.00595238      0.00595238      0.00595238      0.00595238
      0.00595238      0.00595238      0.00595238      0.00595238      0.00595238      0.00595238      0.00595238      0.00595238      0.00595238      0.00595238      0.00595238      0.00595238      0.00595238      0.00595238      0.00595238      0.00595238      0.00595238      0.00595238      0.00595238      0.00595238
      0.00595238      0.00595238      0.00595238      0.00595238      0.00595238      0.00595238      0.00595238      0.00595238      0.00595238      0.00595238      0.00595238      0.00595238      0.00595238      0.00595238      0.00595238      0.00595238      0.00595238      0.00595238      0.00595238      0.00595238
      0.00595238      0.00595238      0.00595238      0.00595238      0.00595238      0.00595238      0.00595238      0.00595238      0.00595238      0.00595238      0.00595238      0.00595238      0.00595238      0.00595238      0.00595238      0.00595238      0.00595238      0.00595238      0.00595238      0.00595238
      0.00595238      0.00595238      0.00595238      0.00595238      0.00595238      0.00595238      0.00595238      0.00595238      0.00595238      0.00595238      0.00595238      0.00595238      0.00595238      0.00595238      0.00595238      0.00595238      0.00595238      0.00595238      0.00595238      0.00595238
      0.00595238      0.00595238      0.00595238      0.00595238      0.00595238      0.00595238      0.00595238      0.00595238      0.00595238      0.00595238      0.00595238      0.00595238      0.00595238      0.00595238      0.00595238      0.00595238      0.00595238      0.00595238      0.00595238      0.00595238
      0.00595238      0.00595238      0.00595238      0.00595238      0.00595238      0.00595238      0.00595238      0.00595238      0.00595238      0.00595238      0.00595238      0.00595238      0.00595238      0.00595238      0.00595238      0.00595238      0.00595238      0.00595238      0.00595238      0.00595238
      0.00595238      0.00595238      0.00595238      0.00595238      0.00595238      0.00595238      0.00595238      0.00595238</v>
    <i name="NUPDOWN">      1.00000000</i>
    <i type="logical" name="LSORBIT"> F  </i>
    <v name="SAXIS">      0.00000000      0.00000000      1.00000000</v>
    <i type="logical" name="LSPIRAL"> F  </i>
    <v name="QSPIRAL">      0.00000000      0.00000000      0.00000000</v>
    <i type="logical" name="LZEROZ"> F  </i>
   </separator>
   <separator name="electronic exchange-correlation" >
    <i type="logical" name="LASPH"> T  </i>
   </separator>
   <separator name="electronic convergence" >
    <i type="int" name="NELM">   100</i>
    <i type="int" name="NELMDL">    -5</i>
    <i type="int" name="NELMIN">     2</i>
    <i name="ENINI">    700.00000000</i>
    <separator name="electronic convergence detail" >
     <i type="logical" name="LDIAG"> T  </i>
     <i type="logical" name="LSUBROT"> F  </i>
     <i name="WEIMIN">      0.00000000</i>
     <i name="EBREAK">      0.00000000</i>
     <i name="DEPER">      0.30000000</i>
     <i type="int" name="NRMM">     4</i>
     <i name="TIME">      0.40000000</i>
    </separator>
   </separator>
   <separator name="electronic mixer" >
    <i name="AMIX">      0.60000000</i>
    <i name="BMIX">      1.00000000</i>
    <i name="AMIN">      0.10000000</i>
    <i name="AMIX_MAG">      2.40000000</i>
    <i name="BMIX_MAG">      1.00000000</i>
    <separator name="electronic mixer details" >
     <i type="int" name="IMIX">     4</i>
     <i type="logical" name="MIXFIRST"> F  </i>
     <i type="int" name="MAXMIX">   -45</i>
     <i name="WC">    100.00000000</i>
     <i type="int" name="INIMIX">     1</i>
     <i type="int" name="MIXPRE">     1</i>
     <i type="int" name="MREMOVE">     5</i>
    </separator>
   </separator>
   <separator name="electronic dipolcorrection" >
    <i type="logical" name="LDIPOL"> F  </i>
    <i type="logical" name="LMONO"> F  </i>
    <i type="int" name="IDIPOL">     0</i>
    <i name="EPSILON">      1.00000000</i>
    <v name="DIPOL">   -100.00000000   -100.00000000   -100.00000000</v>
    <i name="EFIELD">      0.00000000</i>
    <i type="logical" name="LVACPOTAV"> F  </i>
   </separator>
  </separator>
  <separator name="grids" >
   <i type="int" name="NGX">   108</i>
   <i type="int" name="NGY">   108</i>
   <i type="int" name="NGZ">   140</i>
   <i type="int" name="NGXF">   216</i>
   <i type="int" name="NGYF">   216</i>
   <i type="int" name="NGZF">   280</i>
   <i type="logical" name="ADDGRID"> T  </i>
  </separator>
  <separator name="ionic" >
   <i type="int" name="NSW">     0</i>
   <i type="int" name="IBRION">    -1</i>
   <i type="int" name="MDALGO">     0</i>
   <i type="int" name="ISIF">     2</i>
   <i name="PSTRESS">      0.00000000</i>
   <i name="EDIFFG">      0.00000100</i>
   <i type="int" name="NFREE">     0</i>
   <i name="POTIM">      0.50000000</i>
   <i name="SMASS">     -3.00000000</i>
   <i name="SCALEE">      1.00000000</i>
  </separator>
  <separator name="ionic md" >
   <i name="TEBEG">      0.00010000</i>
   <i name="TEEND">      0.00010000</i>
   <i type="int" name="NBLOCK">     1</i>
   <i type="int" name="KBLOCK">     1</i>
   <i type="int" name="NPACO">   256</i>
   <i name="APACO">     10.00000000</i>
  </separator>
  <separator name="symmetry" >
   <i type="int" name="ISYM">     2</i>
   <i name="SYMPREC">      0.00001000</i>
  </separator>
  <separator name="dos" >
   <i type="int" name="LORBIT">     0</i>
   <v name="RWIGS">     -1.00000000     -1.00000000</v>
   <i type="int" name="NEDOS">   301</i>
   <i name="EMIN">     10.00000000</i>
   <i name="EMAX">    -10.00000000</i>
   <i name="EFERMI">      0.00000000</i>
  </separator>
  <separator name="writing" >
   <i type="int" name="NWRITE">     2</i>
   <i type="logical" name="LWAVE"> F  </i>
   <i type="logical" name="LDOWNSAMPLE"> F  </i>
   <i type="logical" name="LCHARG"> T  </i>
   <i type="logical" name="LPARD"> F  </i>
   <i type="logical" name="LVTOT"> F  </i>
   <i type="logical" name="LVHAR"> T  </i>
   <i type="logical" name="LELF"> F  </i>
   <i type="logical" name="LOPTICS"> F  </i>
   <v name="STM">      0.00000000      0.00000000      0.00000000      0.00000000      0.00000000      0.00000000      0.00000000</v>
  </separator>
  <separator name="performance" >
   <i type="int" name="NPAR">     4</i>
   <i type="int" name="NSIM">     4</i>
   <i type="int" name="NBLK">    -1</i>
   <i type="logical" name="LPLANE"> T  </i>
   <i type="logical" name="LSCALAPACK"> T  </i>
   <i type="logical" name="LSCAAWARE"> F  </i>
   <i type="logical" name="LSCALU"> F  </i>
   <i type="logical" name="LASYNC"> F  </i>
   <i type="logical" name="LORBITALREAL"> F  </i>
  </separator>
  <separator name="miscellaneous" >
   <i type="int" name="IDIOT">     3</i>
   <i type="int" name="PHON_NSTRUCT">    -1</i>
   <i type="logical" name="LMUSIC"> F  </i>
   <v name="POMASS">     72.61000000    118.71000000</v>
   <v name="DARWINR">      0.00000000      0.00000000</v>
   <v name="DARWINV">      1.00000000      1.00000000</v>
   <i type="logical" name="LCORR"> T  </i>
  </separator>
  <i type="logical" name="GGA_COMPAT"> T  </i>
  <i type="logical" name="LBERRY"> F  </i>
  <i type="int" name="ICORELEVEL">     0</i>
  <i type="logical" name="LDAU"> F  </i>
  <i type="int" name="I_CONSTRAINED_M">     0</i>
  <separator name="electronic exchange-correlation" >
   <i type="string" name="GGA    ">PE</i>
   <i type="string" name="XC_C">1</i>
   <i type="int" name="VOSKOWN">     0</i>
   <i type="logical" name="LHFCALC"> F  </i>
   <i type="string" name="PRECFOCK"></i>
   <i type="logical" name="LSYMGRAD"> F  </i>
   <i type="logical" name="LHFONE"> F  </i>
   <i type="logical" name="LRHFCALC"> F  </i>
   <i type="logical" name="LTHOMAS"> F  </i>
   <i type="logical" name="LMODELHF"> F  </i>
   <i type="logical" name="LFOCKACE"> F  </i>
   <i name="ENCUT4O">     -1.00000000</i>
   <i type="int" name="EXXOEP">     0</i>
   <i type="int" name="FOURORBIT">     0</i>
   <i name="AEXX">      0.00000000</i>
   <i name="HFALPHA">      0.00000000</i>
   <i name="MCALPHA">      0.00000000</i>
   <i name="ALDAX">      1.00000000</i>
   <i name="AGGAX">      1.00000000</i>
   <i name="AMGGAX">      1.00000000</i>
   <i name="ALDAC">      1.00000000</i>
   <i name="AGGAC">      1.00000000</i>
   <i name="AMGGAC">      1.00000000</i>
   <i type="int" name="NKREDX">     1</i>
   <i type="int" name="NKREDY">     1</i>
   <i type="int" name="NKREDZ">     1</i>
   <i type="logical" name="SHIFTRED"> F  </i>
   <i type="logical" name="ODDONLY"> F  </i>
   <i type="logical" name="EVENONLY"> F  </i>
   <i type="int" name="LMAXFOCK">     0</i>
   <i type="int" name="NMAXFOCKAE">     0</i>
   <i type="logical" name="LFOCKAEDFT"> F  </i>
   <i name="HFSCREEN">      0.00000000</i>
   <i name="HFSCREENC">      0.00000000</i>
   <i type="int" name="NBANDSGWLOW">     0</i>
  </separator>
  <separator name="vdW DFT" >
   <i type="logical" name="LUSE_VDW"> F  </i>
   <i type="int" name="IVDW_NL">    -1</i>
   <i type="logical" name="LSPIN_VDW"> F  </i>
   <i name="ZAB_VDW">     -0.84910000</i>
   <i name="GAMMA_VDW">      1.39626340</i>
   <i name="ALPHA_VDW">      0.00000000</i>
   <i name="PARAM1">      0.12340000</i>
   <i name="PARAM2">      1.00000000</i>
   <i name="BPARAM">      6.30000000</i>
   <i name="CPARAM">      0.00930000</i>
  </separator>
  <separator name="model GW" >
   <i type="int" name="MODEL_GW">     0</i>
   <i name="MODEL_EPS0">     16.08198272</i>
   <i name="MODEL_ALPHA">      1.00000000</i>
  </separator>
  <separator name="linear response parameters" >
   <i type="logical" name="LEPSILON"> F  </i>
   <i type="logical" name="LRPA"> F  </i>
   <i type="logical" name="LNABLA"> F  </i>
   <i type="logical" name="LVEL"> F  </i>
   <i name="CSHIFT">      0.10000000</i>
   <i name="OMEGAMAX">     -1.00000000</i>
   <i name="DEG_THRESHOLD">      0.00200000</i>
   <i name="RTIME">     -0.10000000</i>
   <i name="WPLASMAI">      0.00000000</i>
   <v name="DFIELD">      0.00000000      0.00000000      0.00000000</v>
   <v name="WPLASMA">      0.00000000      0.00000000      0.00000000      0.00000000      0.00000000      0.00000000      0.00000000      0.00000000      0.00000000</v>
  </separator>
  <separator name="orbital magnetization" >
   <i type="logical" name="NUCIND"> F  </i>
   <v name="MAGPOS">      0.00000000      0.00000000      0.00000000</v>
   <i type="logical" name="LNICSALL"> T  </i>
   <i type="logical" name="ORBITALMAG"> F  </i>
   <i type="logical" name="LMAGBLOCH"> F  </i>
   <i type="logical" name="LCHIMAG"> F  </i>
   <i type="logical" name="LGAUGE"> T  </i>
   <i type="int" name="MAGATOM">     0</i>
   <v name="MAGDIPOL">      0.00000000      0.00000000      0.00000000</v>
   <v name="AVECCONST">      0.00000000      0.00000000      0.00000000</v>
  </separator>
  <separator name="response functions" >
   <i type="logical" name="LALL_IN_ONE"> F  </i>
   <i type="int" name="IALL_IN_ONE">    -1</i>
   <i type="int" name="NBANDS_WAVE">    -1</i>
   <i type="logical" name="LFINITE_TEMPERATURE"> F  </i>
   <i type="logical" name="LADDER"> F  </i>
   <i type="logical" name="LRPAFORCE"> F  </i>
   <i type="logical" name="LFXC"> F  </i>
   <i type="logical" name="LHARTREE"> T  </i>
   <i type="int" name="IBSE">     0</i>
   <v type="int" name="KPOINT">    -1     0     0     0</v>
   <i type="logical" name="LTCTC"> F  </i>
   <i type="logical" name="LTCTE"> F  </i>
   <i type="logical" name="LTETE"> F  </i>
   <i type="logical" name="LTRIPLET"> F  </i>
   <i type="logical" name="LFXCEPS"> F  </i>
   <i type="logical" name="LFXHEG"> F  </i>
   <i type="int" name="NATURALO">     2</i>
   <i type="logical" name="LHOLEGF"> F  </i>
   <i type="logical" name="L2ORDER"> F  </i>
   <i type="logical" name="LDMP1"> F  </i>
   <i type="logical" name="LMP2LT"> F  </i>
   <i type="logical" name="LSMP2LT"> F  </i>
   <i type="logical" name="LGWLF"> F  </i>
   <i name="ENCUTGW">     -1.60000002</i>
   <i name="ENCUTGWSOFT">     -1.60000002</i>
   <i name="ENCUTLF">     -1.00000000</i>
   <i type="logical" name="ESF_SPLINES"> F  </i>
   <i name="ESF_CONV">      0.01000000</i>
   <i type="int" name="ESF_NINTER">    15</i>
   <i type="int" name="LMAXMP2">    -1</i>
   <i name="SCISSOR">      0.00000000</i>
   <i type="int" name="NOMEGA">     0</i>
   <i type="int" name="NOMEGAR">     0</i>
   <i type="int" name="NBANDSGW">    -1</i>
   <i type="int" name="NBANDSO">    -1</i>
   <i type="int" name="NBANDSV">    -1</i>
   <i type="int" name="NELMGW">     1</i>
   <i type="int" name="NELMHF">     1</i>
   <i type="int" name="DIM">     3</i>
   <i type="int" name="IESPILON">     4</i>
   <i type="int" name="ANTIRES">     0</i>
   <i name="OMEGAMAX">    -30.00000000</i>
   <i name="OMEGAMIN">    -30.00000000</i>
   <i name="OMEGATL">   -200.00000000</i>
   <i type="int" name="OMEGAGRID">     0</i>
   <i name="CSHIFT">     -0.10000000</i>
   <i type="logical" name="LSELFENERGY"> F  </i>
   <i type="logical" name="LSPECTRAL"> F  </i>
   <i type="logical" name="LSPECTRALGW"> F  </i>
   <i type="logical" name="LSINGLES"> F  </i>
   <i type="logical" name="LFERMIGW"> F  </i>
   <i type="logical" name="ODDONLYGW"> F  </i>
   <i type="logical" name="EVENONLYGW"> F  </i>
   <i type="int" name="NKREDLFX">     1</i>
   <i type="int" name="NKREDLFY">     1</i>
   <i type="int" name="NKREDLFZ">     1</i>
   <i type="int" name="MAXMEM">  2800</i>
   <i type="int" name="TELESCOPE">     0</i>
   <i type="int" name="NTAUPAR">    -1</i>
   <i type="int" name="NOMEGAPAR">    -1</i>
   <i name="DAMP_NEWTON">      0.80000001</i>
   <i name="LAMBDA">      1.00000000</i>
  </separator>
  <separator name="External order field" >
   <i name="OFIELD_KAPPA">      0.00000000</i>
   <v name="OFIELD_K">      0.00000000      0.00000000      0.00000000</v>
   <i name="OFIELD_Q6_NEAR">      0.00000000</i>
   <i name="OFIELD_Q6_FAR">      0.00000000</i>
   <i name="OFIELD_A">      0.00000000</i>
  </separator>
  <separator name="optional k-points parameters" >
   <i type="int" name="KPOINTS_OPT_MODE">     1</i>
   <i type="logical" name="LKPOINTS_OPT"> F  </i>
  </separator>
 </parameters>
 <atominfo>
  <atoms>     168 </atoms>
  <types>       2 </types>
  <array name="atoms" >
   <dimension dim="1">ion</dimension>
   <field type="string">element</field>
   <field type="int">atomtype</field>
   <set>
    <rc><c>Ge</c><c>   1</c></rc>
    <rc><c>Ge</c><c>   1</c></rc>
    <rc><c>Ge</c><c>   1</c></rc>
    <rc><c>Ge</c><c>   1</c></rc>
    <rc><c>Ge</c><c>   1</c></rc>
    <rc><c>Ge</c><c>   1</c></rc>
    <rc><c>Ge</c><c>   1</c></rc>
    <rc><c>Ge</c><c>   1</c></rc>
    <rc><c>Ge</c><c>   1</c></rc>
    <rc><c>Ge</c><c>   1</c></rc>
    <rc><c>Ge</c><c>   1</c></rc>
    <rc><c>Ge</c><c>   1</c></rc>
    <rc><c>Ge</c><c>   1</c></rc>
    <rc><c>Ge</c><c>   1</c></rc>
    <rc><c>Ge</c><c>   1</c></rc>
    <rc><c>Ge</c><c>   1</c></rc>
    <rc><c>Ge</c><c>   1</c></rc>
    <rc><c>Ge</c><c>   1</c></rc>
    <rc><c>Ge</c><c>   1</c></rc>
    <rc><c>Ge</c><c>   1</c></rc>
    <rc><c>Ge</c><c>   1</c></rc>
    <rc><c>Ge</c><c>   1</c></rc>
    <rc><c>Ge</c><c>   1</c></rc>
    <rc><c>Ge</c><c>   1</c></rc>
    <rc><c>Ge</c><c>   1</c></rc>
    <rc><c>Ge</c><c>   1</c></rc>
    <rc><c>Ge</c><c>   1</c></rc>
    <rc><c>Ge</c><c>   1</c></rc>
    <rc><c>Ge</c><c>   1</c></rc>
    <rc><c>Ge</c><c>   1</c></rc>
    <rc><c>Ge</c><c>   1</c></rc>
    <rc><c>Ge</c><c>   1</c></rc>
    <rc><c>Ge</c><c>   1</c></rc>
    <rc><c>Ge</c><c>   1</c></rc>
    <rc><c>Ge</c><c>   1</c></rc>
    <rc><c>Ge</c><c>   1</c></rc>
    <rc><c>Ge</c><c>   1</c></rc>
    <rc><c>Ge</c><c>   1</c></rc>
    <rc><c>Ge</c><c>   1</c></rc>
    <rc><c>Ge</c><c>   1</c></rc>
    <rc><c>Ge</c><c>   1</c></rc>
    <rc><c>Ge</c><c>   1</c></rc>
    <rc><c>Ge</c><c>   1</c></rc>
    <rc><c>Ge</c><c>   1</c></rc>
    <rc><c>Ge</c><c>   1</c></rc>
    <rc><c>Ge</c><c>   1</c></rc>
    <rc><c>Ge</c><c>   1</c></rc>
    <rc><c>Ge</c><c>   1</c></rc>
    <rc><c>Ge</c><c>   1</c></rc>
    <rc><c>Ge</c><c>   1</c></rc>
    <rc><c>Ge</c><c>   1</c></rc>
    <rc><c>Ge</c><c>   1</c></rc>
    <rc><c>Ge</c><c>   1</c></rc>
    <rc><c>Ge</c><c>   1</c></rc>
    <rc><c>Ge</c><c>   1</c></rc>
    <rc><c>Ge</c><c>   1</c></rc>
    <rc><c>Ge</c><c>   1</c></rc>
    <rc><c>Ge</c><c>   1</c></rc>
    <rc><c>Ge</c><c>   1</c></rc>
    <rc><c>Ge</c><c>   1</c></rc>
    <rc><c>Ge</c><c>   1</c></rc>
    <rc><c>Ge</c><c>   1</c></rc>
    <rc><c>Ge</c><c>   1</c></rc>
    <rc><c>Ge</c><c>   1</c></rc>
    <rc><c>Ge</c><c>   1</c></rc>
    <rc><c>Ge</c><c>   1</c></rc>
    <rc><c>Ge</c><c>   1</c></rc>
    <rc><c>Ge</c><c>   1</c></rc>
    <rc><c>Ge</c><c>   1</c></rc>
    <rc><c>Ge</c><c>   1</c></rc>
    <rc><c>Ge</c><c>   1</c></rc>
    <rc><c>Ge</c><c>   1</c></rc>
    <rc><c>Ge</c><c>   1</c></rc>
    <rc><c>Ge</c><c>   1</c></rc>
    <rc><c>Ge</c><c>   1</c></rc>
    <rc><c>Ge</c><c>   1</c></rc>
    <rc><c>Ge</c><c>   1</c></rc>
    <rc><c>Ge</c><c>   1</c></rc>
    <rc><c>Ge</c><c>   1</c></rc>
    <rc><c>Ge</c><c>   1</c></rc>
    <rc><c>Ge</c><c>   1</c></rc>
    <rc><c>Ge</c><c>   1</c></rc>
    <rc><c>Ge</c><c>   1</c></rc>
    <rc><c>Ge</c><c>   1</c></rc>
    <rc><c>Ge</c><c>   1</c></rc>
    <rc><c>Ge</c><c>   1</c></rc>
    <rc><c>Ge</c><c>   1</c></rc>
    <rc><c>Ge</c><c>   1</c></rc>
    <rc><c>Ge</c><c>   1</c></rc>
    <rc><c>Ge</c><c>   1</c></rc>
    <rc><c>Ge</c><c>   1</c></rc>
    <rc><c>Ge</c><c>   1</c></rc>
    <rc><c>Ge</c><c>   1</c></rc>
    <rc><c>Ge</c><c>   1</c></rc>
    <rc><c>Ge</c><c>   1</c></rc>
    <rc><c>Ge</c><c>   1</c></rc>
    <rc><c>Sn</c><c>   2</c></rc>
    <rc><c>Sn</c><c>   2</c></rc>
    <rc><c>Sn</c><c>   2</c></rc>
    <rc><c>Sn</c><c>   2</c></rc>
    <rc><c>Sn</c><c>   2</c></rc>
    <rc><c>Sn</c><c>   2</c></rc>
    <rc><c>Sn</c><c>   2</c></rc>
    <rc><c>Sn</c><c>   2</c></rc>
    <rc><c>Sn</c><c>   2</c></rc>
    <rc><c>Sn</c><c>   2</c></rc>
    <rc><c>Sn</c><c>   2</c></rc>
    <rc><c>Sn</c><c>   2</c></rc>
    <rc><c>Sn</c><c>   2</c></rc>
    <rc><c>Sn</c><c>   2</c></rc>
    <rc><c>Sn</c><c>   2</c></rc>
    <rc><c>Sn</c><c>   2</c></rc>
    <rc><c>Sn</c><c>   2</c></rc>
    <rc><c>Sn</c><c>   2</c></rc>
    <rc><c>Sn</c><c>   2</c></rc>
    <rc><c>Sn</c><c>   2</c></rc>
    <rc><c>Sn</c><c>   2</c></rc>
    <rc><c>Sn</c><c>   2</c></rc>
    <rc><c>Sn</c><c>   2</c></rc>
    <rc><c>Sn</c><c>   2</c></rc>
    <rc><c>Sn</c><c>   2</c></rc>
    <rc><c>Sn</c><c>   2</c></rc>
    <rc><c>Sn</c><c>   2</c></rc>
    <rc><c>Sn</c><c>   2</c></rc>
    <rc><c>Sn</c><c>   2</c></rc>
    <rc><c>Sn</c><c>   2</c></rc>
    <rc><c>Sn</c><c>   2</c></rc>
    <rc><c>Sn</c><c>   2</c></rc>
    <rc><c>Sn</c><c>   2</c></rc>
    <rc><c>Sn</c><c>   2</c></rc>
    <rc><c>Sn</c><c>   2</c></rc>
    <rc><c>Sn</c><c>   2</c></rc>
    <rc><c>Sn</c><c>   2</c></rc>
    <rc><c>Sn</c><c>   2</c></rc>
    <rc><c>Sn</c><c>   2</c></rc>
    <rc><c>Sn</c><c>   2</c></rc>
    <rc><c>Sn</c><c>   2</c></rc>
    <rc><c>Sn</c><c>   2</c></rc>
    <rc><c>Sn</c><c>   2</c></rc>
    <rc><c>Sn</c><c>   2</c></rc>
    <rc><c>Sn</c><c>   2</c></rc>
    <rc><c>Sn</c><c>   2</c></rc>
    <rc><c>Sn</c><c>   2</c></rc>
    <rc><c>Sn</c><c>   2</c></rc>
    <rc><c>Sn</c><c>   2</c></rc>
    <rc><c>Sn</c><c>   2</c></rc>
    <rc><c>Sn</c><c>   2</c></rc>
    <rc><c>Sn</c><c>   2</c></rc>
    <rc><c>Sn</c><c>   2</c></rc>
    <rc><c>Sn</c><c>   2</c></rc>
    <rc><c>Sn</c><c>   2</c></rc>
    <rc><c>Sn</c><c>   2</c></rc>
    <rc><c>Sn</c><c>   2</c></rc>
    <rc><c>Sn</c><c>   2</c></rc>
    <rc><c>Sn</c><c>   2</c></rc>
    <rc><c>Sn</c><c>   2</c></rc>
    <rc><c>Sn</c><c>   2</c></rc>
    <rc><c>Sn</c><c>   2</c></rc>
    <rc><c>Sn</c><c>   2</c></rc>
    <rc><c>Sn</c><c>   2</c></rc>
    <rc><c>Sn</c><c>   2</c></rc>
    <rc><c>Sn</c><c>   2</c></rc>
    <rc><c>Sn</c><c>   2</c></rc>
    <rc><c>Sn</c><c>   2</c></rc>
    <rc><c>Sn</c><c>   2</c></rc>
    <rc><c>Sn</c><c>   2</c></rc>
    <rc><c>Sn</c><c>   2</c></rc>
    <rc><c>Sn</c><c>   2</c></rc>
   </set>
  </array>
  <array name="atomtypes" >
   <dimension dim="1">type</dimension>
   <field type="int">atomspertype</field>
   <field type="string">element</field>
   <field>mass</field>
   <field>valence</field>
   <field type="string">pseudopotential</field>
   <set>
    <rc><c>  96</c><c>Ge</c><c>     72.61000000</c><c>      4.00000000</c><c>  PAW_PBE Ge 05Jan2001                  </c></rc>
    <rc><c>  72</c><c>Sn</c><c>    118.71000000</c><c>      4.00000000</c><c>  PAW_PBE Sn 08Apr2002                  </c></rc>
   </set>
  </array>
 </atominfo>
 <structure name="initialpos" >
  <crystal>
   <varray name="basis" >
    <v>      16.00267601       0.00000000       0.00000000 </v>
    <v>      -8.00133800      13.85872459       0.00000000 </v>
    <v>       0.00000000       0.00000000      20.30400658 </v>
   </varray>
   <i name="volume">   4502.95516101 </i>
   <varray name="rec_basis" >
    <v>       0.06248955       0.03607836       0.00000000 </v>
    <v>       0.00000000       0.07215671       0.00000000 </v>
    <v>       0.00000000       0.00000000       0.04925136 </v>
   </varray>
  </crystal>
  <varray name="positions" >
   <v>       0.98576731       0.49288356       0.00000000 </v>
   <v>       0.65243387       0.32621685       0.16088121 </v>
   <v>       0.31910050       0.15955012       0.32176238 </v>
   <v>       0.98576731       0.99288368       0.00000001 </v>
   <v>       0.65243387       0.82621694       0.16088121 </v>
   <v>       0.31910050       0.65955019       0.32176241 </v>
   <v>       0.48576724       0.49288359       0.00000000 </v>
   <v>       0.15243384       0.32621685       0.16088121 </v>
   <v>       0.81910044       0.15955013       0.32176241 </v>
   <v>       0.48576724       0.99288368       0.00000002 </v>
   <v>       0.15243384       0.82621694       0.16088121 </v>
   <v>       0.81910044       0.65955019       0.32176241 </v>
   <v>       0.15243395       0.82621688       0.04022032 </v>
   <v>       0.81910056       0.65955013       0.20110148 </v>
   <v>       0.48576719       0.49288344       0.36198270 </v>
   <v>       0.15243395       0.32621694       0.04022032 </v>
   <v>       0.81910056       0.15955022       0.20110150 </v>
   <v>       0.48576719       0.99288350       0.36198270 </v>
   <v>       0.65243387       0.82621682       0.04022032 </v>
   <v>       0.31910053       0.65955013       0.20110148 </v>
   <v>       0.98576719       0.49288344       0.36198270 </v>
   <v>       0.65243387       0.32621694       0.04022032 </v>
   <v>       0.31910053       0.15955023       0.20110150 </v>
   <v>       0.98576719       0.99288350       0.36198270 </v>
   <v>       0.23576726       0.74288362       0.00000000 </v>
   <v>       0.90243387       0.57621694       0.16088121 </v>
   <v>       0.56910038       0.40955013       0.32176241 </v>
   <v>       0.23576729       0.24288362       0.00000001 </v>
   <v>       0.90243387       0.07621690       0.16088121 </v>
   <v>       0.56910044       0.90955019       0.32176241 </v>
   <v>       0.73576724       0.74288356       0.00000001 </v>
   <v>       0.40243384       0.57621688       0.16088121 </v>
   <v>       0.06910040       0.40955010       0.32176241 </v>
   <v>       0.73576724       0.24288361       0.00000001 </v>
   <v>       0.40243384       0.07621689       0.16088119 </v>
   <v>       0.06910042       0.90955019       0.32176241 </v>
   <v>       0.40243393       0.57621694       0.04022026 </v>
   <v>       0.06910051       0.40955016       0.20110148 </v>
   <v>       0.73576719       0.24288349       0.36198267 </v>
   <v>       0.40243393       0.07621697       0.04022026 </v>
   <v>       0.06910051       0.90955025       0.20110148 </v>
   <v>       0.73576719       0.74288356       0.36198267 </v>
   <v>       0.90243399       0.57621688       0.04022027 </v>
   <v>       0.56910062       0.40955019       0.20110147 </v>
   <v>       0.23576724       0.24288346       0.36198267 </v>
   <v>       0.90243399       0.07621697       0.04022027 </v>
   <v>       0.56910062       0.90955025       0.20110148 </v>
   <v>       0.23576724       0.74288356       0.36198267 </v>
   <v>       0.23576728       0.49288359       0.00000001 </v>
   <v>       0.90243387       0.32621685       0.16088119 </v>
   <v>       0.56910044       0.15955012       0.32176241 </v>
   <v>       0.23576729       0.99288368       0.00000002 </v>
   <v>       0.90243387       0.82621694       0.16088121 </v>
   <v>       0.56910044       0.65955019       0.32176241 </v>
   <v>       0.73576724       0.49288359       0.00000001 </v>
   <v>       0.40243384       0.32621688       0.16088119 </v>
   <v>       0.06910040       0.15955012       0.32176241 </v>
   <v>       0.73576724       0.99288368       0.00000003 </v>
   <v>       0.40243384       0.82621694       0.16088121 </v>
   <v>       0.06910042       0.65955019       0.32176241 </v>
   <v>       0.40243393       0.82621694       0.04022028 </v>
   <v>       0.06910050       0.65955013       0.20110147 </v>
   <v>       0.73576719       0.49288347       0.36198267 </v>
   <v>       0.40243393       0.32621700       0.04022028 </v>
   <v>       0.06910053       0.15955025       0.20110148 </v>
   <v>       0.73576719       0.99288356       0.36198267 </v>
   <v>       0.90243399       0.82621688       0.04022026 </v>
   <v>       0.56910056       0.65955013       0.20110144 </v>
   <v>       0.23576724       0.49288347       0.36198261 </v>
   <v>       0.90243399       0.32621697       0.04022029 </v>
   <v>       0.56910062       0.15955025       0.20110148 </v>
   <v>       0.23576724       0.99288356       0.36198267 </v>
   <v>       0.98576731       0.74288362       0.00000001 </v>
   <v>       0.65243393       0.57621688       0.16088124 </v>
   <v>       0.31910050       0.40955016       0.32176238 </v>
   <v>       0.98576731       0.24288362       0.00000001 </v>
   <v>       0.65243387       0.07621688       0.16088121 </v>
   <v>       0.31910050       0.90955019       0.32176241 </v>
   <v>       0.48576724       0.74288362       0.00000000 </v>
   <v>       0.15243384       0.57621694       0.16088121 </v>
   <v>       0.81910044       0.40955010       0.32176241 </v>
   <v>       0.48576724       0.24288362       0.00000002 </v>
   <v>       0.15243384       0.07621690       0.16088121 </v>
   <v>       0.81910044       0.90955019       0.32176241 </v>
   <v>       0.15243398       0.57621694       0.04022032 </v>
   <v>       0.81910062       0.40955022       0.20110148 </v>
   <v>       0.48576724       0.24288355       0.36198270 </v>
   <v>       0.15243398       0.07621698       0.04022032 </v>
   <v>       0.81910062       0.90955031       0.20110150 </v>
   <v>       0.48576724       0.74288356       0.36198270 </v>
   <v>       0.65243399       0.57621694       0.04022032 </v>
   <v>       0.31910062       0.40955022       0.20110150 </v>
   <v>       0.98576724       0.24288352       0.36198270 </v>
   <v>       0.65243399       0.07621699       0.04022031 </v>
   <v>       0.31910062       0.90955031       0.20110150 </v>
   <v>       0.98576724       0.74288356       0.36198270 </v>
   <v>       0.82389939       0.32687458       0.47340384 </v>
   <v>       0.82389939       0.66020799       0.65792614 </v>
   <v>       0.82389939       0.99354136       0.84244847 </v>
   <v>       0.15723276       0.99354130       0.47340381 </v>
   <v>       0.15723276       0.32687473       0.65792614 </v>
   <v>       0.15723276       0.66020811       0.84244835 </v>
   <v>       0.49056613       0.66020799       0.47340384 </v>
   <v>       0.49056613       0.99354136       0.65792614 </v>
   <v>       0.49056613       0.32687473       0.84244835 </v>
   <v>       0.82389939       0.66020799       0.51953441 </v>
   <v>       0.82389939       0.99354130       0.70405674 </v>
   <v>       0.82389939       0.32687461       0.88857901 </v>
   <v>       0.15723276       0.32687461       0.51953441 </v>
   <v>       0.15723276       0.66020799       0.70405674 </v>
   <v>       0.15723276       0.99354148       0.88857901 </v>
   <v>       0.49056613       0.99354136       0.51953441 </v>
   <v>       0.49056613       0.32687473       0.70405674 </v>
   <v>       0.49056613       0.66020799       0.88857901 </v>
   <v>       0.99056607       0.66020799       0.47340384 </v>
   <v>       0.99056607       0.99354136       0.65792614 </v>
   <v>       0.99056607       0.32687473       0.84244847 </v>
   <v>       0.32389939       0.32687458       0.47340384 </v>
   <v>       0.32389939       0.66020799       0.65792614 </v>
   <v>       0.32389939       0.99354142       0.84244847 </v>
   <v>       0.65723276       0.99354130       0.47340381 </v>
   <v>       0.65723276       0.32687473       0.65792608 </v>
   <v>       0.65723276       0.66020811       0.84244847 </v>
   <v>       0.99056607       0.99354136       0.51953435 </v>
   <v>       0.99056607       0.32687473       0.70405668 </v>
   <v>       0.99056613       0.66020822       0.88857901 </v>
   <v>       0.32389951       0.66020799       0.51953435 </v>
   <v>       0.32389951       0.99354136       0.70405674 </v>
   <v>       0.32389951       0.32687473       0.88857901 </v>
   <v>       0.65723276       0.32687461       0.51953435 </v>
   <v>       0.65723276       0.66020799       0.70405668 </v>
   <v>       0.65723276       0.99354136       0.88857901 </v>
   <v>       0.82389939       0.82687461       0.47340384 </v>
   <v>       0.82389939       0.16020799       0.65792608 </v>
   <v>       0.82389939       0.49354136       0.84244847 </v>
   <v>       0.15723276       0.49354124       0.47340384 </v>
   <v>       0.15723276       0.82687467       0.65792614 </v>
   <v>       0.15723276       0.16020799       0.84244847 </v>
   <v>       0.49056613       0.16020799       0.47340381 </v>
   <v>       0.49056613       0.49354136       0.65792608 </v>
   <v>       0.49056625       0.82687485       0.84244847 </v>
   <v>       0.82389939       0.16020799       0.51953435 </v>
   <v>       0.82389939       0.49354136       0.70405668 </v>
   <v>       0.82389939       0.82687485       0.88857901 </v>
   <v>       0.15723276       0.82687461       0.51953435 </v>
   <v>       0.15723276       0.16020799       0.70405668 </v>
   <v>       0.15723276       0.49354148       0.88857901 </v>
   <v>       0.49056613       0.49354121       0.51953435 </v>
   <v>       0.49056613       0.82687461       0.70405674 </v>
   <v>       0.49056613       0.16020799       0.88857901 </v>
   <v>       0.99056607       0.16020799       0.47340384 </v>
   <v>       0.99056607       0.49354124       0.65792608 </v>
   <v>       0.99056607       0.82687473       0.84244835 </v>
   <v>       0.32389939       0.82687461       0.47340381 </v>
   <v>       0.32389939       0.16020799       0.65792614 </v>
   <v>       0.32389951       0.49354136       0.84244835 </v>
   <v>       0.65723276       0.49354127       0.47340384 </v>
   <v>       0.65723276       0.82687467       0.65792614 </v>
   <v>       0.65723276       0.16020811       0.84244835 </v>
   <v>       0.99056607       0.49354118       0.51953441 </v>
   <v>       0.99056607       0.82687455       0.70405674 </v>
   <v>       0.99056607       0.16020799       0.88857901 </v>
   <v>       0.32389939       0.16020799       0.51953441 </v>
   <v>       0.32389939       0.49354136       0.70405674 </v>
   <v>       0.32389939       0.82687461       0.88857901 </v>
   <v>       0.65723276       0.82687461       0.51953441 </v>
   <v>       0.65723276       0.16020799       0.70405674 </v>
   <v>       0.65723276       0.49354136       0.88857901 </v>
  </varray>
 </structure>
 <calculation>
  <scstep>
   <time name="dav">   77.84   78.55</time>
   <time name="total">   81.00   81.73</time>
   <energy>
    <i name="alphaZ">   1020.59548253 </i>
    <i name="ewald"> -14123.76467815 </i>
    <i name="hartreedc">  -4354.26750901 </i>
    <i name="XCdc">  -9235.83426434 </i>
    <i name="pawpsdc">  22099.84193803 </i>
    <i name="pawaedc"> -11791.56227843 </i>
    <i name="eentropy">     -0.00238257 </i>
    <i name="bandstr">   2923.36141226 </i>
    <i name="atom">  16853.79812076 </i>
    <i name="e_fr_energy">   3392.16584108 </i>
    <i name="e_wo_entrp">   3392.16822365 </i>
    <i name="e_0_energy">   3392.16703237 </i>
   </energy>
  </scstep>
  <scstep>
   <time name="dav">   87.54   88.33</time>
   <time name="total">   87.55   88.34</time>
   <energy>
    <i name="e_fr_energy">   -271.71441200 </i>
    <i name="e_wo_entrp">   -271.71340916 </i>
    <i name="e_0_energy">   -271.71391058 </i>
   </energy>
  </scstep>
  <scstep>
   <time name="dav">   91.42   92.24</time>
   <time name="total">   91.42   92.24</time>
   <energy>
    <i name="e_fr_energy">   -675.83204443 </i>
    <i name="e_wo_entrp">   -675.82943857 </i>
    <i name="e_0_energy">   -675.83074150 </i>
   </energy>
  </scstep>
  <scstep>
   <time name="dav">   89.81   90.71</time>
   <time name="total">   89.82   90.71</time>
   <energy>
    <i name="e_fr_energy">   -692.46355544 </i>
    <i name="e_wo_entrp">   -692.46071714 </i>
    <i name="e_0_energy">   -692.46213629 </i>
   </energy>
  </scstep>
  <scstep>
   <time name="dav">   95.92   96.85</time>
   <time name="total">  100.40  101.38</time>
   <energy>
    <i name="e_fr_energy">   -693.15832608 </i>
    <i name="e_wo_entrp">   -693.15535727 </i>
    <i name="e_0_energy">   -693.15684168 </i>
   </energy>
  </scstep>
  <scstep>
   <time name="dav">  108.44  109.39</time>
   <time name="total">  116.16  117.16</time>
   <energy>
    <i name="e_fr_energy">   -684.50464634 </i>
    <i name="e_wo_entrp">   -684.49871770 </i>
    <i name="e_0_energy">   -684.50168202 </i>
   </energy>
  </scstep>
  <scstep>
   <time name="dav">   94.15   94.98</time>
   <time name="total">  101.82  102.70</time>
   <energy>
    <i name="e_fr_energy">   -685.04243394 </i>
    <i name="e_wo_entrp">   -685.04088091 </i>
    <i name="e_0_energy">   -685.04165743 </i>
   </energy>
  </scstep>
  <scstep>
   <time name="dav">   93.00   93.81</time>
   <time name="total">  100.69  101.58</time>
   <energy>
    <i name="e_fr_energy">   -683.22730661 </i>
    <i name="e_wo_entrp">   -683.22312039 </i>
    <i name="e_0_energy">   -683.22521350 </i>
   </energy>
  </scstep>
  <scstep>
   <time name="dav">   89.70   90.48</time>
   <time name="total">   97.37   98.21</time>
   <energy>
    <i name="e_fr_energy">   -683.26417559 </i>
    <i name="e_wo_entrp">   -683.26046563 </i>
    <i name="e_0_energy">   -683.26232061 </i>
   </energy>
  </scstep>
  <scstep>
   <time name="dav">   88.75   89.52</time>
   <time name="total">   96.42   97.26</time>
   <energy>
    <i name="e_fr_energy">   -683.26743073 </i>
    <i name="e_wo_entrp">   -683.26335683 </i>
    <i name="e_0_energy">   -683.26539378 </i>
   </energy>
  </scstep>
  <scstep>
   <time name="dav">   89.17   89.96</time>
   <time name="total">   96.94   97.79</time>
   <energy>
    <i name="e_fr_energy">   -683.26906454 </i>
    <i name="e_wo_entrp">   -683.26537962 </i>
    <i name="e_0_energy">   -683.26722208 </i>
   </energy>
  </scstep>
  <scstep>
   <time name="dav">   85.30   86.07</time>
   <time name="total">   92.93   93.76</time>
   <energy>
    <i name="e_fr_energy">   -683.26868856 </i>
    <i name="e_wo_entrp">   -683.26507700 </i>
    <i name="e_0_energy">   -683.26688278 </i>
   </energy>
  </scstep>
  <scstep>
   <time name="dav">   86.95   87.74</time>
   <time name="total">   94.57   95.42</time>
   <energy>
    <i name="e_fr_energy">   -683.26911313 </i>
    <i name="e_wo_entrp">   -683.26549559 </i>
    <i name="e_0_energy">   -683.26730436 </i>
   </energy>
  </scstep>
  <scstep>
   <time name="dav">   85.66   86.44</time>
   <time name="total">   93.29   94.13</time>
   <energy>
    <i name="e_fr_energy">   -683.26922140 </i>
    <i name="e_wo_entrp">   -683.26559946 </i>
    <i name="e_0_energy">   -683.26741043 </i>
   </energy>
  </scstep>
  <scstep>
   <time name="dav">   84.69   85.75</time>
   <time name="total">   92.14   93.54</time>
   <energy>
    <i name="e_fr_energy">   -683.26925311 </i>
    <i name="e_wo_entrp">   -683.26563840 </i>
    <i name="e_0_energy">   -683.26744575 </i>
   </energy>
  </scstep>
  <scstep>
   <time name="dav">   85.67   86.48</time>
   <time name="total">   93.30   94.18</time>
   <energy>
    <i name="e_fr_energy">   -683.26926848 </i>
    <i name="e_wo_entrp">   -683.26565674 </i>
    <i name="e_0_energy">   -683.26746261 </i>
   </energy>
  </scstep>
  <scstep>
   <time name="dav">   85.57   86.35</time>
   <time name="total">   93.19   94.04</time>
   <energy>
    <i name="e_fr_energy">   -683.26927391 </i>
    <i name="e_wo_entrp">   -683.26566171 </i>
    <i name="e_0_energy">   -683.26746781 </i>
   </energy>
  </scstep>
  <scstep>
   <time name="dav">   84.71   85.47</time>
   <time name="total">   92.33   93.16</time>
   <energy>
    <i name="e_fr_energy">   -683.26927623 </i>
    <i name="e_wo_entrp">   -683.26566504 </i>
    <i name="e_0_energy">   -683.26747063 </i>
   </energy>
  </scstep>
  <scstep>
   <time name="dav">   84.70   85.47</time>
   <time name="total">   92.33   93.16</time>
   <energy>
    <i name="e_fr_energy">   -683.26927697 </i>
    <i name="e_wo_entrp">   -683.26566775 </i>
    <i name="e_0_energy">   -683.26747236 </i>
   </energy>
  </scstep>
  <scstep>
   <time name="dav">   72.23   72.90</time>
   <time name="total">   79.85   80.57</time>
   <energy>
    <i name="e_fr_energy">   -683.26927722 </i>
    <i name="e_wo_entrp">   -683.26566887 </i>
    <i name="e_0_energy">   -683.26747305 </i>
   </energy>
  </scstep>
  <scstep>
   <time name="dav">   59.76   60.30</time>
   <time name="total">   67.52   68.11</time>
   <energy>
    <i name="e_fr_energy">   -683.26927701 </i>
    <i name="e_wo_entrp">   -683.26566887 </i>
    <i name="e_0_energy">   -683.26747294 </i>
   </energy>
  </scstep>
  <scstep>
   <time name="dav">   54.97   55.46</time>
   <time name="total">   58.09   58.60</time>
   <energy>
    <i name="alphaZ">   1020.59548253 </i>
    <i name="ewald"> -14123.76467815 </i>
    <i name="hartreedc">  -4582.20364533 </i>
    <i name="XCdc">  -9184.90174621 </i>
    <i name="pawpsdc">  43305.95737396 </i>
    <i name="pawaedc"> -33039.11814391 </i>
    <i name="eentropy">     -0.00360786 </i>
    <i name="bandstr">   -933.62843271 </i>
    <i name="atom">  16853.79812076 </i>
    <i name="e_fr_energy">   -683.26927692 </i>
    <i name="e_wo_entrp">   -683.26566905 </i>
    <i name="e_0_energy">   -683.26747299 </i>
   </energy>
  </scstep>
  <structure>
   <crystal>
    <varray name="basis" >
     <v>      16.00267601       0.00000000       0.00000000 </v>
     <v>      -8.00133800      13.85872459       0.00000000 </v>
     <v>       0.00000000       0.00000000      20.30400658 </v>
    </varray>
    <i name="volume">   4502.95516101 </i>
    <varray name="rec_basis" >
     <v>       0.06248955       0.03607836       0.00000000 </v>
     <v>       0.00000000       0.07215671       0.00000000 </v>
     <v>       0.00000000       0.00000000       0.04925136 </v>
    </varray>
   </crystal>
   <varray name="positions" >
    <v>       0.98576731       0.49288356       0.00000000 </v>
    <v>       0.65243387       0.32621685       0.16088121 </v>
    <v>       0.31910050       0.15955012       0.32176238 </v>
    <v>       0.98576731       0.99288368       0.00000001 </v>
    <v>       0.65243387       0.82621694       0.16088121 </v>
    <v>       0.31910050       0.65955019       0.32176241 </v>
    <v>       0.48576724       0.49288359       0.00000000 </v>
    <v>       0.15243384       0.32621685       0.16088121 </v>
    <v>       0.81910044       0.15955013       0.32176241 </v>
    <v>       0.48576724       0.99288368       0.00000002 </v>
    <v>       0.15243384       0.82621694       0.16088121 </v>
    <v>       0.81910044       0.65955019       0.32176241 </v>
    <v>       0.15243395       0.82621688       0.04022032 </v>
    <v>       0.81910056       0.65955013       0.20110148 </v>
    <v>       0.48576719       0.49288344       0.36198270 </v>
    <v>       0.15243395       0.32621694       0.04022032 </v>
    <v>       0.81910056       0.15955022       0.20110150 </v>
    <v>       0.48576719       0.99288350       0.36198270 </v>
    <v>       0.65243387       0.82621682       0.04022032 </v>
    <v>       0.31910053       0.65955013       0.20110148 </v>
    <v>       0.98576719       0.49288344       0.36198270 </v>
    <v>       0.65243387       0.32621694       0.04022032 </v>
    <v>       0.31910053       0.15955023       0.20110150 </v>
    <v>       0.98576719       0.99288350       0.36198270 </v>
    <v>       0.23576726       0.74288362       0.00000000 </v>
    <v>       0.90243387       0.57621694       0.16088121 </v>
    <v>       0.56910038       0.40955013       0.32176241 </v>
    <v>       0.23576729       0.24288362       0.00000001 </v>
    <v>       0.90243387       0.07621690       0.16088121 </v>
    <v>       0.56910044       0.90955019       0.32176241 </v>
    <v>       0.73576724       0.74288356       0.00000001 </v>
    <v>       0.40243384       0.57621688       0.16088121 </v>
    <v>       0.06910040       0.40955010       0.32176241 </v>
    <v>       0.73576724       0.24288361       0.00000001 </v>
    <v>       0.40243384       0.07621689       0.16088119 </v>
    <v>       0.06910042       0.90955019       0.32176241 </v>
    <v>       0.40243393       0.57621694       0.04022026 </v>
    <v>       0.06910051       0.40955016       0.20110148 </v>
    <v>       0.73576719       0.24288349       0.36198267 </v>
    <v>       0.40243393       0.07621697       0.04022026 </v>
    <v>       0.06910051       0.90955025       0.20110148 </v>
    <v>       0.73576719       0.74288356       0.36198267 </v>
    <v>       0.90243399       0.57621688       0.04022027 </v>
    <v>       0.56910062       0.40955019       0.20110147 </v>
    <v>       0.23576724       0.24288346       0.36198267 </v>
    <v>       0.90243399       0.07621697       0.04022027 </v>
    <v>       0.56910062       0.90955025       0.20110148 </v>
    <v>       0.23576724       0.74288356       0.36198267 </v>
    <v>       0.23576728       0.49288359       0.00000001 </v>
    <v>       0.90243387       0.32621685       0.16088119 </v>
    <v>       0.56910044       0.15955012       0.32176241 </v>
    <v>       0.23576729       0.99288368       0.00000002 </v>
    <v>       0.90243387       0.82621694       0.16088121 </v>
    <v>       0.56910044       0.65955019       0.32176241 </v>
    <v>       0.73576724       0.49288359       0.00000001 </v>
    <v>       0.40243384       0.32621688       0.16088119 </v>
    <v>       0.06910040       0.15955012       0.32176241 </v>
    <v>       0.73576724       0.99288368       0.00000003 </v>
    <v>       0.40243384       0.82621694       0.16088121 </v>
    <v>       0.06910042       0.65955019       0.32176241 </v>
    <v>       0.40243393       0.82621694       0.04022028 </v>
    <v>       0.06910050       0.65955013       0.20110147 </v>
    <v>       0.73576719       0.49288347       0.36198267 </v>
    <v>       0.40243393       0.32621700       0.04022028 </v>
    <v>       0.06910053       0.15955025       0.20110148 </v>
    <v>       0.73576719       0.99288356       0.36198267 </v>
    <v>       0.90243399       0.82621688       0.04022026 </v>
    <v>       0.56910056       0.65955013       0.20110144 </v>
    <v>       0.23576724       0.49288347       0.36198261 </v>
    <v>       0.90243399       0.32621697       0.04022029 </v>
    <v>       0.56910062       0.15955025       0.20110148 </v>
    <v>       0.23576724       0.99288356       0.36198267 </v>
    <v>       0.98576731       0.74288362       0.00000001 </v>
    <v>       0.65243393       0.57621688       0.16088124 </v>
    <v>       0.31910050       0.40955016       0.32176238 </v>
    <v>       0.98576731       0.24288362       0.00000001 </v>
    <v>       0.65243387       0.07621688       0.16088121 </v>
    <v>       0.31910050       0.90955019       0.32176241 </v>
    <v>       0.48576724       0.74288362       0.00000000 </v>
    <v>       0.15243384       0.57621694       0.16088121 </v>
    <v>       0.81910044       0.40955010       0.32176241 </v>
    <v>       0.48576724       0.24288362       0.00000002 </v>
    <v>       0.15243384       0.07621690       0.16088121 </v>
    <v>       0.81910044       0.90955019       0.32176241 </v>
    <v>       0.15243398       0.57621694       0.04022032 </v>
    <v>       0.81910062       0.40955022       0.20110148 </v>
    <v>       0.48576724       0.24288355       0.36198270 </v>
    <v>       0.15243398       0.07621698       0.04022032 </v>
    <v>       0.81910062       0.90955031       0.20110150 </v>
    <v>       0.48576724       0.74288356       0.36198270 </v>
    <v>       0.65243399       0.57621694       0.04022032 </v>
    <v>       0.31910062       0.40955022       0.20110150 </v>
    <v>       0.98576724       0.24288352       0.36198270 </v>
    <v>       0.65243399       0.07621699       0.04022031 </v>
    <v>       0.31910062       0.90955031       0.20110150 </v>
    <v>       0.98576724       0.74288356       0.36198270 </v>
    <v>       0.82389939       0.32687458       0.47340384 </v>
    <v>       0.82389939       0.66020799       0.65792614 </v>
    <v>       0.82389939       0.99354136       0.84244847 </v>
    <v>       0.15723276       0.99354130       0.47340381 </v>
    <v>       0.15723276       0.32687473       0.65792614 </v>
    <v>       0.15723276       0.66020811       0.84244835 </v>
    <v>       0.49056613       0.66020799       0.47340384 </v>
    <v>       0.49056613       0.99354136       0.65792614 </v>
    <v>       0.49056613       0.32687473       0.84244835 </v>
    <v>       0.82389939       0.66020799       0.51953441 </v>
    <v>       0.82389939       0.99354130       0.70405674 </v>
    <v>       0.82389939       0.32687461       0.88857901 </v>
    <v>       0.15723276       0.32687461       0.51953441 </v>
    <v>       0.15723276       0.66020799       0.70405674 </v>
    <v>       0.15723276       0.99354148       0.88857901 </v>
    <v>       0.49056613       0.99354136       0.51953441 </v>
    <v>       0.49056613       0.32687473       0.70405674 </v>
    <v>       0.49056613       0.66020799       0.88857901 </v>
    <v>       0.99056607       0.66020799       0.47340384 </v>
    <v>       0.99056607       0.99354136       0.65792614 </v>
    <v>       0.99056607       0.32687473       0.84244847 </v>
    <v>       0.32389939       0.32687458       0.47340384 </v>
    <v>       0.32389939       0.66020799       0.65792614 </v>
    <v>       0.32389939       0.99354142       0.84244847 </v>
    <v>       0.65723276       0.99354130       0.47340381 </v>
    <v>       0.65723276       0.32687473       0.65792608 </v>
    <v>       0.65723276       0.66020811       0.84244847 </v>
    <v>       0.99056607       0.99354136       0.51953435 </v>
    <v>       0.99056607       0.32687473       0.70405668 </v>
    <v>       0.99056613       0.66020822       0.88857901 </v>
    <v>       0.32389951       0.66020799       0.51953435 </v>
    <v>       0.32389951       0.99354136       0.70405674 </v>
    <v>       0.32389951       0.32687473       0.88857901 </v>
    <v>       0.65723276       0.32687461       0.51953435 </v>
    <v>       0.65723276       0.66020799       0.70405668 </v>
    <v>       0.65723276       0.99354136       0.88857901 </v>
    <v>       0.82389939       0.82687461       0.47340384 </v>
    <v>       0.82389939       0.16020799       0.65792608 </v>
    <v>       0.82389939       0.49354136       0.84244847 </v>
    <v>       0.15723276       0.49354124       0.47340384 </v>
    <v>       0.15723276       0.82687467       0.65792614 </v>
    <v>       0.15723276       0.16020799       0.84244847 </v>
    <v>       0.49056613       0.16020799       0.47340381 </v>
    <v>       0.49056613       0.49354136       0.65792608 </v>
    <v>       0.49056625       0.82687485       0.84244847 </v>
    <v>       0.82389939       0.16020799       0.51953435 </v>
    <v>       0.82389939       0.49354136       0.70405668 </v>
    <v>       0.82389939       0.82687485       0.88857901 </v>
    <v>       0.15723276       0.82687461       0.51953435 </v>
    <v>       0.15723276       0.16020799       0.70405668 </v>
    <v>       0.15723276       0.49354148       0.88857901 </v>
    <v>       0.49056613       0.49354121       0.51953435 </v>
    <v>       0.49056613       0.82687461       0.70405674 </v>
    <v>       0.49056613       0.16020799       0.88857901 </v>
    <v>       0.99056607       0.16020799       0.47340384 </v>
    <v>       0.99056607       0.49354124       0.65792608 </v>
    <v>       0.99056607       0.82687473       0.84244835 </v>
    <v>       0.32389939       0.82687461       0.47340381 </v>
    <v>       0.32389939       0.16020799       0.65792614 </v>
    <v>       0.32389951       0.49354136       0.84244835 </v>
    <v>       0.65723276       0.49354127       0.47340384 </v>
    <v>       0.65723276       0.82687467       0.65792614 </v>
    <v>       0.65723276       0.16020811       0.84244835 </v>
    <v>       0.99056607       0.49354118       0.51953441 </v>
    <v>       0.99056607       0.82687455       0.70405674 </v>
    <v>       0.99056607       0.16020799       0.88857901 </v>
    <v>       0.32389939       0.16020799       0.51953441 </v>
    <v>       0.32389939       0.49354136       0.70405674 </v>
    <v>       0.32389939       0.82687461       0.88857901 </v>
    <v>       0.65723276       0.82687461       0.51953441 </v>
    <v>       0.65723276       0.16020799       0.70405674 </v>
    <v>       0.65723276       0.49354136       0.88857901 </v>
   </varray>
  </structure>
  <varray name="forces" >
   <v>      -0.01827920       0.02064381      -0.97748263 </v>
   <v>       0.00215630      -0.00873863       0.12420333 </v>
   <v>      -0.00180887      -0.01071600      -0.24972039 </v>
   <v>      -0.01827920       0.02064381      -0.97748263 </v>
   <v>       0.00215630      -0.00873863       0.12420333 </v>
   <v>      -0.00180887      -0.01071600      -0.24972039 </v>
   <v>      -0.01827920       0.02064381      -0.97748263 </v>
   <v>       0.00215630      -0.00873863       0.12420333 </v>
   <v>      -0.00180887      -0.01071600      -0.24972039 </v>
   <v>      -0.01827920       0.02064381      -0.97748263 </v>
   <v>       0.00215630      -0.00873863       0.12420333 </v>
   <v>      -0.00180887      -0.01071600      -0.24972039 </v>
   <v>      -0.00449600       0.01651254       0.07848233 </v>
   <v>      -0.00116465       0.00071843       0.02974006 </v>
   <v>      -0.02964831      -0.01917137       0.39477355 </v>
   <v>      -0.00449600       0.01651254       0.07848233 </v>
   <v>      -0.00116465       0.00071843       0.02974006 </v>
   <v>      -0.02964831      -0.01917137       0.39477355 </v>
   <v>      -0.00449600       0.01651254       0.07848233 </v>
   <v>      -0.00116465       0.00071843       0.02974006 </v>
   <v>      -0.02964831      -0.01917137       0.39477355 </v>
   <v>      -0.00449600       0.01651254       0.07848233 </v>
   <v>      -0.00116465       0.00071843       0.02974006 </v>
   <v>      -0.02964831      -0.01917137       0.39477355 </v>
   <v>       0.01840315       0.27395221       0.26881398 </v>
   <v>      -0.21435116      -0.19335658       0.14991298 </v>
   <v>       0.19764656       0.04472729      -0.33516270 </v>
   <v>       0.01840315       0.27395221       0.26881398 </v>
   <v>      -0.21435116      -0.19335658       0.14991298 </v>
   <v>       0.19764656       0.04472729      -0.33516270 </v>
   <v>       0.01840315       0.27395221       0.26881398 </v>
   <v>      -0.21435116      -0.19335658       0.14991298 </v>
   <v>       0.19764656       0.04472729      -0.33516270 </v>
   <v>       0.01840315       0.27395221       0.26881398 </v>
   <v>      -0.21435116      -0.19335658       0.14991298 </v>
   <v>       0.19764656       0.04472729      -0.33516270 </v>
   <v>       0.15488540       0.08678428       0.41935388 </v>
   <v>      -0.21393714      -0.18920466      -0.19382218 </v>
   <v>       0.29675628       0.10067054      -0.13014416 </v>
   <v>       0.15488540       0.08678428       0.41935388 </v>
   <v>      -0.21393714      -0.18920466      -0.19382218 </v>
   <v>       0.29675628       0.10067054      -0.13014416 </v>
   <v>       0.15488540       0.08678428       0.41935388 </v>
   <v>      -0.21393714      -0.18920466      -0.19382218 </v>
   <v>       0.29675628       0.10067054      -0.13014416 </v>
   <v>       0.15488540       0.08678428       0.41935388 </v>
   <v>      -0.21393714      -0.18920466      -0.19382218 </v>
   <v>       0.29675628       0.10067054      -0.13014416 </v>
   <v>      -0.13313791      -0.10668543       0.56610890 </v>
   <v>       0.25726510      -0.09488641       0.17469185 </v>
   <v>      -0.14780681       0.13828249      -0.39436876 </v>
   <v>      -0.13313791      -0.10668543       0.56610890 </v>
   <v>       0.25726510      -0.09488641       0.17469185 </v>
   <v>      -0.14780681       0.13828249      -0.39436876 </v>
   <v>      -0.13313791      -0.10668543       0.56610890 </v>
   <v>       0.25726510      -0.09488641       0.17469185 </v>
   <v>      -0.14780681       0.13828249      -0.39436876 </v>
   <v>      -0.13313791      -0.10668543       0.56610890 </v>
   <v>       0.25726510      -0.09488641       0.17469185 </v>
   <v>      -0.14780681       0.13828249      -0.39436876 </v>
   <v>      -0.15697648       0.09967024       0.45098270 </v>
   <v>       0.26979344      -0.07661937      -0.19654987 </v>
   <v>      -0.09364811       0.18475680      -0.45621511 </v>
   <v>      -0.15697648       0.09967024       0.45098270 </v>
   <v>       0.26979344      -0.07661937      -0.19654987 </v>
   <v>      -0.09364811       0.18475680      -0.45621511 </v>
   <v>      -0.15697648       0.09967024       0.45098270 </v>
   <v>       0.26979344      -0.07661937      -0.19654987 </v>
   <v>      -0.09364811       0.18475680      -0.45621511 </v>
   <v>      -0.15697648       0.09967024       0.45098270 </v>
   <v>       0.26979344      -0.07661937      -0.19654987 </v>
   <v>      -0.09364811       0.18475680      -0.45621511 </v>
   <v>       0.24612802      -0.17547298       0.31135281 </v>
   <v>      -0.08040619       0.26677442       0.16563797 </v>
   <v>      -0.05940352      -0.19123943      -0.35678460 </v>
   <v>       0.24612802      -0.17547298       0.31135281 </v>
   <v>      -0.08040619       0.26677442       0.16563797 </v>
   <v>      -0.05940352      -0.19123943      -0.35678460 </v>
   <v>       0.24612802      -0.17547298       0.31135281 </v>
   <v>      -0.08040619       0.26677442       0.16563797 </v>
   <v>      -0.05940352      -0.19123943      -0.35678460 </v>
   <v>       0.24612802      -0.17547298       0.31135281 </v>
   <v>      -0.08040619       0.26677442       0.16563797 </v>
   <v>      -0.05940352      -0.19123943      -0.35678460 </v>
   <v>       0.01320475      -0.18966595       0.42168951 </v>
   <v>      -0.08720696       0.26719577      -0.17753319 </v>
   <v>      -0.07379927      -0.24203209      -0.16058086 </v>
   <v>       0.01320475      -0.18966595       0.42168951 </v>
   <v>      -0.08720696       0.26719577      -0.17753319 </v>
   <v>      -0.07379927      -0.24203209      -0.16058086 </v>
   <v>       0.01320475      -0.18966595       0.42168951 </v>
   <v>      -0.08720696       0.26719577      -0.17753319 </v>
   <v>      -0.07379927      -0.24203209      -0.16058086 </v>
   <v>       0.01320475      -0.18966595       0.42168951 </v>
   <v>      -0.08720696       0.26719577      -0.17753319 </v>
   <v>      -0.07379927      -0.24203209      -0.16058086 </v>
   <v>      -0.17423143      -0.48428826       0.45812291 </v>
   <v>       0.00913705       0.00163454       0.10499661 </v>
   <v>      -0.16340081       0.00386174      -0.21315820 </v>
   <v>       0.37703543       0.08181163       0.77612925 </v>
   <v>       0.01170315      -0.00684128       0.14430986 </v>
   <v>       0.09560252       0.12616823      -0.16664462 </v>
   <v>      -0.32518782       0.40018813       0.53267878 </v>
   <v>       0.01477517      -0.00128684       0.46425615 </v>
   <v>       0.10392266      -0.12541418      -0.16734489 </v>
   <v>       0.02277371      -0.01880122       0.66729049 </v>
   <v>       0.11214683       0.01429405      -0.19236686 </v>
   <v>      -0.05961951       0.15672461      -0.45938038 </v>
   <v>       0.00820733       0.02044695       0.51514243 </v>
   <v>      -0.05598357      -0.10991980      -0.20982095 </v>
   <v>      -0.17346306      -0.09046551      -0.75271530 </v>
   <v>       0.03441215       0.00233715      -0.75602428 </v>
   <v>      -0.08154361       0.09518364      -0.21210767 </v>
   <v>       0.10354541      -0.06853350      -0.46074276 </v>
   <v>      -0.32518782       0.40018813       0.53267878 </v>
   <v>       0.01477517      -0.00128684       0.46425615 </v>
   <v>       0.10392266      -0.12541418      -0.16734489 </v>
   <v>      -0.17423143      -0.48428826       0.45812291 </v>
   <v>       0.00913705       0.00163454       0.10499661 </v>
   <v>      -0.16340081       0.00386174      -0.21315820 </v>
   <v>       0.37703543       0.08181163       0.77612925 </v>
   <v>       0.01170315      -0.00684128       0.14430986 </v>
   <v>       0.09560252       0.12616823      -0.16664462 </v>
   <v>       0.03441215       0.00233715      -0.75602428 </v>
   <v>      -0.08154361       0.09518364      -0.21210767 </v>
   <v>       0.10354541      -0.06853350      -0.46074276 </v>
   <v>       0.02277371      -0.01880122       0.66729049 </v>
   <v>       0.11214683       0.01429405      -0.19236686 </v>
   <v>      -0.05961951       0.15672461      -0.45938038 </v>
   <v>       0.00820733       0.02044695       0.51514243 </v>
   <v>      -0.05598357      -0.10991980      -0.20982095 </v>
   <v>      -0.17346306      -0.09046551      -0.75271530 </v>
   <v>      -0.17423143      -0.48428826       0.45812291 </v>
   <v>       0.00913705       0.00163454       0.10499661 </v>
   <v>      -0.16340081       0.00386174      -0.21315820 </v>
   <v>       0.37703543       0.08181163       0.77612925 </v>
   <v>       0.01170315      -0.00684128       0.14430986 </v>
   <v>       0.09560252       0.12616823      -0.16664462 </v>
   <v>      -0.32518782       0.40018813       0.53267878 </v>
   <v>       0.01477517      -0.00128684       0.46425615 </v>
   <v>       0.10392266      -0.12541418      -0.16734489 </v>
   <v>       0.02277371      -0.01880122       0.66729049 </v>
   <v>       0.11214683       0.01429405      -0.19236686 </v>
   <v>      -0.05961951       0.15672461      -0.45938038 </v>
   <v>       0.00820733       0.02044695       0.51514243 </v>
   <v>      -0.05598357      -0.10991980      -0.20982095 </v>
   <v>      -0.17346306      -0.09046551      -0.75271530 </v>
   <v>       0.03441215       0.00233715      -0.75602428 </v>
   <v>      -0.08154361       0.09518364      -0.21210767 </v>
   <v>       0.10354541      -0.06853350      -0.46074276 </v>
   <v>      -0.32518782       0.40018813       0.53267878 </v>
   <v>       0.01477517      -0.00128684       0.46425615 </v>
   <v>       0.10392266      -0.12541418      -0.16734489 </v>
   <v>      -0.17423143      -0.48428826       0.45812291 </v>
   <v>       0.00913705       0.00163454       0.10499661 </v>
   <v>      -0.16340081       0.00386174      -0.21315820 </v>
   <v>       0.37703543       0.08181163       0.77612925 </v>
   <v>       0.01170315      -0.00684128       0.14430986 </v>
   <v>       0.09560252       0.12616823      -0.16664462 </v>
   <v>       0.03441215       0.00233715      -0.75602428 </v>
   <v>      -0.08154361       0.09518364      -0.21210767 </v>
   <v>       0.10354541      -0.06853350      -0.46074276 </v>
   <v>       0.02277371      -0.01880122       0.66729049 </v>
   <v>       0.11214683       0.01429405      -0.19236686 </v>
   <v>      -0.05961951       0.15672461      -0.45938038 </v>
   <v>       0.00820733       0.02044695       0.51514243 </v>
   <v>      -0.05598357      -0.10991980      -0.20982095 </v>
   <v>      -0.17346306      -0.09046551      -0.75271530 </v>
  </varray>
  <varray name="stress" >
   <v>      37.05695040      -0.27566223      -0.01557496 </v>
   <v>      -0.27566216      36.49402107      -0.14825274 </v>
   <v>      -0.01557506      -0.14825277      69.26649111 </v>
  </varray>
  <energy>
   <i name="e_fr_energy">   -683.26927692 </i>
   <i name="e_wo_entrp">   -683.26566905 </i>
   <i name="e_0_energy">   -683.26747299 </i>
  </energy>
  <time name="totalsc"> 2133.95 2154.47</time>
  <eigenvalues>
   <array>
    <dimension dim="1">band</dimension>
    <dimension dim="2">kpoint</dimension>
    <dimension dim="3">spin</dimension>
    <field>eigene</field>
    <field>occ</field>
    <set>
     <set comment="spin 1">
      <set comment="kpoint 1">
       <r>   -8.7559    1.0000 </r>
       <r>   -8.3381    1.0000 </r>
       <r>   -8.1031    1.0000 </r>
       <r>   -8.1015    1.0000 </r>
       <r>   -8.1006    1.0000 </r>
       <r>   -8.0760    1.0000 </r>
       <r>   -8.0753    1.0000 </r>
       <r>   -8.0735    1.0000 </r>
       <r>   -7.6859    1.0000 </r>
       <r>   -7.6856    1.0000 </r>
       <r>   -7.6787    1.0000 </r>
       <r>   -7.6507    1.0000 </r>
       <r>   -7.6431    1.0000 </r>
       <r>   -7.6423    1.0000 </r>
       <r>   -7.5156    1.0000 </r>
       <r>   -6.9349    1.0000 </r>
       <r>   -6.9319    1.0000 </r>
       <r>   -6.9299    1.0000 </r>
       <r>   -6.8662    1.0000 </r>
       <r>   -6.8633    1.0000 </r>
       <r>   -6.8570    1.0000 </r>
       <r>   -6.8523    1.0000 </r>
       <r>   -6.8425    1.0000 </r>
       <r>   -6.8421    1.0000 </r>
       <r>   -6.8002    1.0000 </r>
       <r>   -6.7986    1.0000 </r>
       <r>   -6.7975    1.0000 </r>
       <r>   -6.7517    1.0000 </r>
       <r>   -6.7383    1.0000 </r>
       <r>   -6.6510    1.0000 </r>
       <r>   -6.5925    1.0000 </r>
       <r>   -6.5909    1.0000 </r>
       <r>   -6.5827    1.0000 </r>
       <r>   -6.4787    1.0000 </r>
       <r>   -6.4743    1.0000 </r>
       <r>   -6.4460    1.0000 </r>
       <r>   -6.3284    1.0000 </r>
       <r>   -6.3203    1.0000 </r>
       <r>   -6.3200    1.0000 </r>
       <r>   -6.2476    1.0000 </r>
       <r>   -6.1459    1.0000 </r>
       <r>   -5.8762    1.0000 </r>
       <r>   -5.8755    1.0000 </r>
       <r>   -5.8697    1.0000 </r>
       <r>   -5.8040    1.0000 </r>
       <r>   -5.7905    1.0000 </r>
       <r>   -5.7898    1.0000 </r>
       <r>   -5.7865    1.0000 </r>
       <r>   -5.7710    1.0000 </r>
       <r>   -5.7693    1.0000 </r>
       <r>   -5.7677    1.0000 </r>
       <r>   -5.7676    1.0000 </r>
       <r>   -5.5669    1.0000 </r>
       <r>   -5.5665    1.0000 </r>
       <r>   -5.5616    1.0000 </r>
       <r>   -5.4877    1.0000 </r>
       <r>   -5.4849    1.0000 </r>
       <r>   -5.4832    1.0000 </r>
       <r>   -5.4785    1.0000 </r>
       <r>   -5.4448    1.0000 </r>
       <r>   -5.4411    1.0000 </r>
       <r>   -5.4353    1.0000 </r>
       <r>   -5.4074    1.0000 </r>
       <r>   -5.0382    1.0000 </r>
       <r>   -5.0381    1.0000 </r>
       <r>   -5.0378    1.0000 </r>
       <r>   -5.0145    1.0000 </r>
       <r>   -4.9800    1.0000 </r>
       <r>   -4.7709    1.0000 </r>
       <r>   -4.7704    1.0000 </r>
       <r>   -4.7704    1.0000 </r>
       <r>   -4.7431    1.0000 </r>
       <r>   -4.7377    1.0000 </r>
       <r>   -4.7376    1.0000 </r>
       <r>   -4.7332    1.0000 </r>
       <r>   -4.6983    1.0000 </r>
       <r>   -4.6939    1.0000 </r>
       <r>   -4.6933    1.0000 </r>
       <r>   -4.6459    1.0000 </r>
       <r>   -4.6419    1.0000 </r>
       <r>   -4.6416    1.0000 </r>
       <r>   -4.4971    1.0000 </r>
       <r>   -4.4855    1.0000 </r>
       <r>   -4.4277    1.0000 </r>
       <r>   -4.3774    1.0000 </r>
       <r>   -4.3701    1.0000 </r>
       <r>   -4.3685    1.0000 </r>
       <r>   -4.3443    1.0000 </r>
       <r>   -4.2615    1.0000 </r>
       <r>   -4.2486    1.0000 </r>
       <r>   -3.8501    1.0000 </r>
       <r>   -3.8494    1.0000 </r>
       <r>   -3.8435    1.0000 </r>
       <r>   -3.8142    1.0000 </r>
       <r>   -3.7684    1.0000 </r>
       <r>   -3.7683    1.0000 </r>
       <r>   -3.7663    1.0000 </r>
       <r>   -3.7596    1.0000 </r>
       <r>   -3.7569    1.0000 </r>
       <r>   -3.6729    1.0000 </r>
       <r>   -3.6587    1.0000 </r>
       <r>   -3.6576    1.0000 </r>
       <r>   -3.6438    1.0000 </r>
       <r>   -3.3704    1.0000 </r>
       <r>   -3.3662    1.0000 </r>
       <r>   -3.3635    1.0000 </r>
       <r>   -3.3492    1.0000 </r>
       <r>   -3.3472    1.0000 </r>
       <r>   -3.3452    1.0000 </r>
       <r>   -3.2323    1.0000 </r>
       <r>   -3.2014    1.0000 </r>
       <r>   -3.1925    1.0000 </r>
       <r>   -3.1720    1.0000 </r>
       <r>   -3.1696    1.0000 </r>
       <r>   -3.1683    1.0000 </r>
       <r>   -3.0632    1.0000 </r>
       <r>   -3.0610    1.0000 </r>
       <r>   -3.0591    1.0000 </r>
       <r>   -3.0521    1.0000 </r>
       <r>   -3.0299    1.0000 </r>
       <r>   -2.9276    1.0000 </r>
       <r>   -2.9269    1.0000 </r>
       <r>   -2.9267    1.0000 </r>
       <r>   -2.9127    1.0000 </r>
       <r>   -2.7850    1.0000 </r>
       <r>   -2.7787    1.0000 </r>
       <r>   -2.7708    1.0000 </r>
       <r>   -2.6685    1.0000 </r>
       <r>   -2.6685    1.0000 </r>
       <r>   -2.6684    1.0000 </r>
       <r>   -2.4837    1.0000 </r>
       <r>   -2.4823    1.0000 </r>
       <r>   -2.4822    1.0000 </r>
       <r>   -2.2238    1.0000 </r>
       <r>   -2.2225    1.0000 </r>
       <r>   -2.2198    1.0000 </r>
       <r>   -2.2190    1.0000 </r>
       <r>   -2.2157    1.0000 </r>
       <r>   -2.2069    1.0000 </r>
       <r>   -2.0966    1.0000 </r>
       <r>   -2.0964    1.0000 </r>
       <r>   -2.0803    1.0000 </r>
       <r>   -1.9113    1.0000 </r>
       <r>   -1.8912    1.0000 </r>
       <r>   -1.8860    1.0000 </r>
       <r>   -1.6400    1.0000 </r>
       <r>   -1.5185    1.0000 </r>
       <r>   -1.4513    1.0000 </r>
       <r>   -1.4446    1.0000 </r>
       <r>   -1.4374    1.0000 </r>
       <r>   -1.4159    1.0000 </r>
       <r>   -1.4067    1.0000 </r>
       <r>   -1.4032    1.0000 </r>
       <r>   -0.8678    1.0000 </r>
       <r>   -0.8674    1.0000 </r>
       <r>   -0.8587    1.0000 </r>
       <r>   -0.8033    1.0000 </r>
       <r>   -0.8031    1.0000 </r>
       <r>   -0.7981    1.0000 </r>
       <r>   -0.7569    1.0000 </r>
       <r>   -0.7513    1.0000 </r>
       <r>   -0.7469    1.0000 </r>
       <r>   -0.7207    1.0000 </r>
       <r>   -0.7154    1.0000 </r>
       <r>   -0.7126    1.0000 </r>
       <r>   -0.2084    1.0000 </r>
       <r>   -0.2039    1.0000 </r>
       <r>   -0.1999    1.0000 </r>
       <r>   -0.1584    1.0000 </r>
       <r>   -0.1580    1.0000 </r>
       <r>   -0.1521    1.0000 </r>
       <r>   -0.1042    1.0000 </r>
       <r>   -0.1015    1.0000 </r>
       <r>   -0.0989    1.0000 </r>
       <r>   -0.0736    1.0000 </r>
       <r>   -0.0622    1.0000 </r>
       <r>   -0.0621    1.0000 </r>
       <r>   -0.0607    1.0000 </r>
       <r>   -0.0604    1.0000 </r>
       <r>   -0.0596    1.0000 </r>
       <r>    0.0077    1.0000 </r>
       <r>    0.0085    1.0000 </r>
       <r>    0.0159    1.0000 </r>
       <r>    0.0563    1.0000 </r>
       <r>    0.0573    1.0000 </r>
       <r>    0.0641    1.0000 </r>
       <r>    0.1789    1.0000 </r>
       <r>    0.1823    1.0000 </r>
       <r>    0.1838    1.0000 </r>
       <r>    0.2047    1.0000 </r>
       <r>    0.2079    1.0000 </r>
       <r>    0.2137    1.0000 </r>
       <r>    0.2220    1.0000 </r>
       <r>    0.2758    1.0000 </r>
       <r>    0.2842    1.0000 </r>
       <r>    0.2923    1.0000 </r>
       <r>    0.2959    1.0000 </r>
       <r>    0.2990    1.0000 </r>
       <r>    0.3286    1.0000 </r>
       <r>    0.3291    1.0000 </r>
       <r>    0.3301    1.0000 </r>
       <r>    0.3752    1.0000 </r>
       <r>    0.3967    1.0000 </r>
       <r>    0.4030    1.0000 </r>
       <r>    0.4699    1.0000 </r>
       <r>    0.4711    1.0000 </r>
       <r>    0.4726    1.0000 </r>
       <r>    0.5170    1.0000 </r>
       <r>    0.5197    1.0000 </r>
       <r>    0.5223    1.0000 </r>
       <r>    0.6494    1.0000 </r>
       <r>    0.6960    1.0000 </r>
       <r>    0.7067    1.0000 </r>
       <r>    0.7358    1.0000 </r>
       <r>    0.8543    1.0000 </r>
       <r>    0.8561    1.0000 </r>
       <r>    0.8584    1.0000 </r>
       <r>    0.8992    1.0000 </r>
       <r>    0.9005    1.0000 </r>
       <r>    0.9013    1.0000 </r>
       <r>    0.9020    1.0000 </r>
       <r>    0.9463    1.0000 </r>
       <r>    0.9586    1.0000 </r>
       <r>    0.9871    1.0000 </r>
       <r>    0.9906    1.0000 </r>
       <r>    0.9925    1.0000 </r>
       <r>    1.0141    1.0000 </r>
       <r>    1.0180    1.0000 </r>
       <r>    1.0193    1.0000 </r>
       <r>    1.1334    1.0000 </r>
       <r>    1.1980    1.0000 </r>
       <r>    1.1985    1.0000 </r>
       <r>    1.2186    1.0000 </r>
       <r>    1.2789    1.0000 </r>
       <r>    1.2843    1.0000 </r>
       <r>    1.2879    1.0000 </r>
       <r>    1.3473    1.0000 </r>
       <r>    1.3750    1.0000 </r>
[...]
       <r>    -2.8308    27.8080   244.9835 </r>
       <r>    -2.7771    40.9054   247.1796 </r>
       <r>    -2.7234    87.7695   251.8918 </r>
       <r>    -2.6697    39.4273   254.0086 </r>
       <r>    -2.6160    41.7497   256.2500 </r>
       <r>    -2.5623     0.0009   256.2500 </r>
       <r>    -2.5086    82.0278   260.6539 </r>
       <r>    -2.4549    29.3361   262.2290 </r>
       <r>    -2.4013    65.2121   265.7301 </r>
       <r>    -2.3476    57.0201   268.7914 </r>
       <r>    -2.2939   108.8990   274.6379 </r>
       <r>    -2.2402    11.4675   275.2536 </r>
       <r>    -2.1865    55.7817   278.2484 </r>
       <r>    -2.1328    27.9468   279.7488 </r>
       <r>    -2.0791    10.8041   280.3288 </r>
       <r>    -2.0254    31.1278   282.0000 </r>
       <r>    -1.9718     2.3476   282.1260 </r>
       <r>    -1.9181    53.6028   285.0039 </r>
       <r>    -1.8644    44.6533   287.4012 </r>
       <r>    -1.8107    53.0621   290.2500 </r>
       <r>    -1.7570    54.4501   293.1733 </r>
       <r>    -1.7033     1.8916   293.2749 </r>
       <r>    -1.6496    66.9522   296.8694 </r>
       <r>    -1.5959    80.7546   301.2049 </r>
       <r>    -1.5423    65.6960   304.7321 </r>
       <r>    -1.4886     4.9899   305.0000 </r>
       <r>    -1.4349    12.2737   305.6589 </r>
       <r>    -1.3812    29.6011   307.2481 </r>
       <r>    -1.3275     0.0346   307.2500 </r>
       <r>    -1.2738     0.0569   307.2531 </r>
       <r>    -1.2201    28.2562   308.7701 </r>
       <r>    -1.1664    27.5655   310.2500 </r>
       <r>    -1.1128     0.0000   310.2500 </r>
       <r>    -1.0591     8.1003   310.6849 </r>
       <r>    -1.0054    19.8390   311.7500 </r>
       <r>    -0.9517     0.0000   311.7500 </r>
       <r>    -0.8980     0.0000   311.7500 </r>
       <r>    -0.8443    21.2716   312.8920 </r>
       <r>    -0.7906    42.5282   315.1753 </r>
       <r>    -0.7369    32.6281   316.9270 </r>
       <r>    -0.6833    29.9347   318.5341 </r>
       <r>    -0.6296    60.4222   321.7781 </r>
       <r>    -0.5759    30.3541   323.4077 </r>
       <r>    -0.5222     6.3755   323.7500 </r>
       <r>    -0.4685     0.0000   323.7500 </r>
       <r>    -0.4148     0.1691   323.7591 </r>
       <r>    -0.3611    10.7000   324.3335 </r>
       <r>    -0.3074    54.3229   327.2500 </r>
       <r>    -0.2538   125.3800   333.9814 </r>
       <r>    -0.2001   113.6393   340.0825 </r>
       <r>    -0.1464    34.8706   341.9546 </r>
       <r>    -0.0927   108.1670   347.7619 </r>
       <r>    -0.0390    88.3457   352.5050 </r>
       <r>     0.0147   114.6473   358.6602 </r>
       <r>     0.0684    39.9981   360.8076 </r>
       <r>     0.1221    32.1395   362.5331 </r>
       <r>     0.1758    51.6264   365.3048 </r>
       <r>     0.2294   143.6036   373.0146 </r>
       <r>     0.2831   116.6098   379.2751 </r>
       <r>     0.3368   121.5655   385.8017 </r>
       <r>     0.3905    70.6849   389.5966 </r>
       <r>     0.4442   105.9393   395.2842 </r>
       <r>     0.4979   101.5151   400.7343 </r>
       <r>     0.5516    43.0979   403.0482 </r>
       <r>     0.6053    78.6084   407.2685 </r>
       <r>     0.6589    36.1048   409.2069 </r>
       <r>     0.7126    49.7672   411.8788 </r>
       <r>     0.7663   118.1675   418.2229 </r>
       <r>     0.8200   119.9539   424.6630 </r>
       <r>     0.8737   110.4214   430.5913 </r>
       <r>     0.9274   174.4666   439.9580 </r>
       <r>     0.9811   123.8376   446.6066 </r>
       <r>     1.0348   112.4155   452.6419 </r>
       <r>     1.0884    83.5530   457.1277 </r>
       <r>     1.1421   147.6994   465.0574 </r>
       <r>     1.1958    89.4725   469.8611 </r>
       <r>     1.2495   115.7608   476.0760 </r>
       <r>     1.3032   110.4514   482.0059 </r>
       <r>     1.3569    99.5504   487.3506 </r>
       <r>     1.4106   121.5504   493.8764 </r>
       <r>     1.4643    63.2238   497.2707 </r>
       <r>     1.5179   175.6814   506.7027 </r>
       <r>     1.5716   130.6823   513.7187 </r>
       <r>     1.6253   128.3473   520.6094 </r>
       <r>     1.6790    77.3687   524.7632 </r>
       <r>     1.7327   151.9361   532.9203 </r>
       <r>     1.7864   102.5773   538.4275 </r>
       <r>     1.8401    84.3634   542.9568 </r>
       <r>     1.8938    82.8217   547.4033 </r>
       <r>     1.9474    87.6264   552.1078 </r>
       <r>     2.0011    83.2568   556.5777 </r>
       <r>     2.0548    65.2437   560.0805 </r>
       <r>     2.1085    96.0769   565.2386 </r>
       <r>     2.1622   151.4662   573.3705 </r>
       <r>     2.2159    97.3044   578.5946 </r>
       <r>     2.2696    85.4752   583.1836 </r>
       <r>     2.3233    80.6851   587.5154 </r>
       <r>     2.3769    52.9154   590.3564 </r>
       <r>     2.4306   107.0900   596.1058 </r>
       <r>     2.4843    51.7895   598.8863 </r>
       <r>     2.5380    81.6286   603.2688 </r>
       <r>     2.5917    40.9527   605.4674 </r>
       <r>     2.6454    92.9864   610.4597 </r>
       <r>     2.6991   124.9556   617.1683 </r>
       <r>     2.7528    53.9306   620.0638 </r>
       <r>     2.8065   105.3968   625.7223 </r>
       <r>     2.8601    60.2461   628.9567 </r>
       <r>     2.9138    58.6381   632.1049 </r>
       <r>     2.9675    12.2262   632.7613 </r>
       <r>     3.0212    81.2523   637.1236 </r>
       <r>     3.0749    44.2475   639.4991 </r>
       <r>     3.1286    24.9488   640.8386 </r>
       <r>     3.1823   115.3117   647.0294 </r>
       <r>     3.2360    50.8482   649.7593 </r>
       <r>     3.2896    42.8195   652.0582 </r>
       <r>     3.3433    56.6477   655.0995 </r>
       <r>     3.3970    73.5609   659.0488 </r>
       <r>     3.4507    52.0554   661.8436 </r>
       <r>     3.5044    41.3398   664.0631 </r>
       <r>     3.5581    23.4690   665.3231 </r>
       <r>     3.6118    75.0490   669.3523 </r>
       <r>     3.6655    58.1163   672.4725 </r>
       <r>     3.7191    39.9863   674.6193 </r>
       <r>     3.7728     4.8985   674.8822 </r>
       <r>     3.8265    44.0577   677.2476 </r>
       <r>     3.8802    15.9820   678.1056 </r>
       <r>     3.9339    16.6676   679.0005 </r>
       <r>     3.9876    15.0286   679.8073 </r>
       <r>     4.0413    54.7722   682.7479 </r>
       <r>     4.0950    14.9516   683.5507 </r>
       <r>     4.1486    60.2789   686.7869 </r>
       <r>     4.2023    59.8503   690.0001 </r>
       <r>     4.2560    17.6745   690.9491 </r>
       <r>     4.3097    65.7750   694.4804 </r>
       <r>     4.3634    27.9011   695.9783 </r>
       <r>     4.4171    41.1539   698.1878 </r>
       <r>     4.4708     9.8056   698.7142 </r>
       <r>     4.5245    89.0991   703.4978 </r>
       <r>     4.5781    60.5423   706.7481 </r>
       <r>     4.6318    15.7759   707.5951 </r>
       <r>     4.6855    71.2890   711.4225 </r>
       <r>     4.7392    91.3341   716.3260 </r>
       <r>     4.7929    89.6668   721.1400 </r>
       <r>     4.8466    79.5126   725.4090 </r>
       <r>     4.9003    40.1110   727.5625 </r>
       <r>     4.9540    35.0388   729.4436 </r>
       <r>     5.0076    66.7781   733.0288 </r>
       <r>     5.0613    51.0554   735.7699 </r>
       <r>     5.1150    73.5308   739.7176 </r>
       <r>     5.1687   145.8101   747.5458 </r>
       <r>     5.2224    72.4959   751.4380 </r>
       <r>     5.2761   127.1274   758.2631 </r>
       <r>     5.3298    60.8613   761.5306 </r>
       <r>     5.3835    71.8317   765.3871 </r>
       <r>     5.4372    59.5295   768.5832 </r>
       <r>     5.4908    98.8196   773.8886 </r>
       <r>     5.5445   126.2629   780.6673 </r>
       <r>     5.5982    75.9191   784.7433 </r>
       <r>     5.6519    88.5335   789.4964 </r>
       <r>     5.7056   107.0265   795.2425 </r>
       <r>     5.7593   106.9253   800.9830 </r>
       <r>     5.8130    76.4422   805.0871 </r>
       <r>     5.8667    45.1748   807.5124 </r>
       <r>     5.9203     9.0814   808.0000 </r>
       <r>     5.9740     0.0000   808.0000 </r>
       <r>     6.0277     0.0000   808.0000 </r>
       <r>     6.0814     0.0000   808.0000 </r>
       <r>     6.1351     0.0000   808.0000 </r>
       <r>     6.1888     0.0000   808.0000 </r>
       <r>     6.2425     0.0000   808.0000 </r>
       <r>     6.2962     0.0000   808.0000 </r>
       <r>     6.3498     0.0000   808.0000 </r>
       <r>     6.4035     0.0000   808.0000 </r>
       <r>     6.4572     0.0000   808.0000 </r>
       <r>     6.5109     0.0000   808.0000 </r>
       <r>     6.5646     0.0000   808.0000 </r>
       <r>     6.6183     0.0000   808.0000 </r>
      </set>
     </set>
    </array>
   </total>
  </dos>
 </calculation>
 <structure name="finalpos" >
  <crystal>
   <varray name="basis" >
    <v>      16.00267601       0.00000000       0.00000000 </v>
    <v>      -8.00133800      13.85872459       0.00000000 </v>
    <v>       0.00000000       0.00000000      20.30400658 </v>
   </varray>
   <i name="volume">   4502.95516101 </i>
   <varray name="rec_basis" >
    <v>       0.06248955       0.03607836       0.00000000 </v>
    <v>       0.00000000       0.07215671       0.00000000 </v>
    <v>       0.00000000       0.00000000       0.04925136 </v>
   </varray>
  </crystal>
  <varray name="positions" >
   <v>       0.98576731       0.49288356       0.00000000 </v>
   <v>       0.65243387       0.32621685       0.16088121 </v>
   <v>       0.31910050       0.15955012       0.32176238 </v>
   <v>       0.98576731       0.99288368       0.00000001 </v>
   <v>       0.65243387       0.82621694       0.16088121 </v>
   <v>       0.31910050       0.65955019       0.32176241 </v>
   <v>       0.48576724       0.49288359       0.00000000 </v>
   <v>       0.15243384       0.32621685       0.16088121 </v>
   <v>       0.81910044       0.15955013       0.32176241 </v>
   <v>       0.48576724       0.99288368       0.00000002 </v>
   <v>       0.15243384       0.82621694       0.16088121 </v>
   <v>       0.81910044       0.65955019       0.32176241 </v>
   <v>       0.15243395       0.82621688       0.04022032 </v>
   <v>       0.81910056       0.65955013       0.20110148 </v>
   <v>       0.48576719       0.49288344       0.36198270 </v>
   <v>       0.15243395       0.32621694       0.04022032 </v>
   <v>       0.81910056       0.15955022       0.20110150 </v>
   <v>       0.48576719       0.99288350       0.36198270 </v>
   <v>       0.65243387       0.82621682       0.04022032 </v>
   <v>       0.31910053       0.65955013       0.20110148 </v>
   <v>       0.98576719       0.49288344       0.36198270 </v>
   <v>       0.65243387       0.32621694       0.04022032 </v>
   <v>       0.31910053       0.15955023       0.20110150 </v>
   <v>       0.98576719       0.99288350       0.36198270 </v>
   <v>       0.23576726       0.74288362       0.00000000 </v>
   <v>       0.90243387       0.57621694       0.16088121 </v>
   <v>       0.56910038       0.40955013       0.32176241 </v>
   <v>       0.23576729       0.24288362       0.00000001 </v>
   <v>       0.90243387       0.07621690       0.16088121 </v>
   <v>       0.56910044       0.90955019       0.32176241 </v>
   <v>       0.73576724       0.74288356       0.00000001 </v>
   <v>       0.40243384       0.57621688       0.16088121 </v>
   <v>       0.06910040       0.40955010       0.32176241 </v>
   <v>       0.73576724       0.24288361       0.00000001 </v>
   <v>       0.40243384       0.07621689       0.16088119 </v>
   <v>       0.06910042       0.90955019       0.32176241 </v>
   <v>       0.40243393       0.57621694       0.04022026 </v>
   <v>       0.06910051       0.40955016       0.20110148 </v>
   <v>       0.73576719       0.24288349       0.36198267 </v>
   <v>       0.40243393       0.07621697       0.04022026 </v>
   <v>       0.06910051       0.90955025       0.20110148 </v>
   <v>       0.73576719       0.74288356       0.36198267 </v>
   <v>       0.90243399       0.57621688       0.04022027 </v>
   <v>       0.56910062       0.40955019       0.20110147 </v>
   <v>       0.23576724       0.24288346       0.36198267 </v>
   <v>       0.90243399       0.07621697       0.04022027 </v>
   <v>       0.56910062       0.90955025       0.20110148 </v>
   <v>       0.23576724       0.74288356       0.36198267 </v>
   <v>       0.23576728       0.49288359       0.00000001 </v>
   <v>       0.90243387       0.32621685       0.16088119 </v>
   <v>       0.56910044       0.15955012       0.32176241 </v>
   <v>       0.23576729       0.99288368       0.00000002 </v>
   <v>       0.90243387       0.82621694       0.16088121 </v>
   <v>       0.56910044       0.65955019       0.32176241 </v>
   <v>       0.73576724       0.49288359       0.00000001 </v>
   <v>       0.40243384       0.32621688       0.16088119 </v>
   <v>       0.06910040       0.15955012       0.32176241 </v>
   <v>       0.73576724       0.99288368       0.00000003 </v>
   <v>       0.40243384       0.82621694       0.16088121 </v>
   <v>       0.06910042       0.65955019       0.32176241 </v>
   <v>       0.40243393       0.82621694       0.04022028 </v>
   <v>       0.06910050       0.65955013       0.20110147 </v>
   <v>       0.73576719       0.49288347       0.36198267 </v>
   <v>       0.40243393       0.32621700       0.04022028 </v>
   <v>       0.06910053       0.15955025       0.20110148 </v>
   <v>       0.73576719       0.99288356       0.36198267 </v>
   <v>       0.90243399       0.82621688       0.04022026 </v>
   <v>       0.56910056       0.65955013       0.20110144 </v>
   <v>       0.23576724       0.49288347       0.36198261 </v>
   <v>       0.90243399       0.32621697       0.04022029 </v>
   <v>       0.56910062       0.15955025       0.20110148 </v>
   <v>       0.23576724       0.99288356       0.36198267 </v>
   <v>       0.98576731       0.74288362       0.00000001 </v>
   <v>       0.65243393       0.57621688       0.16088124 </v>
   <v>       0.31910050       0.40955016       0.32176238 </v>
   <v>       0.98576731       0.24288362       0.00000001 </v>
   <v>       0.65243387       0.07621688       0.16088121 </v>
   <v>       0.31910050       0.90955019       0.32176241 </v>
   <v>       0.48576724       0.74288362       0.00000000 </v>
   <v>       0.15243384       0.57621694       0.16088121 </v>
   <v>       0.81910044       0.40955010       0.32176241 </v>
   <v>       0.48576724       0.24288362       0.00000002 </v>
   <v>       0.15243384       0.07621690       0.16088121 </v>
   <v>       0.81910044       0.90955019       0.32176241 </v>
   <v>       0.15243398       0.57621694       0.04022032 </v>
   <v>       0.81910062       0.40955022       0.20110148 </v>
   <v>       0.48576724       0.24288355       0.36198270 </v>
   <v>       0.15243398       0.07621698       0.04022032 </v>
   <v>       0.81910062       0.90955031       0.20110150 </v>
   <v>       0.48576724       0.74288356       0.36198270 </v>
   <v>       0.65243399       0.57621694       0.04022032 </v>
   <v>       0.31910062       0.40955022       0.20110150 </v>
   <v>       0.98576724       0.24288352       0.36198270 </v>
   <v>       0.65243399       0.07621699       0.04022031 </v>
   <v>       0.31910062       0.90955031       0.20110150 </v>
   <v>       0.98576724       0.74288356       0.36198270 </v>
   <v>       0.82389939       0.32687458       0.47340384 </v>
   <v>       0.82389939       0.66020799       0.65792614 </v>
   <v>       0.82389939       0.99354136       0.84244847 </v>
   <v>       0.15723276       0.99354130       0.47340381 </v>
   <v>       0.15723276       0.32687473       0.65792614 </v>
   <v>       0.15723276       0.66020811       0.84244835 </v>
   <v>       0.49056613       0.66020799       0.47340384 </v>
   <v>       0.49056613       0.99354136       0.65792614 </v>
   <v>       0.49056613       0.32687473       0.84244835 </v>
   <v>       0.82389939       0.66020799       0.51953441 </v>
   <v>       0.82389939       0.99354130       0.70405674 </v>
   <v>       0.82389939       0.32687461       0.88857901 </v>
   <v>       0.15723276       0.32687461       0.51953441 </v>
   <v>       0.15723276       0.66020799       0.70405674 </v>
   <v>       0.15723276       0.99354148       0.88857901 </v>
   <v>       0.49056613       0.99354136       0.51953441 </v>
   <v>       0.49056613       0.32687473       0.70405674 </v>
   <v>       0.49056613       0.66020799       0.88857901 </v>
   <v>       0.99056607       0.66020799       0.47340384 </v>
   <v>       0.99056607       0.99354136       0.65792614 </v>
   <v>       0.99056607       0.32687473       0.84244847 </v>
   <v>       0.32389939       0.32687458       0.47340384 </v>
   <v>       0.32389939       0.66020799       0.65792614 </v>
   <v>       0.32389939       0.99354142       0.84244847 </v>
   <v>       0.65723276       0.99354130       0.47340381 </v>
   <v>       0.65723276       0.32687473       0.65792608 </v>
   <v>       0.65723276       0.66020811       0.84244847 </v>
   <v>       0.99056607       0.99354136       0.51953435 </v>
   <v>       0.99056607       0.32687473       0.70405668 </v>
   <v>       0.99056613       0.66020822       0.88857901 </v>
   <v>       0.32389951       0.66020799       0.51953435 </v>
   <v>       0.32389951       0.99354136       0.70405674 </v>
   <v>       0.32389951       0.32687473       0.88857901 </v>
   <v>       0.65723276       0.32687461       0.51953435 </v>
   <v>       0.65723276       0.66020799       0.70405668 </v>
   <v>       0.65723276       0.99354136       0.88857901 </v>
   <v>       0.82389939       0.82687461       0.47340384 </v>
   <v>       0.82389939       0.16020799       0.65792608 </v>
   <v>       0.82389939       0.49354136       0.84244847 </v>
   <v>       0.15723276       0.49354124       0.47340384 </v>
   <v>       0.15723276       0.82687467       0.65792614 </v>
   <v>       0.15723276       0.16020799       0.84244847 </v>
   <v>       0.49056613       0.16020799       0.47340381 </v>
   <v>       0.49056613       0.49354136       0.65792608 </v>
   <v>       0.49056625       0.82687485       0.84244847 </v>
   <v>       0.82389939       0.16020799       0.51953435 </v>
   <v>       0.82389939       0.49354136       0.70405668 </v>
   <v>       0.82389939       0.82687485       0.88857901 </v>
   <v>       0.15723276       0.82687461       0.51953435 </v>
   <v>       0.15723276       0.16020799       0.70405668 </v>
   <v>       0.15723276       0.49354148       0.88857901 </v>
   <v>       0.49056613       0.49354121       0.51953435 </v>
   <v>       0.49056613       0.82687461       0.70405674 </v>
   <v>       0.49056613       0.16020799       0.88857901 </v>
   <v>       0.99056607       0.16020799       0.47340384 </v>
   <v>       0.99056607       0.49354124       0.65792608 </v>
   <v>       0.99056607       0.82687473       0.84244835 </v>
   <v>       0.32389939       0.82687461       0.47340381 </v>
   <v>       0.32389939       0.16020799       0.65792614 </v>
   <v>       0.32389951       0.49354136       0.84244835 </v>
   <v>       0.65723276       0.49354127       0.47340384 </v>
   <v>       0.65723276       0.82687467       0.65792614 </v>
   <v>       0.65723276       0.16020811       0.84244835 </v>
   <v>       0.99056607       0.49354118       0.51953441 </v>
   <v>       0.99056607       0.82687455       0.70405674 </v>
   <v>       0.99056607       0.16020799       0.88857901 </v>
   <v>       0.32389939       0.16020799       0.51953441 </v>
   <v>       0.32389939       0.49354136       0.70405674 </v>
   <v>       0.32389939       0.82687461       0.88857901 </v>
   <v>       0.65723276       0.82687461       0.51953441 </v>
   <v>       0.65723276       0.16020799       0.70405674 </v>
   <v>       0.65723276       0.49354136       0.88857901 </v>
  </varray>
 </structure>
</modeling>
