Si Bulk DFT energetics calculations using VASP\n
This script is running on comp049.cluster.local in /lustre/home/ah1365/projects/127870/upgrade_report/case_studies/common/structures/interfaces/120_Si72Ge48_011_001_a0.368421_b0.222222_c2.163935_interface6shift1swap8\n
Job started on: Sun  8 Jun 09:15:33 UTC 2025\n
 running   64 mpi-ranks, on    4 nodes
 distrk:  each k-point on   64 cores,    1 groups
 distr:  one band on   16 cores,    4 groups
 vasp.6.4.3 19Mar24 (build Oct 22 2024 11:23:12) complex                        
  
 POSCAR found type information on POSCAR SiGe
 POSCAR found :  2 types and     120 ions
 -----------------------------------------------------------------------------
|                                                                             |
|           W    W    AA    RRRRR   N    N  II  N    N   GGGG   !!!           |
|           W    W   A  A   R    R  NN   N  II  NN   N  G    G  !!!           |
|           W    W  A    A  R    R  N N  N  II  N N  N  G       !!!           |
|           W WW W  AAAAAA  RRRRR   N  N N  II  N  N N  G  GGG   !            |
|           WW  WW  A    A  R   R   N   NN  II  N   NN  G    G                |
|           W    W  A    A  R    R  N    N  II  N    N   GGGG   !!!           |
|                                                                             |
|     You use a magnetic or noncollinear calculation, but did not specify     |
|     the initial magnetic moment with the MAGMOM tag. Note that a            |
|     default of 8.333e-3 will be used for all atoms. This ferromagnetic      |
|     setup may break the symmetry of the crystal, in particular it may       |
|     rule out finding an antiferromagnetic solution. Thence, we              |
|     recommend setting the initial magnetic moment manually or verifying     |
|     carefully that this magnetic setup is desired.                          |
|                                                                             |
 -----------------------------------------------------------------------------

 scaLAPACK will be used
 LDA part: xc-table for (Slater+PW92), standard interpolation
 POSCAR, INCAR and KPOINTS ok, starting setup
 FFT: planning ... GRIDC
 FFT: planning ... GRID_SOFT
 FFT: planning ... GRID
 WAVECAR not read
 entering main loop
       N       E                     dE             d eps       ncg     rms          rms(c)
DAV:   1     0.196604261180E+04    0.19660E+04   -0.21397E+05  6912   0.173E+03
DAV:   2    -0.358682899597E+03   -0.23247E+04   -0.22413E+04  8056   0.215E+02
DAV:   3    -0.576875387463E+03   -0.21819E+03   -0.21153E+03  8576   0.574E+01
DAV:   4    -0.584670011630E+03   -0.77946E+01   -0.76734E+01  8184   0.116E+01
DAV:   5    -0.584956164576E+03   -0.28615E+00   -0.28462E+00  9136   0.223E+00    0.316E+01
DAV:   6    -0.575981801477E+03    0.89744E+01   -0.14452E+01  8320   0.815E+00    0.144E+01
DAV:   7    -0.576212886025E+03   -0.23108E+00   -0.15226E+01  8448   0.920E+00    0.668E+00
DAV:   8    -0.575060273547E+03    0.11526E+01   -0.45533E+00  8432   0.544E+00    0.161E+00
DAV:   9    -0.575131875602E+03   -0.71602E-01   -0.14816E+00  8120   0.178E+00    0.131E+00
DAV:  10    -0.575116115516E+03    0.15760E-01   -0.24779E-01  8280   0.874E-01    0.868E-01
DAV:  11    -0.575112480467E+03    0.36350E-02   -0.79244E-02  8296   0.531E-01    0.574E-01
DAV:  12    -0.575109883007E+03    0.25975E-02   -0.27531E-02  8288   0.322E-01    0.333E-01
DAV:  13    -0.575109608302E+03    0.27470E-03   -0.85783E-03  8016   0.153E-01    0.181E-01
DAV:  14    -0.575109607875E+03    0.42720E-06   -0.27019E-03  7896   0.833E-02    0.960E-02
DAV:  15    -0.575109618729E+03   -0.10854E-04   -0.85015E-04  7976   0.480E-02    0.635E-02
DAV:  16    -0.575109603667E+03    0.15063E-04   -0.32885E-04  7984   0.310E-02    0.392E-02
DAV:  17    -0.575109616916E+03   -0.13249E-04   -0.16442E-04  7832   0.181E-02    0.233E-02
DAV:  18    -0.575109624382E+03   -0.74656E-05   -0.53423E-05  8064   0.103E-02    0.168E-02
DAV:  19    -0.575109630596E+03   -0.62147E-05   -0.21839E-05  8016   0.596E-03    0.124E-02
DAV:  20    -0.575109635238E+03   -0.46417E-05   -0.11828E-05  8352   0.432E-03    0.761E-03
DAV:  21    -0.575109639436E+03   -0.41981E-05   -0.98694E-06  8128   0.353E-03    0.510E-03
DAV:  22    -0.575109642047E+03   -0.26111E-05   -0.58463E-06  8464   0.259E-03    0.408E-03
DAV:  23    -0.575109644672E+03   -0.26247E-05   -0.10720E-05  8088   0.339E-03    0.338E-03
DAV:  24    -0.575109645944E+03   -0.12718E-05   -0.88265E-06  8360   0.301E-03    0.279E-03
DAV:  25    -0.575109646427E+03   -0.48370E-06   -0.33258E-06  8592   0.186E-03    0.232E-03
DAV:  26    -0.575109646944E+03   -0.51626E-06   -0.26007E-06  8208   0.157E-03    0.189E-03
DAV:  27    -0.575109647307E+03   -0.36332E-06   -0.28368E-06  8168   0.165E-03    0.149E-03
DAV:  28    -0.575109647541E+03   -0.23415E-06   -0.41449E-06  8208   0.202E-03    0.139E-03
DAV:  29    -0.575109647815E+03   -0.27430E-06   -0.50065E-06  8208   0.217E-03    0.127E-03
DAV:  30    -0.575109648113E+03   -0.29729E-06   -0.23332E-06  8544   0.150E-03    0.801E-04
DAV:  31    -0.575109648235E+03   -0.12227E-06   -0.20849E-07  4888   0.545E-04    0.602E-04
DAV:  32    -0.575109648272E+03   -0.37584E-07   -0.74720E-08  4040   0.327E-04
   1 F= -.57510965E+03 E0= -.57510825E+03  d E =-.280393E-02  mag=     1.0000
Job ended on: Sun  8 Jun 09:29:14 UTC 2025\n
