Si and Ge interface calculation         
           1
     7.680594    0.000000    0.000000
     0.000000   16.292999    0.000000
     0.000000    0.000000   20.804140
   Si   Ge
    72    48
Direct configuration=     1
   0.35116360  0.19633603  0.90071338
   0.85116369  0.94633603  0.90071338
   0.47851718  0.65234476  0.18459295
   0.22851723  0.48567814  0.27688938
   0.10116363  0.44633609  0.56076908
   0.72851718  0.15234470  0.46148235
   0.35116360  0.44633609  0.90071338
   0.72851723  0.15234485  0.09229647
   0.47851718  0.98567814  0.18459295
   0.22851723  0.81901151  0.27688938
   0.97851718  0.65234476  0.36918586
   0.72851718  0.48567808  0.46148235
   0.85116363  0.44633609  0.90071338
   0.72851723  0.48567820  0.09229647
   0.47851718  0.31901151  0.18459295
   0.35116360  0.69633603  0.62875789
   0.97851718  0.98567814  0.36918586
   0.60116357  0.44633606  0.56076908
   0.47851729  0.98567820  0.00000000
   0.22851725  0.81901145  0.09229647
   0.10116363  0.19633615  0.83272451
   0.72851729  0.48567814  0.27688935
   0.47851718  0.31901139  0.36918586
   0.10116363  0.94633609  0.56076908
   0.35116357  0.94633603  0.90071338
   0.22851725  0.15234485  0.09229647
   0.97851723  0.98567814  0.18459295
   0.72851729  0.81901151  0.27688935
   0.47851718  0.65234476  0.36918586
   0.60116363  0.69633609  0.56076908
   0.47851729  0.65234494  0.00000000
   0.22851725  0.48567820  0.09229647
   0.97851723  0.31901151  0.18459295
   0.72851729  0.15234487  0.27688935
   0.47851718  0.98567814  0.36918586
   0.60116363  0.94633603  0.56076908
   0.72851735  0.23567820  0.00000000
   0.47851729  0.06901149  0.09229647
   0.22851726  0.90234476  0.18459295
   0.97851729  0.73567814  0.27688938
   0.72851723  0.56901145  0.36918586
   0.47851723  0.40234464  0.46148229
   0.72851735  0.56901163  0.00000000
   0.47851729  0.40234488  0.09229647
   0.22851726  0.23567820  0.18459295
   0.97851729  0.06901154  0.27688938
   0.72851723  0.90234482  0.36918586
   0.47851723  0.73567808  0.46148229
   0.72851735  0.90234494  0.00000000
   0.47851729  0.73567820  0.09229647
   0.22851726  0.56901151  0.18459295
   0.97851729  0.40234485  0.27688938
   0.72851723  0.23567812  0.36918586
   0.47851723  0.06901138  0.46148229
   0.22851729  0.23567820  0.00000000
   0.97851723  0.06901149  0.09229647
   0.72851718  0.90234476  0.18459295
   0.47851729  0.73567814  0.27688935
   0.22851718  0.56901145  0.36918586
   0.97851706  0.40234464  0.46148235
   0.22851729  0.56901163  0.00000000
   0.97851723  0.40234488  0.09229647
   0.72851718  0.23567820  0.18459295
   0.47851729  0.06901154  0.27688935
   0.22851718  0.90234482  0.36918586
   0.97851706  0.73567808  0.46148235
   0.22851729  0.90234494  0.00000000
   0.97851723  0.73567820  0.09229647
   0.72851718  0.56901151  0.18459295
   0.47851729  0.40234485  0.27688935
   0.22851718  0.23567812  0.36918586
   0.97851706  0.06901138  0.46148235
   0.10116363  0.69633603  0.56076908
   0.85116369  0.32133609  0.69674677
   0.60116369  0.94633615  0.83272451
   0.22851712  0.81901139  0.46148235
   0.35116363  0.57133609  0.69674677
   0.97851723  0.65234476  0.18459295
   0.10116363  0.19633615  0.56076908
   0.85116369  0.82133615  0.69674677
   0.60116369  0.44633609  0.83272451
   0.72851718  0.81901139  0.46148235
   0.35116363  0.07133615  0.69674677
   0.10116363  0.69633609  0.83272451
   0.22851723  0.15234487  0.27688938
   0.10116363  0.32133609  0.76473570
   0.72851723  0.81901145  0.09229647
   0.85116363  0.94633603  0.62875789
   0.60116363  0.57133609  0.76473570
   0.97851729  0.98567820  0.00000000
   0.35116366  0.19633615  0.62875789
   0.10116363  0.82133615  0.76473570
   0.97851729  0.65234494  0.00000000
   0.85116357  0.44633606  0.62875789
   0.60116363  0.07133615  0.76473570
   0.35116363  0.69633609  0.90071338
   0.22851712  0.15234470  0.46148235
   0.85116375  0.57133615  0.69674677
   0.60116369  0.19633615  0.83272451
   0.97851718  0.31901139  0.36918586
   0.85116369  0.07133615  0.69674677
   0.60116369  0.69633609  0.83272451
   0.22851712  0.48567808  0.46148235
   0.35116366  0.32133615  0.69674677
   0.10116363  0.94633615  0.83272451
   0.60116363  0.19633615  0.56076908
   0.35116363  0.82133609  0.69674677
   0.10116363  0.44633615  0.83272451
   0.35116369  0.94633609  0.62875789
   0.10116363  0.57133615  0.76473570
   0.85116363  0.19633615  0.90071338
   0.35116363  0.44633609  0.62875789
   0.10116363  0.07133615  0.76473570
   0.85116363  0.69633609  0.90071338
   0.85116363  0.69633603  0.62875789
   0.60116363  0.32133606  0.76473570
   0.47851729  0.31901154  0.00000000
   0.85116363  0.19633615  0.62875789
   0.60116363  0.82133615  0.76473570
   0.97851729  0.31901154  0.00000000
