 vasp.6.4.3 19Mar24 (build Oct 22 2024 11:23:12) complex                        
  
 executed on             LinuxIFC date 2025.04.30  09:59:57
 running   16 mpi-ranks, on    1 nodes
 distrk:  each k-point on   16 cores,    1 groups
 distr:  one band on NCORE=  16 cores,    1 groups


--------------------------------------------------------------------------------------------------------


 INCAR:
   SYSTEM = Si011 and Ge011 interface calculation
   ISTART = 0
   ICHARG = 2
   LWAVE = .FALSE.
   LREAL = AUTO
   ENCUT = 700
   ENAUG = 900
   ADDGRID = .TRUE.
   LMAXMIX = 6
   LASPH = .TRUE.
   LMIXTAU = .TRUE.
   NCORE = 16
   NELM = 100
   NBANDS = 116
   EDIFF = 1d-7
   AMIX = 0.6
   ISMEAR = 0
   SIGMA = 0.01
   NELECT = 192
   ISPIN = 2
   NUPDOWN = 1
   LVTOT = .FALSE.
   LVHAR = .TRUE.

 POTCAR:    PAW_PBE Si 05Jan2001                  
 POTCAR:    PAW_PBE Ge 05Jan2001                  
 -----------------------------------------------------------------------------
|                                                                             |
|           W    W    AA    RRRRR   N    N  II  N    N   GGGG   !!!           |
|           W    W   A  A   R    R  NN   N  II  NN   N  G    G  !!!           |
|           W    W  A    A  R    R  N N  N  II  N N  N  G       !!!           |
|           W WW W  AAAAAA  RRRRR   N  N N  II  N  N N  G  GGG   !            |
|           WW  WW  A    A  R   R   N   NN  II  N   NN  G    G                |
|           W    W  A    A  R    R  N    N  II  N    N   GGGG   !!!           |
|                                                                             |
|     You use a magnetic or noncollinear calculation, but did not specify     |
|     the initial magnetic moment with the MAGMOM tag. Note that a            |
|     default of 0.021 will be used for all atoms. This ferromagnetic         |
|     setup may break the symmetry of the crystal, in particular it may       |
|     rule out finding an antiferromagnetic solution. Thence, we              |
|     recommend setting the initial magnetic moment manually or verifying     |
|     carefully that this magnetic setup is desired.                          |
|                                                                             |
 -----------------------------------------------------------------------------

 -----------------------------------------------------------------------------
|                                                                             |
|           W    W    AA    RRRRR   N    N  II  N    N   GGGG   !!!           |
|           W    W   A  A   R    R  NN   N  II  NN   N  G    G  !!!           |
|           W    W  A    A  R    R  N N  N  II  N N  N  G       !!!           |
|           W WW W  AAAAAA  RRRRR   N  N N  II  N  N N  G  GGG   !            |
|           WW  WW  A    A  R   R   N   NN  II  N   NN  G    G                |
|           W    W  A    A  R    R  N    N  II  N    N   GGGG   !!!           |
|                                                                             |
|     For optimal performance we recommend to set                             |
|       NCORE = 2 up to number-of-cores-per-socket                            |
|     NCORE specifies how many cores store one orbital (NPAR=cpu/NCORE).      |
|     This setting can greatly improve the performance of VASP for DFT.       |
|     The default, NCORE=1 might be grossly inefficient on modern             |
|     multi-core architectures or massively parallel machines. Do your        |
|     own testing! More info at https://www.vasp.at/wiki/index.php/NCORE      |
|     Unfortunately you need to use the default for GW and RPA                |
|     calculations (for HF NCORE is supported but not extensively tested      |
|     yet).                                                                   |
|                                                                             |
 -----------------------------------------------------------------------------

 POTCAR:    PAW_PBE Si 05Jan2001                  
   VRHFIN =Si: s2p2                                                                                 
   LEXCH  = PE                                                                                      
   EATOM  =   103.0669 eV,    7.5752 Ry                                                             
                                                                                                    
   TITEL  = PAW_PBE Si 05Jan2001                                                                    
   LULTRA =        F    use ultrasoft PP ?                                                          
   IUNSCR =        1    unscreen: 0-lin 1-nonlin 2-no                                               
   RPACOR =    1.500    partial core radius                                                         
   POMASS =   28.085; ZVAL   =    4.000    mass and valenz                                          
   RCORE  =    1.900    outmost cutoff radius                                                       
   RWIGS  =    2.480; RWIGS  =    1.312    wigner-seitz radius (au A)                               
   ENMAX  =  245.345; ENMIN  =  184.009 eV                                                          
   ICORE  =        2    local potential                                                             
   LCOR   =        T    correct aug charges                                                         
   LPAW   =        T    paw PP                                                                      
   EAUG   =  322.069                                                                                
   DEXC   =    0.000                                                                                
   RMAX   =    1.950    core radius for proj-oper                                                   
   RAUG   =    1.300    factor for augmentation sphere                                              
   RDEP   =    1.993    radius for radial grids                                                     
   RDEPT  =    1.837    core radius for aug-charge                                                  
                                                                                                    
   Atomic configuration                                                                             
    6 entries                                                                                       
     n  l   j            E        occ.                                                              
     1  0  0.50     -1785.8828   2.0000                                                             
     2  0  0.50      -139.4969   2.0000                                                             
     2  1  1.50       -95.5546   6.0000                                                             
     3  0  0.50       -10.8127   2.0000                                                             
     3  1  0.50        -4.0811   2.0000                                                             
     3  2  1.50        -4.0817   0.0000                                                             
   Description                                                                                      
     l       E           TYP  RCUT    TYP  RCUT                                                     
     0    -10.8127223     23  1.900                                                                 
     0     -7.6451159     23  1.900                                                                 
     1     -4.0811372     23  1.900                                                                 
     1      2.4879257     23  1.900                                                                 
     2     -4.0817478      7  1.900                                                                 
  local pseudopotential read in
  partial core-charges read in
  partial kinetic energy density read in
  atomic valenz-charges read in
  non local Contribution for L=           0  read in
    real space projection operators read in
  non local Contribution for L=           0  read in
    real space projection operators read in
  non local Contribution for L=           1  read in
    real space projection operators read in
  non local Contribution for L=           1  read in
    real space projection operators read in
    PAW grid and wavefunctions read in
 
   number of l-projection  operators is LMAX  =           4
   number of lm-projection operators is LMMAX =           8
 
 POTCAR:    PAW_PBE Ge 05Jan2001                  
   VRHFIN =Ge: s2p2                                                                                 
   LEXCH  = PE                                                                                      
   EATOM  =   104.9960 eV,    7.7170 Ry                                                             
                                                                                                    
   TITEL  = PAW_PBE Ge 05Jan2001                                                                    
   LULTRA =        F    use ultrasoft PP ?                                                          
   IUNSCR =        1    unscreen: 0-lin 1-nonlin 2-no                                               
   RPACOR =    2.170    partial core radius                                                         
   POMASS =   72.610; ZVAL   =    4.000    mass and valenz                                          
   RCORE  =    2.300    outmost cutoff radius                                                       
   RWIGS  =    2.300; RWIGS  =    1.217    wigner-seitz radius (au A)                               
   ENMAX  =  173.807; ENMIN  =  130.355 eV                                                          
   ICORE  =        3    local potential                                                             
   LCOR   =        T    correct aug charges                                                         
   LPAW   =        T    paw PP                                                                      
   EAUG   =  385.843                                                                                
   DEXC   =    0.000                                                                                
   RMAX   =    2.342    core radius for proj-oper                                                   
   RAUG   =    1.300    factor for augmentation sphere                                              
   RDEP   =    2.318    radius for radial grids                                                     
   RDEPT  =    2.103    core radius for aug-charge                                                  
                                                                                                    
   Atomic configuration                                                                             
   10 entries                                                                                       
     n  l   j            E        occ.                                                              
     1  0  0.50    -10959.8463   2.0000                                                             
     2  0  0.50     -1371.6056   2.0000                                                             
     2  1  1.50     -1198.4791   6.0000                                                             
     3  0  0.50      -168.4733   2.0000                                                             
     3  1  1.50      -115.6019   6.0000                                                             
     3  2  2.50       -29.3106  10.0000                                                             
     4  0  0.50       -11.7309   2.0000                                                             
     4  1  0.50        -3.8952   2.0000                                                             
     4  2  1.50        -4.0817   0.0000                                                             
     4  3  2.50        -4.0817   0.0000                                                             
   Description                                                                                      
     l       E           TYP  RCUT    TYP  RCUT                                                     
     0    -11.7309493     23  2.300                                                                 
     0     -7.4578696     23  2.300                                                                 
     1     -3.8952261     23  2.300                                                                 
     1      6.1178114     23  2.300                                                                 
     2     -4.0817478     23  2.300                                                                 
     3     -1.3605826      7  2.300                                                                 
  local pseudopotential read in
  partial core-charges read in
  partial kinetic energy density read in
  atomic valenz-charges read in
  non local Contribution for L=           0  read in
    real space projection operators read in
  non local Contribution for L=           0  read in
    real space projection operators read in
  non local Contribution for L=           1  read in
    real space projection operators read in
  non local Contribution for L=           1  read in
    real space projection operators read in
  non local Contribution for L=           2  read in
    real space projection operators read in
    PAW grid and wavefunctions read in
 
   number of l-projection  operators is LMAX  =           5
   number of lm-projection operators is LMMAX =          13
 
 Optimization of the real space projectors (new method)

 maximal supplied QI-value         = 19.84
 optimisation between [QCUT,QGAM] = [ 13.49, 26.99] = [ 50.98,203.92] Ry 
 Optimized for a Real-space Cutoff    1.07 Angstroem

   l    n(q)    QCUT    max X(q) W(low)/X(q) W(high)/X(q)  e(spline) 
   0      9    13.493   159.560    0.22E-03    0.15E-03    0.72E-07
   0      9    13.493   115.863    0.21E-03    0.15E-03    0.71E-07
   1      8    13.493    88.339    0.15E-03    0.11E-03    0.13E-06
   1      8    13.493    48.592    0.15E-03    0.10E-03    0.13E-06
 Optimization of the real space projectors (new method)

 maximal supplied QI-value         = 16.25
 optimisation between [QCUT,QGAM] = [ 13.49, 26.98] = [ 50.95,203.80] Ry 
 Optimized for a Real-space Cutoff    1.25 Angstroem

   l    n(q)    QCUT    max X(q) W(low)/X(q) W(high)/X(q)  e(spline) 
   0     10    13.489    65.336    0.91E-04    0.11E-03    0.34E-06
   0     10    13.489    52.220    0.89E-04    0.11E-03    0.34E-06
   1     10    13.489    36.409    0.22E-03    0.27E-03    0.14E-06
   1     10    13.489    21.334    0.21E-03    0.27E-03    0.14E-06
   2      9    13.489     4.673    0.11E-03    0.12E-03    0.19E-06
  PAW_PBE Si 05Jan2001                  :
 energy of atom  1       EATOM= -103.0669
 kinetic energy error for atom=    0.0003 (will be added to EATOM!!)
  PAW_PBE Ge 05Jan2001                  :
 energy of atom  2       EATOM= -104.9960
 kinetic energy error for atom=    0.0001 (will be added to EATOM!!)
 
 
 POSCAR: fcc Si+fcc Ge
  positions in direct lattice
  No initial velocities read in


 exchange-correlation table for PE
   RHO(1)=    0.500       N(1)  =     2000
   RHO(2)=  100.500       N(2)  =     4000
 


--------------------------------------------------------------------------------------------------------


 ion  position               nearest neighbor table
   1  0.861  0.021  0.905-  30 2.37  36 2.37  29 2.43  42 2.47  13 2.95
   2  0.250  0.750  0.080-  48 2.37  14 2.37  20 2.37  15 2.37
   3  0.500  0.500  0.160-  16 2.37  15 2.37  21 2.37  20 2.37
   4  0.750  0.250  0.239-  21 2.37  16 2.37  22 2.37  17 2.37
   5  0.000  0.000  0.319-  18 2.37  17 2.37  23 2.37  22 2.37
   6  0.111  0.771  0.493-  25 2.37  31 2.37  32 2.43  37 2.47  18 2.95
   7  0.500  0.500  0.000-  20 2.37  48 2.37  13 2.37  19 2.47
   8  0.750  0.250  0.080-  13 2.37  20 2.37  14 2.37  21 2.37
   9  0.000  0.000  0.160-  22 2.37  21 2.37  15 2.37  14 2.37
  10  0.250  0.750  0.239-  15 2.37  22 2.37  16 2.37  23 2.37
  11  0.500  0.500  0.319-  43 2.37  23 2.37  17 2.37  16 2.37
  12  0.750  0.250  0.399-  17 2.37  43 2.37  18 2.37  24 2.47
  13  0.000  0.250  0.000-   8 2.37   7 2.37  42 2.37  30 2.47   1 2.95
  14  0.250  0.000  0.080-  42 2.37   8 2.37   2 2.37   9 2.37
  15  0.500  0.750  0.160-  10 2.37   9 2.37   3 2.37   2 2.37
  16  0.750  0.500  0.239-   3 2.37   4 2.37  10 2.37  11 2.37
  17  0.000  0.250  0.319-  12 2.37  11 2.37   5 2.37   4 2.37
  18  0.250  0.000  0.399-   5 2.37  12 2.37  37 2.37  25 2.47   6 2.95
  19  0.361  0.521  0.905-  36 2.37  30 2.37  35 2.43   7 2.47  48 2.95
  20  0.750  0.500  0.080-   7 2.37   2 2.37   8 2.37   3 2.37
  21  0.000  0.250  0.160-   4 2.37   3 2.37   9 2.37   8 2.37
  22  0.250  0.000  0.239-   9 2.37   4 2.37  10 2.37   5 2.37
  23  0.500  0.750  0.319-  37 2.37  11 2.37   5 2.37  10 2.37
  24  0.611  0.271  0.493-  31 2.37  25 2.37  26 2.43  12 2.47  43 2.95
  25  0.111  0.021  0.493-   6 2.37  24 2.37  38 2.43  18 2.47
  26  0.861  0.271  0.576-  38 2.37  44 2.37  39 2.43  24 2.43
  27  0.611  0.521  0.658-  39 2.37  45 2.37  44 2.43  40 2.43
  28  0.361  0.771  0.741-  40 2.37  46 2.37  41 2.43  45 2.43
  29  0.111  0.021  0.823-  41 2.37  47 2.37  46 2.43   1 2.43
  30  0.861  0.271  0.905-   1 2.37  19 2.37  47 2.43  13 2.47
  31  0.611  0.521  0.493-   6 2.37  24 2.37  44 2.43  43 2.47
  32  0.361  0.771  0.576-  38 2.37  44 2.37   6 2.43  45 2.43
  33  0.111  0.021  0.658-  39 2.37  45 2.37  38 2.43  46 2.43
  34  0.861  0.271  0.741-  40 2.37  46 2.37  47 2.43  39 2.43
  35  0.611  0.521  0.823-  41 2.37  47 2.37  19 2.43  40 2.43
  36  0.361  0.771  0.905-   1 2.37  19 2.37  41 2.43  48 2.47
  37  0.250  0.750  0.399-  23 2.37  18 2.37  43 2.37   6 2.47
  38  0.861  0.021  0.576-  26 2.37  32 2.37  33 2.43  25 2.43
  39  0.611  0.271  0.658-  27 2.37  33 2.37  26 2.43  34 2.43
  40  0.361  0.521  0.741-  28 2.37  34 2.37  35 2.43  27 2.43
  41  0.111  0.771  0.823-  29 2.37  35 2.37  36 2.43  28 2.43
  42  0.000  0.000  0.000-  14 2.37  13 2.37  48 2.37   1 2.47
  43  0.750  0.500  0.399-  11 2.37  12 2.37  37 2.37  31 2.47  24 2.95
  44  0.361  0.521  0.576-  32 2.37  26 2.37  27 2.43  31 2.43
  45  0.111  0.771  0.658-  33 2.37  27 2.37  32 2.43  28 2.43
  46  0.861  0.021  0.741-  34 2.37  28 2.37  29 2.43  33 2.43
  47  0.611  0.271  0.823-  35 2.37  29 2.37  30 2.43  34 2.43
  48  0.500  0.750  0.000-   2 2.37   7 2.37  42 2.37  36 2.47  19 2.95
 
  LATTYP: Found a simple orthorhombic cell.
 ALAT       =     5.4800000000
 B/A-ratio  =     1.4142135624
 C/A-ratio  =     4.4330153022
  
  Lattice vectors:
  
 A1 = (   5.4800000000,   0.0000000000,   0.0000000000)
 A2 = (   0.0000000000,   7.7498903220,   0.0000000000)
 A3 = (   0.0000000000,   0.0000000000,  24.2929238560)


Analysis of symmetry for initial positions (statically):
=====================================================================
 Subroutine PRICEL returns:
 Original cell was already a primitive cell.
 

 Routine SETGRP: Setting up the symmetry group for a 
 simple orthorhombic supercell.


 Subroutine GETGRP returns: Found  1 space group operations
 (whereof  1 operations were pure point group operations)
 out of a pool of  8 trial point group operations.


The static configuration has the point symmetry C_1 .


Analysis of symmetry for dynamics (positions and initial velocities):
=====================================================================
 Subroutine PRICEL returns:
 Original cell was already a primitive cell.
 

 Routine SETGRP: Setting up the symmetry group for a 
 simple orthorhombic supercell.


 Subroutine GETGRP returns: Found  1 space group operations
 (whereof  1 operations were pure point group operations)
 out of a pool of  8 trial point group operations.


The dynamic configuration has the point symmetry C_1 .


Analysis of structural, dynamic, and magnetic symmetry:
=====================================================================
 Subroutine PRICEL returns:
 Original cell was already a primitive cell.
 

 Routine SETGRP: Setting up the symmetry group for a 
 simple orthorhombic supercell.


 Subroutine GETGRP returns: Found  1 space group operations
 (whereof  1 operations were pure point group operations)
 out of a pool of  8 trial point group operations.


The overall configuration has the point symmetry C_1 .


 Subroutine INISYM returns: Found  1 space group operations
 (whereof  1 operations are pure point group operations),
 and found     1 'primitive' translations


----------------------------------------------------------------------------------------

                                     Primitive cell                                     

  volume of cell :    1031.7059

  direct lattice vectors                    reciprocal lattice vectors
     5.480000000  0.000000000  0.000000000     0.182481752  0.129034084  0.000000000
    -5.480000000  7.749890322  0.000000000     0.000000000  0.129034084  0.000000000
     0.000000000  0.000000000 24.292923856     0.000000000  0.000000000  0.041164250

  length of vectors
     5.480000000  9.491638426 24.292923856     0.223493590  0.129034084  0.041164250

  position of ions in fractional coordinates (direct lattice)
     0.861111111  0.021276596  0.905322224
     0.250000000  0.750000000  0.079754606
     0.500000000  0.500000000  0.159509213
     0.750000000  0.250000000  0.239263819
     0.000000000  0.000000000  0.319018426
     0.111111111  0.771276596  0.493450808
     0.500000000  0.500000000  0.000000000
     0.750000000  0.250000000  0.079754606
     0.000000000  0.000000000  0.159509213
     0.250000000  0.750000000  0.239263819
     0.500000000  0.500000000  0.319018426
     0.750000000  0.250000000  0.398773032
     1.000000000  0.250000000  0.000000000
     0.250000000  0.000000000  0.079754606
     0.500000000  0.750000000  0.159509213
     0.750000000  0.500000000  0.239263819
     1.000000000  0.250000000  0.319018426
     0.250000000  0.000000000  0.398773032
     0.361111111  0.521276596  0.905322224
     0.750000000  0.500000000  0.079754606
     1.000000000  0.250000000  0.159509213
     0.250000000  0.000000000  0.239263819
     0.500000000  0.750000000  0.319018426
     0.611111111  0.271276596  0.493450808
     0.111111111  0.021276596  0.493450808
     0.861111111  0.271276596  0.575825091
     0.611111111  0.521276596  0.658199374
     0.361111111  0.771276596  0.740573658
     0.111111111  0.021276596  0.822947941
     0.861111111  0.271276596  0.905322224
     0.611111111  0.521276596  0.493450808
     0.361111111  0.771276596  0.575825091
     0.111111111  0.021276596  0.658199374
     0.861111111  0.271276596  0.740573658
     0.611111111  0.521276596  0.822947941
     0.361111111  0.771276596  0.905322224
     0.250000000  0.750000000  0.398773032
     0.861111111  0.021276596  0.575825091
     0.611111111  0.271276596  0.658199374
     0.361111111  0.521276596  0.740573658
     0.111111111  0.771276596  0.822947941
     0.000000000  0.000000000  0.000000000
     0.750000000  0.500000000  0.398773032
     0.361111111  0.521276596  0.575825091
     0.111111111  0.771276596  0.658199374
     0.861111111  0.021276596  0.740573658
     0.611111111  0.271276596  0.822947941
     0.500000000  0.750000000  0.000000000

  ion indices of the primitive-cell ions
   primitive index   ion index
                 1           1
                 2           2
                 3           3
                 4           4
                 5           5
                 6           6
                 7           7
                 8           8
                 9           9
                10          10
                11          11
                12          12
                13          13
                14          14
                15          15
                16          16
                17          17
                18          18
                19          19
                20          20
                21          21
                22          22
                23          23
                24          24
                25          25
                26          26
                27          27
                28          28
                29          29
                30          30
                31          31
                32          32
                33          33
                34          34
                35          35
                36          36
                37          37
                38          38
                39          39
                40          40
                41          41
                42          42
                43          43
                44          44
                45          45
                46          46
                47          47
                48          48

----------------------------------------------------------------------------------------

 
 
 KPOINTS: Automatic KPOINTS generated             

Automatic generation of k-mesh.
 Grid dimensions read from file:
 generate k-points for:    7    4    1

 Generating k-lattice:

  Cartesian coordinates                     Fractional coordinates (reciprocal lattice)
     0.026068822  0.018433441  0.000000000     0.142857143  0.000000000  0.000000000
     0.000000000  0.032258521  0.000000000     0.000000000  0.250000000  0.000000000
     0.000000000  0.000000000  0.041164250     0.000000000  0.000000000  1.000000000

  Length of vectors
     0.031927656  0.032258521  0.041164250

  Shift w.r.t. Gamma in fractional coordinates (k-lattice)
     0.000000000  0.000000000  0.000000000

 -----------------------------------------------------------------------------
|                                                                             |
|           W    W    AA    RRRRR   N    N  II  N    N   GGGG   !!!           |
|           W    W   A  A   R    R  NN   N  II  NN   N  G    G  !!!           |
|           W    W  A    A  R    R  N N  N  II  N N  N  G       !!!           |
|           W WW W  AAAAAA  RRRRR   N  N N  II  N  N N  G  GGG   !            |
|           WW  WW  A    A  R   R   N   NN  II  N   NN  G    G                |
|           W    W  A    A  R    R  N    N  II  N    N   GGGG   !!!           |
|                                                                             |
|     Your reciprocal lattice and k-lattice belong to different lattice       |
|     classes:                                                                |
|                                                                             |
|        The reciprocal lattice is simple orthorhombic,                       |
|        whereas your k-lattice is simple monoclinic.                         |
|                                                                             |
|     Results are often still useful ...                                      |
|                                                                             |
 -----------------------------------------------------------------------------

 WARNING: IBZKPT: internal override: KBLOWUP is changed to .FALSE.
      ... skipping the blow-up phase ...

 
 Subroutine IBZKPT returns following result:
 ===========================================
 
 Found     15 irreducible k-points:
 
 Following reciprocal coordinates:
            Coordinates               Weight
  0.000000  0.000000  0.000000      1.000000
  0.142857  0.000000  0.000000      2.000000
  0.285714  0.000000  0.000000      2.000000
  0.428571  0.000000  0.000000      2.000000
  0.000000  0.250000  0.000000      2.000000
  0.142857  0.250000  0.000000      2.000000
  0.285714  0.250000  0.000000      2.000000
  0.428571  0.250000  0.000000      2.000000
 -0.428571  0.250000  0.000000      2.000000
 -0.285714  0.250000  0.000000      2.000000
 -0.142857  0.250000  0.000000      2.000000
  0.000000  0.500000  0.000000      1.000000
  0.142857  0.500000  0.000000      2.000000
  0.285714  0.500000  0.000000      2.000000
  0.428571  0.500000  0.000000      2.000000
 
 Following cartesian coordinates:
            Coordinates               Weight
  0.000000  0.000000  0.000000      1.000000
  0.026069  0.018433  0.000000      2.000000
  0.052138  0.036867  0.000000      2.000000
  0.078206  0.055300  0.000000      2.000000
  0.000000  0.032259  0.000000      2.000000
  0.026069  0.050692  0.000000      2.000000
  0.052138  0.069125  0.000000      2.000000
  0.078206  0.087559  0.000000      2.000000
 -0.078206 -0.023042  0.000000      2.000000
 -0.052138 -0.004608  0.000000      2.000000
 -0.026069  0.013825  0.000000      2.000000
  0.000000  0.064517  0.000000      1.000000
  0.026069  0.082950  0.000000      2.000000
  0.052138  0.101384  0.000000      2.000000
  0.078206  0.119817  0.000000      2.000000
 


--------------------------------------------------------------------------------------------------------




 Dimension of arrays:
   k-points           NKPTS =     15   k-points in BZ     NKDIM =     15   number of bands    NBANDS=    116
   number of dos      NEDOS =    301   number of ions     NIONS =     48
   non local maximal  LDIM  =      5   non local SUM 2l+1 LMDIM =     13
   total plane-waves  NPLWV = 368640
   max r-space proj   IRMAX =   2945   max aug-charges    IRDMAX= 155541
   dimension x,y,z NGX =    36 NGY =   64 NGZ =  160
   dimension x,y,z NGXF=    72 NGYF=  128 NGZF=  320
   support grid    NGXF=   144 NGYF=  256 NGZF=  640
   ions per type =              24  24
   NGX,Y,Z   is equivalent  to a cutoff of  10.92, 11.21, 10.95 a.u.
   NGXF,Y,Z  is equivalent  to a cutoff of  21.84, 22.42, 21.90 a.u.

 SYSTEM =  Si011 and Ge011 interface calculation   
 POSCAR =  fcc Si+fcc Ge                           

 Startparameter for this run:
   NWRITE =      2    write-flag & timer
   PREC   = normal    normal or accurate (medium, high low for compatibility)
   ISTART =      0    job   : 0-new  1-cont  2-samecut
   ICHARG =      2    charge: 1-file 2-atom 10-const
   ISPIN  =      2    spin polarized calculation?
   LNONCOLLINEAR =      F non collinear calculations
   LSORBIT =      F    spin-orbit coupling
   INIWAV =      1    electr: 0-lowe 1-rand  2-diag
   LASPH  =      T    aspherical Exc in radial PAW
 Electronic Relaxation 1
   ENCUT  =  700.0 eV  51.45 Ry    7.17 a.u.  11.82 20.48 52.41*2*pi/ulx,y,z
   ENINI  =  700.0     initial cutoff
   ENAUG  =  900.0 eV  augmentation charge cutoff
   NELM   =    100;   NELMIN=  2; NELMDL= -5     # of ELM steps 
   EDIFF  = 0.1E-06   stopping-criterion for ELM
   LREAL  =      T    real-space projection
   NLSPLINE    = F    spline interpolate recip. space projectors
   LCOMPAT=      F    compatible to vasp.4.4
   GGA_COMPAT  = T    GGA compatible to vasp.4.4-vasp.4.6
   LMAXPAW     = -100 max onsite density
   LMAXMIX     =    6 max onsite mixed and CHGCAR
   VOSKOWN=      0    Vosko Wilk Nusair interpolation
   ROPT   =   -0.00050  -0.00050
 Ionic relaxation
   EDIFFG = 0.1E-05   stopping-criterion for IOM
   NSW    =      0    number of steps for IOM
   NBLOCK =      1;   KBLOCK =      1    inner block; outer block 
   IBRION =     -1    ionic relax: 0-MD 1-quasi-New 2-CG
   NFREE  =      0    steps in history (QN), initial steepest desc. (CG)
   ISIF   =      2    stress and relaxation
   IWAVPR =     10    prediction:  0-non 1-charg 2-wave 3-comb
   ISYM   =      2    0-nonsym 1-usesym 2-fastsym
   LCORR  =      T    Harris-Foulkes like correction to forces

   POTIM  = 0.5000    time-step for ionic-motion
   TEIN   =    0.0    initial temperature
   TEBEG  =    0.0;   TEEND  =   0.0 temperature during run
   SMASS  =  -3.00    Nose mass-parameter (am)
   estimated Nose-frequenzy (Omega)   =  0.10E-29 period in steps = 0.13E+47 mass=  -0.686E-27a.u.
   SCALEE = 1.0000    scale energy and forces
   NPACO  =    256;   APACO  = 10.0  distance and # of slots for P.C.
   PSTRESS=    0.0 pullay stress

  Mass of Ions in am
   POMASS =  28.09 72.61
  Ionic Valenz
   ZVAL   =   4.00  4.00
  Atomic Wigner-Seitz radii
   RWIGS  =  -1.00 -1.00
  virtual crystal weights 
   VCA    =   1.00  1.00
   NELECT =     192.0000    total number of electrons
   NUPDOWN=       1.0000    fix difference up-down

 DOS related values:
   EMIN   =  10.00;   EMAX   =-10.00  energy-range for DOS
   EFERMI =   0.00;   METHOD = LEGACY      
   ISMEAR =     0;   SIGMA  =   0.01  broadening in eV -4-tet -1-fermi 0-gaus

 Electronic relaxation 2 (details)
   IALGO  =     38    algorithm
   LDIAG  =      T    sub-space diagonalisation (order eigenvalues)
   LSUBROT=      F    optimize rotation matrix (better conditioning)
   TURBO    =      0    0=normal 1=particle mesh
   IRESTART =      0    0=no restart 2=restart with 2 vectors
   NREBOOT  =      0    no. of reboots
   NMIN     =      0    reboot dimension
   EREF     =   0.00    reference energy to select bands
   IMIX   =      4    mixing-type and parameters
     AMIX     =   0.60;   BMIX     =  1.00
     AMIX_MAG =   2.40;   BMIX_MAG =  1.00
     AMIN     =   0.10
     WC   =   100.;   INIMIX=   1;  MIXPRE=   1;  MAXMIX= -45

 Intra band minimization:
   WEIMIN = 0.0000     energy-eigenvalue tresh-hold
   EBREAK =  0.22E-09  absolut break condition
   DEPER  =   0.30     relativ break condition  

   TIME   =   0.40     timestep for ELM

  volume/ion in A,a.u.               =      21.49       145.05
  Fermi-wavevector in a.u.,A,eV,Ry     =   0.934666  1.766263 11.886066  0.873601
  Thomas-Fermi vector in A             =   2.061495
 
 Write flags
   LWAVE        =      F    write WAVECAR
   LDOWNSAMPLE  =      F    k-point downsampling of WAVECAR
   LCHARG       =      T    write CHGCAR
   LVTOT        =      F    write LOCPOT, total local potential
   LVHAR        =      T    write LOCPOT, Hartree potential only
   WRT_POTENTIAL=  hartree ionic  ! write potential to hdf5 file
   LELF         =      F    write electronic localiz. function (ELF)
   LORBIT       =      0    0 simple, 1 ext, 2 COOP (PROOUT), +10 PAW based schemes


 Dipole corrections
   LMONO      =      F    monopole corrections only (constant potential shift)
   LDIPOL     =      F    correct potential (dipole corrections)
   IDIPOL     =      0    1-x, 2-y, 3-z, 4-all directions 
   EPSILON    =  1.0000000 bulk dielectric constant
   LVACPOTAV  =      F  vacuum potentials using an averaging scheme for the charge density
   VACPOTFLAT =  0.1000000 required flatness to determine vacuum potential
 Exchange correlation treatment:
   GGA     = PE    functional components
   XC_C    = 1    coefficients multiplying the functional components
   LIBXC   =     F    Libxc                    
   VOSKOWN =     0    Vosko Wilk Nusair interpolation
   LHFCALC =     F    Hartree Fock is set to
   LHFONE  =     F    Hartree Fock one center treatment
   AEXX    =    0.0000 exact exchange contribution

 Parameters of functionals:
   PE:
     No parameter
 
 Van der Waals corrections
   IVDW    =     0    specifies the selected vdW correction

 Linear response parameters
   LEPSILON=     F    determine dielectric tensor
   LRPA    =     F    only Hartree local field effects (RPA)
   LNABLA  =     F    use nabla operator in PAW spheres
   LVEL    =     F    velocity operator in full k-point grid
   CSHIFT  =0.1000    complex shift for real part using Kramers Kronig
   OMEGAMAX=  -1.0    maximum frequency
   DEG_THRESHOLD= 0.2000000E-02 threshold for treating states as degnerate
   RTIME   =   -0.100 relaxation time in fs
  (WPLASMAI=    0.000 imaginary part of plasma frequency in eV, 0.658/RTIME)
   DFIELD  = 0.0000000 0.0000000 0.0000000 field for delta impulse in time
 
  Optional k-point grid parameters
   LKPOINTS_OPT  =     F    use optional k-point grid
   KPOINTS_OPT_MODE=     1    mode for optional k-point grid
 
 Orbital magnetization related:
   ORBITALMAG=     F  switch on orbital magnetization
   LCHIMAG   =     F  perturbation theory with respect to B field
   DQ        =  0.001000  dq finite difference perturbation B field
   LLRAUG    =     F  two centre corrections for induced B field
   LBONE     =     F  B-component reconstruction in AE one-centre
   LVGVCALC  =     T  calculate vGv susceptibility
   LVGVAPPL  =     F  apply vGv susceptibility instead of pGv for G=0

 Random number generation:
   RANDOM_GENERATOR = DEFAULT
   PCG_SEED         = not used


--------------------------------------------------------------------------------------------------------


 Static calculation
 charge density and potential will be updated during run
 spin polarized calculation
 Variant of blocked Davidson
 Davidson routine will perform the subspace rotation
 perform sub-space diagonalisation
    after iterative eigenvector-optimisation
 modified Broyden-mixing scheme, WC =      100.0
 initial mixing is a Kerker type mixing with AMIX =  0.6000 and BMIX =      1.0000
 Hartree-type preconditioning will be used
 using additional bands           20
 real space projection scheme for non local part
 use partial core corrections
 calculate Harris-corrections to forces 
   (improved forces if not selfconsistent)
 use gradient corrections 
 use of overlap-Matrix (Vanderbilt PP)
 Gauss-broadening in eV      SIGMA  =   0.01


--------------------------------------------------------------------------------------------------------


  energy-cutoff  :      700.00
  volume of cell :     1031.71
      direct lattice vectors                 reciprocal lattice vectors
     5.480000000  0.000000000  0.000000000     0.182481752  0.129034084  0.000000000
    -5.480000000  7.749890322  0.000000000     0.000000000  0.129034084  0.000000000
     0.000000000  0.000000000 24.292923856     0.000000000  0.000000000  0.041164250

  length of vectors
     5.480000000  9.491638426 24.292923856     0.223493590  0.129034084  0.041164250


 
 k-points in units of 2pi/SCALE and weight: Automatic KPOINTS generated             
   0.00000000  0.00000000  0.00000000       0.036
   0.02606882  0.01843344  0.00000000       0.071
   0.05213764  0.03686688  0.00000000       0.071
   0.07820647  0.05530032  0.00000000       0.071
   0.00000000  0.03225852  0.00000000       0.071
   0.02606882  0.05069196  0.00000000       0.071
   0.05213764  0.06912540  0.00000000       0.071
   0.07820647  0.08755884  0.00000000       0.071
  -0.07820647 -0.02304180  0.00000000       0.071
  -0.05213764 -0.00460836  0.00000000       0.071
  -0.02606882  0.01382508  0.00000000       0.071
   0.00000000  0.06451704  0.00000000       0.036
   0.02606882  0.08295048  0.00000000       0.071
   0.05213764  0.10138392  0.00000000       0.071
   0.07820647  0.11981736  0.00000000       0.071
 
 k-points in reciprocal lattice and weights: Automatic KPOINTS generated             
   0.00000000  0.00000000  0.00000000       0.036
   0.14285714  0.00000000  0.00000000       0.071
   0.28571429  0.00000000  0.00000000       0.071
   0.42857143  0.00000000  0.00000000       0.071
   0.00000000  0.25000000  0.00000000       0.071
   0.14285714  0.25000000  0.00000000       0.071
   0.28571429  0.25000000  0.00000000       0.071
   0.42857143  0.25000000  0.00000000       0.071
  -0.42857143  0.25000000  0.00000000       0.071
  -0.28571429  0.25000000  0.00000000       0.071
  -0.14285714  0.25000000  0.00000000       0.071
   0.00000000  0.50000000  0.00000000       0.036
   0.14285714  0.50000000  0.00000000       0.071
   0.28571429  0.50000000  0.00000000       0.071
   0.42857143  0.50000000  0.00000000       0.071
 
 position of ions in fractional coordinates (direct lattice) 
   0.86111111  0.02127660  0.90532222
   0.25000000  0.75000000  0.07975461
   0.50000000  0.50000000  0.15950921
   0.75000000  0.25000000  0.23926382
   0.00000000  0.00000000  0.31901843
   0.11111111  0.77127660  0.49345081
   0.50000000  0.50000000  0.00000000
   0.75000000  0.25000000  0.07975461
   0.00000000  0.00000000  0.15950921
   0.25000000  0.75000000  0.23926382
   0.50000000  0.50000000  0.31901843
   0.75000000  0.25000000  0.39877303
   0.00000000  0.25000000  0.00000000
   0.25000000  0.00000000  0.07975461
   0.50000000  0.75000000  0.15950921
   0.75000000  0.50000000  0.23926382
   0.00000000  0.25000000  0.31901843
   0.25000000  0.00000000  0.39877303
   0.36111111  0.52127660  0.90532222
   0.75000000  0.50000000  0.07975461
   0.00000000  0.25000000  0.15950921
   0.25000000  0.00000000  0.23926382
   0.50000000  0.75000000  0.31901843
   0.61111111  0.27127660  0.49345081
   0.11111111  0.02127660  0.49345081
   0.86111111  0.27127660  0.57582509
   0.61111111  0.52127660  0.65819937
   0.36111111  0.77127660  0.74057366
   0.11111111  0.02127660  0.82294794
   0.86111111  0.27127660  0.90532222
   0.61111111  0.52127660  0.49345081
   0.36111111  0.77127660  0.57582509
   0.11111111  0.02127660  0.65819937
   0.86111111  0.27127660  0.74057366
   0.61111111  0.52127660  0.82294794
   0.36111111  0.77127660  0.90532222
   0.25000000  0.75000000  0.39877303
   0.86111111  0.02127660  0.57582509
   0.61111111  0.27127660  0.65819937
   0.36111111  0.52127660  0.74057366
   0.11111111  0.77127660  0.82294794
   0.00000000  0.00000000  0.00000000
   0.75000000  0.50000000  0.39877303
   0.36111111  0.52127660  0.57582509
   0.11111111  0.77127660  0.65819937
   0.86111111  0.02127660  0.74057366
   0.61111111  0.27127660  0.82294794
   0.50000000  0.75000000  0.00000000
 
 position of ions in cartesian coordinates  (Angst):
   4.60229314  0.16489129 21.99292385
  -2.74000000  5.81241774  1.93747257
   0.00000000  3.87494516  3.87494517
   2.74000000  1.93747258  5.81241774
   0.00000000  0.00000000  7.74989033
  -3.61770686  5.97730903 11.98736291
   0.00000000  3.87494516  0.00000000
   2.74000000  1.93747258  1.93747257
   0.00000000  0.00000000  3.87494517
  -2.74000000  5.81241774  5.81241774
   0.00000000  3.87494516  7.74989033
   2.74000000  1.93747258  9.68736290
  -1.37000000  1.93747258  0.00000000
   1.37000000  0.00000000  1.93747257
  -1.37000000  5.81241774  3.87494517
   1.37000000  3.87494516  5.81241774
  -1.37000000  1.93747258  7.74989033
   1.37000000  0.00000000  9.68736290
  -0.87770686  4.03983645 21.99292385
   1.37000000  3.87494516  1.93747257
  -1.37000000  1.93747258  3.87494517
   1.37000000  0.00000000  5.81241774
  -1.37000000  5.81241774  7.74989033
   1.86229314  2.10236387 11.98736291
   0.49229314  0.16489129 11.98736291
   3.23229314  2.10236387 13.98847509
   0.49229314  4.03983645 15.98958727
  -2.24770686  5.97730903 17.99069948
   0.49229314  0.16489129 19.99181167
   3.23229314  2.10236387 21.99292385
   0.49229314  4.03983645 11.98736291
  -2.24770686  5.97730903 13.98847509
   0.49229314  0.16489129 15.98958727
   3.23229314  2.10236387 17.99069948
   0.49229314  4.03983645 19.99181167
  -2.24770686  5.97730903 21.99292385
  -2.74000000  5.81241774  9.68736290
   4.60229314  0.16489129 13.98847509
   1.86229314  2.10236387 15.98958727
  -0.87770686  4.03983645 17.99069948
  -3.61770686  5.97730903 19.99181167
   0.00000000  0.00000000  0.00000000
   1.37000000  3.87494516  9.68736290
  -0.87770686  4.03983645 13.98847509
  -3.61770686  5.97730903 15.98958727
   4.60229314  0.16489129 17.99069948
   1.86229314  2.10236387 19.99181167
  -1.37000000  5.81241774  0.00000000
 


--------------------------------------------------------------------------------------------------------


 k-point     1 :   0.0000 0.0000 0.0000  plane waves:   43447
 k-point     2 :   0.1429 0.0000 0.0000  plane waves:   43387
 k-point     3 :   0.2857 0.0000 0.0000  plane waves:   43368
 k-point     4 :   0.4286 0.0000 0.0000  plane waves:   43430
 k-point     5 :   0.0000 0.2500 0.0000  plane waves:   43363
 k-point     6 :   0.1429 0.2500 0.0000  plane waves:   43351
 k-point     7 :   0.2857 0.2500 0.0000  plane waves:   43387
 k-point     8 :   0.4286 0.2500 0.0000  plane waves:   43438
 k-point     9 :  -0.4286 0.2500 0.0000  plane waves:   43393
 k-point    10 :  -0.2857 0.2500 0.0000  plane waves:   43399
 k-point    11 :  -0.1429 0.2500 0.0000  plane waves:   43387
 k-point    12 :   0.0000 0.5000 0.0000  plane waves:   43334
 k-point    13 :   0.1429 0.5000 0.0000  plane waves:   43336
 k-point    14 :   0.2857 0.5000 0.0000  plane waves:   43400
 k-point    15 :   0.4286 0.5000 0.0000  plane waves:   43366

 maximum and minimum number of plane-waves per node :      2742     2689

 maximum number of plane-waves:     43447
 maximum index in each direction: 
   IXMAX=   12   IYMAX=   20   IZMAX=   52
   IXMIN=  -12   IYMIN=  -20   IZMIN=  -52


 real space projection operators:
  total allocation   :       9544.03 KBytes
  max/ min on nodes  :        806.14        517.34


 parallel 3D FFT for wavefunctions:
    minimum data exchange during FFTs selected (reduces bandwidth)
 parallel 3D FFT for charge:
    minimum data exchange during FFTs selected (reduces bandwidth)


 total amount of memory used by VASP MPI-rank0   233711. kBytes
=======================================================================

   base      :      30000. kBytes
   nonlr-proj:       3357. kBytes
   fftplans  :      28146. kBytes
   grid      :      18929. kBytes
   one-center:         48. kBytes
   wavefun   :     153231. kBytes
 
     INWAV:  cpu time      0.0000: real time      0.0002
 Broyden mixing: mesh for mixing (old mesh)
   NGX = 23   NGY = 41   NGZ =105
  (NGX  = 72   NGY  =128   NGZ  =320)
  gives a total of  99015 points

 initial charge density was supplied:
 charge density of overlapping atoms calculated
 number of electron     192.0000000 magnetization       1.0000000
 keeping initial charge density in first step


--------------------------------------------------------------------------------------------------------


 Maximum index for non-local projection operator          396
 Maximum index for augmentation-charges         9583 (set IRDMAX)


--------------------------------------------------------------------------------------------------------


 First call to EWALD:  gamma=   0.175
 Maximum number of real-space cells 6x 3x 1
 Maximum number of reciprocal cells 2x 3x 6

    FEWALD:  cpu time      0.0022: real time      0.0022


--------------------------------------- Ionic step        1  -------------------------------------------




--------------------------------------- Iteration      1(   1)  ---------------------------------------


    POTLOK:  cpu time      0.2682: real time      0.2707
    SETDIJ:  cpu time      1.6422: real time      1.6508
     EDDAV:  cpu time     23.4379: real time     23.6115
       DOS:  cpu time      0.0017: real time      0.0017
    --------------------------------------------
      LOOP:  cpu time     25.3502: real time     25.5348

 eigenvalue-minimisations  :  6960
 total energy-change (2. order) : 0.8136812E+03  (-0.8597024E+04)
 number of electron     192.0000000 magnetization       1.0000000
 augmentation part      192.0000000 magnetization       1.0000000

 Free energy of the ion-electron system (eV)
  ---------------------------------------------------
  alpha Z        PSCENC =       251.00599010
  Ewald energy   TEWEN  =     -5238.14925023
  -Hartree energ DENC   =      -382.76127978
  -exchange      EXHF   =         0.00000000
  -V(xc)+E(xc)   XCENC  =      -403.00844292
  PAW double counting   =      4230.45410297    -3460.51340012
  entropy T*S    EENTRO =        -0.00102553
  eigenvalues    EBANDS =       823.15371971
  atomic energy  EATOM  =      4993.50080470
  Solvation  Ediel_sol  =         0.00000000
  ---------------------------------------------------
  free energy    TOTEN  =       813.68121891 eV

  energy without entropy =      813.68224443  energy(sigma->0) =      813.68173167


--------------------------------------------------------------------------------------------------------




--------------------------------------- Iteration      1(   2)  ---------------------------------------


     EDDAV:  cpu time     26.4650: real time     26.6661
       DOS:  cpu time      0.0016: real time      0.0016
    --------------------------------------------
      LOOP:  cpu time     26.4667: real time     26.6678

 eigenvalue-minimisations  :  8160
 total energy-change (2. order) :-0.9556738E+03  (-0.9206136E+03)
 number of electron     192.0000000 magnetization       1.0000000
 augmentation part      192.0000000 magnetization       1.0000000

 Free energy of the ion-electron system (eV)
  ---------------------------------------------------
  alpha Z        PSCENC =       251.00599010
  Ewald energy   TEWEN  =     -5238.14925023
  -Hartree energ DENC   =      -382.76127978
  -exchange      EXHF   =         0.00000000
  -V(xc)+E(xc)   XCENC  =      -403.00844292
  PAW double counting   =      4230.45410297    -3460.51340012
  entropy T*S    EENTRO =        -0.00048640
  eigenvalues    EBANDS =      -132.52065913
  atomic energy  EATOM  =      4993.50080470
  Solvation  Ediel_sol  =         0.00000000
  ---------------------------------------------------
  free energy    TOTEN  =      -141.99262080 eV

  energy without entropy =     -141.99213440  energy(sigma->0) =     -141.99237760


--------------------------------------------------------------------------------------------------------




--------------------------------------- Iteration      1(   3)  ---------------------------------------


     EDDAV:  cpu time     27.4994: real time     27.7113
       DOS:  cpu time      0.0017: real time      0.0019
    --------------------------------------------
      LOOP:  cpu time     27.5012: real time     27.7132

 eigenvalue-minimisations  :  8552
 total energy-change (2. order) :-0.8731974E+02  (-0.8515341E+02)
 number of electron     192.0000000 magnetization       1.0000000
 augmentation part      192.0000000 magnetization       1.0000000

 Free energy of the ion-electron system (eV)
  ---------------------------------------------------
  alpha Z        PSCENC =       251.00599010
  Ewald energy   TEWEN  =     -5238.14925023
  -Hartree energ DENC   =      -382.76127978
  -exchange      EXHF   =         0.00000000
  -V(xc)+E(xc)   XCENC  =      -403.00844292
  PAW double counting   =      4230.45410297    -3460.51340012
  entropy T*S    EENTRO =        -0.00020285
  eigenvalues    EBANDS =      -219.84067882
  atomic energy  EATOM  =      4993.50080470
  Solvation  Ediel_sol  =         0.00000000
  ---------------------------------------------------
  free energy    TOTEN  =      -229.31235695 eV

  energy without entropy =     -229.31215410  energy(sigma->0) =     -229.31225553


--------------------------------------------------------------------------------------------------------




--------------------------------------- Iteration      1(   4)  ---------------------------------------


     EDDAV:  cpu time     26.8916: real time     27.1004
       DOS:  cpu time      0.0017: real time      0.0017
    --------------------------------------------
      LOOP:  cpu time     26.8933: real time     27.1021

 eigenvalue-minimisations  :  8328
 total energy-change (2. order) :-0.2831722E+01  (-0.2803334E+01)
 number of electron     192.0000000 magnetization       1.0000000
 augmentation part      192.0000000 magnetization       1.0000000

 Free energy of the ion-electron system (eV)
  ---------------------------------------------------
  alpha Z        PSCENC =       251.00599010
  Ewald energy   TEWEN  =     -5238.14925023
  -Hartree energ DENC   =      -382.76127978
  -exchange      EXHF   =         0.00000000
  -V(xc)+E(xc)   XCENC  =      -403.00844292
  PAW double counting   =      4230.45410297    -3460.51340012
  entropy T*S    EENTRO =        -0.00023605
  eigenvalues    EBANDS =      -222.67236812
  atomic energy  EATOM  =      4993.50080470
  Solvation  Ediel_sol  =         0.00000000
  ---------------------------------------------------
  free energy    TOTEN  =      -232.14407944 eV

  energy without entropy =     -232.14384339  energy(sigma->0) =     -232.14396141


--------------------------------------------------------------------------------------------------------




--------------------------------------- Iteration      1(   5)  ---------------------------------------


     EDDAV:  cpu time     28.5990: real time     28.8135
       DOS:  cpu time      0.0016: real time      0.0016
    CHARGE:  cpu time      1.7175: real time      1.7285
    MIXING:  cpu time      0.0094: real time      0.0095
    --------------------------------------------
      LOOP:  cpu time     30.3276: real time     30.5532

 eigenvalue-minimisations  :  9016
 total energy-change (2. order) :-0.9768777E-01  (-0.9744451E-01)
 number of electron     191.9999999 magnetization       1.0000000
 augmentation part      -21.3961175 magnetization      -0.0780570

 Broyden mixing:
  rms(total) = 0.19533E+01    rms(broyden)= 0.19533E+01
  rms(prec ) = 0.20142E+01
  weight for this iteration     100.00

 Free energy of the ion-electron system (eV)
  ---------------------------------------------------
  alpha Z        PSCENC =       251.00599010
  Ewald energy   TEWEN  =     -5238.14925023
  -Hartree energ DENC   =      -382.76127978
  -exchange      EXHF   =         0.00000000
  -V(xc)+E(xc)   XCENC  =      -403.00844292
  PAW double counting   =      4230.45410297    -3460.51340012
  entropy T*S    EENTRO =        -0.00022023
  eigenvalues    EBANDS =      -222.77007171
  atomic energy  EATOM  =      4993.50080470
  Solvation  Ediel_sol  =         0.00000000
  ---------------------------------------------------
  free energy    TOTEN  =      -232.24176721 eV

  energy without entropy =     -232.24154698  energy(sigma->0) =     -232.24165710


--------------------------------------------------------------------------------------------------------




--------------------------------------- Iteration      1(   6)  ---------------------------------------


    POTLOK:  cpu time      0.2658: real time      0.2685
    SETDIJ:  cpu time      1.6392: real time      1.6477
     EDDAV:  cpu time     27.0996: real time     27.3149
       DOS:  cpu time      0.0019: real time      0.0019
    CHARGE:  cpu time      1.7149: real time      1.7259
    MIXING:  cpu time      0.0081: real time      0.0082
    --------------------------------------------
      LOOP:  cpu time     30.7295: real time     30.9672

 eigenvalue-minimisations  :  8408
 total energy-change (2. order) : 0.3492184E+01  (-0.5634951E+00)
 number of electron     191.9999999 magnetization       1.0000000
 augmentation part      -21.2193727 magnetization      -0.0827285

 Broyden mixing:
  rms(total) = 0.89263E+00    rms(broyden)= 0.89263E+00
  rms(prec ) = 0.91826E+00
  weight for this iteration     100.00

 eigenvalues of (default mixing * dielectric matrix)
  average eigenvalue GAMMA=   1.7432
  1.7432

 Free energy of the ion-electron system (eV)
  ---------------------------------------------------
  alpha Z        PSCENC =       251.00599010
  Ewald energy   TEWEN  =     -5238.14925023
  -Hartree energ DENC   =      -434.63162626
  -exchange      EXHF   =         0.00000000
  -V(xc)+E(xc)   XCENC  =      -395.12469612
  PAW double counting   =      8788.70815967    -8022.68876316
  entropy T*S    EENTRO =        -0.00109761
  eigenvalues    EBANDS =      -171.36910416
  atomic energy  EATOM  =      4993.50080470
  Solvation  Ediel_sol  =         0.00000000
  ---------------------------------------------------
  free energy    TOTEN  =      -228.74958307 eV

  energy without entropy =     -228.74848546  energy(sigma->0) =     -228.74903427


--------------------------------------------------------------------------------------------------------




--------------------------------------- Iteration      1(   7)  ---------------------------------------


    POTLOK:  cpu time      0.2642: real time      0.2666
    SETDIJ:  cpu time      1.6465: real time      1.6545
     EDDAV:  cpu time     27.1929: real time     27.4004
       DOS:  cpu time      0.0020: real time      0.0020
    CHARGE:  cpu time      1.7167: real time      1.7273
    MIXING:  cpu time      0.0085: real time      0.0085
    --------------------------------------------
      LOOP:  cpu time     30.8307: real time     31.0594

 eigenvalue-minimisations  :  8440
 total energy-change (2. order) : 0.1415949E+00  (-0.3826688E+00)
 number of electron     191.9999999 magnetization       1.0000000
 augmentation part      -21.1184196 magnetization      -0.0774739

 Broyden mixing:
  rms(total) = 0.27918E+00    rms(broyden)= 0.27918E+00
  rms(prec ) = 0.36414E+00
  weight for this iteration     100.00

 eigenvalues of (default mixing * dielectric matrix)
  average eigenvalue GAMMA=   1.2169
  1.8548  0.5790

 Free energy of the ion-electron system (eV)
  ---------------------------------------------------
  alpha Z        PSCENC =       251.00599010
  Ewald energy   TEWEN  =     -5238.14925023
  -Hartree energ DENC   =      -468.11535183
  -exchange      EXHF   =         0.00000000
  -V(xc)+E(xc)   XCENC  =      -389.08226380
  PAW double counting   =     13966.36600403   -13203.17470116
  entropy T*S    EENTRO =        -0.00071890
  eigenvalues    EBANDS =      -140.95850111
  atomic energy  EATOM  =      4993.50080470
  Solvation  Ediel_sol  =         0.00000000
  ---------------------------------------------------
  free energy    TOTEN  =      -228.60798819 eV

  energy without entropy =     -228.60726929  energy(sigma->0) =     -228.60762874


--------------------------------------------------------------------------------------------------------




--------------------------------------- Iteration      1(   8)  ---------------------------------------


    POTLOK:  cpu time      0.2639: real time      0.2670
    SETDIJ:  cpu time      1.6414: real time      1.6496
     EDDAV:  cpu time     27.3720: real time     27.5801
       DOS:  cpu time      0.0021: real time      0.0021
    CHARGE:  cpu time      1.7145: real time      1.7250
    MIXING:  cpu time      0.0088: real time      0.0088
    --------------------------------------------
      LOOP:  cpu time     31.0027: real time     31.2327

 eigenvalue-minimisations  :  8520
 total energy-change (2. order) : 0.1198626E+00  (-0.1260593E+00)
 number of electron     191.9999999 magnetization       1.0000000
 augmentation part      -21.0567631 magnetization      -0.0832630

 Broyden mixing:
  rms(total) = 0.95051E-01    rms(broyden)= 0.95051E-01
  rms(prec ) = 0.10100E+00
  weight for this iteration     100.00

 eigenvalues of (default mixing * dielectric matrix)
  average eigenvalue GAMMA=   1.1856
  1.9058  1.1045  0.5464

 Free energy of the ion-electron system (eV)
  ---------------------------------------------------
  alpha Z        PSCENC =       251.00599010
  Ewald energy   TEWEN  =     -5238.14925023
  -Hartree energ DENC   =      -471.02562315
  -exchange      EXHF   =         0.00000000
  -V(xc)+E(xc)   XCENC  =      -388.60692744
  PAW double counting   =     14957.27670333   -14194.33546275
  entropy T*S    EENTRO =        -0.00111338
  eigenvalues    EBANDS =      -138.15324673
  atomic energy  EATOM  =      4993.50080470
  Solvation  Ediel_sol  =         0.00000000
  ---------------------------------------------------
  free energy    TOTEN  =      -228.48812555 eV

  energy without entropy =     -228.48701216  energy(sigma->0) =     -228.48756885


--------------------------------------------------------------------------------------------------------




--------------------------------------- Iteration      1(   9)  ---------------------------------------


    POTLOK:  cpu time      0.2649: real time      0.2670
    SETDIJ:  cpu time      1.6419: real time      1.6501
     EDDAV:  cpu time     25.9169: real time     26.1094
       DOS:  cpu time      0.0018: real time      0.0018
    CHARGE:  cpu time      1.7128: real time      1.7230
    MIXING:  cpu time      0.0092: real time      0.0093
    --------------------------------------------
      LOOP:  cpu time     29.5475: real time     29.7606

 eigenvalue-minimisations  :  7960
 total energy-change (2. order) :-0.9895559E-02  (-0.2328362E-01)
 number of electron     191.9999999 magnetization       1.0000000
 augmentation part      -21.0751655 magnetization      -0.0843067

 Broyden mixing:
  rms(total) = 0.67051E-01    rms(broyden)= 0.67051E-01
  rms(prec ) = 0.68637E-01
  weight for this iteration     100.00

 eigenvalues of (default mixing * dielectric matrix)
  average eigenvalue GAMMA=   1.1853
  1.7042  1.7042  0.8570  0.4758

 Free energy of the ion-electron system (eV)
  ---------------------------------------------------
  alpha Z        PSCENC =       251.00599010
  Ewald energy   TEWEN  =     -5238.14925023
  -Hartree energ DENC   =      -468.67751541
  -exchange      EXHF   =         0.00000000
  -V(xc)+E(xc)   XCENC  =      -388.75095248
  PAW double counting   =     15316.01964541   -14553.02977993
  entropy T*S    EENTRO =        -0.00110812
  eigenvalues    EBANDS =      -140.41585515
  atomic energy  EATOM  =      4993.50080470
  Solvation  Ediel_sol  =         0.00000000
  ---------------------------------------------------
  free energy    TOTEN  =      -228.49802111 eV

  energy without entropy =     -228.49691298  energy(sigma->0) =     -228.49746704


--------------------------------------------------------------------------------------------------------




--------------------------------------- Iteration      1(  10)  ---------------------------------------


    POTLOK:  cpu time      0.2642: real time      0.2673
    SETDIJ:  cpu time      1.6426: real time      1.6505
     EDDAV:  cpu time     26.8643: real time     27.0656
       DOS:  cpu time      0.0020: real time      0.0020
    CHARGE:  cpu time      1.7138: real time      1.7241
    MIXING:  cpu time      0.0090: real time      0.0091
    --------------------------------------------
      LOOP:  cpu time     30.4959: real time     30.7187

 eigenvalue-minimisations  :  8336
 total energy-change (2. order) :-0.2492995E-02  (-0.5313236E-02)
 number of electron     191.9999999 magnetization       1.0000000
 augmentation part      -21.0771241 magnetization      -0.0785649

 Broyden mixing:
  rms(total) = 0.33742E-01    rms(broyden)= 0.33742E-01
  rms(prec ) = 0.40640E-01
  weight for this iteration     100.00

 eigenvalues of (default mixing * dielectric matrix)
  average eigenvalue GAMMA=   1.1114
  1.7593  1.7593  1.0497  0.4944  0.4944

 Free energy of the ion-electron system (eV)
  ---------------------------------------------------
  alpha Z        PSCENC =       251.00599010
  Ewald energy   TEWEN  =     -5238.14925023
  -Hartree energ DENC   =      -466.65149878
  -exchange      EXHF   =         0.00000000
  -V(xc)+E(xc)   XCENC  =      -388.96244653
  PAW double counting   =     15403.27007654   -14640.18933102
  entropy T*S    EENTRO =        -0.00111918
  eigenvalues    EBANDS =      -142.32373969
  atomic energy  EATOM  =      4993.50080470
  Solvation  Ediel_sol  =         0.00000000
  ---------------------------------------------------
  free energy    TOTEN  =      -228.50051410 eV

  energy without entropy =     -228.49939492  energy(sigma->0) =     -228.49995451


--------------------------------------------------------------------------------------------------------




--------------------------------------- Iteration      1(  11)  ---------------------------------------


    POTLOK:  cpu time      0.2634: real time      0.2658
    SETDIJ:  cpu time      1.6428: real time      1.6512
     EDDAV:  cpu time     27.4689: real time     27.6699
       DOS:  cpu time      0.0017: real time      0.0017
    CHARGE:  cpu time      1.7121: real time      1.7225
    MIXING:  cpu time      0.0098: real time      0.0099
    --------------------------------------------
      LOOP:  cpu time     31.0988: real time     31.3209

 eigenvalue-minimisations  :  8536
 total energy-change (2. order) : 0.8742060E-03  (-0.1237677E-02)
 number of electron     191.9999999 magnetization       1.0000000
 augmentation part      -21.0735173 magnetization      -0.0809623

 Broyden mixing:
  rms(total) = 0.20896E-01    rms(broyden)= 0.20896E-01
  rms(prec ) = 0.21166E-01
  weight for this iteration     100.00

 eigenvalues of (default mixing * dielectric matrix)
  average eigenvalue GAMMA=   1.0724
  1.5839  1.5567  1.5567  0.7816  0.4777  0.4777

 Free energy of the ion-electron system (eV)
  ---------------------------------------------------
  alpha Z        PSCENC =       251.00599010
  Ewald energy   TEWEN  =     -5238.14925023
  -Hartree energ DENC   =      -466.47508041
  -exchange      EXHF   =         0.00000000
  -V(xc)+E(xc)   XCENC  =      -388.99292207
  PAW double counting   =     15374.05278788   -14610.95726967
  entropy T*S    EENTRO =        -0.00109354
  eigenvalues    EBANDS =      -142.48360666
  atomic energy  EATOM  =      4993.50080470
  Solvation  Ediel_sol  =         0.00000000
  ---------------------------------------------------
  free energy    TOTEN  =      -228.49963989 eV

  energy without entropy =     -228.49854635  energy(sigma->0) =     -228.49909312


--------------------------------------------------------------------------------------------------------




--------------------------------------- Iteration      1(  12)  ---------------------------------------


    POTLOK:  cpu time      0.2640: real time      0.2662
    SETDIJ:  cpu time      1.6404: real time      1.6486
     EDDAV:  cpu time     27.4583: real time     27.6619
       DOS:  cpu time      0.0017: real time      0.0017
    CHARGE:  cpu time      1.7127: real time      1.7236
    MIXING:  cpu time      0.0103: real time      0.0104
    --------------------------------------------
      LOOP:  cpu time     31.0876: real time     31.3124

 eigenvalue-minimisations  :  8528
 total energy-change (2. order) :-0.4207065E-03  (-0.2479879E-03)
 number of electron     191.9999999 magnetization       1.0000000
 augmentation part      -21.0745288 magnetization      -0.0810047

 Broyden mixing:
  rms(total) = 0.11897E-01    rms(broyden)= 0.11897E-01
  rms(prec ) = 0.12875E-01
  weight for this iteration     100.00

 eigenvalues of (default mixing * dielectric matrix)
  average eigenvalue GAMMA=   1.1315
  1.8019  1.8019  1.6895  0.9414  0.6307  0.5922  0.4630

 Free energy of the ion-electron system (eV)
  ---------------------------------------------------
  alpha Z        PSCENC =       251.00599010
  Ewald energy   TEWEN  =     -5238.14925023
  -Hartree energ DENC   =      -466.64389703
  -exchange      EXHF   =         0.00000000
  -V(xc)+E(xc)   XCENC  =      -388.96991499
  PAW double counting   =     15352.26795380   -14589.18099736
  entropy T*S    EENTRO =        -0.00109087
  eigenvalues    EBANDS =      -142.32965873
  atomic energy  EATOM  =      4993.50080470
  Solvation  Ediel_sol  =         0.00000000
  ---------------------------------------------------
  free energy    TOTEN  =      -228.50006060 eV

  energy without entropy =     -228.49896973  energy(sigma->0) =     -228.49951517


--------------------------------------------------------------------------------------------------------




--------------------------------------- Iteration      1(  13)  ---------------------------------------


    POTLOK:  cpu time      0.2645: real time      0.2668
    SETDIJ:  cpu time      1.6436: real time      1.6522
     EDDAV:  cpu time     28.2349: real time     28.4493
       DOS:  cpu time      0.0018: real time      0.0018
    CHARGE:  cpu time      1.7107: real time      1.7214
    MIXING:  cpu time      0.0099: real time      0.0100
    --------------------------------------------
      LOOP:  cpu time     31.8654: real time     32.1015

 eigenvalue-minimisations  :  8856
 total energy-change (2. order) :-0.1653058E-03  (-0.2756902E-03)
 number of electron     191.9999999 magnetization       1.0000000
 augmentation part      -21.0752309 magnetization      -0.0808025

 Broyden mixing:
  rms(total) = 0.66374E-02    rms(broyden)= 0.66374E-02
  rms(prec ) = 0.10725E-01
  weight for this iteration     100.00

 eigenvalues of (default mixing * dielectric matrix)
  average eigenvalue GAMMA=   1.0999
  1.9304  1.9304  1.7338  0.9948  0.7417  0.5087  0.5087  0.4505

 Free energy of the ion-electron system (eV)
  ---------------------------------------------------
  alpha Z        PSCENC =       251.00599010
  Ewald energy   TEWEN  =     -5238.14925023
  -Hartree energ DENC   =      -466.63276125
  -exchange      EXHF   =         0.00000000
  -V(xc)+E(xc)   XCENC  =      -388.96202880
  PAW double counting   =     15340.96795319   -14577.88331068
  entropy T*S    EENTRO =        -0.00106655
  eigenvalues    EBANDS =      -142.34655640
  atomic energy  EATOM  =      4993.50080470
  Solvation  Ediel_sol  =         0.00000000
  ---------------------------------------------------
  free energy    TOTEN  =      -228.50022591 eV

  energy without entropy =     -228.49915935  energy(sigma->0) =     -228.49969263


--------------------------------------------------------------------------------------------------------




--------------------------------------- Iteration      1(  14)  ---------------------------------------


    POTLOK:  cpu time      0.2637: real time      0.2658
    SETDIJ:  cpu time      1.6435: real time      1.6518
     EDDAV:  cpu time     29.3887: real time     29.6029
       DOS:  cpu time      0.0017: real time      0.0018
    CHARGE:  cpu time      1.7109: real time      1.7217
    MIXING:  cpu time      0.0110: real time      0.0111
    --------------------------------------------
      LOOP:  cpu time     33.0196: real time     33.2551

 eigenvalue-minimisations  :  9304
 total energy-change (2. order) : 0.5441264E-04  (-0.2004623E-03)
 number of electron     191.9999999 magnetization       1.0000000
 augmentation part      -21.0752756 magnetization      -0.0809672

 Broyden mixing:
  rms(total) = 0.28808E-02    rms(broyden)= 0.28808E-02
  rms(prec ) = 0.46474E-02
  weight for this iteration     100.00

 eigenvalues of (default mixing * dielectric matrix)
  average eigenvalue GAMMA=   1.0332
  1.8669  1.8425  1.8425  0.9884  0.7808  0.5858  0.5858  0.4663  0.3397

 Free energy of the ion-electron system (eV)
  ---------------------------------------------------
  alpha Z        PSCENC =       251.00599010
  Ewald energy   TEWEN  =     -5238.14925023
  -Hartree energ DENC   =      -466.62274522
  -exchange      EXHF   =         0.00000000
  -V(xc)+E(xc)   XCENC  =      -388.96021123
  PAW double counting   =     15345.61318429   -14582.52919497
  entropy T*S    EENTRO =        -0.00109652
  eigenvalues    EBANDS =      -142.35765241
  atomic energy  EATOM  =      4993.50080470
  Solvation  Ediel_sol  =         0.00000000
  ---------------------------------------------------
  free energy    TOTEN  =      -228.50017149 eV

  energy without entropy =     -228.49907497  energy(sigma->0) =     -228.49962323


--------------------------------------------------------------------------------------------------------




--------------------------------------- Iteration      1(  15)  ---------------------------------------


    POTLOK:  cpu time      0.2638: real time      0.2664
    SETDIJ:  cpu time      1.6450: real time      1.6534
     EDDAV:  cpu time     28.7368: real time     28.9482
       DOS:  cpu time      0.0017: real time      0.0017
    CHARGE:  cpu time      1.7121: real time      1.7225
    MIXING:  cpu time      0.0116: real time      0.0117
    --------------------------------------------
      LOOP:  cpu time     32.3710: real time     32.6038

 eigenvalue-minimisations  :  9040
 total energy-change (2. order) : 0.1805924E-04  (-0.3100887E-04)
 number of electron     191.9999999 magnetization       1.0000000
 augmentation part      -21.0752947 magnetization      -0.0811238

 Broyden mixing:
  rms(total) = 0.17711E-02    rms(broyden)= 0.17711E-02
  rms(prec ) = 0.18692E-02
  weight for this iteration     100.00

 eigenvalues of (default mixing * dielectric matrix)
  average eigenvalue GAMMA=   0.9904
  1.9714  1.7681  1.7681  1.0033  0.7794  0.7794  0.5355  0.5355  0.4607  0.3024

 Free energy of the ion-electron system (eV)
  ---------------------------------------------------
  alpha Z        PSCENC =       251.00599010
  Ewald energy   TEWEN  =     -5238.14925023
  -Hartree energ DENC   =      -466.63475298
  -exchange      EXHF   =         0.00000000
  -V(xc)+E(xc)   XCENC  =      -388.95830907
  PAW double counting   =     15352.56030040   -14589.47722276
  entropy T*S    EENTRO =        -0.00110053
  eigenvalues    EBANDS =      -142.34661308
  atomic energy  EATOM  =      4993.50080470
  Solvation  Ediel_sol  =         0.00000000
  ---------------------------------------------------
  free energy    TOTEN  =      -228.50015343 eV

  energy without entropy =     -228.49905291  energy(sigma->0) =     -228.49960317


--------------------------------------------------------------------------------------------------------




--------------------------------------- Iteration      1(  16)  ---------------------------------------


    POTLOK:  cpu time      0.2647: real time      0.2670
    SETDIJ:  cpu time      1.6358: real time      1.6437
     EDDAV:  cpu time     25.8853: real time     26.0825
       DOS:  cpu time      0.0018: real time      0.0018
    CHARGE:  cpu time      1.7111: real time      1.7217
    MIXING:  cpu time      0.0112: real time      0.0113
    --------------------------------------------
      LOOP:  cpu time     29.5099: real time     29.7280

 eigenvalue-minimisations  :  7920
 total energy-change (2. order) :-0.6343559E-05  (-0.4449081E-05)
 number of electron     191.9999999 magnetization       1.0000000
 augmentation part      -21.0753293 magnetization      -0.0811524

 Broyden mixing:
  rms(total) = 0.11009E-02    rms(broyden)= 0.11009E-02
  rms(prec ) = 0.11953E-02
  weight for this iteration     100.00

 eigenvalues of (default mixing * dielectric matrix)
  average eigenvalue GAMMA=   1.0138
  1.9870  1.8463  1.8463  1.1150  0.9549  0.9549  0.5997  0.5997  0.4935  0.4362
  0.3184

 Free energy of the ion-electron system (eV)
  ---------------------------------------------------
  alpha Z        PSCENC =       251.00599010
  Ewald energy   TEWEN  =     -5238.14925023
  -Hartree energ DENC   =      -466.65213939
  -exchange      EXHF   =         0.00000000
  -V(xc)+E(xc)   XCENC  =      -388.95677439
  PAW double counting   =     15354.08050215   -14590.99807267
  entropy T*S    EENTRO =        -0.00109993
  eigenvalues    EBANDS =      -142.33012012
  atomic energy  EATOM  =      4993.50080470
  Solvation  Ediel_sol  =         0.00000000
  ---------------------------------------------------
  free energy    TOTEN  =      -228.50015978 eV

  energy without entropy =     -228.49905984  energy(sigma->0) =     -228.49960981


--------------------------------------------------------------------------------------------------------




--------------------------------------- Iteration      1(  17)  ---------------------------------------


    POTLOK:  cpu time      0.2623: real time      0.2657
    SETDIJ:  cpu time      1.6352: real time      1.6437
     EDDAV:  cpu time     27.8176: real time     28.0273
       DOS:  cpu time      0.0018: real time      0.0018
    CHARGE:  cpu time      1.7078: real time      1.7183
    MIXING:  cpu time      0.0123: real time      0.0124
    --------------------------------------------
      LOOP:  cpu time     31.4370: real time     31.6693

 eigenvalue-minimisations  :  8696
 total energy-change (2. order) :-0.1210939E-05  (-0.8495089E-06)
 number of electron     191.9999999 magnetization       1.0000000
 augmentation part      -21.0752606 magnetization      -0.0811621

 Broyden mixing:
  rms(total) = 0.67972E-03    rms(broyden)= 0.67971E-03
  rms(prec ) = 0.69213E-03
  weight for this iteration     100.00

 eigenvalues of (default mixing * dielectric matrix)
  average eigenvalue GAMMA=   1.0225
  2.0696  1.9281  1.9281  1.1952  1.0586  1.0586  0.6287  0.6287  0.5081  0.5081
  0.4414  0.3173

 Free energy of the ion-electron system (eV)
  ---------------------------------------------------
  alpha Z        PSCENC =       251.00599010
  Ewald energy   TEWEN  =     -5238.14925023
  -Hartree energ DENC   =      -466.67554207
  -exchange      EXHF   =         0.00000000
  -V(xc)+E(xc)   XCENC  =      -388.95521621
  PAW double counting   =     15353.10206163   -14590.02018751
  entropy T*S    EENTRO =        -0.00110084
  eigenvalues    EBANDS =      -142.30772057
  atomic energy  EATOM  =      4993.50080470
  Solvation  Ediel_sol  =         0.00000000
  ---------------------------------------------------
  free energy    TOTEN  =      -228.50016099 eV

  energy without entropy =     -228.49906015  energy(sigma->0) =     -228.49961057


--------------------------------------------------------------------------------------------------------




--------------------------------------- Iteration      1(  18)  ---------------------------------------


    POTLOK:  cpu time      0.2641: real time      0.2664
    SETDIJ:  cpu time      1.6337: real time      1.6418
     EDDAV:  cpu time     25.4624: real time     25.6536
       DOS:  cpu time      0.0018: real time      0.0018
    CHARGE:  cpu time      1.7156: real time      1.7261
    MIXING:  cpu time      0.0133: real time      0.0134
    --------------------------------------------
      LOOP:  cpu time     29.0909: real time     29.3031

 eigenvalue-minimisations  :  7768
 total energy-change (2. order) :-0.5705524E-06  (-0.3080177E-06)
 number of electron     191.9999999 magnetization       1.0000000
 augmentation part      -21.0752180 magnetization      -0.0811233

 Broyden mixing:
  rms(total) = 0.49948E-03    rms(broyden)= 0.49947E-03
  rms(prec ) = 0.50908E-03
  weight for this iteration     100.00

 eigenvalues of (default mixing * dielectric matrix)
  average eigenvalue GAMMA=   1.0381
  2.4482  1.8362  1.6772  1.6772  1.0112  1.0112  0.7639  0.7639  0.5381  0.5381
  0.4680  0.4449  0.3178

 Free energy of the ion-electron system (eV)
  ---------------------------------------------------
  alpha Z        PSCENC =       251.00599010
  Ewald energy   TEWEN  =     -5238.14925023
  -Hartree energ DENC   =      -466.67549234
  -exchange      EXHF   =         0.00000000
  -V(xc)+E(xc)   XCENC  =      -388.95555850
  PAW double counting   =     15353.00740988   -14589.92527675
  entropy T*S    EENTRO =        -0.00110127
  eigenvalues    EBANDS =      -142.30768716
  atomic energy  EATOM  =      4993.50080470
  Solvation  Ediel_sol  =         0.00000000
  ---------------------------------------------------
  free energy    TOTEN  =      -228.50016156 eV

  energy without entropy =     -228.49906029  energy(sigma->0) =     -228.49961092


--------------------------------------------------------------------------------------------------------




--------------------------------------- Iteration      1(  19)  ---------------------------------------


    POTLOK:  cpu time      0.2641: real time      0.2663
    SETDIJ:  cpu time      1.6327: real time      1.6409
     EDDAV:  cpu time     24.1498: real time     24.3374
       DOS:  cpu time      0.0019: real time      0.0019
    --------------------------------------------
      LOOP:  cpu time     26.0484: real time     26.2465

 eigenvalue-minimisations  :  7224
 total energy-change (2. order) :-0.5299989E-07  (-0.5121686E-07)
 number of electron     191.9999999 magnetization       1.0000000
 augmentation part      -21.0752180 magnetization      -0.0811233
[...]
     61       1.6844      1.00000
     62       1.8010      1.00000
     63       1.9426      1.00000
     64       1.9701      1.00000
     65       1.9844      1.00000
     66       2.1439      1.00000
     67       2.2443      1.00000
     68       2.2586      1.00000
     69       2.4008      1.00000
     70       2.4094      1.00000
     71       2.4132      1.00000
     72       2.4778      1.00000
     73       2.4906      1.00000
     74       2.5294      1.00000
     75       2.6480      1.00000
     76       2.7157      1.00000
     77       2.7384      1.00000
     78       2.8382      1.00000
     79       2.9058      1.00000
     80       2.9187      1.00000
     81       2.9852      1.00000
     82       3.0289      1.00000
     83       3.0326      1.00000
     84       3.0491      1.00000
     85       3.2076      1.00000
     86       3.2430      1.00000
     87       3.2864      1.00000
     88       3.5457      1.00000
     89       3.6712      1.00000
     90       3.7587      1.00000
     91       3.8192      1.00000
     92       3.8688      1.00000
     93       3.8849      1.00000
     94       3.9558      1.00000
     95       3.9699      1.00000
     96       4.0743      1.00000
     97       4.9571      0.00000
     98       4.9625      0.00000
     99       5.0976      0.00000
    100       5.3757      0.00000
    101       5.4122      0.00000
    102       5.5299      0.00000
    103       6.0316      0.00000
    104       6.0643      0.00000
    105       6.1003      0.00000
    106       6.2336      0.00000
    107       6.2919      0.00000
    108       6.3852      0.00000
    109       6.5672      0.00000
    110       6.5841      0.00000
    111       6.6899      0.00000
    112       6.7149      0.00000
    113       6.8684      0.00000
    114       6.9188      0.00000
    115       7.0052      0.00000
    116       7.2034      0.00000


--------------------------------------------------------------------------------------------------------


 soft charge-density along one line, spin component           1
         0         1         2         3         4         5         6         7         8         9
 total charge-density along one line
 
 soft charge-density along one line, spin component           2
         0         1         2         3         4         5         6         7         8         9
 total charge-density along one line
 
 pseudopotential strength for first ion, spin component:           1
 18.600  25.952   0.001   0.006  -0.000   0.003   0.012  -0.000
 25.952  36.214   0.002   0.009  -0.000   0.004   0.016   0.000
  0.001   0.002   4.202   0.000  -0.000   7.832   0.000  -0.000
  0.006   0.009   0.000   4.204  -0.001   0.000   7.835  -0.001
 -0.000  -0.000  -0.000  -0.001   4.202  -0.000  -0.001   7.833
  0.003   0.004   7.832   0.000  -0.000  14.609   0.001  -0.000
  0.012   0.016   0.000   7.835  -0.001   0.001  14.613  -0.002
 -0.000   0.000  -0.000  -0.001   7.833  -0.000  -0.002  14.609
 pseudopotential strength for first ion, spin component:           2
 18.597  25.947   0.001   0.005   0.001   0.001   0.009   0.001
 25.947  36.206   0.001   0.007   0.001   0.002   0.013   0.002
  0.001   0.001   4.201   0.000   0.000   7.830   0.000   0.000
  0.005   0.007   0.000   4.202  -0.000   0.000   7.831  -0.001
  0.001   0.001   0.000  -0.000   4.201   0.000  -0.001   7.829
  0.001   0.002   7.830   0.000   0.000  14.604   0.000   0.000
  0.009   0.013   0.000   7.831  -0.001   0.000  14.607  -0.001
  0.001   0.002   0.000  -0.001   7.829   0.000  -0.001  14.603
 total augmentation occupancy for first ion, spin component:           1
  5.116  -1.916  -0.007   0.002  -0.291   0.002  -0.022   0.109
 -1.916   0.941  -0.007  -0.020   0.145   0.003   0.030  -0.055
 -0.007  -0.007   2.757  -0.030  -0.005  -0.603   0.003   0.004
  0.002  -0.020  -0.030   2.533  -0.159   0.003  -0.578   0.043
 -0.291   0.145  -0.005  -0.159   2.461   0.004   0.043  -0.524
  0.002   0.003  -0.603   0.003   0.004   0.146   0.000  -0.002
 -0.022   0.030   0.003  -0.578   0.043   0.000   0.144  -0.012
  0.109  -0.055   0.004   0.043  -0.524  -0.002  -0.012   0.121
 total augmentation occupancy for first ion, spin component:           2
  0.046  -0.031  -0.004  -0.003  -0.003  -0.000  -0.001   0.002
 -0.031   0.026   0.009   0.011  -0.003  -0.001  -0.000  -0.001
 -0.004   0.009   0.022   0.010  -0.004  -0.004  -0.001   0.000
 -0.003   0.011   0.010   0.026  -0.006  -0.001  -0.004   0.001
 -0.003  -0.003  -0.004  -0.006   0.020   0.000   0.001  -0.004
 -0.000  -0.001  -0.004  -0.001   0.000   0.001   0.000  -0.000
 -0.001  -0.000  -0.001  -0.004   0.001   0.000   0.001  -0.000
  0.002  -0.001   0.000   0.001  -0.004  -0.000  -0.000   0.001


------------------------ aborting loop because EDIFF is reached ----------------------------------------


    CHARGE:  cpu time      1.7127: real time      1.7245
    FORLOC:  cpu time      0.0354: real time      0.0357
    FORNL :  cpu time      7.9958: real time      8.0600
    STRESS:  cpu time     24.4031: real time     24.5901
    FORCOR:  cpu time      0.2903: real time      0.2925
    FORHAR:  cpu time      0.0573: real time      0.0577
    MIXING:  cpu time      0.0130: real time      0.0131
    OFIELD:  cpu time      0.0000: real time      0.0000

  FORCE on cell =-STRESS in cart. coord.  units (eV):
  Direction    XX          YY          ZZ          XY          YZ          ZX
  --------------------------------------------------------------------------------------
  Alpha Z   251.00599   251.00599   251.00599
  Ewald   -1967.63053 -1551.27632 -1719.26942    -9.48017    -0.00000     0.00000
  Hartree    71.02519   252.20492   143.43920    -2.15667    -0.00023    -0.00253
  E(xc)    -638.64534  -639.49964  -637.12001    -0.00525     0.00051     0.00017
  Local    -414.20201 -1009.45123  -718.28521    10.91026     0.01032     0.00980
  n-local  1415.91895  1434.26844  1414.61743    -0.11546     0.00113     0.01560
  augment  -112.22900  -113.16879  -111.17859    -0.02653     0.00039     0.00085
  Kinetic  1429.24995  1419.96591  1395.96435     0.80460     0.02234    -0.01568
  Fock        0.00000     0.00000     0.00000     0.00000     0.00000     0.00000
  -------------------------------------------------------------------------------------
  Total      34.49321    44.04929    19.17373    -0.06922     0.03445     0.00822
  in kB      53.56588    68.40591    29.77565    -0.10749     0.05350     0.01276
  external pressure =       50.58 kB  Pullay stress =        0.00 kB


 VOLUME and BASIS-vectors are now :
 -----------------------------------------------------------------------------
  energy-cutoff  :      700.00
  volume of cell :     1031.71
      direct lattice vectors                 reciprocal lattice vectors
     5.480000000  0.000000000  0.000000000     0.182481752  0.129034084  0.000000000
    -5.480000000  7.749890322  0.000000000     0.000000000  0.129034084  0.000000000
     0.000000000  0.000000000 24.292923856     0.000000000  0.000000000  0.041164250

  length of vectors
     5.480000000  9.491638426 24.292923856     0.223493590  0.129034084  0.041164250


 FORCES acting on ions
    electron-ion (+dipol)            ewald-force                    non-local-force                 convergence-correction
 -----------------------------------------------------------------------------------------------
   -.135E+02 -.282E+00 0.110E+02   0.122E+02 -.110E+00 -.123E+02   0.243E+01 0.367E+00 0.230E+00   -.515E-04 -.223E-04 0.384E-03
   0.308E+01 0.470E-01 0.182E+02   -.269E+01 -.187E-01 -.188E+02   -.846E+00 -.297E-01 0.999E+00   -.107E-04 0.731E-04 0.480E-03
   -.291E+00 -.300E-01 0.575E+01   0.270E+00 -.397E-03 -.572E+01   -.143E+00 0.186E-01 -.173E+00   0.154E-03 0.343E-04 0.129E-03
   -.313E+00 -.300E-01 -.575E+01   0.270E+00 -.397E-03 0.572E+01   -.127E+00 0.184E-01 0.172E+00   0.156E-03 0.123E-04 -.361E-04
   0.334E+01 0.324E-01 -.178E+02   -.269E+01 -.187E-01 0.188E+02   -.740E+00 0.320E-02 -.883E+00   0.255E-04 -.350E-04 -.491E-03
   -.135E+02 -.281E+00 -.111E+02   0.122E+02 -.110E+00 0.123E+02   0.241E+01 0.375E+00 -.225E+00   -.331E-04 -.137E-05 -.372E-03
   -.325E+02 0.237E+00 0.195E+02   0.299E+02 -.863E+00 -.190E+02   0.217E+01 0.508E-01 -.123E+01   -.140E-03 0.260E-04 0.612E-03
   0.335E+01 0.284E-01 0.178E+02   -.269E+01 -.187E-01 -.188E+02   -.752E+00 0.708E-02 0.884E+00   -.465E-05 -.498E-04 0.496E-03
   -.332E+00 -.912E-02 0.574E+01   0.270E+00 -.397E-03 -.572E+01   -.110E+00 0.206E-02 -.164E+00   0.151E-03 0.726E-06 0.836E-04
   -.311E+00 -.861E-02 -.574E+01   0.270E+00 -.397E-03 0.572E+01   -.125E+00 0.446E-02 0.166E+00   0.150E-03 0.228E-04 -.148E-04
   0.310E+01 0.474E-01 -.182E+02   -.269E+01 -.187E-01 0.188E+02   -.855E+00 -.294E-01 -.997E+00   0.116E-04 0.596E-04 -.509E-03
   -.325E+02 0.237E+00 -.195E+02   0.299E+02 -.863E+00 0.190E+02   0.219E+01 0.519E-01 0.124E+01   -.155E-03 -.128E-05 -.644E-03
   0.121E+02 0.592E+00 0.106E+02   -.110E+02 0.110E+00 -.854E+01   -.205E+01 -.147E+00 -.907E+00   0.936E-04 -.662E-07 0.589E-03
   0.404E+00 -.256E-01 0.223E+02   0.112E+01 0.381E-02 -.205E+02   -.903E+00 0.754E-01 -.137E+01   -.303E-04 -.158E-04 0.524E-03
   0.324E+00 0.315E-02 0.551E+01   -.112E+00 0.908E-04 -.552E+01   -.191E+00 0.143E-01 0.455E-01   -.115E-03 0.181E-04 0.152E-03
   0.294E+00 0.759E-03 -.552E+01   -.112E+00 0.908E-04 0.552E+01   -.167E+00 0.162E-01 -.246E-01   -.145E-03 0.240E-04 -.450E-04
   -.131E-01 0.354E-01 -.217E+02   0.112E+01 0.381E-02 0.205E+02   -.806E+00 0.455E-01 0.125E+01   -.838E-04 -.860E-05 -.470E-03
   0.121E+02 0.587E+00 -.106E+02   -.110E+02 0.110E+00 0.854E+01   -.206E+01 -.144E+00 0.901E+00   0.103E-03 0.422E-04 -.644E-03
   -.133E+02 -.142E+00 0.115E+02   0.122E+02 -.110E+00 -.123E+02   0.245E+01 0.862E-01 0.148E+00   -.294E-04 0.221E-04 0.448E-03
   -.348E-01 0.358E-01 0.217E+02   0.112E+01 0.381E-02 -.205E+02   -.787E+00 0.420E-01 -.125E+01   -.722E-04 0.241E-05 0.490E-03
   0.325E+00 0.205E-01 0.554E+01   -.112E+00 0.908E-04 -.552E+01   -.187E+00 -.949E-02 0.105E-01   -.123E-03 -.482E-04 0.128E-03
   0.358E+00 0.221E-01 -.553E+01   -.112E+00 0.908E-04 0.552E+01   -.211E+00 -.123E-01 -.307E-01   -.134E-03 -.543E-04 -.563E-04
   0.380E+00 -.299E-01 -.223E+02   0.112E+01 0.381E-02 0.205E+02   -.885E+00 0.745E-01 0.137E+01   -.231E-04 -.604E-05 -.555E-03
   -.134E+02 -.141E+00 -.115E+02   0.122E+02 -.110E+00 0.123E+02   0.246E+01 0.845E-01 -.151E+00   -.469E-05 0.134E-04 -.472E-03
   0.327E+02 -.695E+00 -.239E+01   -.311E+02 0.866E+00 0.202E+01   -.132E+01 -.100E+00 -.343E+00   -.428E-04 -.145E-04 -.457E-03
   -.681E+00 -.262E-01 0.463E+01   -.224E-01 0.165E-01 -.572E+01   0.291E-02 -.304E-01 0.592E+00   0.730E-04 -.162E-04 -.287E-03
   0.270E+01 0.144E-02 0.143E+01   -.267E+01 0.309E-03 -.146E+01   -.332E+00 -.139E-01 -.655E-01   0.307E-04 -.918E-05 -.115E-03
   0.270E+01 -.892E-03 -.142E+01   -.267E+01 0.309E-03 0.146E+01   -.332E+00 -.211E-01 0.762E-01   0.180E-04 0.208E-04 0.106E-03
   -.672E+00 -.260E-01 -.465E+01   -.224E-01 0.165E-01 0.572E+01   0.116E-03 -.207E-01 -.590E+00   0.689E-04 0.136E-05 0.281E-03
   0.327E+02 -.688E+00 0.239E+01   -.311E+02 0.866E+00 -.202E+01   -.133E+01 -.104E+00 0.318E+00   -.510E-04 -.212E-04 0.421E-03
   0.325E+02 -.678E+00 -.199E+01   -.311E+02 0.866E+00 0.202E+01   -.129E+01 -.944E-01 -.257E+00   -.495E-04 -.183E-06 -.456E-03
   -.683E+00 -.231E-01 0.465E+01   -.224E-01 0.165E-01 -.572E+01   0.480E-02 -.302E-01 0.576E+00   0.551E-04 0.938E-05 -.318E-03
   0.272E+01 -.997E-02 0.143E+01   -.267E+01 0.309E-03 -.146E+01   -.341E+00 -.118E-01 -.747E-01   0.247E-04 0.285E-04 -.121E-03
   0.272E+01 -.719E-02 -.143E+01   -.267E+01 0.309E-03 0.146E+01   -.349E+00 -.183E-01 0.814E-01   0.177E-04 -.297E-05 0.933E-04
   -.692E+00 -.228E-01 -.463E+01   -.224E-01 0.165E-01 0.572E+01   0.125E-01 -.216E-01 -.601E+00   0.766E-04 -.697E-05 0.262E-03
   0.325E+02 -.684E+00 0.199E+01   -.311E+02 0.866E+00 -.202E+01   -.130E+01 -.894E-01 0.245E+00   -.505E-04 0.178E-04 0.440E-03
   -.309E+02 0.122E+01 -.189E+02   0.299E+02 -.863E+00 0.190E+02   0.118E+01 0.101E+00 0.606E+00   -.157E-03 0.313E-04 -.700E-03
   -.231E+01 0.153E-01 0.801E+01   0.147E+01 -.338E-02 -.731E+01   0.981E+00 -.865E-01 -.670E+00   -.984E-04 0.164E-05 -.273E-03
   -.267E+01 0.274E-01 0.126E+01   0.253E+01 -.704E-04 -.130E+01   0.617E+00 -.212E-01 0.705E-01   -.111E-04 -.296E-04 -.119E-03
   -.266E+01 0.252E-01 -.126E+01   0.253E+01 -.704E-04 0.130E+01   0.610E+00 -.241E-01 -.588E-01   -.789E-05 -.320E-04 0.116E-03
   -.226E+01 0.612E-02 -.797E+01   0.147E+01 -.338E-02 0.731E+01   0.940E+00 -.635E-01 0.632E+00   -.690E-04 0.774E-05 0.304E-03
   -.309E+02 0.122E+01 0.189E+02   0.299E+02 -.863E+00 -.190E+02   0.119E+01 0.101E+00 -.611E+00   -.132E-03 -.268E-05 0.669E-03
   0.111E+02 -.334E+00 -.100E+02   -.110E+02 0.110E+00 0.854E+01   -.124E+01 -.214E+00 0.765E-01   0.816E-04 -.644E-04 -.619E-03
   -.225E+01 0.879E-02 0.797E+01   0.147E+01 -.338E-02 -.731E+01   0.936E+00 -.753E-01 -.634E+00   -.836E-04 -.505E-05 -.307E-03
   -.266E+01 0.247E-01 0.126E+01   0.253E+01 -.704E-04 -.130E+01   0.609E+00 -.228E-01 0.606E-01   -.111E-04 0.156E-05 -.133E-03
   -.267E+01 0.269E-01 -.126E+01   0.253E+01 -.704E-04 0.130E+01   0.618E+00 -.230E-01 -.647E-01   -.155E-04 0.579E-05 0.106E-03
   -.230E+01 0.158E-01 -.801E+01   0.147E+01 -.338E-02 0.731E+01   0.977E+00 -.774E-01 0.665E+00   -.808E-04 -.130E-04 0.266E-03
   0.111E+02 -.338E+00 0.999E+01   -.110E+02 0.110E+00 -.854E+01   -.124E+01 -.214E+00 -.690E-01   0.727E-04 -.167E-04 0.568E-03
 -----------------------------------------------------------------------------------------------
   -.170E+01 0.138E-01 0.383E-02   -.711E-14 0.518E-14 0.888E-13   0.176E+01 -.209E+00 -.305E-01   -.649E-03 -.150E-06 -.670E-04
 
 
 POSITION                                       TOTAL-FORCE (eV/Angst)
 -----------------------------------------------------------------------------------
      4.60229      0.16489     21.99292         1.142439     -0.021073     -1.041518
     -2.74000      5.81242      1.93747        -0.452803      0.002638      0.395477
      0.00000      3.87495      3.87495        -0.165106     -0.007731     -0.137463
      2.74000      1.93747      5.81242        -0.171525     -0.007946      0.136424
      0.00000      0.00000      7.74989        -0.094323      0.020926      0.114677
     -3.61771      5.97731     11.98736         1.134359     -0.011822      1.043365
      0.00000      3.87495      0.00000        -0.387928     -0.571015     -0.689586
      2.74000      1.93747      1.93747        -0.092269      0.020725     -0.113596
      0.00000      0.00000      3.87495        -0.172655     -0.003405     -0.139645
     -2.74000      5.81242      5.81242        -0.167515     -0.000470      0.143842
      0.00000      3.87495      7.74989        -0.449662      0.003362     -0.391613
      2.74000      1.93747      9.68736        -0.392733     -0.570033      0.693477
     -1.37000      1.93747      0.00000        -0.909341      0.559453      1.184063
      1.37000      0.00000      1.93747         0.617879      0.057613      0.413793
     -1.37000      5.81242      3.87495         0.019910      0.021652      0.028079
      1.37000      3.87495      5.81242         0.013860      0.021140     -0.020147
     -1.37000      1.93747      7.74989         0.298629      0.088799      0.007260
      1.37000      0.00000      9.68736        -0.906306      0.557315     -1.171799
     -0.87771      4.03984     21.99292         1.317699     -0.161492     -0.686897
      1.37000      3.87495      1.93747         0.295341      0.085663     -0.007090
     -1.37000      1.93747      3.87495         0.024996      0.015133      0.030972
      1.37000      0.00000      5.81242         0.033505      0.013811     -0.035499
     -1.37000      5.81242      7.74989         0.613072      0.052494     -0.409944
      1.86229      2.10236     11.98736         1.308549     -0.162655      0.687989
      0.49229      0.16489     11.98736         0.284733      0.074254     -0.709420
      3.23229      2.10236     13.98848        -0.701209     -0.036007     -0.503333
      0.49229      4.03984     15.98959        -0.295324     -0.008109     -0.099609
     -2.24771      5.97731     17.99070        -0.298055     -0.017642      0.112589
      0.49229      0.16489     19.99181        -0.695913     -0.026054      0.484475
      3.23229      2.10236     21.99292         0.273296      0.077185      0.690484
      0.49229      4.03984     11.98736         0.150324      0.097555     -0.224484
     -2.24771      5.97731     13.98848        -0.701857     -0.032657     -0.495502
      0.49229      0.16489     15.98959        -0.286401     -0.017355     -0.105293
      3.23229      2.10236     17.99070        -0.294096     -0.021107      0.114093
      0.49229      4.03984     19.99181        -0.702717     -0.023834      0.495788
     -2.24771      5.97731     21.99292         0.146637      0.096549      0.210395
     -2.74000      5.81242      9.68736         0.211711      0.465048      0.664867
      4.60229      0.16489     13.98848         0.146507     -0.070517      0.022571
      1.86229      2.10236     15.98959         0.476967      0.010190      0.031967
     -0.87771      4.03984     17.99070         0.480962      0.005054     -0.023947
     -3.61771      5.97731     19.99181         0.153923     -0.056677     -0.024650
      0.00000      0.00000      0.00000         0.211538      0.465851     -0.662919
      1.37000      3.87495      9.68736        -1.134779     -0.433826     -1.388359
     -0.87771      4.03984     13.98848         0.156167     -0.065882      0.023347
     -3.61771      5.97731     15.98959         0.476230      0.005852      0.026020
      4.60229      0.16489     17.99070         0.472876      0.007801     -0.026081
      1.86229      2.10236     19.99181         0.147530     -0.060991     -0.029510
     -1.37000      5.81242      0.00000        -1.137123     -0.437760      1.381889
 -----------------------------------------------------------------------------------
    total drift:                                0.059986     -0.194819     -0.026723


--------------------------------------------------------------------------------------------------------



  FREE ENERGIE OF THE ION-ELECTRON SYSTEM (eV)
  ---------------------------------------------------
  free  energy   TOTEN  =      -228.50016161 eV

  energy  without entropy=     -228.49906012  energy(sigma->0) =     -228.49961086
 


--------------------------------------------------------------------------------------------------------


    POTLOK:  cpu time      1.9060: real time      1.9162


--------------------------------------------------------------------------------------------------------


     LOOP+:  cpu time    608.4672: real time    613.2830
    4ORBIT:  cpu time      0.0000: real time      0.0000

 total amount of memory used by VASP MPI-rank0   233711. kBytes
=======================================================================

   base      :      30000. kBytes
   nonlr-proj:       3357. kBytes
   fftplans  :      28146. kBytes
   grid      :      18929. kBytes
   one-center:         48. kBytes
   wavefun   :     153231. kBytes
 
  
  
 General timing and accounting informations for this job:
 ========================================================
  
                  Total CPU time used (sec):      635.160
                            User time (sec):      601.851
                          System time (sec):       33.309
                         Elapsed time (sec):      641.617
  
                   Maximum memory used (kb):      467436.
                   Average memory used (kb):          N/A
  
                          Minor page faults:       151004
                          Major page faults:           39
                 Voluntary context switches:         1344
