 168 168   0   0
  0.2802175E+02  0.1600268E-08  0.1959920E-08  0.2599766E-08  0.5000000E-15
  1.000000000000000E-004
  CAR 
 Si and Ge interface calculation         
      6.19187877     -9.88704134  301      3.33475388      1.00000000
     -9.887  0.0000E+00  0.0000E+00  0.0000E+00  0.0000E+00
     -9.833  0.0000E+00  0.0000E+00  0.0000E+00  0.0000E+00
     -9.780  0.0000E+00  0.0000E+00  0.0000E+00  0.0000E+00
     -9.726  0.0000E+00  0.0000E+00  0.0000E+00  0.0000E+00
     -9.673  0.0000E+00  0.0000E+00  0.0000E+00  0.0000E+00
     -9.619  0.0000E+00  0.0000E+00  0.0000E+00  0.0000E+00
     -9.565  0.0000E+00  0.0000E+00  0.0000E+00  0.0000E+00
     -9.512  0.0000E+00  0.0000E+00  0.0000E+00  0.0000E+00
     -9.458  0.0000E+00  0.0000E+00  0.0000E+00  0.0000E+00
     -9.405  0.0000E+00  0.0000E+00  0.0000E+00  0.0000E+00
     -9.351  0.0000E+00  0.0000E+00  0.0000E+00  0.0000E+00
     -9.297  0.0000E+00  0.0000E+00  0.0000E+00  0.0000E+00
     -9.244  0.0000E+00  0.0000E+00  0.0000E+00  0.0000E+00
     -9.190  0.2925E-05  0.1182E-06  0.1568E-06  0.6337E-08
     -9.137  0.4134E+01  0.4081E+01  0.2216E+00  0.2187E+00
     -9.083  0.8255E+01  0.8126E+01  0.6640E+00  0.6543E+00
     -9.029  0.8331E+01  0.8457E+01  0.1111E+01  0.1108E+01
     -8.976  0.1655E+02  0.1642E+02  0.1998E+01  0.1988E+01
     -8.922  0.8205E+01  0.8016E+01  0.2437E+01  0.2417E+01
     -8.869  0.1324E+00  0.5047E+00  0.2445E+01  0.2444E+01
     -8.815  0.2000E+02  0.1844E+02  0.3516E+01  0.3433E+01
     -8.762  0.1660E+02  0.1573E+02  0.4406E+01  0.4276E+01
     -8.708  0.1896E+02  0.1998E+02  0.5423E+01  0.5347E+01
     -8.654  0.2138E+02  0.1847E+02  0.6568E+01  0.6336E+01
     -8.601  0.3481E+02  0.3437E+02  0.8434E+01  0.8178E+01
     -8.547  0.1679E+02  0.2154E+02  0.9334E+01  0.9333E+01
     -8.494  0.2392E+02  0.2178E+02  0.1062E+02  0.1050E+02
     -8.440  0.2998E+02  0.2960E+02  0.1222E+02  0.1209E+02
     -8.386  0.3132E+02  0.3053E+02  0.1390E+02  0.1372E+02
     -8.333  0.1965E+02  0.2023E+02  0.1496E+02  0.1481E+02
     -8.279  0.2781E+02  0.2996E+02  0.1645E+02  0.1641E+02
     -8.226  0.3006E+02  0.2861E+02  0.1806E+02  0.1795E+02
     -8.172  0.1502E+02  0.1327E+02  0.1886E+02  0.1866E+02
     -8.118  0.3009E+02  0.2965E+02  0.2047E+02  0.2025E+02
     -8.065  0.3793E+02  0.3655E+02  0.2251E+02  0.2221E+02
     -8.011  0.2215E+02  0.2585E+02  0.2369E+02  0.2359E+02
     -7.958  0.2639E+02  0.2794E+02  0.2511E+02  0.2509E+02
     -7.904  0.8823E+01  0.8807E+01  0.2558E+02  0.2556E+02
     -7.850  0.2093E+02  0.1875E+02  0.2670E+02  0.2657E+02
     -7.797  0.3661E+02  0.3915E+02  0.2867E+02  0.2866E+02
     -7.743  0.1207E+02  0.1099E+02  0.2931E+02  0.2925E+02
     -7.690  0.2351E+02  0.2128E+02  0.3057E+02  0.3039E+02
     -7.636  0.4738E+02  0.4504E+02  0.3311E+02  0.3281E+02
     -7.582  0.3476E+02  0.3382E+02  0.3498E+02  0.3462E+02
     -7.529  0.1964E+02  0.2334E+02  0.3603E+02  0.3587E+02
     -7.475  0.4944E+02  0.4967E+02  0.3868E+02  0.3853E+02
     -7.422  0.3677E+02  0.3663E+02  0.4065E+02  0.4050E+02
     -7.368  0.1243E+02  0.1469E+02  0.4132E+02  0.4128E+02
     -7.314  0.2483E+02  0.2423E+02  0.4265E+02  0.4258E+02
     -7.261  0.3478E+02  0.3435E+02  0.4451E+02  0.4442E+02
     -7.207  0.5734E+02  0.5290E+02  0.4758E+02  0.4726E+02
     -7.154  0.4917E+02  0.4571E+02  0.5022E+02  0.4971E+02
     -7.100  0.5828E+02  0.6043E+02  0.5334E+02  0.5295E+02
     -7.046  0.3663E+02  0.3570E+02  0.5531E+02  0.5486E+02
     -6.993  0.4106E+02  0.4521E+02  0.5751E+02  0.5728E+02
     -6.939  0.4833E+02  0.4977E+02  0.6010E+02  0.5995E+02
     -6.886  0.1544E+02  0.1583E+02  0.6092E+02  0.6080E+02
     -6.832  0.3324E+02  0.3222E+02  0.6271E+02  0.6253E+02
     -6.778  0.6084E+02  0.5794E+02  0.6597E+02  0.6563E+02
     -6.725  0.4804E+02  0.4943E+02  0.6854E+02  0.6828E+02
     -6.671  0.6617E+02  0.6357E+02  0.7209E+02  0.7169E+02
     -6.618  0.4256E+02  0.4765E+02  0.7437E+02  0.7424E+02
     -6.564  0.2935E+02  0.2890E+02  0.7594E+02  0.7579E+02
     -6.510  0.3275E+02  0.3033E+02  0.7770E+02  0.7742E+02
     -6.457  0.6786E+02  0.6762E+02  0.8133E+02  0.8104E+02
     -6.403  0.5720E+02  0.6079E+02  0.8440E+02  0.8430E+02
     -6.350  0.2705E+02  0.2736E+02  0.8585E+02  0.8577E+02
     -6.296  0.5795E+02  0.5574E+02  0.8896E+02  0.8875E+02
     -6.242  0.7682E+02  0.6799E+02  0.9307E+02  0.9240E+02
     -6.189  0.4317E+02  0.5256E+02  0.9539E+02  0.9521E+02
     -6.135  0.4577E+02  0.4551E+02  0.9784E+02  0.9765E+02
     -6.082  0.5175E+02  0.5291E+02  0.1006E+03  0.1005E+03
     -6.028  0.5920E+02  0.5887E+02  0.1038E+03  0.1036E+03
     -5.975  0.3116E+02  0.2996E+02  0.1055E+03  0.1053E+03
     -5.921  0.4869E+02  0.4706E+02  0.1081E+03  0.1078E+03
     -5.867  0.2866E+02  0.3358E+02  0.1096E+03  0.1096E+03
     -5.814  0.4830E+02  0.4823E+02  0.1122E+03  0.1122E+03
     -5.760  0.1594E+01  0.1663E+01  0.1123E+03  0.1122E+03
     -5.707  0.3028E+02  0.2837E+02  0.1139E+03  0.1138E+03
     -5.653  0.5702E+02  0.5599E+02  0.1170E+03  0.1168E+03
     -5.599  0.6569E+02  0.6122E+02  0.1205E+03  0.1200E+03
     -5.546  0.4909E+02  0.4889E+02  0.1231E+03  0.1227E+03
     -5.492  0.7035E+02  0.7492E+02  0.1269E+03  0.1267E+03
     -5.439  0.5877E+02  0.6178E+02  0.1300E+03  0.1300E+03
     -5.385  0.4265E+02  0.3686E+02  0.1323E+03  0.1320E+03
     -5.331  0.4115E+02  0.4310E+02  0.1345E+03  0.1343E+03
     -5.278  0.6244E+02  0.6198E+02  0.1379E+03  0.1376E+03
     -5.224  0.4879E+02  0.4802E+02  0.1405E+03  0.1402E+03
     -5.171  0.4069E+02  0.4159E+02  0.1427E+03  0.1424E+03
     -5.117  0.5853E+02  0.6000E+02  0.1458E+03  0.1456E+03
     -5.063  0.5176E+02  0.5188E+02  0.1486E+03  0.1484E+03
     -5.010  0.7041E+02  0.6764E+02  0.1523E+03  0.1520E+03
     -4.956  0.6394E+02  0.6913E+02  0.1558E+03  0.1557E+03
     -4.903  0.3025E+02  0.2652E+02  0.1574E+03  0.1572E+03
     -4.849  0.3400E+02  0.3478E+02  0.1592E+03  0.1590E+03
     -4.795  0.4847E+02  0.4897E+02  0.1618E+03  0.1616E+03
     -4.742  0.3386E+02  0.3305E+02  0.1636E+03  0.1634E+03
     -4.688  0.6346E+02  0.6318E+02  0.1670E+03  0.1668E+03
     -4.635  0.4650E+02  0.4398E+02  0.1695E+03  0.1692E+03
     -4.581  0.6102E+02  0.6020E+02  0.1728E+03  0.1724E+03
     -4.527  0.2660E+02  0.3411E+02  0.1742E+03  0.1742E+03
     -4.474  0.3464E+02  0.3225E+02  0.1761E+03  0.1759E+03
     -4.420  0.3721E+02  0.3703E+02  0.1781E+03  0.1779E+03
     -4.367  0.6128E+02  0.5787E+02  0.1814E+03  0.1810E+03
     -4.313  0.4940E+02  0.5119E+02  0.1840E+03  0.1838E+03
     -4.259  0.3221E+02  0.3436E+02  0.1857E+03  0.1856E+03
     -4.206  0.4582E+02  0.4335E+02  0.1882E+03  0.1879E+03
     -4.152  0.6519E+02  0.6691E+02  0.1917E+03  0.1915E+03
     -4.099  0.8730E+02  0.8201E+02  0.1964E+03  0.1959E+03
     -4.045  0.4574E+02  0.4987E+02  0.1988E+03  0.1986E+03
     -3.991  0.4422E+02  0.4266E+02  0.2012E+03  0.2009E+03
     -3.938  0.5861E+02  0.5867E+02  0.2043E+03  0.2040E+03
     -3.884  0.3664E+02  0.3913E+02  0.2063E+03  0.2061E+03
     -3.831  0.6044E+02  0.6190E+02  0.2095E+03  0.2094E+03
     -3.777  0.3447E+02  0.2969E+02  0.2114E+03  0.2110E+03
     -3.723  0.8004E+02  0.8277E+02  0.2157E+03  0.2155E+03
     -3.670  0.3896E+02  0.3561E+02  0.2177E+03  0.2174E+03
     -3.616  0.6530E+02  0.6740E+02  0.2212E+03  0.2210E+03
     -3.563  0.5933E+02  0.5572E+02  0.2244E+03  0.2240E+03
     -3.509  0.4328E+02  0.4872E+02  0.2267E+03  0.2266E+03
     -3.455  0.4316E+02  0.4340E+02  0.2291E+03  0.2289E+03
     -3.402  0.4016E+02  0.3753E+02  0.2312E+03  0.2309E+03
     -3.348  0.7695E+02  0.8087E+02  0.2353E+03  0.2353E+03
     -3.295  0.2863E+02  0.2815E+02  0.2369E+03  0.2368E+03
     -3.241  0.3756E+02  0.3917E+02  0.2389E+03  0.2389E+03
     -3.187  0.4135E+02  0.3817E+02  0.2411E+03  0.2409E+03
     -3.134  0.5684E+02  0.5585E+02  0.2441E+03  0.2439E+03
     -3.080  0.4267E+02  0.4414E+02  0.2464E+03  0.2463E+03
     -3.027  0.3992E+02  0.4121E+02  0.2486E+03  0.2485E+03
     -2.973  0.4253E+02  0.4176E+02  0.2509E+03  0.2507E+03
     -2.920  0.4828E+02  0.4888E+02  0.2534E+03  0.2533E+03
     -2.866  0.6904E+02  0.6555E+02  0.2571E+03  0.2568E+03
     -2.812  0.6792E+02  0.6560E+02  0.2608E+03  0.2604E+03
     -2.759  0.5527E+02  0.5891E+02  0.2637E+03  0.2635E+03
     -2.705  0.5490E+02  0.5716E+02  0.2667E+03  0.2666E+03
     -2.652  0.6473E+02  0.5993E+02  0.2702E+03  0.2698E+03
     -2.598  0.4616E+02  0.4877E+02  0.2726E+03  0.2724E+03
     -2.544  0.3948E+02  0.4230E+02  0.2747E+03  0.2747E+03
     -2.491  0.6177E+02  0.6053E+02  0.2781E+03  0.2779E+03
     -2.437  0.4853E+02  0.4996E+02  0.2807E+03  0.2806E+03
     -2.384  0.2024E+02  0.1700E+02  0.2817E+03  0.2815E+03
     -2.330  0.3382E+02  0.3794E+02  0.2836E+03  0.2835E+03
     -2.276  0.2978E+02  0.2504E+02  0.2852E+03  0.2849E+03
     -2.223  0.5304E+02  0.5761E+02  0.2880E+03  0.2880E+03
     -2.169  0.6486E+01  0.3862E+01  0.2883E+03  0.2882E+03
     -2.116  0.5293E+02  0.4930E+02  0.2912E+03  0.2908E+03
     -2.062  0.6525E+02  0.6433E+02  0.2947E+03  0.2943E+03
     -2.008  0.1878E+02  0.2445E+02  0.2957E+03  0.2956E+03
     -1.955  0.1261E+02  0.1334E+02  0.2964E+03  0.2963E+03
     -1.901  0.9051E+01  0.8828E+01  0.2968E+03  0.2968E+03
     -1.848  0.4553E+02  0.4456E+02  0.2993E+03  0.2992E+03
     -1.794  0.4846E+02  0.4605E+02  0.3019E+03  0.3016E+03
     -1.740  0.2462E+02  0.2795E+02  0.3032E+03  0.3031E+03
     -1.687  0.4992E+02  0.4921E+02  0.3059E+03  0.3058E+03
     -1.633  0.1058E+02  0.1273E+02  0.3064E+03  0.3064E+03
     -1.580  0.2840E+02  0.2306E+02  0.3080E+03  0.3077E+03
     -1.526  0.2963E+02  0.3489E+02  0.3096E+03  0.3095E+03
     -1.472  0.2484E+02  0.2455E+02  0.3109E+03  0.3109E+03
     -1.419  0.2506E+02  0.2189E+02  0.3122E+03  0.3120E+03
     -1.365  0.3430E+02  0.3685E+02  0.3141E+03  0.3140E+03
     -1.312  0.2725E+02  0.2680E+02  0.3155E+03  0.3155E+03
     -1.258  0.6040E+01  0.6555E+01  0.3159E+03  0.3158E+03
     -1.204  0.1079E+02  0.1099E+02  0.3164E+03  0.3164E+03
     -1.151  0.1222E+02  0.1037E+02  0.3171E+03  0.3169E+03
     -1.097  0.1366E+02  0.1577E+02  0.3178E+03  0.3178E+03
     -1.044  0.1643E+02  0.1644E+02  0.3187E+03  0.3187E+03
     -0.990  0.2547E+02  0.2494E+02  0.3201E+03  0.3200E+03
     -0.936  0.3033E+02  0.2621E+02  0.3217E+03  0.3214E+03
     -0.883  0.1829E+02  0.2337E+02  0.3227E+03  0.3227E+03
     -0.829  0.2175E+02  0.2016E+02  0.3238E+03  0.3237E+03
     -0.776  0.2799E+02  0.2959E+02  0.3253E+03  0.3253E+03
     -0.722  0.2240E+02  0.1909E+02  0.3265E+03  0.3264E+03
     -0.668  0.6056E+02  0.5601E+02  0.3298E+03  0.3294E+03
     -0.615  0.7895E+02  0.8488E+02  0.3340E+03  0.3339E+03
     -0.561  0.4784E+02  0.4145E+02  0.3366E+03  0.3361E+03
     -0.508  0.6479E+02  0.6479E+02  0.3400E+03  0.3396E+03
     -0.454  0.7526E+02  0.8012E+02  0.3441E+03  0.3439E+03
     -0.400  0.7783E+02  0.7969E+02  0.3483E+03  0.3482E+03
     -0.347  0.7583E+02  0.7192E+02  0.3523E+03  0.3520E+03
     -0.293  0.7954E+02  0.7422E+02  0.3566E+03  0.3560E+03
     -0.240  0.5907E+02  0.6407E+02  0.3597E+03  0.3594E+03
     -0.186  0.6505E+02  0.6244E+02  0.3632E+03  0.3628E+03
     -0.132  0.7162E+02  0.7248E+02  0.3671E+03  0.3667E+03
     -0.079  0.8261E+02  0.8301E+02  0.3715E+03  0.3711E+03
     -0.025  0.6655E+02  0.6991E+02  0.3751E+03  0.3749E+03
      0.028  0.6247E+02  0.6081E+02  0.3784E+03  0.3781E+03
      0.082  0.9254E+02  0.8488E+02  0.3834E+03  0.3827E+03
      0.135  0.8992E+02  0.9694E+02  0.3882E+03  0.3879E+03
      0.189  0.8345E+02  0.7815E+02  0.3927E+03  0.3921E+03
      0.243  0.9704E+02  0.9806E+02  0.3979E+03  0.3973E+03
      0.296  0.1185E+03  0.1178E+03  0.4042E+03  0.4036E+03
      0.350  0.1304E+03  0.1321E+03  0.4112E+03  0.4107E+03
      0.403  0.1078E+03  0.1068E+03  0.4170E+03  0.4164E+03
      0.457  0.1426E+03  0.1409E+03  0.4246E+03  0.4240E+03
      0.511  0.1374E+03  0.1381E+03  0.4320E+03  0.4314E+03
      0.564  0.1114E+03  0.1138E+03  0.4380E+03  0.4375E+03
      0.618  0.1194E+03  0.1153E+03  0.4444E+03  0.4437E+03
      0.671  0.1147E+03  0.1169E+03  0.4505E+03  0.4499E+03
      0.725  0.9760E+02  0.1025E+03  0.4557E+03  0.4554E+03
      0.779  0.1263E+03  0.1194E+03  0.4625E+03  0.4618E+03
      0.832  0.9123E+02  0.9652E+02  0.4674E+03  0.4670E+03
      0.886  0.1073E+03  0.1041E+03  0.4731E+03  0.4726E+03
      0.939  0.9923E+02  0.1025E+03  0.4785E+03  0.4781E+03
      0.993  0.1188E+03  0.1163E+03  0.4848E+03  0.4843E+03
      1.047  0.1299E+03  0.1315E+03  0.4918E+03  0.4914E+03
      1.100  0.8125E+02  0.7990E+02  0.4961E+03  0.4956E+03
      1.154  0.1187E+03  0.1153E+03  0.5025E+03  0.5018E+03
      1.207  0.1005E+03  0.1031E+03  0.5079E+03  0.5073E+03
      1.261  0.1428E+03  0.1432E+03  0.5155E+03  0.5150E+03
      1.315  0.1114E+03  0.1149E+03  0.5215E+03  0.5212E+03
      1.368  0.1102E+03  0.1080E+03  0.5274E+03  0.5270E+03
      1.422  0.1078E+03  0.1043E+03  0.5332E+03  0.5325E+03
      1.475  0.1290E+03  0.1332E+03  0.5401E+03  0.5397E+03
      1.529  0.8502E+02  0.8681E+02  0.5447E+03  0.5443E+03
      1.583  0.1110E+03  0.1071E+03  0.5506E+03  0.5501E+03
      1.636  0.1062E+03  0.1058E+03  0.5563E+03  0.5557E+03
      1.690  0.1013E+03  0.1050E+03  0.5617E+03  0.5614E+03
      1.743  0.1012E+03  0.9845E+02  0.5672E+03  0.5667E+03
      1.797  0.8005E+02  0.8000E+02  0.5714E+03  0.5709E+03
      1.851  0.8640E+02  0.8953E+02  0.5761E+03  0.5757E+03
      1.904  0.8716E+02  0.8826E+02  0.5808E+03  0.5805E+03
      1.958  0.9776E+02  0.9680E+02  0.5860E+03  0.5857E+03
      2.011  0.8528E+02  0.8465E+02  0.5906E+03  0.5902E+03
      2.065  0.6713E+02  0.6502E+02  0.5942E+03  0.5937E+03
      2.119  0.5530E+02  0.5864E+02  0.5971E+03  0.5968E+03
      2.172  0.6712E+02  0.6681E+02  0.6007E+03  0.6004E+03
      2.226  0.6792E+02  0.6556E+02  0.6044E+03  0.6039E+03
      2.279  0.4595E+02  0.4560E+02  0.6068E+03  0.6064E+03
      2.333  0.6151E+02  0.6485E+02  0.6101E+03  0.6098E+03
      2.387  0.4387E+02  0.4429E+02  0.6125E+03  0.6122E+03
      2.440  0.8000E+02  0.7509E+02  0.6168E+03  0.6162E+03
      2.494  0.3885E+02  0.4419E+02  0.6188E+03  0.6186E+03
      2.547  0.7213E+02  0.6913E+02  0.6227E+03  0.6223E+03
      2.601  0.6285E+02  0.5576E+02  0.6261E+03  0.6253E+03
      2.655  0.7531E+02  0.7519E+02  0.6301E+03  0.6293E+03
      2.708  0.4355E+02  0.4983E+02  0.6324E+03  0.6320E+03
      2.762  0.5449E+02  0.5552E+02  0.6354E+03  0.6350E+03
      2.815  0.4902E+02  0.4526E+02  0.6380E+03  0.6374E+03
      2.869  0.7558E+02  0.7634E+02  0.6420E+03  0.6415E+03
      2.922  0.5619E+02  0.5618E+02  0.6451E+03  0.6445E+03
      2.976  0.7098E+02  0.7107E+02  0.6489E+03  0.6483E+03
      3.030  0.7000E+02  0.7363E+02  0.6526E+03  0.6523E+03
      3.083  0.6839E+02  0.6696E+02  0.6563E+03  0.6558E+03
      3.137  0.5455E+02  0.4343E+02  0.6592E+03  0.6582E+03
      3.190  0.7233E+02  0.8608E+02  0.6631E+03  0.6628E+03
      3.244  0.5119E+02  0.3965E+02  0.6658E+03  0.6649E+03
      3.298  0.5504E+02  0.5908E+02  0.6688E+03  0.6681E+03
      3.351  0.7136E+02  0.7221E+02  0.6726E+03  0.6720E+03
      3.405  0.3848E+02  0.3467E+02  0.6747E+03  0.6738E+03
      3.458  0.5113E+02  0.5620E+02  0.6774E+03  0.6768E+03
      3.512  0.4175E+02  0.4394E+02  0.6796E+03  0.6792E+03
      3.566  0.6081E+02  0.4635E+02  0.6829E+03  0.6817E+03
      3.619  0.6198E+02  0.7227E+02  0.6862E+03  0.6855E+03
      3.673  0.4244E+02  0.3804E+02  0.6885E+03  0.6876E+03
      3.726  0.4381E+02  0.5034E+02  0.6908E+03  0.6903E+03
      3.780  0.3629E+02  0.4393E+02  0.6928E+03  0.6926E+03
      3.834  0.5475E+02  0.4685E+02  0.6957E+03  0.6951E+03
      3.887  0.3009E+02  0.3888E+02  0.6973E+03  0.6972E+03
      3.941  0.5010E+02  0.4864E+02  0.7000E+03  0.6998E+03
      3.994  0.3218E+02  0.3331E+02  0.7017E+03  0.7016E+03
      4.048  0.5278E+02  0.4533E+02  0.7046E+03  0.7040E+03
      4.102  0.5829E+02  0.6076E+02  0.7077E+03  0.7073E+03
      4.155  0.5019E+02  0.5277E+02  0.7104E+03  0.7101E+03
      4.209  0.5476E+02  0.4779E+02  0.7133E+03  0.7127E+03
      4.262  0.5521E+02  0.6363E+02  0.7163E+03  0.7161E+03
      4.316  0.3737E+02  0.3577E+02  0.7183E+03  0.7180E+03
      4.370  0.4253E+02  0.4069E+02  0.7206E+03  0.7202E+03
      4.423  0.6655E+02  0.6646E+02  0.7241E+03  0.7238E+03
      4.477  0.5054E+02  0.5489E+02  0.7268E+03  0.7267E+03
      4.530  0.2845E+02  0.2850E+02  0.7284E+03  0.7282E+03
      4.584  0.6191E+02  0.5831E+02  0.7317E+03  0.7314E+03
      4.638  0.5204E+02  0.5280E+02  0.7345E+03  0.7342E+03
      4.691  0.6459E+02  0.6656E+02  0.7379E+03  0.7377E+03
      4.745  0.5305E+02  0.5070E+02  0.7408E+03  0.7405E+03
      4.798  0.9795E+02  0.9753E+02  0.7460E+03  0.7457E+03
      4.852  0.1037E+03  0.1018E+03  0.7516E+03  0.7511E+03
      4.906  0.7447E+02  0.7133E+02  0.7556E+03  0.7550E+03
      4.959  0.1099E+03  0.1120E+03  0.7615E+03  0.7610E+03
      5.013  0.1108E+03  0.1099E+03  0.7674E+03  0.7669E+03
      5.066  0.1370E+03  0.1361E+03  0.7747E+03  0.7742E+03
      5.120  0.6092E+02  0.6418E+02  0.7780E+03  0.7776E+03
      5.174  0.1029E+03  0.1061E+03  0.7835E+03  0.7833E+03
      5.227  0.9897E+02  0.9721E+02  0.7888E+03  0.7885E+03
      5.281  0.1082E+03  0.1044E+03  0.7946E+03  0.7941E+03
      5.334  0.9247E+02  0.1037E+03  0.7996E+03  0.7997E+03
      5.388  0.8279E+02  0.7489E+02  0.8040E+03  0.8037E+03
      5.442  0.6293E+02  0.6409E+02  0.8074E+03  0.8071E+03
      5.495  0.1136E+02  0.1668E+02  0.8080E+03  0.8080E+03
      5.549  0.0000E+00  0.0000E+00  0.8080E+03  0.8080E+03
      5.602  0.0000E+00  0.0000E+00  0.8080E+03  0.8080E+03
      5.656  0.0000E+00  0.0000E+00  0.8080E+03  0.8080E+03
      5.710  0.0000E+00  0.0000E+00  0.8080E+03  0.8080E+03
      5.763  0.0000E+00  0.0000E+00  0.8080E+03  0.8080E+03
      5.817  0.0000E+00  0.0000E+00  0.8080E+03  0.8080E+03
      5.870  0.0000E+00  0.0000E+00  0.8080E+03  0.8080E+03
      5.924  0.0000E+00  0.0000E+00  0.8080E+03  0.8080E+03
      5.977  0.0000E+00  0.0000E+00  0.8080E+03  0.8080E+03
      6.031  0.0000E+00  0.0000E+00  0.8080E+03  0.8080E+03
      6.085  0.0000E+00  0.0000E+00  0.8080E+03  0.8080E+03
      6.138  0.0000E+00  0.0000E+00  0.8080E+03  0.8080E+03
      6.192  0.0000E+00  0.0000E+00  0.8080E+03  0.8080E+03
