Si and Ge interface calculation         
           1
    16.002676    0.000000    0.000000
   -16.002676   11.315601    0.000000
     0.000000    0.000000   25.997660
   Ge   Sn
    96    72
Direct configuration=     1
   0.96906769  0.47937849  0.00000001
   0.59406769  0.22937848  0.07694288
   0.21906763  0.97937840  0.15388578
   0.84406769  0.72937846  0.23082864
   0.46906781  0.47937852  0.30777150
   0.09406769  0.22937846  0.38471437
   0.96906769  0.97937846  0.00000001
   0.59406769  0.72937846  0.07694288
   0.21906763  0.47937840  0.15388577
   0.84406769  0.22937846  0.23082864
   0.46906781  0.97937858  0.30777147
   0.09406769  0.72937846  0.38471437
   0.46906772  0.47937849  0.00000001
   0.09406771  0.22937848  0.07694288
   0.71906763  0.97937840  0.15388577
   0.34406775  0.72937846  0.23082864
   0.96906781  0.47937852  0.30777147
   0.59406769  0.22937846  0.38471437
   0.46906769  0.97937846  0.00000000
   0.09406770  0.72937846  0.07694288
   0.71906763  0.47937840  0.15388577
   0.34406769  0.22937846  0.23082864
   0.96906781  0.97937858  0.30777150
   0.59406769  0.72937846  0.38471433
   0.21906771  0.47937849  0.00000001
   0.84406769  0.22937848  0.07694289
   0.46906763  0.97937840  0.15388577
   0.09406769  0.72937846  0.23082864
   0.71906781  0.47937852  0.30777150
   0.34406769  0.22937846  0.38471433
   0.21906768  0.97937846  0.00000001
   0.84406769  0.72937846  0.07694288
   0.46906763  0.47937840  0.15388577
   0.09406769  0.22937846  0.23082864
   0.71906781  0.97937858  0.30777150
   0.34406769  0.72937846  0.38471437
   0.71906769  0.47937849  0.00000001
   0.34406772  0.22937848  0.07694288
   0.96906763  0.97937840  0.15388577
   0.59406769  0.72937846  0.23082864
   0.21906775  0.47937852  0.30777150
   0.84406769  0.22937846  0.38471433
   0.71906763  0.97937846  0.00000001
   0.34406769  0.72937846  0.07694290
   0.96906763  0.47937840  0.15388577
   0.59406769  0.22937846  0.23082864
   0.21906787  0.97937858  0.30777153
   0.84406769  0.72937846  0.38471437
   0.21906774  0.85437852  0.00000000
   0.84406769  0.60437846  0.07694288
   0.46906769  0.35437846  0.15388577
   0.09406775  0.10437850  0.23082864
   0.71906781  0.85437852  0.30777147
   0.34406769  0.60437852  0.38471437
   0.21906768  0.35437846  0.00000001
   0.84406769  0.10437846  0.07694288
   0.46906763  0.85437840  0.15388577
   0.09406763  0.60437846  0.23082864
   0.71906769  0.35437846  0.30777150
   0.34406757  0.10437840  0.38471433
   0.71906775  0.85437852  0.00000001
   0.34406766  0.60437846  0.07694288
   0.96906763  0.35437846  0.15388575
   0.59406769  0.10437850  0.23082864
   0.21906781  0.85437852  0.30777150
   0.84406769  0.60437852  0.38471433
   0.71906769  0.35437846  0.00000001
   0.34406769  0.10437846  0.07694288
   0.96906763  0.85437840  0.15388578
   0.59406769  0.60437846  0.23082864
   0.21906775  0.35437846  0.30777150
   0.84406757  0.10437840  0.38471437
   0.96906769  0.85437852  0.00000002
   0.59406763  0.60437846  0.07694290
   0.21906763  0.35437846  0.15388577
   0.84406757  0.10437850  0.23082867
   0.46906781  0.85437852  0.30777153
   0.09406769  0.60437852  0.38471437
   0.96906769  0.35437846  0.00000000
   0.59406769  0.10437846  0.07694288
   0.21906763  0.85437840  0.15388577
   0.84406769  0.60437846  0.23082864
   0.46906769  0.35437846  0.30777147
   0.09406769  0.10437840  0.38471433
   0.46906775  0.85437852  0.00000000
   0.09406768  0.60437846  0.07694288
   0.71906769  0.35437846  0.15388577
   0.34406775  0.10437850  0.23082864
   0.96906781  0.85437852  0.30777147
   0.59406781  0.60437852  0.38471433
   0.46906769  0.35437846  0.00000001
   0.09406769  0.10437846  0.07694288
   0.71906763  0.85437840  0.15388575
   0.34406769  0.60437846  0.23082864
   0.96906769  0.35437846  0.30777150
   0.59406769  0.10437840  0.38471433
   0.46629727  0.94358981  0.47173357
   0.21629727  0.94358981  0.55998296
   0.96629715  0.94358957  0.64823252
   0.71629703  0.94358969  0.73648190
   0.46629703  0.94358945  0.82473129
   0.21629703  0.94358945  0.91298080
   0.46629727  0.61025643  0.47173357
   0.21629727  0.61025643  0.55998296
   0.96629715  0.61025631  0.64823252
   0.71629703  0.61025619  0.73648190
   0.46629703  0.61025608  0.82473129
   0.21629703  0.61025608  0.91298080
   0.46629727  0.27692309  0.47173357
   0.21629727  0.27692306  0.55998296
   0.96629715  0.27692294  0.64823252
   0.71629703  0.27692294  0.73648190
   0.46629703  0.27692282  0.82473129
   0.21629703  0.27692270  0.91298080
   0.96629727  0.94358981  0.47173357
   0.71629721  0.94358981  0.55998296
   0.46629715  0.94358969  0.64823252
   0.21629715  0.94358957  0.73648190
   0.96629703  0.94358945  0.82473129
   0.71629703  0.94358945  0.91298080
   0.96629727  0.61025643  0.47173357
   0.71629721  0.61025637  0.55998296
   0.46629715  0.61025631  0.64823252
   0.21629715  0.61025626  0.73648190
   0.96629703  0.61025619  0.82473129
   0.71629703  0.61025608  0.91298080
   0.96629727  0.27692306  0.47173357
   0.71629721  0.27692306  0.55998296
   0.46629715  0.27692294  0.64823252
   0.21629715  0.27692294  0.73648190
   0.96629703  0.27692282  0.82473129
   0.71629703  0.27692270  0.91298080
   0.21629727  0.19358981  0.47173357
   0.96629721  0.19358981  0.55998302
   0.71629715  0.19358969  0.64823252
   0.46629703  0.19358969  0.73648190
   0.21629703  0.19358945  0.82473135
   0.96629703  0.19358957  0.91298080
   0.21629727  0.86025643  0.47173357
   0.96629721  0.86025643  0.55998302
   0.71629715  0.86025631  0.64823252
   0.46629703  0.86025631  0.73648190
   0.21629703  0.86025619  0.82473135
   0.96629703  0.86025619  0.91298080
   0.21629727  0.52692306  0.47173357
   0.96629721  0.52692300  0.55998302
   0.71629715  0.52692294  0.64823252
   0.46629703  0.52692288  0.73648190
   0.21629703  0.52692282  0.82473135
   0.96629703  0.52692276  0.91298080
   0.71629727  0.19358981  0.47173357
   0.46629727  0.19358981  0.55998302
   0.21629715  0.19358969  0.64823252
   0.96629703  0.19358969  0.73648190
   0.71629703  0.19358957  0.82473129
   0.46629703  0.19358957  0.91298080
   0.71629727  0.86025643  0.47173357
   0.46629727  0.86025643  0.55998302
   0.21629715  0.86025631  0.64823252
   0.96629703  0.86025619  0.73648190
   0.71629703  0.86025619  0.82473129
   0.46629703  0.86025619  0.91298080
   0.71629727  0.52692312  0.47173357
   0.46629727  0.52692306  0.55998302
   0.21629715  0.52692294  0.64823252
   0.96629703  0.52692282  0.73648190
   0.71629703  0.52692288  0.82473129
   0.46629703  0.52692282  0.91298080
