   72   72    1    2
  0.8137584E+01  0.7975607E-09  0.1286028E-08  0.1151358E-08  0.5000000E-15
  1.000000000000000E-004
  CAR 
 Si and Ge interface calculation         
    288     61    176
 
  0.0000000E+00  0.0000000E+00  0.0000000E+00  0.8333333E-02
      1        -14.222294      -14.215846   1.000000   1.000000
      2        -12.993678      -12.981034   1.000000   1.000000
      3        -12.421779      -12.417953   1.000000   1.000000
      4        -11.690029      -11.656696   1.000000   1.000000
      5        -11.489419      -11.474743   1.000000   1.000000
      6        -11.444498      -11.441778   1.000000   1.000000
      7        -11.101525      -11.083708   1.000000   1.000000
      8        -10.935193      -10.921740   1.000000   1.000000
      9        -10.577068      -10.558054   1.000000   1.000000
     10        -10.296487      -10.251646   1.000000   1.000000
     11        -10.269068      -10.250561   1.000000   1.000000
     12        -10.068429      -10.009274   1.000000   1.000000
     13         -9.919062       -9.897556   1.000000   1.000000
     14         -8.981620       -8.975526   1.000000   1.000000
     15         -8.826538       -8.751989   1.000000   1.000000
     16         -8.035420       -8.019675   1.000000   1.000000
     17         -7.543217       -7.536596   1.000000   1.000000
     18         -7.377387       -7.368802   1.000000   1.000000
     19         -7.199815       -7.182337   1.000000   1.000000
     20         -6.903651       -6.865911   1.000000   1.000000
     21         -6.647176       -6.620299   1.000000   1.000000
     22         -6.620143       -6.600531   1.000000   1.000000
     23         -6.475340       -6.455077   1.000000   1.000000
     24         -6.121478       -6.080228   1.000000   1.000000
     25         -5.999513       -5.952796   1.000000   1.000000
     26         -5.739740       -5.733969   1.000000   1.000000
     27         -5.655097       -5.626497   1.000000   1.000000
     28         -5.576678       -5.528126   1.000000   1.000000
     29         -5.513855       -5.428421   1.000000   1.000000
     30         -5.291469       -5.260907   1.000000   1.000000
     31         -5.064189       -5.041465   1.000000   1.000000
     32         -5.008864       -4.979365   1.000000   1.000000
     33         -4.655860       -4.650102   1.000000   1.000000
     34         -4.630205       -4.614656   1.000000   1.000000
     35         -4.117483       -4.082367   1.000000   1.000000
     36         -4.072003       -4.020245   1.000000   1.000000
     37         -3.580350       -3.564601   1.000000   1.000000
     38         -3.572728       -3.553256   1.000000   1.000000
     39         -3.168842       -3.146397   1.000000   1.000000
     40         -3.113810       -3.055037   1.000000   1.000000
     41         -2.785584       -2.738887   1.000000   1.000000
     42         -2.596403       -2.581545   1.000000   1.000000
     43         -2.557418       -2.534784   1.000000   1.000000
     44         -2.342752       -2.323649   1.000000   1.000000
     45         -2.190115       -2.136469   1.000000   1.000000
     46         -2.097306       -2.065384   1.000000   1.000000
     47         -1.791407       -1.751186   1.000000   1.000000
     48         -1.738705       -1.718228   1.000000   1.000000
     49         -1.701855       -1.681702   1.000000   1.000000
     50         -1.612169       -1.593899   1.000000   1.000000
     51         -1.456763       -1.424479   1.000000   1.000000
     52         -1.264933       -1.256096   1.000000   1.000000
     53         -1.055812       -1.037724   1.000000   1.000000
     54         -0.877069       -0.863539   1.000000   1.000000
     55         -0.603113       -0.563201   1.000000   1.000000
     56         -0.585201       -0.559287   1.000000   1.000000
     57         -0.474586       -0.453111   1.000000   1.000000
     58         -0.301565       -0.265204   1.000000   1.000000
     59         -0.248102       -0.224065   1.000000   1.000000
     60         -0.190916       -0.182426   1.000000   1.000000
     61         -0.114209       -0.076855   1.000000   1.000000
     62         -0.057111       -0.032892   1.000000   1.000000
     63          0.061545        0.124589   1.000000   1.000000
     64          0.292409        0.319006   1.000000   1.000000
     65          0.303946        0.320298   1.000000   1.000000
     66          0.423681        0.469166   1.000000   1.000000
     67          0.594008        0.635436   1.000000   1.000000
     68          0.865813        0.888985   1.000000   1.000000
     69          0.882440        0.899191   1.000000   1.000000
     70          0.954758        0.970083   1.000000   1.000000
     71          1.055533        1.066561   1.000000   1.000000
     72          1.114804        1.143363   1.000000   1.000000
     73          1.350542        1.373514   1.000000   1.000000
     74          1.389048        1.416765   1.000000   1.000000
     75          1.437575        1.477843   1.000000   1.000000
     76          1.462146        1.490848   1.000000   1.000000
     77          1.654148        1.672564   1.000000   1.000000
     78          1.669624        1.693353   1.000000   1.000000
     79          1.682044        1.731091   1.000000   1.000000
     80          1.937227        1.954821   1.000000   1.000000
     81          1.998794        2.010016   1.000000   1.000000
     82          2.125307        2.144875   1.000000   1.000000
     83          2.271996        2.280451   1.000000   1.000000
     84          2.305017        2.317062   1.000000   1.000000
     85          2.435843        2.449754   1.000000   1.000000
     86          2.494480        2.507320   1.000000   1.000000
     87          2.601649        2.621321   1.000000   1.000000
     88          2.700118        2.718327   1.000000   1.000000
     89          2.798011        2.822038   1.000000   1.000000
     90          2.858397        2.871017   1.000000   1.000000
     91          2.983103        3.005239   1.000000   1.000000
     92          3.007815        3.041930   1.000000   1.000000
     93          3.201875        3.224067   1.000000   1.000000
     94          3.231766        3.259151   1.000000   1.000000
     95          3.296285        3.319414   1.000000   1.000000
     96          3.558662        3.566387   1.000000   1.000000
     97          3.602404        3.614809   1.000000   1.000000
     98          3.693746        3.719874   1.000000   1.000000
     99          3.702785        3.724157   1.000000   1.000000
    100          3.891638        3.902634   1.000000   1.000000
    101          3.980762        3.998843   1.000000   1.000000
    102          4.052486        4.069783   1.000000   1.000000
    103          4.181872        4.193333   1.000000   1.000000
    104          4.315374        4.347769   1.000000   1.000000
    105          4.565698        4.590950   1.000000   1.000000
    106          4.647180        4.662070   1.000000   1.000000
    107          4.860734        4.879659   1.000000   1.000000
    108          4.935784        4.955428   1.000000   1.000000
    109          5.083961        5.112934   1.000000   1.000000
    110          5.279383        5.296404   1.000000   1.000000
    111          5.399657        5.406679   1.000000   1.000000
    112          5.474234        5.501917   1.000000   1.000000
    113          5.843375        5.861157   1.000000   1.000000
    114          5.913271        5.921620   1.000000   1.000000
    115          6.095640        6.114729   1.000000   1.000000
    116          6.366953        6.377902   1.000000   1.000000
    117          6.722804        6.739449   1.000000   1.000000
    118          7.077170        7.096894   1.000000   1.000000
    119          7.084717        7.108743   1.000000   1.000000
    120          7.230358        7.249739   1.000000   1.000000
    121          7.320112        7.353243   1.000000   1.000000
    122          7.347694        7.366839   1.000000   1.000000
    123          7.697142        7.714753   1.000000   1.000000
    124          8.069540        8.101920   1.000000   1.000000
    125          8.162080        8.172516   1.000000   1.000000
    126          8.420783        8.446317   1.000000   1.000000
    127          8.557897        8.562802   1.000000   1.000000
    128          8.592088        8.603317   1.000000   1.000000
    129          8.838554        8.860978   1.000000   1.000000
    130          9.064112        9.100050   1.000000   1.000000
    131          9.281182        9.308132   1.000000   1.000000
    132          9.463404        9.478378   1.000000   1.000000
    133          9.648804        9.675437   1.000000   1.000000
    134          9.835894        9.858562   1.000000   1.000000
    135          9.929825        9.938786   1.000000   1.000000
    136         10.007025       10.018082   1.000000   1.000000
    137         10.129974       10.143542   1.000000   1.000000
    138         10.205489       10.294375   1.000000   1.000000
    139         10.549623       10.569309   1.000000   1.000000
    140         10.757581       10.860416   1.000000   1.000000
    141         10.868800       10.891388   1.000000   1.000000
    142         10.971634       11.080100   1.000000   1.000000
    143         11.094495       11.245755   1.000000   1.000000
    144         11.290157       11.308559   1.000000   1.000000
    145         11.537746       11.551336   1.000000   0.095628
    146         11.589979       11.626509   0.016929   0.000000
    147         11.778161       11.798931   0.000000   0.000000
    148         11.799414       11.901597   0.000000   0.000000
    149         11.892572       11.972288   0.000000   0.000000
    150         11.904937       11.975216   0.000000   0.000000
    151         11.960049       12.092076   0.000000   0.000000
    152         12.068958       12.111369   0.000000   0.000000
    153         12.195496       12.245368   0.000000   0.000000
    154         12.493654       12.514527   0.000000   0.000000
    155         12.597429       12.641550   0.000000   0.000000
    156         12.647555       12.730496   0.000000   0.000000
    157         12.838019       12.899586   0.000000   0.000000
    158         12.869998       12.910972   0.000000   0.000000
    159         13.081611       13.110531   0.000000   0.000000
    160         13.124890       13.161878   0.000000   0.000000
    161         13.157664       13.194022   0.000000   0.000000
    162         13.267767       13.281726   0.000000   0.000000
    163         13.516950       13.550460   0.000000   0.000000
    164         13.605906       13.641235   0.000000   0.000000
    165         13.684482       13.713692   0.000000   0.000000
    166         13.870633       13.895816   0.000000   0.000000
    167         13.924004       13.984048   0.000000   0.000000
    168         13.963269       14.003606   0.000000   0.000000
    169         13.991356       14.012144   0.000000   0.000000
    170         14.032463       14.058232   0.000000   0.000000
    171         14.038900       14.076697   0.000000   0.000000
    172         14.136266       14.177460   0.000000   0.000000
    173         14.167103       14.177715   0.000000   0.000000
    174         14.336160       14.382722   0.000000   0.000000
    175         14.409439       14.431428   0.000000   0.000000
    176         14.415795       14.447048   0.000000   0.000000
 
  0.1250000E+00 -0.6175651E-16  0.0000000E+00  0.1666667E-01
      1        -14.152874      -14.147169   1.000000   1.000000
      2        -12.935703      -12.923756   1.000000   1.000000
      3        -12.644846      -12.640425   1.000000   1.000000
      4        -12.176690      -12.149561   1.000000   1.000000
      5        -11.438041      -11.426548   1.000000   1.000000
      6        -11.244754      -11.238080   1.000000   1.000000
      7        -10.973807      -10.944493   1.000000   1.000000
      8        -10.973677      -10.942453   1.000000   1.000000
      9        -10.461052      -10.437894   1.000000   1.000000
     10        -10.357685      -10.346231   1.000000   1.000000
     11         -9.994193       -9.956858   1.000000   1.000000
     12         -9.760595       -9.738052   1.000000   1.000000
     13         -9.534659       -9.490040   1.000000   1.000000
     14         -8.937432       -8.931308   1.000000   1.000000
     15         -8.877656       -8.814842   1.000000   1.000000
     16         -8.171999       -8.157275   1.000000   1.000000
     17         -7.941769       -7.933242   1.000000   1.000000
     18         -7.630931       -7.598925   1.000000   1.000000
     19         -7.372270       -7.341114   1.000000   1.000000
     20         -7.262155       -7.228022   1.000000   1.000000
     21         -6.857468       -6.818606   1.000000   1.000000
     22         -6.810310       -6.775563   1.000000   1.000000
     23         -6.469450       -6.454661   1.000000   1.000000
     24         -6.468422       -6.453946   1.000000   1.000000
     25         -6.216938       -6.183531   1.000000   1.000000
     26         -5.650409       -5.634440   1.000000   1.000000
     27         -5.489593       -5.473968   1.000000   1.000000
     28         -5.235007       -5.198501   1.000000   1.000000
     29         -5.224332       -5.175662   1.000000   1.000000
     30         -5.189959       -5.147101   1.000000   1.000000
     31         -4.715194       -4.689656   1.000000   1.000000
     32         -4.695132       -4.651862   1.000000   1.000000
     33         -4.564316       -4.541476   1.000000   1.000000
     34         -4.318085       -4.294133   1.000000   1.000000
     35         -4.254030       -4.202898   1.000000   1.000000
     36         -3.967501       -3.948088   1.000000   1.000000
     37         -3.830555       -3.819936   1.000000   1.000000
     38         -3.592465       -3.542958   1.000000   1.000000
     39         -3.316363       -3.289460   1.000000   1.000000
     40         -3.169687       -3.129970   1.000000   1.000000
     41         -2.852671       -2.814878   1.000000   1.000000
     42         -2.674184       -2.643625   1.000000   1.000000
     43         -2.311940       -2.272816   1.000000   1.000000
     44         -2.204594       -2.192367   1.000000   1.000000
     45         -2.196409       -2.167935   1.000000   1.000000
     46         -1.854887       -1.828309   1.000000   1.000000
     47         -1.844847       -1.814373   1.000000   1.000000
     48         -1.786647       -1.771540   1.000000   1.000000
     49         -1.577391       -1.535780   1.000000   1.000000
     50         -1.496328       -1.482611   1.000000   1.000000
     51         -1.272386       -1.250235   1.000000   1.000000
     52         -1.220112       -1.200216   1.000000   1.000000
     53         -1.002657       -0.960561   1.000000   1.000000
     54         -0.937308       -0.917082   1.000000   1.000000
     55         -0.834774       -0.811320   1.000000   1.000000
     56         -0.691850       -0.643925   1.000000   1.000000
     57         -0.670490       -0.634940   1.000000   1.000000
     58         -0.397237       -0.368748   1.000000   1.000000
     59         -0.313839       -0.289576   1.000000   1.000000
     60         -0.298115       -0.275479   1.000000   1.000000
     61         -0.123677       -0.096707   1.000000   1.000000
     62         -0.106579       -0.066400   1.000000   1.000000
     63          0.142230        0.166130   1.000000   1.000000
     64          0.183889        0.211117   1.000000   1.000000
     65          0.245969        0.270735   1.000000   1.000000
     66          0.395465        0.407737   1.000000   1.000000
     67          0.662868        0.678208   1.000000   1.000000
     68          0.714251        0.747383   1.000000   1.000000
     69          0.885389        0.905952   1.000000   1.000000
     70          0.942911        0.970027   1.000000   1.000000
     71          1.067320        1.106516   1.000000   1.000000
     72          1.213638        1.231056   1.000000   1.000000
     73          1.224153        1.239826   1.000000   1.000000
     74          1.326770        1.349818   1.000000   1.000000
     75          1.348114        1.370411   1.000000   1.000000
     76          1.423302        1.449186   1.000000   1.000000
     77          1.620209        1.652015   1.000000   1.000000
     78          1.677884        1.711521   1.000000   1.000000
     79          1.797207        1.807802   1.000000   1.000000
     80          1.935736        1.972330   1.000000   1.000000
     81          1.974514        1.992458   1.000000   1.000000
     82          2.203429        2.215822   1.000000   1.000000
     83          2.262237        2.276659   1.000000   1.000000
     84          2.354208        2.375945   1.000000   1.000000
     85          2.354365        2.378011   1.000000   1.000000
     86          2.467193        2.482036   1.000000   1.000000
     87          2.584390        2.601931   1.000000   1.000000
     88          2.749879        2.768499   1.000000   1.000000
     89          2.821258        2.842141   1.000000   1.000000
     90          2.852629        2.873527   1.000000   1.000000
     91          2.980939        3.001583   1.000000   1.000000
     92          2.991023        3.008961   1.000000   1.000000
     93          3.077665        3.098813   1.000000   1.000000
     94          3.229344        3.248178   1.000000   1.000000
     95          3.284482        3.335770   1.000000   1.000000
     96          3.514170        3.526740   1.000000   1.000000
     97          3.588692        3.600856   1.000000   1.000000
     98          3.686587        3.702494   1.000000   1.000000
     99          3.827563        3.858495   1.000000   1.000000
    100          4.008688        4.024300   1.000000   1.000000
    101          4.032635        4.047827   1.000000   1.000000
    102          4.261035        4.280270   1.000000   1.000000
    103          4.338527        4.365825   1.000000   1.000000
    104          4.516932        4.533598   1.000000   1.000000
    105          4.584052        4.604673   1.000000   1.000000
    106          4.669344        4.679666   1.000000   1.000000
    107          4.750710        4.766149   1.000000   1.000000
    108          4.855939        4.879938   1.000000   1.000000
    109          4.919985        4.939994   1.000000   1.000000
    110          5.364961        5.385561   1.000000   1.000000
    111          5.393385        5.400559   1.000000   1.000000
    112          5.682247        5.713865   1.000000   1.000000
    113          5.807859        5.825605   1.000000   1.000000
    114          5.842718        5.849427   1.000000   1.000000
    115          6.202850        6.222704   1.000000   1.000000
    116          6.447382        6.466129   1.000000   1.000000
    117          6.705993        6.720541   1.000000   1.000000
    118          7.022685        7.041364   1.000000   1.000000
    119          7.135543        7.154445   1.000000   1.000000
    120          7.236751        7.254196   1.000000   1.000000
    121          7.314924        7.344530   1.000000   1.000000
    122          7.395515        7.416404   1.000000   1.000000
    123          7.666220        7.684109   1.000000   1.000000
    124          7.813957        7.833803   1.000000   1.000000
    125          8.171939        8.192625   1.000000   1.000000
    126          8.279362        8.293523   1.000000   1.000000
    127          8.457043        8.481921   1.000000   1.000000
    128          8.579822        8.590162   1.000000   1.000000
    129          8.731641        8.750118   1.000000   1.000000
    130          8.919655        8.945402   1.000000   1.000000
    131          9.145862        9.164725   1.000000   1.000000
    132          9.244690        9.265209   1.000000   1.000000
    133          9.359214        9.371394   1.000000   1.000000
    134          9.526134        9.542940   1.000000   1.000000
    135          9.842812        9.867917   1.000000   1.000000
    136         10.065925       10.077479   1.000000   1.000000
    137         10.193624       10.210359   1.000000   1.000000
    138         10.202963       10.218033   1.000000   1.000000
    139         10.481560       10.516923   1.000000   1.000000
    140         10.646193       10.776891   1.000000   1.000000
    141         10.976669       11.098796   1.000000   1.000000
    142         11.055355       11.112974   1.000000   1.000000
    143         11.214162       11.374903   1.000000   1.000000
    144         11.461856       11.538795   1.000000   0.679672
    145         11.676475       11.702883   0.000000   0.000000
    146         11.714978       11.780735   0.000000   0.000000
    147         11.809055       11.842876   0.000000   0.000000
    148         11.836299       11.953504   0.000000   0.000000
    149         11.992556       12.112510   0.000000   0.000000
    150         12.126848       12.151239   0.000000   0.000000
    151         12.158681       12.183409   0.000000   0.000000
    152         12.273489       12.357126   0.000000   0.000000
    153         12.416121       12.458672   0.000000   0.000000
    154         12.614910       12.644606   0.000000   0.000000
    155         12.705942       12.748766   0.000000   0.000000
    156         12.793900       12.819164   0.000000   0.000000
    157         12.912370       12.946680   0.000000   0.000000
    158         13.019050       13.077717   0.000000   0.000000
    159         13.116031       13.162993   0.000000   0.000000
    160         13.240044       13.275432   0.000000   0.000000
    161         13.330192       13.374315   0.000000   0.000000
    162         13.348781       13.390260   0.000000   0.000000
    163         13.429680       13.452127   0.000000   0.000000
    164         13.505952       13.541474   0.000000   0.000000
    165         13.591682       13.635558   0.000000   0.000000
    166         13.792941       13.816286   0.000000   0.000000
    167         13.796825       13.822825   0.000000   0.000000
    168         13.858419       13.902105   0.000000   0.000000
    169         13.922972       13.939759   0.000000   0.000000
    170         14.038923       14.067602   0.000000   0.000000
    171         14.154842       14.192077   0.000000   0.000000
    172         14.245822       14.260725   0.000000   0.000000
    173         14.258043       14.284718   0.000000   0.000000
    174         14.375541       14.399841   0.000000   0.000000
    175         14.394656       14.418248   0.000000   0.000000
    176         14.471280       14.507805   0.000000   0.000000
 
  0.2500000E+00 -0.1235130E-15  0.0000000E+00  0.1666667E-01
      1        -13.978890      -13.974976   1.000000   1.000000
      2        -13.047389      -13.041565   1.000000   1.000000
      3        -12.775354      -12.766511   1.000000   1.000000
      4        -12.492906      -12.461996   1.000000   1.000000
      5        -11.847683      -11.833308   1.000000   1.000000
      6        -11.009623      -10.970084   1.000000   1.000000
      7        -10.969808      -10.956096   1.000000   1.000000
      8        -10.785007      -10.762733   1.000000   1.000000
      9        -10.324058      -10.303761   1.000000   1.000000
     10         -9.762334       -9.750429   1.000000   1.000000
     11         -9.749407       -9.736190   1.000000   1.000000
     12         -9.444707       -9.398719   1.000000   1.000000
     13         -9.052512       -9.015390   1.000000   1.000000
     14         -8.955254       -8.932260   1.000000   1.000000
     15         -8.777847       -8.755176   1.000000   1.000000
     16         -8.485558       -8.473258   1.000000   1.000000
     17         -8.427820       -8.408653   1.000000   1.000000
     18         -7.887719       -7.829903   1.000000   1.000000
     19         -7.718788       -7.677919   1.000000   1.000000
     20         -7.580111       -7.546882   1.000000   1.000000
     21         -7.255579       -7.244127   1.000000   1.000000
     22         -7.045354       -7.024505   1.000000   1.000000
     23         -6.849798       -6.810552   1.000000   1.000000
     24         -6.306905       -6.296490   1.000000   1.000000
     25         -6.265885       -6.215961   1.000000   1.000000
     26         -5.605883       -5.582689   1.000000   1.000000
     27         -5.503315       -5.473914   1.000000   1.000000
     28         -5.422079       -5.396519   1.000000   1.000000
     29         -5.285118       -5.261132   1.000000   1.000000
     30         -4.862329       -4.839041   1.000000   1.000000
     31         -4.719799       -4.682097   1.000000   1.000000
     32         -4.595588       -4.559959   1.000000   1.000000
     33         -4.539134       -4.516919   1.000000   1.000000
     34         -4.085904       -4.061333   1.000000   1.000000
     35         -3.802262       -3.760807   1.000000   1.000000
     36         -3.640750       -3.622446   1.000000   1.000000
     37         -3.566991       -3.535525   1.000000   1.000000
     38         -3.311024       -3.275661   1.000000   1.000000
     39         -3.200957       -3.171095   1.000000   1.000000
     40         -2.926268       -2.888853   1.000000   1.000000
     41         -2.844661       -2.797406   1.000000   1.000000
     42         -2.814734       -2.778252   1.000000   1.000000
     43         -2.515902       -2.485338   1.000000   1.000000
     44         -2.224498       -2.175704   1.000000   1.000000
     45         -2.179231       -2.164831   1.000000   1.000000
     46         -1.937888       -1.902094   1.000000   1.000000
     47         -1.853901       -1.825280   1.000000   1.000000
     48         -1.714245       -1.702280   1.000000   1.000000
     49         -1.623126       -1.585023   1.000000   1.000000
     50         -1.484953       -1.452638   1.000000   1.000000
     51         -1.368092       -1.338610   1.000000   1.000000
     52         -1.290192       -1.267737   1.000000   1.000000
     53         -1.088326       -1.062604   1.000000   1.000000
     54         -0.970043       -0.931329   1.000000   1.000000
     55         -0.782202       -0.750215   1.000000   1.000000
     56         -0.757701       -0.725805   1.000000   1.000000
     57         -0.592033       -0.571139   1.000000   1.000000
     58         -0.586511       -0.563399   1.000000   1.000000
     59         -0.330761       -0.314448   1.000000   1.000000
     60         -0.264841       -0.241761   1.000000   1.000000
     61         -0.144958       -0.109577   1.000000   1.000000
     62          0.027684        0.049957   1.000000   1.000000
     63          0.029473        0.054666   1.000000   1.000000
     64          0.169175        0.180447   1.000000   1.000000
     65          0.376788        0.402158   1.000000   1.000000
     66          0.573240        0.593366   1.000000   1.000000
     67          0.620580        0.634894   1.000000   1.000000
     68          0.721295        0.752603   1.000000   1.000000
     69          0.771599        0.782500   1.000000   1.000000
     70          0.855644        0.884367   1.000000   1.000000
     71          0.880152        0.912595   1.000000   1.000000
     72          1.079420        1.093797   1.000000   1.000000
     73          1.084026        1.122564   1.000000   1.000000
     74          1.284723        1.295459   1.000000   1.000000
     75          1.468035        1.508576   1.000000   1.000000
     76          1.505712        1.528147   1.000000   1.000000
     77          1.569343        1.603507   1.000000   1.000000
     78          1.599937        1.617386   1.000000   1.000000
     79          1.697015        1.713260   1.000000   1.000000
     80          1.904575        1.912738   1.000000   1.000000
     81          1.913328        1.924142   1.000000   1.000000
     82          2.017672        2.054086   1.000000   1.000000
     83          2.184230        2.206963   1.000000   1.000000
     84          2.203998        2.212730   1.000000   1.000000
     85          2.404458        2.433358   1.000000   1.000000
     86          2.427540        2.449846   1.000000   1.000000
     87          2.645970        2.669624   1.000000   1.000000
     88          2.759606        2.779868   1.000000   1.000000
     89          2.860140        2.875900   1.000000   1.000000
     90          2.935187        2.967130   1.000000   1.000000
     91          3.015761        3.038763   1.000000   1.000000
     92          3.029797        3.057610   1.000000   1.000000
     93          3.210659        3.230958   1.000000   1.000000
     94          3.258968        3.300135   1.000000   1.000000
     95          3.394688        3.408054   1.000000   1.000000
     96          3.555397        3.566096   1.000000   1.000000
     97          3.612176        3.636003   1.000000   1.000000
     98          3.624744        3.638491   1.000000   1.000000
     99          3.756059        3.782965   1.000000   1.000000
    100          4.007445        4.018380   1.000000   1.000000
    101          4.128184        4.153342   1.000000   1.000000
    102          4.232996        4.246500   1.000000   1.000000
    103          4.281953        4.304863   1.000000   1.000000
    104          4.380264        4.411794   1.000000   1.000000
    105          4.665468        4.687525   1.000000   1.000000
    106          4.722855        4.745954   1.000000   1.000000
    107          4.882872        4.903486   1.000000   1.000000
    108          5.123654        5.134760   1.000000   1.000000
    109          5.125507        5.137275   1.000000   1.000000
    110          5.417859        5.430743   1.000000   1.000000