 156 156   0   0
  0.2314675E+02  0.1600268E-08  0.1697340E-08  0.1329392E-08  0.5000000E-15
  1.000000000000000E-004
  CAR 
 Si and Ge interface calculation         
      6.94899918     -8.78449484  301      4.20630523      1.00000000
     -8.784  0.0000E+00  0.0000E+00  0.0000E+00  0.0000E+00
     -8.732  0.0000E+00  0.0000E+00  0.0000E+00  0.0000E+00
     -8.680  0.0000E+00  0.0000E+00  0.0000E+00  0.0000E+00
     -8.627  0.0000E+00  0.0000E+00  0.0000E+00  0.0000E+00
     -8.575  0.0000E+00  0.0000E+00  0.0000E+00  0.0000E+00
     -8.522  0.0000E+00  0.0000E+00  0.0000E+00  0.0000E+00
     -8.470  0.0000E+00  0.0000E+00  0.0000E+00  0.0000E+00
     -8.417  0.0000E+00  0.0000E+00  0.0000E+00  0.0000E+00
     -8.365  0.0000E+00  0.0000E+00  0.0000E+00  0.0000E+00
     -8.312  0.0000E+00  0.0000E+00  0.0000E+00  0.0000E+00
     -8.260  0.0000E+00  0.0000E+00  0.0000E+00  0.0000E+00
     -8.208  0.0000E+00  0.0000E+00  0.0000E+00  0.0000E+00
     -8.155  0.0000E+00  0.0000E+00  0.0000E+00  0.0000E+00
     -8.103  0.5842E-05  0.2740E-06  0.3064E-06  0.1437E-07
     -8.050  0.9426E+01  0.9125E+01  0.4944E+00  0.4786E+00
     -7.998  0.1929E+02  0.1943E+02  0.1506E+01  0.1498E+01
     -7.945  0.9422E+01  0.9581E+01  0.2000E+01  0.2000E+01
     -7.893  0.1380E+00  0.1631E-01  0.2007E+01  0.2001E+01
     -7.840  0.9493E+01  0.9527E+01  0.2505E+01  0.2500E+01
     -7.788  0.9436E+01  0.9524E+01  0.3000E+01  0.3000E+01
     -7.736  0.8264E+01  0.6707E+01  0.3433E+01  0.3352E+01
     -7.683  0.1213E+02  0.1293E+02  0.4070E+01  0.4030E+01
     -7.631  0.2580E+02  0.2493E+02  0.5423E+01  0.5338E+01
     -7.578  0.4549E+01  0.5271E+01  0.5662E+01  0.5614E+01
     -7.526  0.2405E+02  0.2032E+02  0.6923E+01  0.6680E+01
     -7.473  0.2768E+02  0.2995E+02  0.8374E+01  0.8250E+01
     -7.421  0.3099E+02  0.3331E+02  0.1000E+02  0.9997E+01
     -7.368  0.7714E+01  0.6092E+01  0.1040E+02  0.1032E+02
     -7.316  0.2544E+02  0.2465E+02  0.1174E+02  0.1161E+02
     -7.264  0.2808E+02  0.2927E+02  0.1321E+02  0.1314E+02
     -7.211  0.2047E+02  0.2125E+02  0.1428E+02  0.1426E+02
     -7.159  0.2482E+02  0.2354E+02  0.1559E+02  0.1549E+02
     -7.106  0.3824E+02  0.3540E+02  0.1759E+02  0.1735E+02
     -7.054  0.3005E+02  0.3049E+02  0.1917E+02  0.1895E+02
     -7.001  0.4928E+02  0.5306E+02  0.2175E+02  0.2173E+02
     -6.949  0.3945E+02  0.3737E+02  0.2382E+02  0.2369E+02
     -6.896  0.2961E+02  0.2920E+02  0.2537E+02  0.2522E+02
     -6.844  0.2476E+02  0.2547E+02  0.2667E+02  0.2656E+02
     -6.792  0.3476E+02  0.3316E+02  0.2850E+02  0.2830E+02
     -6.739  0.3570E+02  0.3697E+02  0.3037E+02  0.3024E+02
     -6.687  0.3625E+02  0.3565E+02  0.3227E+02  0.3211E+02
     -6.634  0.3592E+02  0.3552E+02  0.3415E+02  0.3397E+02
     -6.582  0.2220E+02  0.2308E+02  0.3532E+02  0.3518E+02
     -6.529  0.1947E+02  0.1780E+02  0.3634E+02  0.3611E+02
     -6.477  0.4008E+02  0.4164E+02  0.3844E+02  0.3830E+02
     -6.424  0.3757E+02  0.3824E+02  0.4041E+02  0.4030E+02
     -6.372  0.3689E+02  0.3278E+02  0.4235E+02  0.4202E+02
     -6.320  0.4127E+02  0.4267E+02  0.4451E+02  0.4426E+02
     -6.267  0.3780E+02  0.3792E+02  0.4649E+02  0.4625E+02
     -6.215  0.4118E+02  0.4430E+02  0.4865E+02  0.4857E+02
     -6.162  0.4214E+02  0.4036E+02  0.5086E+02  0.5069E+02
     -6.110  0.5029E+02  0.4778E+02  0.5350E+02  0.5319E+02
     -6.057  0.5343E+02  0.5290E+02  0.5630E+02  0.5597E+02
     -6.005  0.2658E+02  0.2991E+02  0.5769E+02  0.5754E+02
     -5.952  0.4942E+02  0.4881E+02  0.6029E+02  0.6010E+02
     -5.900  0.4666E+02  0.4400E+02  0.6273E+02  0.6240E+02
     -5.848  0.4767E+02  0.5091E+02  0.6523E+02  0.6507E+02
     -5.795  0.4657E+02  0.4229E+02  0.6768E+02  0.6729E+02
     -5.743  0.4009E+02  0.4273E+02  0.6978E+02  0.6953E+02
     -5.690  0.6184E+02  0.5842E+02  0.7302E+02  0.7260E+02
     -5.638  0.5724E+02  0.6211E+02  0.7602E+02  0.7585E+02
     -5.585  0.5417E+02  0.5557E+02  0.7887E+02  0.7877E+02
     -5.533  0.4866E+02  0.4676E+02  0.8142E+02  0.8122E+02
     -5.480  0.4547E+02  0.4350E+02  0.8380E+02  0.8350E+02
     -5.428  0.7860E+02  0.7911E+02  0.8792E+02  0.8765E+02
     -5.376  0.5675E+02  0.5939E+02  0.9090E+02  0.9077E+02
     -5.323  0.4756E+02  0.4713E+02  0.9339E+02  0.9324E+02
     -5.271  0.4633E+02  0.4493E+02  0.9582E+02  0.9559E+02
     -5.218  0.5381E+02  0.5594E+02  0.9865E+02  0.9853E+02
     -5.166  0.2600E+02  0.2594E+02  0.1000E+03  0.9989E+02
     -5.113  0.3729E+02  0.3643E+02  0.1020E+03  0.1018E+03
     -5.061  0.3221E+02  0.2844E+02  0.1037E+03  0.1033E+03
     -5.008  0.3987E+02  0.4280E+02  0.1057E+03  0.1055E+03
     -4.956  0.4618E+02  0.4602E+02  0.1082E+03  0.1079E+03
     -4.904  0.5407E+02  0.5438E+02  0.1110E+03  0.1108E+03
     -4.851  0.6367E+02  0.6323E+02  0.1143E+03  0.1141E+03
     -4.799  0.5657E+02  0.5741E+02  0.1173E+03  0.1171E+03
     -4.746  0.6583E+02  0.6258E+02  0.1208E+03  0.1204E+03
     -4.694  0.5489E+02  0.5552E+02  0.1236E+03  0.1233E+03
     -4.641  0.5829E+02  0.5945E+02  0.1267E+03  0.1264E+03
     -4.589  0.2863E+02  0.3073E+02  0.1282E+03  0.1281E+03
     -4.536  0.2829E+02  0.2883E+02  0.1297E+03  0.1296E+03
     -4.484  0.3626E+02  0.3442E+02  0.1316E+03  0.1314E+03
     -4.432  0.2299E+02  0.2349E+02  0.1328E+03  0.1326E+03
     -4.379  0.3988E+02  0.4135E+02  0.1349E+03  0.1348E+03
     -4.327  0.4143E+02  0.3835E+02  0.1371E+03  0.1368E+03
     -4.274  0.2833E+02  0.3015E+02  0.1385E+03  0.1384E+03
     -4.222  0.4502E+02  0.4583E+02  0.1409E+03  0.1408E+03
     -4.169  0.3261E+02  0.2977E+02  0.1426E+03  0.1423E+03
     -4.117  0.4154E+02  0.4463E+02  0.1448E+03  0.1447E+03
     -4.064  0.1574E+02  0.1520E+02  0.1456E+03  0.1455E+03
     -4.012  0.3856E+02  0.3593E+02  0.1476E+03  0.1473E+03
     -3.960  0.3546E+02  0.3820E+02  0.1495E+03  0.1494E+03
     -3.907  0.2935E+02  0.2715E+02  0.1510E+03  0.1508E+03
     -3.855  0.5082E+02  0.5298E+02  0.1537E+03  0.1536E+03
     -3.802  0.2526E+02  0.2383E+02  0.1550E+03  0.1548E+03
     -3.750  0.4511E+02  0.4311E+02  0.1574E+03  0.1571E+03
     -3.697  0.6503E+02  0.6440E+02  0.1608E+03  0.1604E+03
     -3.645  0.2989E+02  0.3224E+02  0.1624E+03  0.1621E+03
     -3.592  0.6303E+02  0.6359E+02  0.1657E+03  0.1655E+03
     -3.540  0.2345E+02  0.2565E+02  0.1669E+03  0.1668E+03
     -3.488  0.2981E+02  0.2537E+02  0.1685E+03  0.1681E+03
     -3.435  0.3484E+02  0.3795E+02  0.1703E+03  0.1701E+03
     -3.383  0.3796E+02  0.3429E+02  0.1723E+03  0.1719E+03
     -3.330  0.4493E+02  0.4785E+02  0.1746E+03  0.1744E+03
     -3.278  0.3375E+02  0.3254E+02  0.1764E+03  0.1761E+03
     -3.225  0.3366E+02  0.3415E+02  0.1782E+03  0.1779E+03
     -3.173  0.3201E+02  0.3251E+02  0.1799E+03  0.1796E+03
     -3.120  0.3128E+02  0.2931E+02  0.1815E+03  0.1812E+03
     -3.068  0.3991E+02  0.4268E+02  0.1836E+03  0.1834E+03
     -3.016  0.5137E+02  0.5120E+02  0.1863E+03  0.1861E+03
     -2.963  0.2410E+02  0.2293E+02  0.1875E+03  0.1873E+03
     -2.911  0.2276E+02  0.2360E+02  0.1887E+03  0.1885E+03
     -2.858  0.4603E+02  0.4208E+02  0.1912E+03  0.1908E+03
     -2.806  0.3468E+02  0.4033E+02  0.1930E+03  0.1929E+03
     -2.753  0.5031E+02  0.4739E+02  0.1956E+03  0.1954E+03
     -2.701  0.4336E+02  0.4313E+02  0.1979E+03  0.1976E+03
     -2.648  0.6136E+02  0.5636E+02  0.2011E+03  0.2006E+03
     -2.596  0.5006E+02  0.5542E+02  0.2037E+03  0.2035E+03
     -2.544  0.3356E+02  0.3556E+02  0.2055E+03  0.2053E+03
     -2.491  0.4191E+02  0.3966E+02  0.2077E+03  0.2074E+03
     -2.439  0.5479E+02  0.5215E+02  0.2106E+03  0.2102E+03
     -2.386  0.6920E+02  0.6769E+02  0.2142E+03  0.2137E+03
     -2.334  0.3260E+02  0.4019E+02  0.2159E+03  0.2158E+03
     -2.281  0.6866E+02  0.6292E+02  0.2195E+03  0.2191E+03
     -2.229  0.4989E+02  0.5124E+02  0.2221E+03  0.2218E+03
     -2.176  0.5876E+02  0.5939E+02  0.2252E+03  0.2249E+03
     -2.124  0.3951E+02  0.3820E+02  0.2273E+03  0.2269E+03
     -2.072  0.6161E+02  0.6430E+02  0.2305E+03  0.2303E+03
     -2.019  0.4765E+02  0.4623E+02  0.2330E+03  0.2327E+03
     -1.967  0.4623E+02  0.4835E+02  0.2354E+03  0.2353E+03
     -1.914  0.5484E+02  0.4991E+02  0.2383E+03  0.2379E+03
     -1.862  0.3942E+02  0.4554E+02  0.2404E+03  0.2403E+03
     -1.809  0.4898E+02  0.4567E+02  0.2429E+03  0.2427E+03
     -1.757  0.4235E+02  0.4391E+02  0.2452E+03  0.2450E+03
     -1.704  0.3764E+02  0.3685E+02  0.2471E+03  0.2469E+03
     -1.652  0.4102E+02  0.4382E+02  0.2493E+03  0.2492E+03
     -1.600  0.3055E+02  0.2812E+02  0.2509E+03  0.2507E+03
     -1.547  0.3716E+02  0.3875E+02  0.2528E+03  0.2527E+03
     -1.495  0.3843E+02  0.3445E+02  0.2549E+03  0.2545E+03
     -1.442  0.3711E+02  0.3998E+02  0.2568E+03  0.2566E+03
     -1.390  0.4689E+02  0.4467E+02  0.2593E+03  0.2589E+03
     -1.337  0.3423E+02  0.3562E+02  0.2611E+03  0.2608E+03
     -1.285  0.4990E+02  0.5091E+02  0.2637E+03  0.2635E+03
     -1.232  0.4031E+02  0.3724E+02  0.2658E+03  0.2654E+03
     -1.180  0.2845E+02  0.3083E+02  0.2673E+03  0.2671E+03
     -1.128  0.3703E+02  0.3548E+02  0.2692E+03  0.2689E+03
     -1.075  0.2617E+02  0.2956E+02  0.2706E+03  0.2705E+03
     -1.023  0.3682E+02  0.3881E+02  0.2725E+03  0.2725E+03
     -0.970  0.2804E+02  0.2614E+02  0.2740E+03  0.2739E+03
     -0.918  0.1773E+02  0.1826E+02  0.2749E+03  0.2748E+03
     -0.865  0.2594E+02  0.2345E+02  0.2763E+03  0.2761E+03
     -0.813  0.3258E+02  0.3026E+02  0.2780E+03  0.2776E+03
     -0.760  0.3923E+02  0.4214E+02  0.2801E+03  0.2799E+03
     -0.708  0.3135E+02  0.2824E+02  0.2817E+03  0.2813E+03
     -0.656  0.3773E+02  0.4220E+02  0.2837E+03  0.2835E+03
     -0.603  0.3964E+02  0.3660E+02  0.2858E+03  0.2855E+03
     -0.551  0.3555E+02  0.3757E+02  0.2876E+03  0.2874E+03
     -0.498  0.2628E+02  0.2692E+02  0.2890E+03  0.2888E+03
     -0.446  0.3681E+02  0.3595E+02  0.2909E+03  0.2907E+03
     -0.393  0.2785E+02  0.2787E+02  0.2924E+03  0.2922E+03
     -0.341  0.2851E+02  0.3037E+02  0.2939E+03  0.2938E+03
     -0.288  0.1305E+02  0.1299E+02  0.2946E+03  0.2945E+03
     -0.236  0.3519E+02  0.3457E+02  0.2964E+03  0.2963E+03
     -0.184  0.3671E+02  0.3361E+02  0.2983E+03  0.2980E+03
     -0.131  0.2220E+02  0.2627E+02  0.2995E+03  0.2994E+03
     -0.079  0.2872E+02  0.2730E+02  0.3010E+03  0.3009E+03
     -0.026  0.4451E+02  0.4377E+02  0.3033E+03  0.3032E+03
      0.026  0.2922E+02  0.2962E+02  0.3049E+03  0.3047E+03
      0.079  0.3406E+02  0.3216E+02  0.3067E+03  0.3064E+03
      0.131  0.8115E+02  0.7851E+02  0.3109E+03  0.3105E+03
      0.184  0.6057E+02  0.6174E+02  0.3141E+03  0.3137E+03
      0.236  0.6657E+02  0.6515E+02  0.3176E+03  0.3172E+03
      0.288  0.7221E+02  0.7259E+02  0.3214E+03  0.3210E+03
      0.341  0.6858E+02  0.7009E+02  0.3250E+03  0.3246E+03
      0.393  0.7709E+02  0.7053E+02  0.3290E+03  0.3283E+03
      0.446  0.1005E+03  0.1039E+03  0.3343E+03  0.3338E+03
      0.498  0.8436E+02  0.8713E+02  0.3387E+03  0.3384E+03
      0.551  0.8931E+02  0.8611E+02  0.3434E+03  0.3429E+03
      0.603  0.9145E+02  0.9469E+02  0.3482E+03  0.3478E+03
      0.656  0.7962E+02  0.7934E+02  0.3524E+03  0.3520E+03
      0.708  0.8786E+02  0.8787E+02  0.3570E+03  0.3566E+03
      0.760  0.8103E+02  0.7916E+02  0.3612E+03  0.3608E+03
      0.813  0.7404E+02  0.7620E+02  0.3651E+03  0.3648E+03
      0.865  0.8594E+02  0.8528E+02  0.3696E+03  0.3692E+03
      0.918  0.8801E+02  0.8480E+02  0.3742E+03  0.3737E+03
      0.970  0.8378E+02  0.8613E+02  0.3786E+03  0.3782E+03
      1.023  0.1036E+03  0.9957E+02  0.3841E+03  0.3834E+03
      1.075  0.9274E+02  0.9505E+02  0.3889E+03  0.3884E+03
      1.128  0.8146E+02  0.8157E+02  0.3932E+03  0.3927E+03
      1.180  0.1007E+03  0.1061E+03  0.3985E+03  0.3982E+03
      1.232  0.9716E+02  0.9068E+02  0.4036E+03  0.4030E+03
      1.285  0.8445E+02  0.8912E+02  0.4080E+03  0.4077E+03
      1.337  0.9705E+02  0.9605E+02  0.4131E+03  0.4127E+03
      1.390  0.9669E+02  0.9293E+02  0.4182E+03  0.4176E+03
      1.442  0.9695E+02  0.9890E+02  0.4232E+03  0.4228E+03
      1.495  0.8666E+02  0.8528E+02  0.4278E+03  0.4272E+03
      1.547  0.1077E+03  0.1060E+03  0.4334E+03  0.4328E+03
      1.600  0.9192E+02  0.9790E+02  0.4383E+03  0.4379E+03
      1.652  0.1040E+03  0.9983E+02  0.4437E+03  0.4432E+03
      1.705  0.8619E+02  0.8630E+02  0.4482E+03  0.4477E+03
      1.757  0.9608E+02  0.9672E+02  0.4533E+03  0.4528E+03
      1.809  0.8108E+02  0.8378E+02  0.4575E+03  0.4572E+03
      1.862  0.7878E+02  0.7966E+02  0.4617E+03  0.4613E+03
      1.914  0.8422E+02  0.7966E+02  0.4661E+03  0.4655E+03
      1.967  0.1002E+03  0.1032E+03  0.4713E+03  0.4709E+03
      2.019  0.8247E+02  0.7938E+02  0.4756E+03  0.4751E+03
      2.072  0.7273E+02  0.7250E+02  0.4795E+03  0.4789E+03
      2.124  0.9848E+02  0.9838E+02  0.4846E+03  0.4841E+03
      2.177  0.1119E+03  0.1107E+03  0.4905E+03  0.4899E+03
      2.229  0.7307E+02  0.7812E+02  0.4943E+03  0.4940E+03
      2.281  0.9681E+02  0.9112E+02  0.4994E+03  0.4987E+03
      2.334  0.8726E+02  0.9219E+02  0.5040E+03  0.5036E+03
      2.386  0.9837E+02  0.9593E+02  0.5091E+03  0.5086E+03
      2.439  0.8280E+02  0.8050E+02  0.5135E+03  0.5128E+03
      2.491  0.9173E+02  0.9426E+02  0.5183E+03  0.5178E+03
      2.544  0.7757E+02  0.8080E+02  0.5224E+03  0.5220E+03
      2.596  0.7706E+02  0.7027E+02  0.5264E+03  0.5257E+03
      2.649  0.8699E+02  0.9147E+02  0.5310E+03  0.5305E+03
      2.701  0.1039E+03  0.1035E+03  0.5364E+03  0.5359E+03
      2.753  0.6637E+02  0.7009E+02  0.5399E+03  0.5396E+03
      2.806  0.7918E+02  0.7727E+02  0.5440E+03  0.5436E+03
      2.858  0.6661E+02  0.6784E+02  0.5475E+03  0.5472E+03
      2.911  0.7947E+02  0.7761E+02  0.5517E+03  0.5513E+03
      2.963  0.6106E+02  0.6011E+02  0.5549E+03  0.5544E+03
      3.016  0.6595E+02  0.6777E+02  0.5584E+03  0.5580E+03
      3.068  0.4941E+02  0.4730E+02  0.5610E+03  0.5605E+03
      3.121  0.6924E+02  0.6753E+02  0.5646E+03  0.5640E+03
      3.173  0.7092E+02  0.7133E+02  0.5683E+03  0.5677E+03
      3.225  0.6708E+02  0.6711E+02  0.5718E+03  0.5713E+03
      3.278  0.6035E+02  0.6322E+02  0.5750E+03  0.5746E+03
      3.330  0.5718E+02  0.5358E+02  0.5780E+03  0.5774E+03
      3.383  0.7181E+02  0.7014E+02  0.5818E+03  0.5811E+03
      3.435  0.6334E+02  0.6220E+02  0.5851E+03  0.5843E+03
      3.488  0.4944E+02  0.5294E+02  0.5877E+03  0.5871E+03
      3.540  0.4772E+02  0.5022E+02  0.5902E+03  0.5897E+03
      3.593  0.5562E+02  0.5425E+02  0.5931E+03  0.5926E+03
      3.645  0.3414E+02  0.3276E+02  0.5949E+03  0.5943E+03
      3.697  0.5334E+02  0.5218E+02  0.5977E+03  0.5970E+03
      3.750  0.4577E+02  0.5025E+02  0.6001E+03  0.5997E+03
      3.802  0.5114E+02  0.4417E+02  0.6028E+03  0.6020E+03
      3.855  0.4917E+02  0.5641E+02  0.6053E+03  0.6050E+03
      3.907  0.5089E+02  0.5494E+02  0.6080E+03  0.6078E+03
      3.960  0.4128E+02  0.3445E+02  0.6102E+03  0.6096E+03
      4.012  0.7170E+02  0.5895E+02  0.6139E+03  0.6127E+03
      4.065  0.3792E+02  0.4909E+02  0.6159E+03  0.6153E+03
      4.117  0.6863E+02  0.5988E+02  0.6195E+03  0.6184E+03
      4.169  0.4447E+02  0.5571E+02  0.6219E+03  0.6214E+03
      4.222  0.4982E+02  0.4672E+02  0.6245E+03  0.6238E+03
      4.274  0.5047E+02  0.5236E+02  0.6271E+03  0.6266E+03
      4.327  0.5246E+02  0.4939E+02  0.6299E+03  0.6292E+03
      4.379  0.5402E+02  0.5419E+02  0.6327E+03  0.6320E+03
      4.432  0.6404E+02  0.5856E+02  0.6361E+03  0.6351E+03
      4.484  0.5816E+02  0.6172E+02  0.6391E+03  0.6383E+03
      4.537  0.6442E+02  0.6893E+02  0.6425E+03  0.6419E+03
      4.589  0.5325E+02  0.5370E+02  0.6453E+03  0.6447E+03
      4.641  0.7055E+02  0.7031E+02  0.6490E+03  0.6484E+03
      4.694  0.5862E+02  0.5773E+02  0.6521E+03  0.6515E+03
      4.746  0.5783E+02  0.5250E+02  0.6551E+03  0.6542E+03
      4.799  0.6142E+02  0.6644E+02  0.6583E+03  0.6577E+03
      4.851  0.5360E+02  0.5513E+02  0.6611E+03  0.6606E+03
      4.904  0.5423E+02  0.5705E+02  0.6640E+03  0.6636E+03
      4.956  0.5131E+02  0.4901E+02  0.6667E+03  0.6661E+03
      5.009  0.6651E+02  0.6488E+02  0.6701E+03  0.6695E+03
      5.061  0.6425E+02  0.6286E+02  0.6735E+03  0.6728E+03
      5.113  0.5283E+02  0.5287E+02  0.6763E+03  0.6756E+03
      5.166  0.5424E+02  0.5908E+02  0.6791E+03  0.6787E+03
      5.218  0.5893E+02  0.5504E+02  0.6822E+03  0.6816E+03
      5.271  0.7465E+02  0.7349E+02  0.6861E+03  0.6855E+03
      5.323  0.6703E+02  0.6442E+02  0.6896E+03  0.6888E+03
      5.376  0.6379E+02  0.7316E+02  0.6930E+03  0.6927E+03
      5.428  0.5645E+02  0.5193E+02  0.6960E+03  0.6954E+03
      5.481  0.6852E+02  0.6642E+02  0.6995E+03  0.6989E+03
      5.533  0.6952E+02  0.6204E+02  0.7032E+03  0.7021E+03
      5.585  0.7857E+02  0.8578E+02  0.7073E+03  0.7066E+03
      5.638  0.6649E+02  0.7211E+02  0.7108E+03  0.7104E+03
      5.690  0.7521E+02  0.7143E+02  0.7147E+03  0.7142E+03
      5.743  0.7212E+02  0.7233E+02  0.7185E+03  0.7180E+03
      5.795  0.6895E+02  0.7203E+02  0.7221E+03  0.7217E+03
      5.848  0.6927E+02  0.6471E+02  0.7258E+03  0.7251E+03
      5.900  0.8348E+02  0.8208E+02  0.7302E+03  0.7294E+03
      5.953  0.7064E+02  0.7424E+02  0.7339E+03  0.7333E+03
      6.005  0.6239E+02  0.6106E+02  0.7371E+03  0.7365E+03
      6.057  0.7544E+02  0.7827E+02  0.7411E+03  0.7406E+03
      6.110  0.6851E+02  0.6919E+02  0.7447E+03  0.7443E+03
      6.162  0.7205E+02  0.6783E+02  0.7485E+03  0.7478E+03
      6.215  0.5416E+02  0.5733E+02  0.7513E+03  0.7508E+03
      6.267  0.1331E+02  0.2248E+02  0.7520E+03  0.7520E+03
      6.320  0.0000E+00  0.0000E+00  0.7520E+03  0.7520E+03
      6.372  0.0000E+00  0.0000E+00  0.7520E+03  0.7520E+03
      6.425  0.0000E+00  0.0000E+00  0.7520E+03  0.7520E+03
      6.477  0.0000E+00  0.0000E+00  0.7520E+03  0.7520E+03
      6.529  0.0000E+00  0.0000E+00  0.7520E+03  0.7520E+03
      6.582  0.0000E+00  0.0000E+00  0.7520E+03  0.7520E+03
      6.634  0.0000E+00  0.0000E+00  0.7520E+03  0.7520E+03
      6.687  0.0000E+00  0.0000E+00  0.7520E+03  0.7520E+03
      6.739  0.0000E+00  0.0000E+00  0.7520E+03  0.7520E+03
      6.792  0.0000E+00  0.0000E+00  0.7520E+03  0.7520E+03
      6.844  0.0000E+00  0.0000E+00  0.7520E+03  0.7520E+03
      6.897  0.0000E+00  0.0000E+00  0.7520E+03  0.7520E+03
      6.949  0.0000E+00  0.0000E+00  0.7520E+03  0.7520E+03
