  48  48   0   0
  0.2323126E+02  0.8001338E-09  0.1265123E-08  0.1161174E-08  0.5000000E-15
  1.000000000000000E-004
  CAR 
 Si and Ge interface calculation         
      6.64244639    -12.03225181  301      3.47230275      1.00000000
    -12.032  0.0000E+00  0.0000E+00  0.0000E+00  0.0000E+00
    -11.970  0.0000E+00  0.0000E+00  0.0000E+00  0.0000E+00
    -11.908  0.0000E+00  0.0000E+00  0.0000E+00  0.0000E+00
    -11.846  0.0000E+00  0.0000E+00  0.0000E+00  0.0000E+00
    -11.783  0.0000E+00  0.0000E+00  0.0000E+00  0.0000E+00
    -11.721  0.0000E+00  0.0000E+00  0.0000E+00  0.0000E+00
    -11.659  0.0000E+00  0.0000E+00  0.0000E+00  0.0000E+00
    -11.597  0.0000E+00  0.0000E+00  0.0000E+00  0.0000E+00
    -11.534  0.0000E+00  0.0000E+00  0.0000E+00  0.0000E+00
    -11.472  0.0000E+00  0.0000E+00  0.0000E+00  0.0000E+00
    -11.410  0.0000E+00  0.0000E+00  0.0000E+00  0.0000E+00
    -11.348  0.0000E+00  0.0000E+00  0.0000E+00  0.0000E+00
    -11.285  0.0000E+00  0.0000E+00  0.0000E+00  0.0000E+00
    -11.223  0.4324E-07  0.1488E-12  0.2692E-08  0.9264E-14
    -11.161  0.8024E+01  0.7131E+01  0.4995E+00  0.4439E+00
    -11.099  0.7372E+00  0.9041E+00  0.5459E+00  0.5002E+00
    -11.036  0.1533E+02  0.1606E+02  0.1500E+01  0.1500E+01
    -10.974  0.0000E+00  0.0000E+00  0.1500E+01  0.1500E+01
    -10.912  0.0000E+00  0.0000E+00  0.1500E+01  0.1500E+01
    -10.850  0.9142E-02  0.2627E-05  0.1501E+01  0.1500E+01
    -10.787  0.1606E+02  0.1606E+02  0.2500E+01  0.2500E+01
    -10.725  0.0000E+00  0.0000E+00  0.2500E+01  0.2500E+01
    -10.663  0.0000E+00  0.0000E+00  0.2500E+01  0.2500E+01
    -10.601  0.0000E+00  0.0000E+00  0.2500E+01  0.2500E+01
    -10.538  0.1528E-03  0.7036E-08  0.2500E+01  0.2500E+01
    -10.476  0.1606E+02  0.1600E+02  0.3500E+01  0.3496E+01
    -10.414  0.0000E+00  0.0000E+00  0.3500E+01  0.3500E+01
    -10.352  0.3124E+01  0.1307E+00  0.3694E+01  0.3508E+01
    -10.289  0.4908E+01  0.7902E+01  0.4000E+01  0.4000E+01
    -10.227  0.0000E+00  0.0000E+00  0.4000E+01  0.4000E+01
    -10.165  0.0000E+00  0.0000E+00  0.4000E+01  0.4000E+01
    -10.103  0.0000E+00  0.0000E+00  0.4000E+01  0.4000E+01
    -10.040  0.0000E+00  0.0000E+00  0.4000E+01  0.4000E+01
     -9.978  0.0000E+00  0.0000E+00  0.4000E+01  0.4000E+01
     -9.916  0.0000E+00  0.0000E+00  0.4000E+01  0.4000E+01
     -9.854  0.6639E-01  0.0000E+00  0.4004E+01  0.4000E+01
     -9.791  0.7966E+01  0.2674E+01  0.4500E+01  0.4166E+01
     -9.729  0.5640E-02  0.5358E+01  0.4500E+01  0.4500E+01
     -9.667  0.1606E+02  0.1477E+01  0.5500E+01  0.4592E+01
     -9.605  0.0000E+00  0.1459E+02  0.5500E+01  0.5500E+01
     -9.542  0.0000E+00  0.0000E+00  0.5500E+01  0.5500E+01
     -9.480  0.0000E+00  0.0000E+00  0.5500E+01  0.5500E+01
     -9.418  0.0000E+00  0.0000E+00  0.5500E+01  0.5500E+01
     -9.356  0.2550E-05  0.0000E+00  0.5500E+01  0.5500E+01
     -9.293  0.1605E+02  0.4187E-01  0.6499E+01  0.5503E+01
     -9.231  0.0000E+00  0.1602E+02  0.6500E+01  0.6500E+01
     -9.169  0.0000E+00  0.0000E+00  0.6500E+01  0.6500E+01
     -9.107  0.0000E+00  0.0000E+00  0.6500E+01  0.6500E+01
     -9.044  0.0000E+00  0.0000E+00  0.6500E+01  0.6500E+01
     -8.982  0.0000E+00  0.0000E+00  0.6500E+01  0.6500E+01
     -8.920  0.0000E+00  0.0000E+00  0.6500E+01  0.6500E+01
     -8.858  0.0000E+00  0.0000E+00  0.6500E+01  0.6500E+01
     -8.795  0.1388E+01  0.1475E+00  0.6586E+01  0.6509E+01
     -8.733  0.1072E+02  0.5167E+01  0.7254E+01  0.6831E+01
     -8.671  0.1714E+02  0.2006E+02  0.8321E+01  0.8079E+01
     -8.609  0.1122E+02  0.1158E+02  0.9019E+01  0.8802E+01
     -8.546  0.8853E+01  0.9967E+01  0.9570E+01  0.9423E+01
     -8.484  0.5661E+01  0.6626E+01  0.9923E+01  0.9835E+01
     -8.422  0.3911E+01  0.5327E+01  0.1017E+02  0.1017E+02
     -8.360  0.5352E+01  0.5308E+01  0.1050E+02  0.1050E+02
     -8.297  0.1256E+02  0.8196E+01  0.1128E+02  0.1101E+02
     -8.235  0.1691E+02  0.2052E+02  0.1233E+02  0.1229E+02
     -8.173  0.7478E+01  0.7596E+01  0.1280E+02  0.1276E+02
     -8.111  0.1389E+02  0.1340E+02  0.1367E+02  0.1359E+02
     -8.048  0.7107E+01  0.6844E+01  0.1411E+02  0.1402E+02
     -7.986  0.5764E+01  0.5215E+01  0.1447E+02  0.1434E+02
     -7.924  0.3208E+01  0.5134E+01  0.1467E+02  0.1466E+02
     -7.862  0.3520E+01  0.2734E+01  0.1489E+02  0.1483E+02
     -7.799  0.6370E+01  0.5190E+01  0.1528E+02  0.1516E+02
     -7.737  0.1819E+02  0.1753E+02  0.1641E+02  0.1625E+02
     -7.675  0.1193E+02  0.1233E+02  0.1716E+02  0.1702E+02
     -7.613  0.1628E+02  0.1534E+02  0.1817E+02  0.1797E+02
     -7.550  0.1598E+02  0.1895E+02  0.1917E+02  0.1915E+02
     -7.488  0.4689E+01  0.2614E+01  0.1946E+02  0.1931E+02
     -7.426  0.1436E+02  0.1270E+02  0.2035E+02  0.2010E+02
     -7.364  0.1348E+02  0.1472E+02  0.2119E+02  0.2102E+02
     -7.301  0.1069E+02  0.1091E+02  0.2186E+02  0.2170E+02
     -7.239  0.1580E+02  0.1809E+02  0.2284E+02  0.2283E+02
     -7.177  0.1715E+02  0.1453E+02  0.2391E+02  0.2373E+02
     -7.115  0.1573E+02  0.1518E+02  0.2489E+02  0.2468E+02
     -7.052  0.1661E+02  0.1622E+02  0.2592E+02  0.2569E+02
     -6.990  0.1429E+02  0.1116E+02  0.2681E+02  0.2638E+02
     -6.928  0.2142E+02  0.2342E+02  0.2815E+02  0.2784E+02
     -6.866  0.1546E+02  0.1720E+02  0.2911E+02  0.2891E+02
     -6.803  0.1719E+02  0.1738E+02  0.3018E+02  0.2999E+02
     -6.741  0.9540E+01  0.9651E+01  0.3077E+02  0.3059E+02
     -6.679  0.9342E+01  0.7949E+01  0.3135E+02  0.3109E+02
     -6.617  0.1423E+02  0.1681E+02  0.3224E+02  0.3214E+02
     -6.554  0.1166E+02  0.9571E+01  0.3297E+02  0.3273E+02
     -6.492  0.1488E+02  0.1539E+02  0.3389E+02  0.3369E+02
     -6.430  0.7039E+01  0.9882E+01  0.3433E+02  0.3431E+02
     -6.368  0.5309E+01  0.4505E+01  0.3466E+02  0.3459E+02
     -6.305  0.6982E+01  0.5227E+01  0.3510E+02  0.3491E+02
     -6.243  0.1210E+02  0.1256E+02  0.3585E+02  0.3569E+02
     -6.181  0.6306E+01  0.3485E+01  0.3624E+02  0.3591E+02
     -6.119  0.3368E+02  0.3390E+02  0.3834E+02  0.3802E+02
     -6.056  0.1984E+02  0.2105E+02  0.3958E+02  0.3933E+02
     -5.994  0.2525E+02  0.2439E+02  0.4115E+02  0.4085E+02
     -5.932  0.1606E+02  0.1439E+02  0.4215E+02  0.4174E+02
     -5.870  0.1112E+02  0.1386E+02  0.4284E+02  0.4261E+02
     -5.807  0.5550E+01  0.7592E+01  0.4319E+02  0.4308E+02
     -5.745  0.4166E+01  0.3098E+01  0.4345E+02  0.4327E+02
     -5.683  0.2436E+01  0.3696E+01  0.4360E+02  0.4350E+02
     -5.621  0.7817E+01  0.6635E+01  0.4408E+02  0.4392E+02
     -5.558  0.1702E+02  0.1487E+02  0.4514E+02  0.4484E+02
     -5.496  0.7194E+01  0.9454E+01  0.4559E+02  0.4543E+02
     -5.434  0.1122E+02  0.1015E+02  0.4629E+02  0.4606E+02
     -5.372  0.1116E+02  0.1059E+02  0.4699E+02  0.4672E+02
     -5.309  0.2675E+02  0.2194E+02  0.4865E+02  0.4809E+02
     -5.247  0.4819E+01  0.1336E+02  0.4895E+02  0.4892E+02
     -5.185  0.9881E+01  0.6057E+01  0.4957E+02  0.4930E+02
     -5.123  0.5023E+01  0.8433E+01  0.4988E+02  0.4982E+02
     -5.060  0.1716E+02  0.1521E+02  0.5095E+02  0.5077E+02
     -4.998  0.1259E+02  0.1385E+02  0.5173E+02  0.5163E+02
     -4.936  0.2057E+02  0.1520E+02  0.5301E+02  0.5258E+02
     -4.874  0.1468E+02  0.1830E+02  0.5392E+02  0.5372E+02
     -4.811  0.1183E+02  0.1098E+02  0.5466E+02  0.5440E+02
     -4.749  0.1521E+02  0.1747E+02  0.5561E+02  0.5549E+02
     -4.687  0.1249E+02  0.1256E+02  0.5639E+02  0.5627E+02
     -4.625  0.7196E+01  0.9034E+01  0.5683E+02  0.5683E+02
     -4.562  0.7398E+01  0.4762E+01  0.5729E+02  0.5713E+02
     -4.500  0.2477E+02  0.1657E+02  0.5884E+02  0.5816E+02
     -4.438  0.2032E+02  0.2530E+02  0.6010E+02  0.5974E+02
     -4.376  0.7697E+01  0.1064E+02  0.6058E+02  0.6040E+02
     -4.313  0.1120E+02  0.9051E+01  0.6128E+02  0.6096E+02
     -4.251  0.1266E+02  0.1351E+02  0.6207E+02  0.6180E+02
     -4.189  0.7039E+01  0.9127E+01  0.6251E+02  0.6237E+02
     -4.127  0.1049E+02  0.7166E+01  0.6316E+02  0.6282E+02
     -4.064  0.2123E+02  0.2336E+02  0.6448E+02  0.6427E+02
     -4.002  0.1438E+02  0.1549E+02  0.6538E+02  0.6524E+02
     -3.940  0.1269E+02  0.1394E+02  0.6617E+02  0.6611E+02
     -3.878  0.1441E+02  0.1135E+02  0.6706E+02  0.6681E+02
     -3.815  0.1815E+02  0.1913E+02  0.6819E+02  0.6800E+02
     -3.753  0.1145E+02  0.1288E+02  0.6891E+02  0.6881E+02
     -3.691  0.1379E+02  0.7897E+01  0.6976E+02  0.6930E+02
     -3.629  0.1864E+02  0.1824E+02  0.7093E+02  0.7043E+02
     -3.566  0.2171E+02  0.2700E+02  0.7228E+02  0.7211E+02
     -3.504  0.1181E+02  0.1049E+02  0.7301E+02  0.7277E+02
     -3.442  0.1218E+02  0.1383E+02  0.7377E+02  0.7363E+02
     -3.380  0.1088E+02  0.9465E+01  0.7445E+02  0.7422E+02
     -3.317  0.1072E+02  0.1101E+02  0.7512E+02  0.7490E+02
     -3.255  0.1239E+02  0.1047E+02  0.7589E+02  0.7555E+02
     -3.193  0.7236E+01  0.1018E+02  0.7634E+02  0.7619E+02
     -3.131  0.8560E+01  0.9732E+01  0.7687E+02  0.7679E+02
     -3.068  0.1291E+02  0.9888E+01  0.7767E+02  0.7741E+02
     -3.006  0.1318E+02  0.1528E+02  0.7849E+02  0.7836E+02
     -2.944  0.6680E+01  0.5732E+01  0.7891E+02  0.7872E+02
     -2.882  0.7702E+01  0.9514E+01  0.7939E+02  0.7931E+02
     -2.819  0.1106E+02  0.8424E+01  0.8008E+02  0.7984E+02
     -2.757  0.1173E+02  0.1264E+02  0.8081E+02  0.8062E+02
     -2.695  0.1331E+02  0.8819E+01  0.8164E+02  0.8117E+02
     -2.633  0.1646E+02  0.1688E+02  0.8266E+02  0.8222E+02
     -2.570  0.7179E+01  0.1360E+02  0.8311E+02  0.8307E+02
     -2.508  0.6663E+01  0.5199E+01  0.8352E+02  0.8339E+02
     -2.446  0.9939E+01  0.7655E+01  0.8414E+02  0.8387E+02
     -2.384  0.1240E+02  0.1495E+02  0.8492E+02  0.8480E+02
     -2.321  0.1318E+02  0.1049E+02  0.8574E+02  0.8545E+02
     -2.259  0.8827E+01  0.1054E+02  0.8629E+02  0.8611E+02
     -2.197  0.1352E+02  0.1185E+02  0.8713E+02  0.8685E+02
     -2.135  0.6870E+01  0.8995E+01  0.8756E+02  0.8741E+02
     -2.072  0.6120E+01  0.6319E+01  0.8794E+02  0.8780E+02
     -2.010  0.7206E+01  0.6332E+01  0.8839E+02  0.8820E+02
     -1.948  0.1200E+02  0.1141E+02  0.8913E+02  0.8891E+02
     -1.886  0.1023E+02  0.9180E+01  0.8977E+02  0.8948E+02
     -1.823  0.8507E+01  0.1089E+02  0.9030E+02  0.9016E+02
     -1.761  0.3701E+01  0.5540E+01  0.9053E+02  0.9050E+02
     -1.699  0.5742E+01  0.5724E+01  0.9089E+02  0.9086E+02
     -1.637  0.9054E+01  0.6826E+01  0.9145E+02  0.9128E+02
     -1.574  0.1764E+02  0.1460E+02  0.9255E+02  0.9219E+02
     -1.512  0.1943E+02  0.2105E+02  0.9376E+02  0.9350E+02
     -1.450  0.3950E+01  0.7674E+01  0.9401E+02  0.9398E+02
     -1.388  0.9306E+01  0.7039E+01  0.9459E+02  0.9442E+02
     -1.325  0.7951E+01  0.8534E+01  0.9508E+02  0.9495E+02
     -1.263  0.1084E+02  0.9600E+01  0.9576E+02  0.9555E+02
     -1.201  0.5831E+01  0.6240E+01  0.9612E+02  0.9594E+02
     -1.139  0.1067E+02  0.1045E+02  0.9678E+02  0.9659E+02
     -1.076  0.8848E+01  0.1033E+02  0.9733E+02  0.9723E+02
     -1.014  0.8457E+01  0.6600E+01  0.9786E+02  0.9764E+02
     -0.952  0.1833E+02  0.1298E+02  0.9900E+02  0.9845E+02
     -0.890  0.1054E+02  0.1623E+02  0.9966E+02  0.9946E+02
     -0.827  0.1152E+02  0.1086E+02  0.1004E+03  0.1001E+03
     -0.765  0.1096E+02  0.9334E+01  0.1011E+03  0.1007E+03
     -0.703  0.1986E+02  0.1589E+02  0.1023E+03  0.1017E+03
     -0.641  0.1444E+02  0.1604E+02  0.1032E+03  0.1027E+03
     -0.578  0.1342E+02  0.1837E+02  0.1040E+03  0.1038E+03
     -0.516  0.1912E+02  0.1942E+02  0.1052E+03  0.1051E+03
     -0.454  0.3189E+02  0.2164E+02  0.1072E+03  0.1064E+03
     -0.392  0.2321E+02  0.3361E+02  0.1086E+03  0.1085E+03
     -0.329  0.2802E+02  0.2124E+02  0.1104E+03  0.1098E+03
     -0.267  0.1665E+02  0.2231E+02  0.1114E+03  0.1112E+03
     -0.205  0.2028E+02  0.1841E+02  0.1127E+03  0.1124E+03
     -0.143  0.3164E+02  0.2813E+02  0.1147E+03  0.1141E+03
     -0.080  0.3080E+02  0.3592E+02  0.1166E+03  0.1163E+03
     -0.018  0.2220E+02  0.1408E+02  0.1180E+03  0.1172E+03
      0.044  0.2184E+02  0.2561E+02  0.1193E+03  0.1188E+03
      0.106  0.2854E+02  0.3145E+02  0.1211E+03  0.1208E+03
      0.169  0.2477E+02  0.2074E+02  0.1226E+03  0.1221E+03
      0.231  0.2072E+02  0.2234E+02  0.1239E+03  0.1235E+03
      0.293  0.2877E+02  0.3103E+02  0.1257E+03  0.1254E+03
      0.355  0.2673E+02  0.2156E+02  0.1274E+03  0.1267E+03
      0.418  0.2639E+02  0.2629E+02  0.1290E+03  0.1284E+03
      0.480  0.3165E+02  0.3289E+02  0.1310E+03  0.1304E+03
      0.542  0.2215E+02  0.2155E+02  0.1324E+03  0.1318E+03
      0.604  0.3313E+02  0.3112E+02  0.1344E+03  0.1337E+03
      0.667  0.2145E+02  0.2974E+02  0.1358E+03  0.1355E+03
      0.729  0.1583E+02  0.1250E+02  0.1368E+03  0.1363E+03
      0.791  0.2041E+02  0.1853E+02  0.1380E+03  0.1375E+03
      0.853  0.1873E+02  0.2284E+02  0.1392E+03  0.1389E+03
      0.916  0.2886E+02  0.2532E+02  0.1410E+03  0.1405E+03
      0.978  0.3106E+02  0.3108E+02  0.1429E+03  0.1424E+03
      1.040  0.1924E+02  0.2218E+02  0.1441E+03  0.1438E+03
      1.102  0.2618E+02  0.2578E+02  0.1458E+03  0.1454E+03
      1.165  0.2617E+02  0.2650E+02  0.1474E+03  0.1470E+03
      1.227  0.2402E+02  0.2302E+02  0.1489E+03  0.1485E+03
      1.289  0.3540E+02  0.3241E+02  0.1511E+03  0.1505E+03
      1.351  0.2204E+02  0.2302E+02  0.1525E+03  0.1519E+03
      1.414  0.2601E+02  0.2385E+02  0.1541E+03  0.1534E+03
      1.476  0.2393E+02  0.2926E+02  0.1556E+03  0.1552E+03
      1.538  0.2230E+02  0.2169E+02  0.1570E+03  0.1566E+03
      1.600  0.2654E+02  0.2914E+02  0.1586E+03  0.1584E+03
      1.663  0.2288E+02  0.1888E+02  0.1600E+03  0.1596E+03
      1.725  0.2939E+02  0.2649E+02  0.1619E+03  0.1612E+03
      1.787  0.2129E+02  0.2268E+02  0.1632E+03  0.1626E+03
      1.849  0.2931E+02  0.3114E+02  0.1650E+03  0.1646E+03
      1.912  0.1323E+02  0.1876E+02  0.1658E+03  0.1657E+03
      1.974  0.1542E+02  0.1267E+02  0.1668E+03  0.1665E+03
      2.036  0.1544E+02  0.1511E+02  0.1678E+03  0.1675E+03
      2.098  0.2099E+02  0.1929E+02  0.1691E+03  0.1687E+03
      2.161  0.2155E+02  0.2150E+02  0.1704E+03  0.1700E+03
      2.223  0.2190E+02  0.1854E+02  0.1718E+03  0.1712E+03
      2.285  0.1939E+02  0.2294E+02  0.1730E+03  0.1726E+03
      2.347  0.1562E+02  0.1988E+02  0.1740E+03  0.1738E+03
      2.410  0.1148E+02  0.8647E+01  0.1747E+03  0.1744E+03
      2.472  0.2358E+02  0.2054E+02  0.1761E+03  0.1757E+03
      2.534  0.1525E+02  0.1294E+02  0.1771E+03  0.1765E+03
      2.596  0.2148E+02  0.2316E+02  0.1784E+03  0.1779E+03
      2.659  0.1465E+02  0.1544E+02  0.1793E+03  0.1789E+03
      2.721  0.1757E+02  0.1781E+02  0.1804E+03  0.1800E+03
      2.783  0.1457E+02  0.1305E+02  0.1813E+03  0.1808E+03
      2.845  0.1167E+02  0.1529E+02  0.1821E+03  0.1817E+03
      2.908  0.1901E+02  0.9983E+01  0.1832E+03  0.1824E+03
      2.970  0.1705E+02  0.2508E+02  0.1843E+03  0.1839E+03
      3.032  0.1347E+02  0.1284E+02  0.1851E+03  0.1847E+03
      3.094  0.2109E+02  0.1262E+02  0.1865E+03  0.1855E+03
      3.157  0.1304E+02  0.1841E+02  0.1873E+03  0.1866E+03
      3.219  0.1756E+02  0.1895E+02  0.1884E+03  0.1878E+03
      3.281  0.1380E+02  0.1792E+02  0.1892E+03  0.1889E+03
      3.343  0.9065E+01  0.7717E+01  0.1898E+03  0.1894E+03
      3.405  0.9623E+01  0.1093E+02  0.1904E+03  0.1901E+03
      3.468  0.1754E+02  0.1244E+02  0.1915E+03  0.1909E+03
      3.530  0.2093E+02  0.1381E+02  0.1928E+03  0.1917E+03
      3.592  0.1761E+02  0.2122E+02  0.1939E+03  0.1931E+03
      3.654  0.1851E+02  0.1918E+02  0.1950E+03  0.1943E+03
      3.717  0.1160E+02  0.1662E+02  0.1958E+03  0.1953E+03
      3.779  0.2511E+02  0.2602E+02  0.1973E+03  0.1969E+03
      3.841  0.4623E+01  0.1032E+02  0.1976E+03  0.1976E+03
      3.903  0.1802E+02  0.8998E+01  0.1987E+03  0.1981E+03
      3.966  0.2185E+02  0.2384E+02  0.2001E+03  0.1996E+03
      4.028  0.1946E+02  0.1882E+02  0.2013E+03  0.2008E+03
      4.090  0.2789E+02  0.2473E+02  0.2030E+03  0.2023E+03
      4.152  0.1088E+02  0.1822E+02  0.2037E+03  0.2034E+03
      4.215  0.1103E+02  0.9427E+01  0.2044E+03  0.2040E+03
      4.277  0.2112E+02  0.1247E+02  0.2057E+03  0.2048E+03
      4.339  0.3390E+02  0.3679E+02  0.2078E+03  0.2071E+03
      4.401  0.9368E+01  0.1730E+02  0.2084E+03  0.2082E+03
      4.464  0.1251E+02  0.1124E+02  0.2092E+03  0.2089E+03
      4.526  0.1994E+02  0.1146E+02  0.2104E+03  0.2096E+03
      4.588  0.2802E+02  0.3382E+02  0.2122E+03  0.2117E+03
      4.650  0.2332E+02  0.2162E+02  0.2136E+03  0.2130E+03
      4.713  0.2444E+02  0.1899E+02  0.2151E+03  0.2142E+03
      4.775  0.1874E+02  0.2382E+02  0.2163E+03  0.2157E+03
      4.837  0.2749E+02  0.2560E+02  0.2180E+03  0.2173E+03
      4.899  0.1004E+02  0.1988E+02  0.2187E+03  0.2185E+03
      4.962  0.1895E+02  0.1032E+02  0.2198E+03  0.2192E+03
      5.024  0.1724E+02  0.1946E+02  0.2209E+03  0.2204E+03
      5.086  0.2739E+02  0.2785E+02  0.2226E+03  0.2221E+03
      5.148  0.2722E+02  0.2427E+02  0.2243E+03  0.2236E+03
      5.211  0.2398E+02  0.2699E+02  0.2258E+03  0.2253E+03
      5.273  0.2479E+02  0.2280E+02  0.2273E+03  0.2267E+03
      5.335  0.1642E+02  0.2430E+02  0.2284E+03  0.2282E+03
      5.397  0.8548E+01  0.5861E+01  0.2289E+03  0.2286E+03
      5.460  0.1719E+02  0.1886E+02  0.2300E+03  0.2298E+03
      5.522  0.1365E+02  0.1208E+02  0.2308E+03  0.2305E+03
      5.584  0.1033E+02  0.1120E+02  0.2315E+03  0.2312E+03
      5.646  0.3403E+01  0.6904E+01  0.2317E+03  0.2317E+03
      5.709  0.1643E+01  0.1785E+01  0.2318E+03  0.2318E+03
      5.771  0.1866E+01  0.6587E-01  0.2319E+03  0.2318E+03
      5.833  0.1704E+01  0.3504E+01  0.2320E+03  0.2320E+03
      5.895  0.0000E+00  0.0000E+00  0.2320E+03  0.2320E+03
      5.958  0.0000E+00  0.0000E+00  0.2320E+03  0.2320E+03
      6.020  0.0000E+00  0.0000E+00  0.2320E+03  0.2320E+03
      6.082  0.0000E+00  0.0000E+00  0.2320E+03  0.2320E+03
      6.144  0.0000E+00  0.0000E+00  0.2320E+03  0.2320E+03
      6.207  0.0000E+00  0.0000E+00  0.2320E+03  0.2320E+03
      6.269  0.0000E+00  0.0000E+00  0.2320E+03  0.2320E+03
      6.331  0.0000E+00  0.0000E+00  0.2320E+03  0.2320E+03
      6.393  0.0000E+00  0.0000E+00  0.2320E+03  0.2320E+03
      6.456  0.0000E+00  0.0000E+00  0.2320E+03  0.2320E+03
      6.518  0.0000E+00  0.0000E+00  0.2320E+03  0.2320E+03
      6.580  0.0000E+00  0.0000E+00  0.2320E+03  0.2320E+03
      6.642  0.0000E+00  0.0000E+00  0.2320E+03  0.2320E+03
