 120 120   0   0
  0.2425665E+02  0.1629300E-08  0.1717433E-08  0.1040234E-08  0.5000000E-15
  1.000000000000000E-004
  CAR 
 Si and Ge interface calculation         
      6.21139177     -9.11579205  301      3.61479280      1.00000000
     -9.116  0.0000E+00  0.0000E+00  0.0000E+00  0.0000E+00
     -9.065  0.0000E+00  0.0000E+00  0.0000E+00  0.0000E+00
     -9.014  0.0000E+00  0.0000E+00  0.0000E+00  0.0000E+00
     -8.963  0.0000E+00  0.0000E+00  0.0000E+00  0.0000E+00
     -8.911  0.0000E+00  0.0000E+00  0.0000E+00  0.0000E+00
     -8.860  0.0000E+00  0.0000E+00  0.0000E+00  0.0000E+00
     -8.809  0.0000E+00  0.0000E+00  0.0000E+00  0.0000E+00
     -8.758  0.0000E+00  0.0000E+00  0.0000E+00  0.0000E+00
     -8.707  0.0000E+00  0.0000E+00  0.0000E+00  0.0000E+00
     -8.656  0.0000E+00  0.0000E+00  0.0000E+00  0.0000E+00
     -8.605  0.0000E+00  0.0000E+00  0.0000E+00  0.0000E+00
     -8.554  0.0000E+00  0.0000E+00  0.0000E+00  0.0000E+00
     -8.503  0.0000E+00  0.0000E+00  0.0000E+00  0.0000E+00
     -8.452  0.6960E-05  0.1031E-06  0.3556E-06  0.5265E-08
     -8.401  0.5705E+01  0.4636E+01  0.2915E+00  0.2369E+00
     -8.349  0.5699E+01  0.5154E+01  0.5826E+00  0.5002E+00
     -8.298  0.1766E+02  0.1738E+02  0.1485E+01  0.1388E+01
     -8.247  0.1660E+02  0.1841E+02  0.2333E+01  0.2329E+01
     -8.196  0.6150E+01  0.2959E+01  0.2647E+01  0.2480E+01
     -8.145  0.2846E+02  0.2906E+02  0.4101E+01  0.3965E+01
     -8.094  0.1462E+02  0.1450E+02  0.4848E+01  0.4705E+01
     -8.043  0.9504E+01  0.1222E+02  0.5334E+01  0.5330E+01
     -7.992  0.2003E+02  0.1968E+02  0.6357E+01  0.6335E+01
     -7.941  0.3095E+02  0.2900E+02  0.7938E+01  0.7817E+01
     -7.890  0.1209E+01  0.3581E+01  0.8000E+01  0.8000E+01
     -7.839  0.1369E+02  0.8270E+01  0.8699E+01  0.8423E+01
     -7.787  0.2063E+02  0.2149E+02  0.9754E+01  0.9520E+01
     -7.736  0.3138E+02  0.3201E+02  0.1136E+02  0.1116E+02
     -7.685  0.1277E+02  0.1655E+02  0.1201E+02  0.1200E+02
     -7.634  0.1921E+02  0.1851E+02  0.1299E+02  0.1295E+02
     -7.583  0.3317E+02  0.2900E+02  0.1469E+02  0.1443E+02
     -7.532  0.6435E+01  0.1123E+02  0.1501E+02  0.1500E+02
     -7.481  0.6431E+01  0.6470E+01  0.1534E+02  0.1533E+02
     -7.430  0.1318E+02  0.1113E+02  0.1602E+02  0.1590E+02
     -7.379  0.2191E+02  0.2138E+02  0.1714E+02  0.1699E+02
     -7.328  0.4004E+02  0.3845E+02  0.1918E+02  0.1896E+02
     -7.277  0.3496E+02  0.3765E+02  0.2097E+02  0.2088E+02
     -7.225  0.2438E+02  0.1784E+02  0.2221E+02  0.2179E+02
     -7.174  0.3143E+02  0.3644E+02  0.2382E+02  0.2366E+02
     -7.123  0.3230E+02  0.3371E+02  0.2547E+02  0.2538E+02
     -7.072  0.2621E+02  0.2244E+02  0.2681E+02  0.2652E+02
     -7.021  0.3301E+02  0.3153E+02  0.2849E+02  0.2814E+02
     -6.970  0.3290E+02  0.3483E+02  0.3018E+02  0.2991E+02
     -6.919  0.3342E+02  0.3454E+02  0.3188E+02  0.3168E+02
     -6.868  0.3771E+02  0.3746E+02  0.3381E+02  0.3359E+02
     -6.817  0.1897E+02  0.1997E+02  0.3478E+02  0.3461E+02
     -6.766  0.4656E+02  0.4847E+02  0.3716E+02  0.3709E+02
     -6.715  0.3341E+02  0.2999E+02  0.3886E+02  0.3862E+02
     -6.663  0.2033E+02  0.1901E+02  0.3990E+02  0.3959E+02
     -6.612  0.2928E+02  0.3262E+02  0.4140E+02  0.4126E+02
     -6.561  0.3561E+02  0.3165E+02  0.4322E+02  0.4288E+02
     -6.510  0.3155E+02  0.3013E+02  0.4483E+02  0.4442E+02
     -6.459  0.3271E+02  0.3341E+02  0.4650E+02  0.4612E+02
     -6.408  0.4350E+02  0.4405E+02  0.4872E+02  0.4837E+02
     -6.357  0.3164E+02  0.3461E+02  0.5034E+02  0.5014E+02
     -6.306  0.2231E+02  0.2118E+02  0.5148E+02  0.5122E+02
     -6.255  0.4661E+02  0.4729E+02  0.5386E+02  0.5364E+02
     -6.204  0.3570E+02  0.3048E+02  0.5569E+02  0.5520E+02
     -6.153  0.4483E+02  0.5089E+02  0.5798E+02  0.5780E+02
     -6.101  0.3177E+02  0.3129E+02  0.5960E+02  0.5940E+02
     -6.050  0.3123E+02  0.2705E+02  0.6119E+02  0.6078E+02
     -5.999  0.4063E+02  0.4629E+02  0.6327E+02  0.6314E+02
     -5.948  0.4740E+02  0.4501E+02  0.6569E+02  0.6544E+02
     -5.897  0.4249E+02  0.3933E+02  0.6786E+02  0.6745E+02
     -5.846  0.3606E+02  0.3836E+02  0.6971E+02  0.6941E+02
     -5.795  0.3134E+02  0.3482E+02  0.7131E+02  0.7119E+02
     -5.744  0.2909E+02  0.2830E+02  0.7279E+02  0.7264E+02
     -5.693  0.3771E+02  0.3458E+02  0.7472E+02  0.7440E+02
     -5.642  0.4053E+02  0.3766E+02  0.7679E+02  0.7633E+02
     -5.591  0.3782E+02  0.4137E+02  0.7872E+02  0.7844E+02
     -5.539  0.4175E+02  0.3913E+02  0.8085E+02  0.8044E+02
     -5.488  0.3405E+02  0.3810E+02  0.8259E+02  0.8239E+02
     -5.437  0.3404E+02  0.3492E+02  0.8433E+02  0.8417E+02
     -5.386  0.4516E+02  0.4101E+02  0.8664E+02  0.8627E+02
     -5.335  0.2927E+02  0.3412E+02  0.8814E+02  0.8801E+02
     -5.284  0.2332E+02  0.2176E+02  0.8933E+02  0.8912E+02
     -5.233  0.3890E+02  0.3667E+02  0.9132E+02  0.9100E+02
     -5.182  0.3210E+02  0.3407E+02  0.9296E+02  0.9274E+02
     -5.131  0.5168E+02  0.5244E+02  0.9560E+02  0.9542E+02
     -5.080  0.2310E+02  0.2243E+02  0.9678E+02  0.9656E+02
     -5.029  0.3393E+02  0.3482E+02  0.9851E+02  0.9834E+02
     -4.977  0.3585E+02  0.3069E+02  0.1003E+03  0.9991E+02
     -4.926  0.3594E+02  0.4121E+02  0.1022E+03  0.1020E+03
     -4.875  0.1571E+02  0.1244E+02  0.1030E+03  0.1026E+03
     -4.824  0.3827E+02  0.4059E+02  0.1049E+03  0.1047E+03
     -4.773  0.4201E+02  0.3858E+02  0.1071E+03  0.1067E+03
     -4.722  0.3492E+02  0.3669E+02  0.1089E+03  0.1086E+03
     -4.671  0.2875E+02  0.3196E+02  0.1103E+03  0.1102E+03
     -4.620  0.4169E+02  0.3971E+02  0.1125E+03  0.1122E+03
     -4.569  0.2672E+02  0.2755E+02  0.1138E+03  0.1136E+03
     -4.518  0.3011E+02  0.2935E+02  0.1154E+03  0.1151E+03
     -4.467  0.3376E+02  0.3454E+02  0.1171E+03  0.1169E+03
     -4.415  0.4013E+02  0.3799E+02  0.1191E+03  0.1188E+03
     -4.364  0.3111E+02  0.3442E+02  0.1207E+03  0.1206E+03
     -4.313  0.3880E+02  0.3269E+02  0.1227E+03  0.1223E+03
     -4.262  0.3864E+02  0.3929E+02  0.1247E+03  0.1243E+03
     -4.211  0.3170E+02  0.3642E+02  0.1263E+03  0.1261E+03
     -4.160  0.2609E+02  0.2580E+02  0.1276E+03  0.1275E+03
     -4.109  0.3136E+02  0.3162E+02  0.1292E+03  0.1291E+03
     -4.058  0.1650E+02  0.1723E+02  0.1301E+03  0.1300E+03
     -4.007  0.2242E+02  0.2151E+02  0.1312E+03  0.1311E+03
     -3.956  0.1546E+02  0.1596E+02  0.1320E+03  0.1319E+03
     -3.905  0.4745E+02  0.4676E+02  0.1344E+03  0.1343E+03
     -3.853  0.2041E+02  0.2166E+02  0.1355E+03  0.1354E+03
     -3.802  0.2891E+02  0.2853E+02  0.1370E+03  0.1368E+03
     -3.751  0.1922E+02  0.1866E+02  0.1379E+03  0.1378E+03
     -3.700  0.1527E+02  0.1364E+02  0.1387E+03  0.1385E+03
     -3.649  0.2175E+02  0.2429E+02  0.1398E+03  0.1397E+03
     -3.598  0.3819E+02  0.3665E+02  0.1418E+03  0.1416E+03
     -3.547  0.2536E+02  0.2666E+02  0.1431E+03  0.1429E+03
     -3.496  0.2991E+02  0.2874E+02  0.1446E+03  0.1444E+03
     -3.445  0.4499E+02  0.4073E+02  0.1469E+03  0.1465E+03
     -3.394  0.1494E+02  0.2290E+02  0.1477E+03  0.1477E+03
     -3.343  0.2524E+02  0.2115E+02  0.1490E+03  0.1487E+03
     -3.291  0.4504E+02  0.4135E+02  0.1513E+03  0.1509E+03
     -3.240  0.3877E+02  0.4025E+02  0.1532E+03  0.1529E+03
     -3.189  0.3038E+02  0.2721E+02  0.1548E+03  0.1543E+03
     -3.138  0.2941E+02  0.2904E+02  0.1563E+03  0.1558E+03
     -3.087  0.3229E+02  0.4011E+02  0.1580E+03  0.1578E+03
     -3.036  0.2570E+02  0.2274E+02  0.1593E+03  0.1590E+03
     -2.985  0.4307E+02  0.4404E+02  0.1615E+03  0.1613E+03
     -2.934  0.2970E+02  0.2870E+02  0.1630E+03  0.1627E+03
     -2.883  0.3196E+02  0.3454E+02  0.1646E+03  0.1645E+03
     -2.832  0.4496E+02  0.3905E+02  0.1669E+03  0.1665E+03
     -2.781  0.5040E+02  0.5157E+02  0.1695E+03  0.1691E+03
     -2.729  0.2226E+02  0.2481E+02  0.1706E+03  0.1704E+03
     -2.678  0.2695E+02  0.2922E+02  0.1720E+03  0.1719E+03
     -2.627  0.3521E+02  0.3244E+02  0.1738E+03  0.1735E+03
     -2.576  0.3156E+02  0.3412E+02  0.1754E+03  0.1753E+03
     -2.525  0.3256E+02  0.2672E+02  0.1771E+03  0.1766E+03
     -2.474  0.2566E+02  0.2978E+02  0.1784E+03  0.1782E+03
     -2.423  0.2916E+02  0.2876E+02  0.1799E+03  0.1796E+03
     -2.372  0.5027E+02  0.4443E+02  0.1824E+03  0.1819E+03
     -2.321  0.4245E+02  0.4635E+02  0.1846E+03  0.1843E+03
     -2.270  0.2923E+02  0.3135E+02  0.1861E+03  0.1859E+03
     -2.219  0.4368E+02  0.3998E+02  0.1883E+03  0.1879E+03
     -2.167  0.3488E+02  0.3770E+02  0.1901E+03  0.1898E+03
     -2.116  0.3052E+02  0.3199E+02  0.1917E+03  0.1915E+03
     -2.065  0.6284E+02  0.6120E+02  0.1949E+03  0.1946E+03
     -2.014  0.2058E+02  0.2367E+02  0.1959E+03  0.1958E+03
     -1.963  0.3535E+02  0.3092E+02  0.1977E+03  0.1974E+03
     -1.912  0.2455E+02  0.3091E+02  0.1990E+03  0.1990E+03
     -1.861  0.4295E+02  0.3442E+02  0.2012E+03  0.2007E+03
     -1.810  0.3713E+02  0.4097E+02  0.2031E+03  0.2028E+03
     -1.759  0.3425E+02  0.3605E+02  0.2048E+03  0.2047E+03
     -1.708  0.3188E+02  0.3155E+02  0.2065E+03  0.2063E+03
     -1.657  0.2503E+02  0.2681E+02  0.2078E+03  0.2076E+03
     -1.605  0.2077E+02  0.2090E+02  0.2088E+03  0.2087E+03
     -1.554  0.2210E+02  0.1937E+02  0.2099E+03  0.2097E+03
     -1.503  0.3677E+02  0.3578E+02  0.2118E+03  0.2115E+03
     -1.452  0.2639E+02  0.2980E+02  0.2132E+03  0.2131E+03
     -1.401  0.2823E+02  0.2820E+02  0.2146E+03  0.2145E+03
     -1.350  0.2556E+02  0.2653E+02  0.2159E+03  0.2158E+03
     -1.299  0.2170E+02  0.1803E+02  0.2170E+03  0.2168E+03
     -1.248  0.1778E+02  0.1828E+02  0.2179E+03  0.2177E+03
     -1.197  0.2014E+02  0.1917E+02  0.2190E+03  0.2187E+03
     -1.146  0.4652E+02  0.4813E+02  0.2213E+03  0.2211E+03
     -1.095  0.3259E+02  0.3182E+02  0.2230E+03  0.2228E+03
     -1.043  0.3561E+02  0.3773E+02  0.2248E+03  0.2247E+03
     -0.992  0.1693E+02  0.1688E+02  0.2257E+03  0.2256E+03
     -0.941  0.3161E+02  0.2836E+02  0.2273E+03  0.2270E+03
     -0.890  0.1063E+02  0.1623E+02  0.2278E+03  0.2278E+03
     -0.839  0.2025E+02  0.1970E+02  0.2289E+03  0.2288E+03
     -0.788  0.1208E+02  0.1291E+02  0.2295E+03  0.2295E+03
     -0.737  0.8031E+01  0.6397E+01  0.2299E+03  0.2298E+03
     -0.686  0.1867E+02  0.1954E+02  0.2309E+03  0.2308E+03
     -0.635  0.1468E+02  0.1188E+02  0.2316E+03  0.2314E+03
     -0.584  0.8255E+01  0.1117E+02  0.2320E+03  0.2320E+03
     -0.533  0.3118E+02  0.2731E+02  0.2336E+03  0.2334E+03
     -0.481  0.1155E+02  0.1518E+02  0.2342E+03  0.2342E+03
     -0.430  0.1603E+02  0.1629E+02  0.2350E+03  0.2350E+03
     -0.379  0.1508E+02  0.1361E+02  0.2358E+03  0.2357E+03
     -0.328  0.3676E+02  0.3283E+02  0.2377E+03  0.2374E+03
     -0.277  0.3818E+02  0.3655E+02  0.2396E+03  0.2392E+03
     -0.226  0.5298E+02  0.5443E+02  0.2423E+03  0.2420E+03
     -0.175  0.4232E+02  0.4195E+02  0.2445E+03  0.2442E+03
     -0.124  0.5479E+02  0.5237E+02  0.2473E+03  0.2468E+03
     -0.073  0.6971E+02  0.7340E+02  0.2509E+03  0.2506E+03
     -0.022  0.5588E+02  0.5182E+02  0.2537E+03  0.2532E+03
      0.029  0.7243E+02  0.7259E+02  0.2574E+03  0.2570E+03
      0.081  0.5988E+02  0.6146E+02  0.2605E+03  0.2601E+03
      0.132  0.6706E+02  0.6432E+02  0.2639E+03  0.2634E+03
      0.183  0.7389E+02  0.7682E+02  0.2677E+03  0.2673E+03
      0.234  0.6199E+02  0.6193E+02  0.2709E+03  0.2705E+03
      0.285  0.7172E+02  0.6944E+02  0.2745E+03  0.2740E+03
      0.336  0.6828E+02  0.6829E+02  0.2780E+03  0.2775E+03
      0.387  0.7651E+02  0.7845E+02  0.2819E+03  0.2815E+03
      0.438  0.5740E+02  0.5919E+02  0.2848E+03  0.2845E+03
      0.489  0.7164E+02  0.6819E+02  0.2885E+03  0.2880E+03
      0.540  0.5761E+02  0.5863E+02  0.2914E+03  0.2910E+03
      0.591  0.7584E+02  0.7672E+02  0.2953E+03  0.2949E+03
      0.643  0.6512E+02  0.5798E+02  0.2986E+03  0.2979E+03
      0.694  0.7369E+02  0.7855E+02  0.3024E+03  0.3019E+03
      0.745  0.7005E+02  0.6781E+02  0.3060E+03  0.3054E+03
      0.796  0.6132E+02  0.6355E+02  0.3091E+03  0.3086E+03
      0.847  0.7756E+02  0.7817E+02  0.3131E+03  0.3126E+03
      0.898  0.6631E+02  0.6903E+02  0.3165E+03  0.3161E+03
      0.949  0.8004E+02  0.7819E+02  0.3206E+03  0.3201E+03
      1.000  0.6902E+02  0.6670E+02  0.3241E+03  0.3235E+03
      1.051  0.6875E+02  0.6818E+02  0.3276E+03  0.3270E+03
      1.102  0.4859E+02  0.5408E+02  0.3301E+03  0.3298E+03
      1.153  0.6603E+02  0.6100E+02  0.3335E+03  0.3329E+03
      1.205  0.7942E+02  0.7885E+02  0.3375E+03  0.3369E+03
      1.256  0.7173E+02  0.7119E+02  0.3412E+03  0.3406E+03
      1.307  0.7139E+02  0.7350E+02  0.3448E+03  0.3443E+03
      1.358  0.5052E+02  0.5197E+02  0.3474E+03  0.3470E+03
      1.409  0.5334E+02  0.5368E+02  0.3501E+03  0.3497E+03
      1.460  0.7700E+02  0.7439E+02  0.3541E+03  0.3535E+03
      1.511  0.7543E+02  0.7841E+02  0.3579E+03  0.3575E+03
      1.562  0.5797E+02  0.5568E+02  0.3609E+03  0.3604E+03
      1.613  0.6571E+02  0.6320E+02  0.3642E+03  0.3636E+03
      1.664  0.4746E+02  0.5162E+02  0.3667E+03  0.3662E+03
      1.715  0.6083E+02  0.6274E+02  0.3698E+03  0.3694E+03
      1.767  0.7544E+02  0.7068E+02  0.3736E+03  0.3731E+03
      1.818  0.7464E+02  0.7198E+02  0.3774E+03  0.3767E+03
      1.869  0.4606E+02  0.5376E+02  0.3798E+03  0.3795E+03
      1.920  0.6542E+02  0.6465E+02  0.3831E+03  0.3828E+03
      1.971  0.5305E+02  0.5402E+02  0.3858E+03  0.3855E+03
      2.022  0.6713E+02  0.6475E+02  0.3893E+03  0.3889E+03
      2.073  0.5905E+02  0.5473E+02  0.3923E+03  0.3917E+03
      2.124  0.5903E+02  0.6424E+02  0.3953E+03  0.3949E+03
      2.175  0.7886E+02  0.7451E+02  0.3993E+03  0.3987E+03
      2.226  0.5759E+02  0.6003E+02  0.4023E+03  0.4018E+03
      2.277  0.7075E+02  0.6554E+02  0.4059E+03  0.4052E+03
      2.329  0.6038E+02  0.6823E+02  0.4090E+03  0.4086E+03
      2.380  0.7873E+02  0.7264E+02  0.4130E+03  0.4124E+03
      2.431  0.4911E+02  0.5053E+02  0.4155E+03  0.4149E+03
      2.482  0.6959E+02  0.7479E+02  0.4191E+03  0.4188E+03
      2.533  0.5451E+02  0.4923E+02  0.4219E+03  0.4213E+03
      2.584  0.5818E+02  0.5520E+02  0.4248E+03  0.4241E+03
      2.635  0.5854E+02  0.6157E+02  0.4278E+03  0.4272E+03
      2.686  0.4531E+02  0.5025E+02  0.4301E+03  0.4298E+03
      2.737  0.4284E+02  0.3820E+02  0.4323E+03  0.4318E+03
      2.788  0.6255E+02  0.6194E+02  0.4355E+03  0.4349E+03
      2.839  0.5258E+02  0.5847E+02  0.4382E+03  0.4379E+03
      2.891  0.5120E+02  0.4422E+02  0.4408E+03  0.4402E+03
      2.942  0.5372E+02  0.6068E+02  0.4436E+03  0.4433E+03
      2.993  0.4641E+02  0.4475E+02  0.4459E+03  0.4456E+03
      3.044  0.4704E+02  0.4680E+02  0.4483E+03  0.4479E+03
      3.095  0.3891E+02  0.3152E+02  0.4503E+03  0.4496E+03
      3.146  0.5897E+02  0.6311E+02  0.4533E+03  0.4528E+03
      3.197  0.5387E+02  0.5058E+02  0.4561E+03  0.4554E+03
      3.248  0.6465E+02  0.6128E+02  0.4594E+03  0.4585E+03
      3.299  0.3860E+02  0.4486E+02  0.4614E+03  0.4608E+03
      3.350  0.6789E+02  0.6630E+02  0.4648E+03  0.4642E+03
      3.401  0.5830E+02  0.5757E+02  0.4678E+03  0.4671E+03
      3.452  0.5669E+02  0.5166E+02  0.4707E+03  0.4698E+03
      3.504  0.4950E+02  0.5197E+02  0.4732E+03  0.4724E+03
      3.555  0.5684E+02  0.6056E+02  0.4761E+03  0.4755E+03
      3.606  0.6725E+02  0.5904E+02  0.4796E+03  0.4785E+03
      3.657  0.3480E+02  0.4202E+02  0.4814E+03  0.4807E+03
      3.708  0.5845E+02  0.5368E+02  0.4843E+03  0.4834E+03
      3.759  0.5490E+02  0.5260E+02  0.4871E+03  0.4861E+03
      3.810  0.5050E+02  0.5572E+02  0.4897E+03  0.4889E+03
      3.861  0.7068E+02  0.7197E+02  0.4933E+03  0.4926E+03
      3.912  0.3481E+02  0.3608E+02  0.4951E+03  0.4945E+03
      3.963  0.5486E+02  0.5312E+02  0.4979E+03  0.4972E+03
      4.014  0.5767E+02  0.5711E+02  0.5009E+03  0.5001E+03
      4.066  0.5546E+02  0.6252E+02  0.5037E+03  0.5033E+03
      4.117  0.5221E+02  0.4980E+02  0.5064E+03  0.5058E+03
      4.168  0.6139E+02  0.5798E+02  0.5095E+03  0.5088E+03
      4.219  0.4235E+02  0.4704E+02  0.5117E+03  0.5112E+03
      4.270  0.4838E+02  0.4524E+02  0.5141E+03  0.5135E+03
      4.321  0.5479E+02  0.5285E+02  0.5169E+03  0.5162E+03
      4.372  0.4215E+02  0.4464E+02  0.5191E+03  0.5185E+03
      4.423  0.5477E+02  0.5553E+02  0.5219E+03  0.5213E+03
      4.474  0.3743E+02  0.4229E+02  0.5238E+03  0.5235E+03
      4.525  0.6252E+02  0.5330E+02  0.5270E+03  0.5262E+03
      4.576  0.4584E+02  0.5519E+02  0.5293E+03  0.5290E+03
      4.628  0.5622E+02  0.4605E+02  0.5322E+03  0.5314E+03
      4.679  0.5416E+02  0.5878E+02  0.5350E+03  0.5344E+03
      4.730  0.5546E+02  0.5353E+02  0.5378E+03  0.5371E+03
      4.781  0.5522E+02  0.5486E+02  0.5406E+03  0.5399E+03
      4.832  0.4358E+02  0.5344E+02  0.5429E+03  0.5427E+03
      4.883  0.4894E+02  0.4060E+02  0.5454E+03  0.5447E+03
      4.934  0.6633E+02  0.6544E+02  0.5487E+03  0.5481E+03
      4.985  0.4312E+02  0.4289E+02  0.5510E+03  0.5503E+03
      5.036  0.4824E+02  0.5474E+02  0.5534E+03  0.5531E+03
      5.087  0.6686E+02  0.6271E+02  0.5568E+03  0.5563E+03
      5.138  0.4459E+02  0.4718E+02  0.5591E+03  0.5587E+03
      5.190  0.5017E+02  0.5085E+02  0.5617E+03  0.5613E+03
      5.241  0.4125E+02  0.4371E+02  0.5638E+03  0.5635E+03
      5.292  0.5492E+02  0.5393E+02  0.5666E+03  0.5663E+03
      5.343  0.5580E+02  0.5499E+02  0.5694E+03  0.5691E+03
      5.394  0.5845E+02  0.5266E+02  0.5724E+03  0.5718E+03
      5.445  0.4090E+02  0.4791E+02  0.5745E+03  0.5742E+03
      5.496  0.2651E+02  0.2584E+02  0.5759E+03  0.5755E+03
      5.547  0.2586E+01  0.9177E+01  0.5760E+03  0.5760E+03
      5.598  0.0000E+00  0.0000E+00  0.5760E+03  0.5760E+03
      5.649  0.0000E+00  0.0000E+00  0.5760E+03  0.5760E+03
      5.700  0.0000E+00  0.0000E+00  0.5760E+03  0.5760E+03
      5.752  0.0000E+00  0.0000E+00  0.5760E+03  0.5760E+03
      5.803  0.0000E+00  0.0000E+00  0.5760E+03  0.5760E+03
      5.854  0.0000E+00  0.0000E+00  0.5760E+03  0.5760E+03
      5.905  0.0000E+00  0.0000E+00  0.5760E+03  0.5760E+03
      5.956  0.0000E+00  0.0000E+00  0.5760E+03  0.5760E+03
      6.007  0.0000E+00  0.0000E+00  0.5760E+03  0.5760E+03
      6.058  0.0000E+00  0.0000E+00  0.5760E+03  0.5760E+03
      6.109  0.0000E+00  0.0000E+00  0.5760E+03  0.5760E+03
      6.160  0.0000E+00  0.0000E+00  0.5760E+03  0.5760E+03
      6.211  0.0000E+00  0.0000E+00  0.5760E+03  0.5760E+03
