<?xml version="1.0" encoding="ISO-8859-1"?>
<modeling>
 <generator>
  <i name="program" type="string">vasp </i>
  <i name="version" type="string">6.4.3  </i>
  <i name="subversion" type="string">19Mar24 (build Oct 22 2024 11:23:12) complex                          parallel </i>
  <i name="platform" type="string">LinuxIFC </i>
  <i name="date" type="string">2025 06 08 </i>
  <i name="time" type="string">15:34:50 </i>
 </generator>
 <incar>
  <i type="string" name="SYSTEM">Si and Ge interface calculation</i>
  <i type="int" name="ISTART">     0</i>
  <i type="logical" name="ADDGRID"> T  </i>
  <i type="int" name="ISPIN">     2</i>
  <i name="AMIX">      0.60000000</i>
  <i type="int" name="ICHARG">     2</i>
  <i type="int" name="NELM">   100</i>
  <i name="EDIFF">      0.00000010</i>
  <i name="ENCUT">    700.00000000</i>
  <i name="ENAUG">    900.00000000</i>
  <i type="int" name="NBANDS">   288</i>
  <i name="NUPDOWN">      1.00000000</i>
  <i name="NELECT">    480.00000000</i>
  <i type="string" name="LREAL">AUTO</i>
  <i type="int" name="ISMEAR">     0</i>
  <i name="SIGMA">      0.01000000</i>
  <i type="int" name="LMAXMIX">     6</i>
  <i type="logical" name="LWAVE"> F  </i>
  <i type="logical" name="LVTOT"> F  </i>
  <i type="logical" name="LVHAR"> T  </i>
  <i type="logical" name="LASPH"> T  </i>
  <i type="logical" name="LMIXTAU"> T  </i>
 </incar>
 <primitive_cell>
  <structure name="primitive_cell" >
   <crystal>
    <varray name="basis" >
     <v>      16.29300118       0.00000000       0.00000000 </v>
     <v>       0.00000000      17.17432976       0.00000000 </v>
     <v>       0.00000000       0.00000025      10.40234280 </v>
    </varray>
    <i name="volume">   2910.79786364 </i>
    <varray name="rec_basis" >
     <v>       0.06137605       0.00000000       0.00000000 </v>
     <v>       0.00000000       0.05822644      -0.00000000 </v>
     <v>       0.00000000       0.00000000       0.09613219 </v>
    </varray>
   </crystal>
   <varray name="positions" >
    <v>       0.13037890       0.82620466       0.41275215 </v>
    <v>       0.96371245       0.07620391       0.00000006 </v>
    <v>       0.79704571       0.42620403       0.08255048 </v>
    <v>       0.63037908       0.77620417       0.16510089 </v>
    <v>       0.46371227       0.12620449       0.24765132 </v>
    <v>       0.29704553       0.47620463       0.33020181 </v>
    <v>       0.46371227       0.82620466       0.41275215 </v>
    <v>       0.29704580       0.07620391       0.00000006 </v>
    <v>       0.13037908       0.42620403       0.08255048 </v>
    <v>       0.96371239       0.77620417       0.16510089 </v>
    <v>       0.79704559       0.12620449       0.24765132 </v>
    <v>       0.63037884       0.47620463       0.33020181 </v>
    <v>       0.79704559       0.82620466       0.41275215 </v>
    <v>       0.63037914       0.07620391       0.00000006 </v>
    <v>       0.46371242       0.42620403       0.08255048 </v>
    <v>       0.29704577       0.77620417       0.16510089 </v>
    <v>       0.13037898       0.12620449       0.24765132 </v>
    <v>       0.96371222       0.47620463       0.33020181 </v>
    <v>       0.21371222       0.57620478       0.41275209 </v>
    <v>       0.04704577       0.82620400       0.00000000 </v>
    <v>       0.88037908       0.17620420       0.08255047 </v>
    <v>       0.71371233       0.52620447       0.16510080 </v>
    <v>       0.54704559       0.87620461       0.24765126 </v>
    <v>       0.38037896       0.22620463       0.33020163 </v>
    <v>       0.54704559       0.57620478       0.41275209 </v>
    <v>       0.38037908       0.82620400       0.00000000 </v>
    <v>       0.21371238       0.17620420       0.08255047 </v>
    <v>       0.04704569       0.52620447       0.16510080 </v>
    <v>       0.88037896       0.87620461       0.24765126 </v>
    <v>       0.71371233       0.22620463       0.33020163 </v>
    <v>       0.88037890       0.57620478       0.41275209 </v>
    <v>       0.71371239       0.82620400       0.00000000 </v>
    <v>       0.54704571       0.17620420       0.08255047 </v>
    <v>       0.38037899       0.52620447       0.16510080 </v>
    <v>       0.21371223       0.87620461       0.24765126 </v>
    <v>       0.04704558       0.22620463       0.33020163 </v>
    <v>       0.13037890       0.32620478       0.41275215 </v>
    <v>       0.96371239       0.57620400       0.00000002 </v>
    <v>       0.79704571       0.92620414       0.08255044 </v>
    <v>       0.63037902       0.27620423       0.16510080 </v>
    <v>       0.46371227       0.62620449       0.24765132 </v>
    <v>       0.29704565       0.97620463       0.33020163 </v>
    <v>       0.46371227       0.32620478       0.41275215 </v>
    <v>       0.29704577       0.57620400       0.00000002 </v>
    <v>       0.13037905       0.92620414       0.08255044 </v>
    <v>       0.96371239       0.27620423       0.16510080 </v>
    <v>       0.79704559       0.62620449       0.24765132 </v>
    <v>       0.63037896       0.97620463       0.33020163 </v>
    <v>       0.79704559       0.32620478       0.41275215 </v>
    <v>       0.63037914       0.57620400       0.00000002 </v>
    <v>       0.46371239       0.92620414       0.08255044 </v>
    <v>       0.29704574       0.27620423       0.16510080 </v>
    <v>       0.13037898       0.62620449       0.24765132 </v>
    <v>       0.96371233       0.97620463       0.33020163 </v>
    <v>       0.21371222       0.07620478       0.41275206 </v>
    <v>       0.04704577       0.32620391       0.00000006 </v>
    <v>       0.88037908       0.67620403       0.08255045 </v>
    <v>       0.71371239       0.02620423       0.16510081 </v>
    <v>       0.54704559       0.37620449       0.24765126 </v>
    <v>       0.38037884       0.72620475       0.33020163 </v>
    <v>       0.54704559       0.07620478       0.41275206 </v>
    <v>       0.38037911       0.32620391       0.00000006 </v>
    <v>       0.21371241       0.67620403       0.08255045 </v>
    <v>       0.04704573       0.02620423       0.16510081 </v>
    <v>       0.88037896       0.37620449       0.24765126 </v>
    <v>       0.71371222       0.72620475       0.33020163 </v>
    <v>       0.88037896       0.07620478       0.41275206 </v>
    <v>       0.71371245       0.32620391       0.00000006 </v>
    <v>       0.54704577       0.67620403       0.08255045 </v>
    <v>       0.38037908       0.02620423       0.16510081 </v>
    <v>       0.21371229       0.37620449       0.24765126 </v>
    <v>       0.04704554       0.72620475       0.33020163 </v>
    <v>       0.71570682       0.68195414       0.54612887 </v>
    <v>       0.34070686       0.29306507       0.61022770 </v>
    <v>       0.96570689       0.90417624       0.67432654 </v>
    <v>       0.59070694       0.51528740       0.73842549 </v>
    <v>       0.21570694       0.12639832       0.80252433 </v>
    <v>       0.84070682       0.73750925       0.86662328 </v>
    <v>       0.21570682       0.68195414       0.54612887 </v>
    <v>       0.84070694       0.29306507       0.61022770 </v>
    <v>       0.46570689       0.90417618       0.67432654 </v>
    <v>       0.09070694       0.51528740       0.73842549 </v>
    <v>       0.71570706       0.12639832       0.80252433 </v>
    <v>       0.34070694       0.73750925       0.86662328 </v>
    <v>       0.09070682       0.43195403       0.54612887 </v>
    <v>       0.71570689       0.04306507       0.61022782 </v>
    <v>       0.34070691       0.65417624       0.67432666 </v>
    <v>       0.96570700       0.26528740       0.73842549 </v>
    <v>       0.59070712       0.87639844       0.80252445 </v>
    <v>       0.21570682       0.48750925       0.86662328 </v>
    <v>       0.59070682       0.43195403       0.54612887 </v>
    <v>       0.21570682       0.04306507       0.61022770 </v>
    <v>       0.84070689       0.65417612       0.67432654 </v>
    <v>       0.46570694       0.26528728       0.73842549 </v>
    <v>       0.09070706       0.87639832       0.80252433 </v>
    <v>       0.71570682       0.48750925       0.86662328 </v>
    <v>       0.84070682       0.43195403       0.54612887 </v>
    <v>       0.46570682       0.04306507       0.61022770 </v>
    <v>       0.09070682       0.65417612       0.67432654 </v>
    <v>       0.71570694       0.26528728       0.73842549 </v>
    <v>       0.34070706       0.87639839       0.80252433 </v>
    <v>       0.96570682       0.48750925       0.86662328 </v>
    <v>       0.34070682       0.43195403       0.54612887 </v>
    <v>       0.96570689       0.04306507       0.61022770 </v>
    <v>       0.59070689       0.65417624       0.67432654 </v>
    <v>       0.21570694       0.26528728       0.73842549 </v>
    <v>       0.84070706       0.87639839       0.80252433 </v>
    <v>       0.46570694       0.48750925       0.86662328 </v>
    <v>       0.96570677       0.68195414       0.54612887 </v>
    <v>       0.59070682       0.29306507       0.61022770 </v>
    <v>       0.21570682       0.90417624       0.67432654 </v>
    <v>       0.84070694       0.51528716       0.73842549 </v>
    <v>       0.46570706       0.12639832       0.80252433 </v>
    <v>       0.09070682       0.73750925       0.86662328 </v>
    <v>       0.46570682       0.68195414       0.54612887 </v>
    <v>       0.09070682       0.29306507       0.61022770 </v>
    <v>       0.71570694       0.90417624       0.67432666 </v>
    <v>       0.34070700       0.51528740       0.73842549 </v>
    <v>       0.96570706       0.12639832       0.80252433 </v>
    <v>       0.59070682       0.73750925       0.86662328 </v>
   </varray>
  </structure>
  <varray name="primitive_index" >
   <v type="int" >        1 </v>
   <v type="int" >        2 </v>
   <v type="int" >        3 </v>
   <v type="int" >        4 </v>
   <v type="int" >        5 </v>
   <v type="int" >        6 </v>
   <v type="int" >        7 </v>
   <v type="int" >        8 </v>
   <v type="int" >        9 </v>
   <v type="int" >       10 </v>
   <v type="int" >       11 </v>
   <v type="int" >       12 </v>
   <v type="int" >       13 </v>
   <v type="int" >       14 </v>
   <v type="int" >       15 </v>
   <v type="int" >       16 </v>
   <v type="int" >       17 </v>
   <v type="int" >       18 </v>
   <v type="int" >       19 </v>
   <v type="int" >       20 </v>
   <v type="int" >       21 </v>
   <v type="int" >       22 </v>
   <v type="int" >       23 </v>
   <v type="int" >       24 </v>
   <v type="int" >       25 </v>
   <v type="int" >       26 </v>
   <v type="int" >       27 </v>
   <v type="int" >       28 </v>
   <v type="int" >       29 </v>
   <v type="int" >       30 </v>
   <v type="int" >       31 </v>
   <v type="int" >       32 </v>
   <v type="int" >       33 </v>
   <v type="int" >       34 </v>
   <v type="int" >       35 </v>
   <v type="int" >       36 </v>
   <v type="int" >       37 </v>
   <v type="int" >       38 </v>
   <v type="int" >       39 </v>
   <v type="int" >       40 </v>
   <v type="int" >       41 </v>
   <v type="int" >       42 </v>
   <v type="int" >       43 </v>
   <v type="int" >       44 </v>
   <v type="int" >       45 </v>
   <v type="int" >       46 </v>
   <v type="int" >       47 </v>
   <v type="int" >       48 </v>
   <v type="int" >       49 </v>
   <v type="int" >       50 </v>
   <v type="int" >       51 </v>
   <v type="int" >       52 </v>
   <v type="int" >       53 </v>
   <v type="int" >       54 </v>
   <v type="int" >       55 </v>
   <v type="int" >       56 </v>
   <v type="int" >       57 </v>
   <v type="int" >       58 </v>
   <v type="int" >       59 </v>
   <v type="int" >       60 </v>
   <v type="int" >       61 </v>
   <v type="int" >       62 </v>
   <v type="int" >       63 </v>
   <v type="int" >       64 </v>
   <v type="int" >       65 </v>
   <v type="int" >       66 </v>
   <v type="int" >       67 </v>
   <v type="int" >       68 </v>
   <v type="int" >       69 </v>
   <v type="int" >       70 </v>
   <v type="int" >       71 </v>
   <v type="int" >       72 </v>
   <v type="int" >       73 </v>
   <v type="int" >       74 </v>
   <v type="int" >       75 </v>
   <v type="int" >       76 </v>
   <v type="int" >       77 </v>
   <v type="int" >       78 </v>
   <v type="int" >       79 </v>
   <v type="int" >       80 </v>
   <v type="int" >       81 </v>
   <v type="int" >       82 </v>
   <v type="int" >       83 </v>
   <v type="int" >       84 </v>
   <v type="int" >       85 </v>
   <v type="int" >       86 </v>
   <v type="int" >       87 </v>
   <v type="int" >       88 </v>
   <v type="int" >       89 </v>
   <v type="int" >       90 </v>
   <v type="int" >       91 </v>
   <v type="int" >       92 </v>
   <v type="int" >       93 </v>
   <v type="int" >       94 </v>
   <v type="int" >       95 </v>
   <v type="int" >       96 </v>
   <v type="int" >       97 </v>
   <v type="int" >       98 </v>
   <v type="int" >       99 </v>
   <v type="int" >      100 </v>
   <v type="int" >      101 </v>
   <v type="int" >      102 </v>
   <v type="int" >      103 </v>
   <v type="int" >      104 </v>
   <v type="int" >      105 </v>
   <v type="int" >      106 </v>
   <v type="int" >      107 </v>
   <v type="int" >      108 </v>
   <v type="int" >      109 </v>
   <v type="int" >      110 </v>
   <v type="int" >      111 </v>
   <v type="int" >      112 </v>
   <v type="int" >      113 </v>
   <v type="int" >      114 </v>
   <v type="int" >      115 </v>
   <v type="int" >      116 </v>
   <v type="int" >      117 </v>
   <v type="int" >      118 </v>
   <v type="int" >      119 </v>
   <v type="int" >      120 </v>
  </varray>
 </primitive_cell>
 <kpoints>
  <generation param="Gamma">
   <v type="int" name="divisions">       2        2        3 </v>
   <v name="usershift">      0.00000000       0.00000000       0.00000000 </v>
   <v name="genvec1">      0.50000000       0.00000000       0.00000000 </v>
   <v name="genvec2">      0.00000000       0.50000000       0.00000000 </v>
   <v name="genvec3">      0.00000000       0.00000000       0.33333333 </v>
   <v name="shift">      0.00000000       0.00000000       0.00000000 </v>
  </generation>
  <varray name="kpointlist" >
   <v>       0.00000000       0.00000000       0.00000000 </v>
   <v>       0.50000000       0.00000000       0.00000000 </v>
   <v>       0.00000000       0.50000000       0.00000000 </v>
   <v>       0.50000000       0.50000000       0.00000000 </v>
   <v>       0.00000000       0.00000000       0.33333333 </v>
   <v>       0.50000000       0.00000000       0.33333333 </v>
   <v>       0.00000000       0.50000000       0.33333333 </v>
   <v>       0.50000000       0.50000000       0.33333333 </v>
  </varray>
  <varray name="weights" >
   <v>       0.08333333 </v>
   <v>       0.08333333 </v>
   <v>       0.08333333 </v>
   <v>       0.08333333 </v>
   <v>       0.16666667 </v>
   <v>       0.16666667 </v>
   <v>       0.16666667 </v>
   <v>       0.16666667 </v>
  </varray>
 </kpoints>
 <parameters>
  <separator name="general" >
   <i type="string" name="SYSTEM">Si and Ge interface calculation</i>
   <i type="logical" name="LCOMPAT"> F  </i>
  </separator>
  <separator name="electronic" >
   <i type="string" name="PREC">normal</i>
   <i name="ENMAX">    700.00000000</i>
   <i name="ENAUG">    900.00000000</i>
   <i name="EDIFF">      0.00000010</i>
   <i type="int" name="IALGO">    38</i>
   <i type="int" name="IWAVPR">    10</i>
   <i type="int" name="NBANDS">   288</i>
   <i type="int" name="NBANDSLOW">    -1</i>
   <i type="int" name="NBANDSHIGH">    -1</i>
   <i name="NELECT">    480.00000000</i>
   <i type="int" name="TURBO">     0</i>
   <i type="int" name="IRESTART">     0</i>
   <i type="int" name="NREBOOT">     0</i>
   <i type="int" name="NMIN">     0</i>
   <i name="EREF">      0.00000000</i>
   <separator name="electronic smearing" >
    <i type="int" name="ISMEAR">     0</i>
    <i name="SIGMA">      0.01000000</i>
    <i name="KSPACING">      0.50000000</i>
    <i type="logical" name="KGAMMA"> T  </i>
    <i type="logical" name="KBLOWUP"> T  </i>
   </separator>
   <separator name="electronic projectors" >
    <i type="logical" name="LREAL"> T  </i>
    <v name="ROPT">     -0.00050000     -0.00050000</v>
    <i type="int" name="LMAXPAW">  -100</i>
    <i type="int" name="LMAXMIX">     6</i>
    <i type="logical" name="NLSPLINE"> F  </i>
   </separator>
   <separator name="electronic startup" >
    <i type="int" name="ISTART">     0</i>
    <i type="int" name="ICHARG">     2</i>
    <i type="int" name="INIWAV">     1</i>
   </separator>
   <separator name="electronic spin" >
    <i type="int" name="ISPIN">     2</i>
    <i type="logical" name="LNONCOLLINEAR"> F  </i>
    <v name="MAGMOM">      0.00833333      0.00833333      0.00833333      0.00833333      0.00833333      0.00833333      0.00833333      0.00833333      0.00833333      0.00833333      0.00833333      0.00833333      0.00833333      0.00833333      0.00833333      0.00833333      0.00833333      0.00833333      0.00833333      0.00833333
      0.00833333      0.00833333      0.00833333      0.00833333      0.00833333      0.00833333      0.00833333      0.00833333      0.00833333      0.00833333      0.00833333      0.00833333      0.00833333      0.00833333      0.00833333      0.00833333      0.00833333      0.00833333      0.00833333      0.00833333
      0.00833333      0.00833333      0.00833333      0.00833333      0.00833333      0.00833333      0.00833333      0.00833333      0.00833333      0.00833333      0.00833333      0.00833333      0.00833333      0.00833333      0.00833333      0.00833333      0.00833333      0.00833333      0.00833333      0.00833333
      0.00833333      0.00833333      0.00833333      0.00833333      0.00833333      0.00833333      0.00833333      0.00833333      0.00833333      0.00833333      0.00833333      0.00833333      0.00833333      0.00833333      0.00833333      0.00833333      0.00833333      0.00833333      0.00833333      0.00833333
      0.00833333      0.00833333      0.00833333      0.00833333      0.00833333      0.00833333      0.00833333      0.00833333      0.00833333      0.00833333      0.00833333      0.00833333      0.00833333      0.00833333      0.00833333      0.00833333      0.00833333      0.00833333      0.00833333      0.00833333
      0.00833333      0.00833333      0.00833333      0.00833333      0.00833333      0.00833333      0.00833333      0.00833333      0.00833333      0.00833333      0.00833333      0.00833333      0.00833333      0.00833333      0.00833333      0.00833333      0.00833333      0.00833333      0.00833333      0.00833333
</v>
    <i name="NUPDOWN">      1.00000000</i>
    <i type="logical" name="LSORBIT"> F  </i>
    <v name="SAXIS">      0.00000000      0.00000000      1.00000000</v>
    <i type="logical" name="LSPIRAL"> F  </i>
    <v name="QSPIRAL">      0.00000000      0.00000000      0.00000000</v>
    <i type="logical" name="LZEROZ"> F  </i>
   </separator>
   <separator name="electronic exchange-correlation" >
    <i type="logical" name="LASPH"> T  </i>
   </separator>
   <separator name="electronic convergence" >
    <i type="int" name="NELM">   100</i>
    <i type="int" name="NELMDL">    -5</i>
    <i type="int" name="NELMIN">     2</i>
    <i name="ENINI">    700.00000000</i>
    <separator name="electronic convergence detail" >
     <i type="logical" name="LDIAG"> T  </i>
     <i type="logical" name="LSUBROT"> F  </i>
     <i name="WEIMIN">      0.00000000</i>
     <i name="EBREAK">      0.00000000</i>
     <i name="DEPER">      0.30000000</i>
     <i type="int" name="NRMM">     4</i>
     <i name="TIME">      0.40000000</i>
    </separator>
   </separator>
   <separator name="electronic mixer" >
    <i name="AMIX">      0.60000000</i>
    <i name="BMIX">      1.00000000</i>
    <i name="AMIN">      0.10000000</i>
    <i name="AMIX_MAG">      2.40000000</i>
    <i name="BMIX_MAG">      1.00000000</i>
    <separator name="electronic mixer details" >
     <i type="int" name="IMIX">     4</i>
     <i type="logical" name="MIXFIRST"> F  </i>
     <i type="int" name="MAXMIX">   -45</i>
     <i name="WC">    100.00000000</i>
     <i type="int" name="INIMIX">     1</i>
     <i type="int" name="MIXPRE">     1</i>
     <i type="int" name="MREMOVE">     5</i>
    </separator>
   </separator>
   <separator name="electronic dipolcorrection" >
    <i type="logical" name="LDIPOL"> F  </i>
    <i type="logical" name="LMONO"> F  </i>
    <i type="int" name="IDIPOL">     0</i>
    <i name="EPSILON">      1.00000000</i>
    <v name="DIPOL">   -100.00000000   -100.00000000   -100.00000000</v>
    <i name="EFIELD">      0.00000000</i>
    <i type="logical" name="LVACPOTAV"> F  </i>
   </separator>
  </separator>
  <separator name="grids" >
   <i type="int" name="NGX">   108</i>
   <i type="int" name="NGY">   112</i>
   <i type="int" name="NGZ">    70</i>
   <i type="int" name="NGXF">   216</i>
   <i type="int" name="NGYF">   224</i>
   <i type="int" name="NGZF">   140</i>
   <i type="logical" name="ADDGRID"> T  </i>
  </separator>
  <separator name="ionic" >
   <i type="int" name="NSW">     0</i>
   <i type="int" name="IBRION">    -1</i>
   <i type="int" name="MDALGO">     0</i>
   <i type="int" name="ISIF">     2</i>
   <i name="PSTRESS">      0.00000000</i>
   <i name="EDIFFG">      0.00000100</i>
   <i type="int" name="NFREE">     0</i>
   <i name="POTIM">      0.50000000</i>
   <i name="SMASS">     -3.00000000</i>
   <i name="SCALEE">      1.00000000</i>
  </separator>
  <separator name="ionic md" >
   <i name="TEBEG">      0.00010000</i>
   <i name="TEEND">      0.00010000</i>
   <i type="int" name="NBLOCK">     1</i>
   <i type="int" name="KBLOCK">     1</i>
   <i type="int" name="NPACO">   256</i>
   <i name="APACO">     10.00000000</i>
  </separator>
  <separator name="symmetry" >
   <i type="int" name="ISYM">     2</i>
   <i name="SYMPREC">      0.00001000</i>
  </separator>
  <separator name="dos" >
   <i type="int" name="LORBIT">     0</i>
   <v name="RWIGS">     -1.00000000     -1.00000000</v>
   <i type="int" name="NEDOS">   301</i>
   <i name="EMIN">     10.00000000</i>
   <i name="EMAX">    -10.00000000</i>
   <i name="EFERMI">      0.00000000</i>
  </separator>
  <separator name="writing" >
   <i type="int" name="NWRITE">     2</i>
   <i type="logical" name="LWAVE"> F  </i>
   <i type="logical" name="LDOWNSAMPLE"> F  </i>
   <i type="logical" name="LCHARG"> T  </i>
   <i type="logical" name="LPARD"> F  </i>
   <i type="logical" name="LVTOT"> F  </i>
   <i type="logical" name="LVHAR"> T  </i>
   <i type="logical" name="LELF"> F  </i>
   <i type="logical" name="LOPTICS"> F  </i>
   <v name="STM">      0.00000000      0.00000000      0.00000000      0.00000000      0.00000000      0.00000000      0.00000000</v>
  </separator>
  <separator name="performance" >
   <i type="int" name="NPAR">     4</i>
   <i type="int" name="NSIM">     4</i>
   <i type="int" name="NBLK">    -1</i>
   <i type="logical" name="LPLANE"> T  </i>
   <i type="logical" name="LSCALAPACK"> T  </i>
   <i type="logical" name="LSCAAWARE"> F  </i>
   <i type="logical" name="LSCALU"> F  </i>
   <i type="logical" name="LASYNC"> F  </i>
   <i type="logical" name="LORBITALREAL"> F  </i>
  </separator>
  <separator name="miscellaneous" >
   <i type="int" name="IDIOT">     3</i>
   <i type="int" name="PHON_NSTRUCT">    -1</i>
   <i type="logical" name="LMUSIC"> F  </i>
   <v name="POMASS">     28.08500000     72.61000000</v>
   <v name="DARWINR">      0.00000000      0.00000000</v>
   <v name="DARWINV">      1.00000000      1.00000000</v>
   <i type="logical" name="LCORR"> T  </i>
  </separator>
  <i type="logical" name="GGA_COMPAT"> T  </i>
  <i type="logical" name="LBERRY"> F  </i>
  <i type="int" name="ICORELEVEL">     0</i>
  <i type="logical" name="LDAU"> F  </i>
  <i type="int" name="I_CONSTRAINED_M">     0</i>
  <separator name="electronic exchange-correlation" >
   <i type="string" name="GGA    ">PE</i>
   <i type="string" name="XC_C">1</i>
   <i type="int" name="VOSKOWN">     0</i>
   <i type="logical" name="LHFCALC"> F  </i>
   <i type="string" name="PRECFOCK"></i>
   <i type="logical" name="LSYMGRAD"> F  </i>
   <i type="logical" name="LHFONE"> F  </i>
   <i type="logical" name="LRHFCALC"> F  </i>
   <i type="logical" name="LTHOMAS"> F  </i>
   <i type="logical" name="LMODELHF"> F  </i>
   <i type="logical" name="LFOCKACE"> F  </i>
   <i name="ENCUT4O">     -1.00000000</i>
   <i type="int" name="EXXOEP">     0</i>
   <i type="int" name="FOURORBIT">     0</i>
   <i name="AEXX">      0.00000000</i>
   <i name="HFALPHA">      0.00000000</i>
   <i name="MCALPHA">      0.00000000</i>
   <i name="ALDAX">      1.00000000</i>
   <i name="AGGAX">      1.00000000</i>
   <i name="AMGGAX">      1.00000000</i>
   <i name="ALDAC">      1.00000000</i>
   <i name="AGGAC">      1.00000000</i>
   <i name="AMGGAC">      1.00000000</i>
   <i type="int" name="NKREDX">     1</i>
   <i type="int" name="NKREDY">     1</i>
   <i type="int" name="NKREDZ">     1</i>
   <i type="logical" name="SHIFTRED"> F  </i>
   <i type="logical" name="ODDONLY"> F  </i>
   <i type="logical" name="EVENONLY"> F  </i>
   <i type="int" name="LMAXFOCK">     0</i>
   <i type="int" name="NMAXFOCKAE">     0</i>
   <i type="logical" name="LFOCKAEDFT"> F  </i>
   <i name="HFSCREEN">      0.00000000</i>
   <i name="HFSCREENC">      0.00000000</i>
   <i type="int" name="NBANDSGWLOW">     0</i>
  </separator>
  <separator name="vdW DFT" >
   <i type="logical" name="LUSE_VDW"> F  </i>
   <i type="int" name="IVDW_NL">    -1</i>
   <i type="logical" name="LSPIN_VDW"> F  </i>
   <i name="ZAB_VDW">     -0.84910000</i>
   <i name="GAMMA_VDW">      1.39626340</i>
   <i name="ALPHA_VDW">      0.00000000</i>
   <i name="PARAM1">      0.12340000</i>
   <i name="PARAM2">      1.00000000</i>
   <i name="BPARAM">      6.30000000</i>
   <i name="CPARAM">      0.00930000</i>
  </separator>
  <separator name="model GW" >
   <i type="int" name="MODEL_GW">     0</i>
   <i name="MODEL_EPS0">     14.55398932</i>
   <i name="MODEL_ALPHA">      1.00000000</i>
  </separator>
  <separator name="linear response parameters" >
   <i type="logical" name="LEPSILON"> F  </i>
   <i type="logical" name="LRPA"> F  </i>
   <i type="logical" name="LNABLA"> F  </i>
   <i type="logical" name="LVEL"> F  </i>
   <i name="CSHIFT">      0.10000000</i>
   <i name="OMEGAMAX">     -1.00000000</i>
   <i name="DEG_THRESHOLD">      0.00200000</i>
   <i name="RTIME">     -0.10000000</i>
   <i name="WPLASMAI">      0.00000000</i>
   <v name="DFIELD">      0.00000000      0.00000000      0.00000000</v>
   <v name="WPLASMA">      0.00000000      0.00000000      0.00000000      0.00000000      0.00000000      0.00000000      0.00000000      0.00000000      0.00000000</v>
  </separator>
  <separator name="orbital magnetization" >
   <i type="logical" name="NUCIND"> F  </i>
   <v name="MAGPOS">      0.00000000      0.00000000      0.00000000</v>
   <i type="logical" name="LNICSALL"> T  </i>
   <i type="logical" name="ORBITALMAG"> F  </i>
   <i type="logical" name="LMAGBLOCH"> F  </i>
   <i type="logical" name="LCHIMAG"> F  </i>
   <i type="logical" name="LGAUGE"> T  </i>
   <i type="int" name="MAGATOM">     0</i>
   <v name="MAGDIPOL">      0.00000000      0.00000000      0.00000000</v>
   <v name="AVECCONST">      0.00000000      0.00000000      0.00000000</v>
  </separator>
  <separator name="response functions" >
   <i type="logical" name="LALL_IN_ONE"> F  </i>
   <i type="int" name="IALL_IN_ONE">    -1</i>
   <i type="int" name="NBANDS_WAVE">    -1</i>
   <i type="logical" name="LFINITE_TEMPERATURE"> F  </i>
   <i type="logical" name="LADDER"> F  </i>
   <i type="logical" name="LRPAFORCE"> F  </i>
   <i type="logical" name="LFXC"> F  </i>
   <i type="logical" name="LHARTREE"> T  </i>
   <i type="int" name="IBSE">     0</i>
   <v type="int" name="KPOINT">    -1     0     0     0</v>
   <i type="logical" name="LTCTC"> F  </i>
   <i type="logical" name="LTCTE"> F  </i>
   <i type="logical" name="LTETE"> F  </i>
   <i type="logical" name="LTRIPLET"> F  </i>
   <i type="logical" name="LFXCEPS"> F  </i>
   <i type="logical" name="LFXHEG"> F  </i>
   <i type="int" name="NATURALO">     2</i>
   <i type="logical" name="LHOLEGF"> F  </i>
   <i type="logical" name="L2ORDER"> F  </i>
   <i type="logical" name="LDMP1"> F  </i>
   <i type="logical" name="LMP2LT"> F  </i>
   <i type="logical" name="LSMP2LT"> F  </i>
   <i type="logical" name="LGWLF"> F  </i>
   <i name="ENCUTGW">     -1.60000002</i>
   <i name="ENCUTGWSOFT">     -1.60000002</i>
   <i name="ENCUTLF">     -1.00000000</i>
   <i type="logical" name="ESF_SPLINES"> F  </i>
   <i name="ESF_CONV">      0.01000000</i>
   <i type="int" name="ESF_NINTER">    15</i>
   <i type="int" name="LMAXMP2">    -1</i>
   <i name="SCISSOR">      0.00000000</i>
   <i type="int" name="NOMEGA">     0</i>
   <i type="int" name="NOMEGAR">     0</i>
   <i type="int" name="NBANDSGW">    -1</i>
   <i type="int" name="NBANDSO">    -1</i>
   <i type="int" name="NBANDSV">    -1</i>
   <i type="int" name="NELMGW">     1</i>
   <i type="int" name="NELMHF">     1</i>
   <i type="int" name="DIM">     3</i>
   <i type="int" name="IESPILON">     4</i>
   <i type="int" name="ANTIRES">     0</i>
   <i name="OMEGAMAX">    -30.00000000</i>
   <i name="OMEGAMIN">    -30.00000000</i>
   <i name="OMEGATL">   -200.00000000</i>
   <i type="int" name="OMEGAGRID">     0</i>
   <i name="CSHIFT">     -0.10000000</i>
   <i type="logical" name="LSELFENERGY"> F  </i>
   <i type="logical" name="LSPECTRAL"> F  </i>
   <i type="logical" name="LSPECTRALGW"> F  </i>
   <i type="logical" name="LSINGLES"> F  </i>
   <i type="logical" name="LFERMIGW"> F  </i>
   <i type="logical" name="ODDONLYGW"> F  </i>
   <i type="logical" name="EVENONLYGW"> F  </i>
   <i type="int" name="NKREDLFX">     1</i>
   <i type="int" name="NKREDLFY">     1</i>
   <i type="int" name="NKREDLFZ">     1</i>
   <i type="int" name="MAXMEM">  2800</i>
   <i type="int" name="TELESCOPE">     0</i>
   <i type="int" name="NTAUPAR">    -1</i>
   <i type="int" name="NOMEGAPAR">    -1</i>
   <i name="DAMP_NEWTON">      0.80000001</i>
   <i name="LAMBDA">      1.00000000</i>
  </separator>
  <separator name="External order field" >
   <i name="OFIELD_KAPPA">      0.00000000</i>
   <v name="OFIELD_K">      0.00000000      0.00000000      0.00000000</v>
   <i name="OFIELD_Q6_NEAR">      0.00000000</i>
   <i name="OFIELD_Q6_FAR">      0.00000000</i>
   <i name="OFIELD_A">      0.00000000</i>
  </separator>
  <separator name="optional k-points parameters" >
   <i type="int" name="KPOINTS_OPT_MODE">     1</i>
   <i type="logical" name="LKPOINTS_OPT"> F  </i>
  </separator>
 </parameters>
 <atominfo>
  <atoms>     120 </atoms>
  <types>       2 </types>
  <array name="atoms" >
   <dimension dim="1">ion</dimension>
   <field type="string">element</field>
   <field type="int">atomtype</field>
   <set>
    <rc><c>Si</c><c>   1</c></rc>
    <rc><c>Si</c><c>   1</c></rc>
    <rc><c>Si</c><c>   1</c></rc>
    <rc><c>Si</c><c>   1</c></rc>
    <rc><c>Si</c><c>   1</c></rc>
    <rc><c>Si</c><c>   1</c></rc>
    <rc><c>Si</c><c>   1</c></rc>
    <rc><c>Si</c><c>   1</c></rc>
    <rc><c>Si</c><c>   1</c></rc>
    <rc><c>Si</c><c>   1</c></rc>
    <rc><c>Si</c><c>   1</c></rc>
    <rc><c>Si</c><c>   1</c></rc>
    <rc><c>Si</c><c>   1</c></rc>
    <rc><c>Si</c><c>   1</c></rc>
    <rc><c>Si</c><c>   1</c></rc>
    <rc><c>Si</c><c>   1</c></rc>
    <rc><c>Si</c><c>   1</c></rc>
    <rc><c>Si</c><c>   1</c></rc>
    <rc><c>Si</c><c>   1</c></rc>
    <rc><c>Si</c><c>   1</c></rc>
    <rc><c>Si</c><c>   1</c></rc>
    <rc><c>Si</c><c>   1</c></rc>
    <rc><c>Si</c><c>   1</c></rc>
    <rc><c>Si</c><c>   1</c></rc>
    <rc><c>Si</c><c>   1</c></rc>
    <rc><c>Si</c><c>   1</c></rc>
    <rc><c>Si</c><c>   1</c></rc>
    <rc><c>Si</c><c>   1</c></rc>
    <rc><c>Si</c><c>   1</c></rc>
    <rc><c>Si</c><c>   1</c></rc>
    <rc><c>Si</c><c>   1</c></rc>
    <rc><c>Si</c><c>   1</c></rc>
    <rc><c>Si</c><c>   1</c></rc>
    <rc><c>Si</c><c>   1</c></rc>
    <rc><c>Si</c><c>   1</c></rc>
    <rc><c>Si</c><c>   1</c></rc>
    <rc><c>Si</c><c>   1</c></rc>
    <rc><c>Si</c><c>   1</c></rc>
    <rc><c>Si</c><c>   1</c></rc>
    <rc><c>Si</c><c>   1</c></rc>
    <rc><c>Si</c><c>   1</c></rc>
    <rc><c>Si</c><c>   1</c></rc>
    <rc><c>Si</c><c>   1</c></rc>
    <rc><c>Si</c><c>   1</c></rc>
    <rc><c>Si</c><c>   1</c></rc>
    <rc><c>Si</c><c>   1</c></rc>
    <rc><c>Si</c><c>   1</c></rc>
    <rc><c>Si</c><c>   1</c></rc>
    <rc><c>Si</c><c>   1</c></rc>
    <rc><c>Si</c><c>   1</c></rc>
    <rc><c>Si</c><c>   1</c></rc>
    <rc><c>Si</c><c>   1</c></rc>
    <rc><c>Si</c><c>   1</c></rc>
    <rc><c>Si</c><c>   1</c></rc>
    <rc><c>Si</c><c>   1</c></rc>
    <rc><c>Si</c><c>   1</c></rc>
    <rc><c>Si</c><c>   1</c></rc>
    <rc><c>Si</c><c>   1</c></rc>
    <rc><c>Si</c><c>   1</c></rc>
    <rc><c>Si</c><c>   1</c></rc>
    <rc><c>Si</c><c>   1</c></rc>
    <rc><c>Si</c><c>   1</c></rc>
    <rc><c>Si</c><c>   1</c></rc>
    <rc><c>Si</c><c>   1</c></rc>
    <rc><c>Si</c><c>   1</c></rc>
    <rc><c>Si</c><c>   1</c></rc>
    <rc><c>Si</c><c>   1</c></rc>
    <rc><c>Si</c><c>   1</c></rc>
    <rc><c>Si</c><c>   1</c></rc>
    <rc><c>Si</c><c>   1</c></rc>
    <rc><c>Si</c><c>   1</c></rc>
    <rc><c>Si</c><c>   1</c></rc>
    <rc><c>Ge</c><c>   2</c></rc>
    <rc><c>Ge</c><c>   2</c></rc>
    <rc><c>Ge</c><c>   2</c></rc>
    <rc><c>Ge</c><c>   2</c></rc>
    <rc><c>Ge</c><c>   2</c></rc>
    <rc><c>Ge</c><c>   2</c></rc>
    <rc><c>Ge</c><c>   2</c></rc>
    <rc><c>Ge</c><c>   2</c></rc>
    <rc><c>Ge</c><c>   2</c></rc>
    <rc><c>Ge</c><c>   2</c></rc>
    <rc><c>Ge</c><c>   2</c></rc>
    <rc><c>Ge</c><c>   2</c></rc>
    <rc><c>Ge</c><c>   2</c></rc>
    <rc><c>Ge</c><c>   2</c></rc>
    <rc><c>Ge</c><c>   2</c></rc>
    <rc><c>Ge</c><c>   2</c></rc>
    <rc><c>Ge</c><c>   2</c></rc>
    <rc><c>Ge</c><c>   2</c></rc>
    <rc><c>Ge</c><c>   2</c></rc>
    <rc><c>Ge</c><c>   2</c></rc>
    <rc><c>Ge</c><c>   2</c></rc>
    <rc><c>Ge</c><c>   2</c></rc>
    <rc><c>Ge</c><c>   2</c></rc>
    <rc><c>Ge</c><c>   2</c></rc>
    <rc><c>Ge</c><c>   2</c></rc>
    <rc><c>Ge</c><c>   2</c></rc>
    <rc><c>Ge</c><c>   2</c></rc>
    <rc><c>Ge</c><c>   2</c></rc>
    <rc><c>Ge</c><c>   2</c></rc>
    <rc><c>Ge</c><c>   2</c></rc>
    <rc><c>Ge</c><c>   2</c></rc>
    <rc><c>Ge</c><c>   2</c></rc>
    <rc><c>Ge</c><c>   2</c></rc>
    <rc><c>Ge</c><c>   2</c></rc>
    <rc><c>Ge</c><c>   2</c></rc>
    <rc><c>Ge</c><c>   2</c></rc>
    <rc><c>Ge</c><c>   2</c></rc>
    <rc><c>Ge</c><c>   2</c></rc>
    <rc><c>Ge</c><c>   2</c></rc>
    <rc><c>Ge</c><c>   2</c></rc>
    <rc><c>Ge</c><c>   2</c></rc>
    <rc><c>Ge</c><c>   2</c></rc>
    <rc><c>Ge</c><c>   2</c></rc>
    <rc><c>Ge</c><c>   2</c></rc>
    <rc><c>Ge</c><c>   2</c></rc>
    <rc><c>Ge</c><c>   2</c></rc>
    <rc><c>Ge</c><c>   2</c></rc>
    <rc><c>Ge</c><c>   2</c></rc>
   </set>
  </array>
  <array name="atomtypes" >
   <dimension dim="1">type</dimension>
   <field type="int">atomspertype</field>
   <field type="string">element</field>
   <field>mass</field>
   <field>valence</field>
   <field type="string">pseudopotential</field>
   <set>
    <rc><c>  72</c><c>Si</c><c>     28.08500000</c><c>      4.00000000</c><c>  PAW_PBE Si 05Jan2001                  </c></rc>
    <rc><c>  48</c><c>Ge</c><c>     72.61000000</c><c>      4.00000000</c><c>  PAW_PBE Ge 05Jan2001                  </c></rc>
   </set>
  </array>
 </atominfo>
 <structure name="initialpos" >
  <crystal>
   <varray name="basis" >
    <v>      16.29300118       0.00000000       0.00000000 </v>
    <v>       0.00000000      17.17432976       0.00000000 </v>
    <v>       0.00000000       0.00000025      10.40234280 </v>
   </varray>
   <i name="volume">   2910.79786364 </i>
   <varray name="rec_basis" >
    <v>       0.06137605       0.00000000       0.00000000 </v>
    <v>       0.00000000       0.05822644      -0.00000000 </v>
    <v>       0.00000000       0.00000000       0.09613219 </v>
   </varray>
  </crystal>
  <varray name="positions" >
   <v>       0.13037890       0.82620466       0.41275215 </v>
   <v>       0.96371245       0.07620391       0.00000006 </v>
   <v>       0.79704571       0.42620403       0.08255048 </v>
   <v>       0.63037908       0.77620417       0.16510089 </v>
   <v>       0.46371227       0.12620449       0.24765132 </v>
   <v>       0.29704553       0.47620463       0.33020181 </v>
   <v>       0.46371227       0.82620466       0.41275215 </v>
   <v>       0.29704580       0.07620391       0.00000006 </v>
   <v>       0.13037908       0.42620403       0.08255048 </v>
   <v>       0.96371239       0.77620417       0.16510089 </v>
   <v>       0.79704559       0.12620449       0.24765132 </v>
   <v>       0.63037884       0.47620463       0.33020181 </v>
   <v>       0.79704559       0.82620466       0.41275215 </v>
   <v>       0.63037914       0.07620391       0.00000006 </v>
   <v>       0.46371242       0.42620403       0.08255048 </v>
   <v>       0.29704577       0.77620417       0.16510089 </v>
   <v>       0.13037898       0.12620449       0.24765132 </v>
   <v>       0.96371222       0.47620463       0.33020181 </v>
   <v>       0.21371222       0.57620478       0.41275209 </v>
   <v>       0.04704577       0.82620400       0.00000000 </v>
   <v>       0.88037908       0.17620420       0.08255047 </v>
   <v>       0.71371233       0.52620447       0.16510080 </v>
   <v>       0.54704559       0.87620461       0.24765126 </v>
   <v>       0.38037896       0.22620463       0.33020163 </v>
   <v>       0.54704559       0.57620478       0.41275209 </v>
   <v>       0.38037908       0.82620400       0.00000000 </v>
   <v>       0.21371238       0.17620420       0.08255047 </v>
   <v>       0.04704569       0.52620447       0.16510080 </v>
   <v>       0.88037896       0.87620461       0.24765126 </v>
   <v>       0.71371233       0.22620463       0.33020163 </v>
   <v>       0.88037890       0.57620478       0.41275209 </v>
   <v>       0.71371239       0.82620400       0.00000000 </v>
   <v>       0.54704571       0.17620420       0.08255047 </v>
   <v>       0.38037899       0.52620447       0.16510080 </v>
   <v>       0.21371223       0.87620461       0.24765126 </v>
   <v>       0.04704558       0.22620463       0.33020163 </v>
   <v>       0.13037890       0.32620478       0.41275215 </v>
   <v>       0.96371239       0.57620400       0.00000002 </v>
   <v>       0.79704571       0.92620414       0.08255044 </v>
   <v>       0.63037902       0.27620423       0.16510080 </v>
   <v>       0.46371227       0.62620449       0.24765132 </v>
   <v>       0.29704565       0.97620463       0.33020163 </v>
   <v>       0.46371227       0.32620478       0.41275215 </v>
   <v>       0.29704577       0.57620400       0.00000002 </v>
   <v>       0.13037905       0.92620414       0.08255044 </v>
   <v>       0.96371239       0.27620423       0.16510080 </v>
   <v>       0.79704559       0.62620449       0.24765132 </v>
   <v>       0.63037896       0.97620463       0.33020163 </v>
   <v>       0.79704559       0.32620478       0.41275215 </v>
   <v>       0.63037914       0.57620400       0.00000002 </v>
   <v>       0.46371239       0.92620414       0.08255044 </v>
   <v>       0.29704574       0.27620423       0.16510080 </v>
   <v>       0.13037898       0.62620449       0.24765132 </v>
   <v>       0.96371233       0.97620463       0.33020163 </v>
   <v>       0.21371222       0.07620478       0.41275206 </v>
   <v>       0.04704577       0.32620391       0.00000006 </v>
   <v>       0.88037908       0.67620403       0.08255045 </v>
   <v>       0.71371239       0.02620423       0.16510081 </v>
   <v>       0.54704559       0.37620449       0.24765126 </v>
   <v>       0.38037884       0.72620475       0.33020163 </v>
   <v>       0.54704559       0.07620478       0.41275206 </v>
   <v>       0.38037911       0.32620391       0.00000006 </v>
   <v>       0.21371241       0.67620403       0.08255045 </v>
   <v>       0.04704573       0.02620423       0.16510081 </v>
   <v>       0.88037896       0.37620449       0.24765126 </v>
   <v>       0.71371222       0.72620475       0.33020163 </v>
   <v>       0.88037896       0.07620478       0.41275206 </v>
   <v>       0.71371245       0.32620391       0.00000006 </v>
   <v>       0.54704577       0.67620403       0.08255045 </v>
   <v>       0.38037908       0.02620423       0.16510081 </v>
   <v>       0.21371229       0.37620449       0.24765126 </v>
   <v>       0.04704554       0.72620475       0.33020163 </v>
   <v>       0.71570682       0.68195414       0.54612887 </v>
   <v>       0.34070686       0.29306507       0.61022770 </v>
   <v>       0.96570689       0.90417624       0.67432654 </v>
   <v>       0.59070694       0.51528740       0.73842549 </v>
   <v>       0.21570694       0.12639832       0.80252433 </v>
   <v>       0.84070682       0.73750925       0.86662328 </v>
   <v>       0.21570682       0.68195414       0.54612887 </v>
   <v>       0.84070694       0.29306507       0.61022770 </v>
   <v>       0.46570689       0.90417618       0.67432654 </v>
   <v>       0.09070694       0.51528740       0.73842549 </v>
   <v>       0.71570706       0.12639832       0.80252433 </v>
   <v>       0.34070694       0.73750925       0.86662328 </v>
   <v>       0.09070682       0.43195403       0.54612887 </v>
   <v>       0.71570689       0.04306507       0.61022782 </v>
   <v>       0.34070691       0.65417624       0.67432666 </v>
   <v>       0.96570700       0.26528740       0.73842549 </v>
   <v>       0.59070712       0.87639844       0.80252445 </v>
   <v>       0.21570682       0.48750925       0.86662328 </v>
   <v>       0.59070682       0.43195403       0.54612887 </v>
   <v>       0.21570682       0.04306507       0.61022770 </v>
   <v>       0.84070689       0.65417612       0.67432654 </v>
   <v>       0.46570694       0.26528728       0.73842549 </v>
   <v>       0.09070706       0.87639832       0.80252433 </v>
   <v>       0.71570682       0.48750925       0.86662328 </v>
   <v>       0.84070682       0.43195403       0.54612887 </v>
   <v>       0.46570682       0.04306507       0.61022770 </v>
   <v>       0.09070682       0.65417612       0.67432654 </v>
   <v>       0.71570694       0.26528728       0.73842549 </v>
   <v>       0.34070706       0.87639839       0.80252433 </v>
   <v>       0.96570682       0.48750925       0.86662328 </v>
   <v>       0.34070682       0.43195403       0.54612887 </v>
   <v>       0.96570689       0.04306507       0.61022770 </v>
   <v>       0.59070689       0.65417624       0.67432654 </v>
   <v>       0.21570694       0.26528728       0.73842549 </v>
   <v>       0.84070706       0.87639839       0.80252433 </v>
   <v>       0.46570694       0.48750925       0.86662328 </v>
   <v>       0.96570677       0.68195414       0.54612887 </v>
   <v>       0.59070682       0.29306507       0.61022770 </v>
   <v>       0.21570682       0.90417624       0.67432654 </v>
   <v>       0.84070694       0.51528716       0.73842549 </v>
   <v>       0.46570706       0.12639832       0.80252433 </v>
   <v>       0.09070682       0.73750925       0.86662328 </v>
   <v>       0.46570682       0.68195414       0.54612887 </v>
   <v>       0.09070682       0.29306507       0.61022770 </v>
   <v>       0.71570694       0.90417624       0.67432666 </v>
   <v>       0.34070700       0.51528740       0.73842549 </v>
   <v>       0.96570706       0.12639832       0.80252433 </v>
   <v>       0.59070682       0.73750925       0.86662328 </v>
  </varray>
 </structure>
 <calculation>
  <scstep>
   <time name="dav">   25.46   25.68</time>
   <time name="total">   26.68   26.91</time>
   <energy>
    <i name="alphaZ">    478.14092750 </i>
    <i name="ewald"> -12150.18915277 </i>
    <i name="hartreedc">  -1430.66835009 </i>
    <i name="XCdc">  -1053.21879709 </i>
    <i name="pawpsdc">  10575.88222728 </i>
    <i name="pawaedc">  -8613.76247617 </i>
    <i name="eentropy">     -0.00155790 </i>
    <i name="bandstr">   1692.82564100 </i>
    <i name="atom">  12460.60057749 </i>
    <i name="e_fr_energy">   1959.60903925 </i>
    <i name="e_wo_entrp">   1959.61059715 </i>
    <i name="e_0_energy">   1959.60981820 </i>
   </energy>
  </scstep>
  <scstep>
   <time name="dav">   28.64   28.87</time>
   <time name="total">   28.64   28.87</time>
   <energy>
    <i name="e_fr_energy">   -325.32062831 </i>
    <i name="e_wo_entrp">   -325.31857982 </i>
    <i name="e_0_energy">   -325.31960407 </i>
   </energy>
  </scstep>
  <scstep>
   <time name="dav">   30.35   30.61</time>
   <time name="total">   30.35   30.61</time>
   <energy>
    <i name="e_fr_energy">   -541.03820374 </i>
    <i name="e_wo_entrp">   -541.03583690 </i>
    <i name="e_0_energy">   -541.03702032 </i>
   </energy>
  </scstep>
  <scstep>
   <time name="dav">   29.23   29.55</time>
   <time name="total">   29.23   29.55</time>
   <energy>
    <i name="e_fr_energy">   -550.12054605 </i>
    <i name="e_wo_entrp">   -550.11768023 </i>
    <i name="e_0_energy">   -550.11911314 </i>
   </energy>
  </scstep>
  <scstep>
   <time name="dav">   32.64   32.96</time>
   <time name="total">   33.94   34.27</time>
   <energy>
    <i name="e_fr_energy">   -550.49720420 </i>
    <i name="e_wo_entrp">   -550.49423136 </i>
    <i name="e_0_energy">   -550.49571778 </i>
   </energy>
  </scstep>
  <scstep>
   <time name="dav">   29.13   29.38</time>
   <time name="total">   31.61   31.87</time>
   <energy>
    <i name="e_fr_energy">   -540.30576636 </i>
    <i name="e_wo_entrp">   -540.30273914 </i>
    <i name="e_0_energy">   -540.30425275 </i>
   </energy>
  </scstep>
  <scstep>
   <time name="dav">   29.52   29.77</time>
   <time name="total">   32.00   32.26</time>
   <energy>
    <i name="e_fr_energy">   -540.40477374 </i>
    <i name="e_wo_entrp">   -540.40257002 </i>
    <i name="e_0_energy">   -540.40367188 </i>
   </energy>
  </scstep>
  <scstep>
   <time name="dav">   30.64   30.90</time>
   <time name="total">   33.12   33.39</time>
   <energy>
    <i name="e_fr_energy">   -539.64786522 </i>
    <i name="e_wo_entrp">   -539.64536238 </i>
    <i name="e_0_energy">   -539.64661380 </i>
   </energy>
  </scstep>
  <scstep>
   <time name="dav">   30.69   30.95</time>
   <time name="total">   33.17   33.44</time>
   <energy>
    <i name="e_fr_energy">   -539.36746913 </i>
    <i name="e_wo_entrp">   -539.36482015 </i>
    <i name="e_0_energy">   -539.36614464 </i>
   </energy>
  </scstep>
  <scstep>
   <time name="dav">   28.91   29.16</time>
   <time name="total">   31.40   31.66</time>
   <energy>
    <i name="e_fr_energy">   -539.33202794 </i>
    <i name="e_wo_entrp">   -539.32924581 </i>
    <i name="e_0_energy">   -539.33063687 </i>
   </energy>
  </scstep>
  <scstep>
   <time name="dav">   28.96   29.20</time>
   <time name="total">   31.48   31.73</time>
   <energy>
    <i name="e_fr_energy">   -539.32683631 </i>
    <i name="e_wo_entrp">   -539.32390624 </i>
    <i name="e_0_energy">   -539.32537127 </i>
   </energy>
  </scstep>
  <scstep>
   <time name="dav">   29.11   29.35</time>
   <time name="total">   31.63   31.88</time>
   <energy>
    <i name="e_fr_energy">   -539.32671424 </i>
    <i name="e_wo_entrp">   -539.32388328 </i>
    <i name="e_0_energy">   -539.32529876 </i>
   </energy>
  </scstep>
  <scstep>
   <time name="dav">   29.30   29.54</time>
   <time name="total">   31.82   32.08</time>
   <energy>
    <i name="e_fr_energy">   -539.32630287 </i>
    <i name="e_wo_entrp">   -539.32345751 </i>
    <i name="e_0_energy">   -539.32488019 </i>
   </energy>
  </scstep>
  <scstep>
   <time name="dav">   28.92   29.17</time>
   <time name="total">   31.44   31.70</time>
   <energy>
    <i name="e_fr_energy">   -539.32619400 </i>
    <i name="e_wo_entrp">   -539.32334979 </i>
    <i name="e_0_energy">   -539.32477190 </i>
   </energy>
  </scstep>
  <scstep>
   <time name="dav">   29.93   30.19</time>
   <time name="total">   32.45   32.72</time>
   <energy>
    <i name="e_fr_energy">   -539.32622365 </i>
    <i name="e_wo_entrp">   -539.32338820 </i>
    <i name="e_0_energy">   -539.32480592 </i>
   </energy>
  </scstep>
  <scstep>
   <time name="dav">   29.70   29.95</time>
   <time name="total">   32.19   32.46</time>
   <energy>
    <i name="e_fr_energy">   -539.32621670 </i>
    <i name="e_wo_entrp">   -539.32337533 </i>
    <i name="e_0_energy">   -539.32479602 </i>
   </energy>
  </scstep>
  <scstep>
   <time name="dav">   29.00   29.24</time>
   <time name="total">   31.49   31.75</time>
   <energy>
    <i name="e_fr_energy">   -539.32621615 </i>
    <i name="e_wo_entrp">   -539.32337402 </i>
    <i name="e_0_energy">   -539.32479509 </i>
   </energy>
  </scstep>
  <scstep>
   <time name="dav">   28.69   28.93</time>
   <time name="total">   31.18   31.43</time>
   <energy>
    <i name="e_fr_energy">   -539.32621867 </i>
    <i name="e_wo_entrp">   -539.32337858 </i>
    <i name="e_0_energy">   -539.32479863 </i>
   </energy>
  </scstep>
  <scstep>
   <time name="dav">   28.31   28.55</time>
   <time name="total">   30.79   31.05</time>
   <energy>
    <i name="e_fr_energy">   -539.32621993 </i>
    <i name="e_wo_entrp">   -539.32337976 </i>
    <i name="e_0_energy">   -539.32479985 </i>
   </energy>
  </scstep>
  <scstep>
   <time name="dav">   28.70   28.95</time>
   <time name="total">   31.19   31.45</time>
   <energy>
    <i name="e_fr_energy">   -539.32622020 </i>
    <i name="e_wo_entrp">   -539.32338038 </i>
    <i name="e_0_energy">   -539.32480029 </i>
   </energy>
  </scstep>
  <scstep>
   <time name="dav">   19.32   19.49</time>
   <time name="total">   20.52   20.69</time>
   <energy>
    <i name="alphaZ">    478.14092750 </i>
    <i name="ewald"> -12150.18915277 </i>
    <i name="hartreedc">  -1607.82107325 </i>
    <i name="XCdc">  -1026.49775429 </i>
    <i name="pawpsdc">  34346.37754095 </i>
    <i name="pawaedc"> -32395.85191443 </i>
    <i name="eentropy">     -0.00283986 </i>
    <i name="bandstr">   -644.08253152 </i>
    <i name="atom">  12460.60057749 </i>
    <i name="e_fr_energy">   -539.32622019 </i>
    <i name="e_wo_entrp">   -539.32338033 </i>
    <i name="e_0_energy">   -539.32480026 </i>
   </energy>
  </scstep>
  <structure>
   <crystal>
    <varray name="basis" >
     <v>      16.29300118       0.00000000       0.00000000 </v>
     <v>       0.00000000      17.17432976       0.00000000 </v>
     <v>       0.00000000       0.00000025      10.40234280 </v>
    </varray>
    <i name="volume">   2910.79786364 </i>
    <varray name="rec_basis" >
     <v>       0.06137605       0.00000000       0.00000000 </v>
     <v>       0.00000000       0.05822644      -0.00000000 </v>
     <v>       0.00000000       0.00000000       0.09613219 </v>
    </varray>
   </crystal>
   <varray name="positions" >
    <v>       0.13037890       0.82620466       0.41275215 </v>
    <v>       0.96371245       0.07620391       0.00000006 </v>
    <v>       0.79704571       0.42620403       0.08255048 </v>
    <v>       0.63037908       0.77620417       0.16510089 </v>
    <v>       0.46371227       0.12620449       0.24765132 </v>
    <v>       0.29704553       0.47620463       0.33020181 </v>
    <v>       0.46371227       0.82620466       0.41275215 </v>
    <v>       0.29704580       0.07620391       0.00000006 </v>
    <v>       0.13037908       0.42620403       0.08255048 </v>
    <v>       0.96371239       0.77620417       0.16510089 </v>
    <v>       0.79704559       0.12620449       0.24765132 </v>
    <v>       0.63037884       0.47620463       0.33020181 </v>
    <v>       0.79704559       0.82620466       0.41275215 </v>
    <v>       0.63037914       0.07620391       0.00000006 </v>
    <v>       0.46371242       0.42620403       0.08255048 </v>
    <v>       0.29704577       0.77620417       0.16510089 </v>
    <v>       0.13037898       0.12620449       0.24765132 </v>
    <v>       0.96371222       0.47620463       0.33020181 </v>
    <v>       0.21371222       0.57620478       0.41275209 </v>
    <v>       0.04704577       0.82620400       0.00000000 </v>
    <v>       0.88037908       0.17620420       0.08255047 </v>
    <v>       0.71371233       0.52620447       0.16510080 </v>
    <v>       0.54704559       0.87620461       0.24765126 </v>
    <v>       0.38037896       0.22620463       0.33020163 </v>
    <v>       0.54704559       0.57620478       0.41275209 </v>
    <v>       0.38037908       0.82620400       0.00000000 </v>
    <v>       0.21371238       0.17620420       0.08255047 </v>
    <v>       0.04704569       0.52620447       0.16510080 </v>
    <v>       0.88037896       0.87620461       0.24765126 </v>
    <v>       0.71371233       0.22620463       0.33020163 </v>
    <v>       0.88037890       0.57620478       0.41275209 </v>
    <v>       0.71371239       0.82620400       0.00000000 </v>
    <v>       0.54704571       0.17620420       0.08255047 </v>
    <v>       0.38037899       0.52620447       0.16510080 </v>
    <v>       0.21371223       0.87620461       0.24765126 </v>
    <v>       0.04704558       0.22620463       0.33020163 </v>
    <v>       0.13037890       0.32620478       0.41275215 </v>
    <v>       0.96371239       0.57620400       0.00000002 </v>
    <v>       0.79704571       0.92620414       0.08255044 </v>
    <v>       0.63037902       0.27620423       0.16510080 </v>
    <v>       0.46371227       0.62620449       0.24765132 </v>
    <v>       0.29704565       0.97620463       0.33020163 </v>
    <v>       0.46371227       0.32620478       0.41275215 </v>
    <v>       0.29704577       0.57620400       0.00000002 </v>
    <v>       0.13037905       0.92620414       0.08255044 </v>
    <v>       0.96371239       0.27620423       0.16510080 </v>
    <v>       0.79704559       0.62620449       0.24765132 </v>
    <v>       0.63037896       0.97620463       0.33020163 </v>
    <v>       0.79704559       0.32620478       0.41275215 </v>
    <v>       0.63037914       0.57620400       0.00000002 </v>
    <v>       0.46371239       0.92620414       0.08255044 </v>
    <v>       0.29704574       0.27620423       0.16510080 </v>
    <v>       0.13037898       0.62620449       0.24765132 </v>
    <v>       0.96371233       0.97620463       0.33020163 </v>
    <v>       0.21371222       0.07620478       0.41275206 </v>
    <v>       0.04704577       0.32620391       0.00000006 </v>
    <v>       0.88037908       0.67620403       0.08255045 </v>
    <v>       0.71371239       0.02620423       0.16510081 </v>
    <v>       0.54704559       0.37620449       0.24765126 </v>
    <v>       0.38037884       0.72620475       0.33020163 </v>
    <v>       0.54704559       0.07620478       0.41275206 </v>
    <v>       0.38037911       0.32620391       0.00000006 </v>
    <v>       0.21371241       0.67620403       0.08255045 </v>
    <v>       0.04704573       0.02620423       0.16510081 </v>
    <v>       0.88037896       0.37620449       0.24765126 </v>
    <v>       0.71371222       0.72620475       0.33020163 </v>
    <v>       0.88037896       0.07620478       0.41275206 </v>
    <v>       0.71371245       0.32620391       0.00000006 </v>
    <v>       0.54704577       0.67620403       0.08255045 </v>
    <v>       0.38037908       0.02620423       0.16510081 </v>
    <v>       0.21371229       0.37620449       0.24765126 </v>
    <v>       0.04704554       0.72620475       0.33020163 </v>
    <v>       0.71570682       0.68195414       0.54612887 </v>
    <v>       0.34070686       0.29306507       0.61022770 </v>
    <v>       0.96570689       0.90417624       0.67432654 </v>
    <v>       0.59070694       0.51528740       0.73842549 </v>
    <v>       0.21570694       0.12639832       0.80252433 </v>
    <v>       0.84070682       0.73750925       0.86662328 </v>
    <v>       0.21570682       0.68195414       0.54612887 </v>
    <v>       0.84070694       0.29306507       0.61022770 </v>
    <v>       0.46570689       0.90417618       0.67432654 </v>
    <v>       0.09070694       0.51528740       0.73842549 </v>
    <v>       0.71570706       0.12639832       0.80252433 </v>
    <v>       0.34070694       0.73750925       0.86662328 </v>
    <v>       0.09070682       0.43195403       0.54612887 </v>
    <v>       0.71570689       0.04306507       0.61022782 </v>
    <v>       0.34070691       0.65417624       0.67432666 </v>
    <v>       0.96570700       0.26528740       0.73842549 </v>
    <v>       0.59070712       0.87639844       0.80252445 </v>
    <v>       0.21570682       0.48750925       0.86662328 </v>
    <v>       0.59070682       0.43195403       0.54612887 </v>
    <v>       0.21570682       0.04306507       0.61022770 </v>
    <v>       0.84070689       0.65417612       0.67432654 </v>
    <v>       0.46570694       0.26528728       0.73842549 </v>
    <v>       0.09070706       0.87639832       0.80252433 </v>
    <v>       0.71570682       0.48750925       0.86662328 </v>
    <v>       0.84070682       0.43195403       0.54612887 </v>
    <v>       0.46570682       0.04306507       0.61022770 </v>
    <v>       0.09070682       0.65417612       0.67432654 </v>
    <v>       0.71570694       0.26528728       0.73842549 </v>
    <v>       0.34070706       0.87639839       0.80252433 </v>
    <v>       0.96570682       0.48750925       0.86662328 </v>
    <v>       0.34070682       0.43195403       0.54612887 </v>
    <v>       0.96570689       0.04306507       0.61022770 </v>
    <v>       0.59070689       0.65417624       0.67432654 </v>
    <v>       0.21570694       0.26528728       0.73842549 </v>
    <v>       0.84070706       0.87639839       0.80252433 </v>
    <v>       0.46570694       0.48750925       0.86662328 </v>
    <v>       0.96570677       0.68195414       0.54612887 </v>
    <v>       0.59070682       0.29306507       0.61022770 </v>
    <v>       0.21570682       0.90417624       0.67432654 </v>
    <v>       0.84070694       0.51528716       0.73842549 </v>
    <v>       0.46570706       0.12639832       0.80252433 </v>
    <v>       0.09070682       0.73750925       0.86662328 </v>
    <v>       0.46570682       0.68195414       0.54612887 </v>
    <v>       0.09070682       0.29306507       0.61022770 </v>
    <v>       0.71570694       0.90417624       0.67432666 </v>
    <v>       0.34070700       0.51528740       0.73842549 </v>
    <v>       0.96570706       0.12639832       0.80252433 </v>
    <v>       0.59070682       0.73750925       0.86662328 </v>
   </varray>
  </structure>
  <varray name="forces" >
   <v>       0.39026746       0.03571575       0.85381205 </v>
   <v>      -0.42079712      -0.31584438       1.40943906 </v>
   <v>      -0.19740684      -0.02828130      -0.21663197 </v>
   <v>      -0.22892836      -0.32288553       0.34861607 </v>
   <v>       0.13536542       0.15508253      -0.01646296 </v>
   <v>      -0.05626513       0.18259205       0.60838008 </v>
   <v>      -0.35341465      -0.10924104       0.91304523 </v>
   <v>      -0.47178723       0.44993498      -0.92227249 </v>
   <v>       0.36047343      -0.01310656      -0.64068110 </v>
   <v>      -0.33915945      -0.11926331       0.22537033 </v>
   <v>       0.07759401       0.45837844      -0.03963399 </v>
   <v>      -0.06310195       0.01397032       0.43998007 </v>
   <v>      -0.52406453       0.41535842       0.56156287 </v>
   <v>      -0.12042339       0.36190519      -0.87702457 </v>
   <v>      -0.45498338      -0.02227345      -0.39631078 </v>
   <v>      -0.52260484      -0.03847097       0.13652159 </v>
   <v>       0.15974563       0.39954362       0.17552165 </v>
   <v>       0.32324804      -0.22431769       0.71158384 </v>
   <v>      -0.38146090      -1.03428160      -1.01191047 </v>
   <v>      -1.32564963       1.09601954       2.81784208 </v>
   <v>      -0.14356785       0.03319839      -0.20330925 </v>
   <v>       0.15358430      -0.35141549       0.18060788 </v>
   <v>       0.08054517       0.10292914       0.13475539 </v>
   <v>      -0.41215888       0.08271258       0.62490290 </v>
   <v>      -0.28226132       0.33967570       0.04531893 </v>
   <v>       1.23756343       1.53440088       2.67700971 </v>
   <v>      -0.08968172       0.14987044      -0.19421737 </v>
   <v>       0.27069813       0.20213050      -0.21348333 </v>
   <v>       0.18301844       0.06995724      -0.04015490 </v>
   <v>      -0.77770364       0.03611780       0.14109614 </v>
   <v>       0.57347687      -0.41802026       0.46761177 </v>
   <v>      -0.15759755      -0.72843930      -0.72198646 </v>
   <v>      -0.31636753       0.00007858      -0.30341104 </v>
   <v>       0.01288739      -0.22365823      -0.02577699 </v>
   <v>       0.18227326      -0.04674690       0.12590429 </v>
   <v>      -0.56657648       0.08194637       0.09780760 </v>
   <v>       0.76272448      -0.11197150      -2.57764479 </v>
   <v>       0.16168961       3.49353036       3.73871089 </v>
   <v>       0.41503527      -0.02845997      -0.78345605 </v>
   <v>      -0.04099797      -0.13661560      -0.14248168 </v>
   <v>      -0.28221823       0.27081015      -0.20023120 </v>
   <v>       0.11813602      -0.07454301       0.15678776 </v>
   <v>       0.23394817       0.51881582       0.69160886 </v>
   <v>      -0.15778261       0.80006810       0.00101154 </v>
   <v>       0.45266447       0.05083212      -0.38744291 </v>
   <v>      -0.12368838      -0.02146426      -0.17185770 </v>
   <v>      -0.14967039       0.19639186      -0.00157307 </v>
   <v>       0.30301321      -0.12305799       0.23377687 </v>
   <v>      -0.83117514      -0.03068819      -1.93089818 </v>
   <v>       0.11671730      -0.03588637       0.28672694 </v>
   <v>       0.77746003      -0.01709442      -0.20657767 </v>
   <v>      -0.18697730      -0.10299173       0.01264396 </v>
   <v>      -0.24608828      -0.23638644       0.21996083 </v>
   <v>       0.04963128      -0.22913998       0.17791434 </v>
   <v>       0.24583531       0.58626492      -2.98757996 </v>
   <v>      -0.22885564      -0.16203236      -0.76561711 </v>
   <v>       0.08040049       0.14519046      -0.87435952 </v>
   <v>      -0.09273351      -0.16162669       0.06701164 </v>
   <v>       0.24079921       0.34671683      -0.35562918 </v>
   <v>      -0.10726934       0.12198007       0.00743559 </v>
   <v>       0.30290971      -0.17444428       0.55665769 </v>
   <v>       0.61610449      -0.37312225      -0.60547087 </v>
   <v>      -0.13543115       0.38879870      -0.61710305 </v>
   <v>      -0.11883242      -0.39196275      -0.14715328 </v>
   <v>       0.46229476       0.04477994      -0.06571815 </v>
   <v>       0.43685512       0.25946027      -0.25993821 </v>
   <v>       0.34846798      -0.43664967       0.91625835 </v>
   <v>       0.45787035       0.12379647      -0.85500506 </v>
   <v>       0.30921434       0.23157302      -0.79653040 </v>
   <v>      -0.02380444      -0.42856318       0.10305969 </v>
   <v>       0.30166735       0.15572548      -0.11404378 </v>
   <v>      -0.43242787       0.17005055       0.50993006 </v>
   <v>      -0.51181618      -0.03170553       0.23329270 </v>
   <v>      -0.18019739      -0.42928863      -0.70100618 </v>
   <v>      -0.03903196      -0.33340218      -0.54805727 </v>
   <v>      -0.14914233      -0.01488546      -0.08809933 </v>
   <v>       0.27166453      -0.34396729       0.93944610 </v>
   <v>      -0.57601888       0.32828513       1.45450456 </v>
   <v>       0.22889318       1.68888664       0.01402419 </v>
   <v>       0.83118846      -0.93734684       1.53903274 </v>
   <v>      -0.15762662      -0.41202818      -1.21933440 </v>
   <v>      -0.08464567       0.30228612       0.27393000 </v>
   <v>      -0.16027417      -0.48548851       1.06293775 </v>
   <v>      -0.82642083      -2.95956145      -1.36188740 </v>
   <v>      -0.57507840       1.62804510      -1.24054399 </v>
   <v>       0.30888118       0.20231345      -1.08916363 </v>
   <v>       0.02485525       0.15749696       0.07251947 </v>
   <v>       0.29830132       0.24793522       0.95517908 </v>
   <v>       0.44756142       0.23835038       0.85847319 </v>
   <v>      -0.24011971      -0.84333169       1.19226797 </v>
   <v>      -0.05884583       0.01604734      -0.49796961 </v>
   <v>      -0.01617488      -0.68999937       2.47764241 </v>
   <v>      -0.29624544       0.11094794      -0.15568995 </v>
   <v>      -0.26897818       0.44633184       0.65085107 </v>
   <v>       0.23974015       1.38985808      -1.12277832 </v>
   <v>      -0.06354650      -0.44923835       0.55260812 </v>
   <v>       0.17752960       1.51005867      -0.26892113 </v>
   <v>       0.05009638       0.22782669      -0.83086054 </v>
   <v>       0.01555792      -0.26676483      -0.02200491 </v>
   <v>       0.04839722       0.34886928       1.45119067 </v>
   <v>      -0.62484116       1.17319962      -0.99735273 </v>
   <v>      -0.27745271      -4.15727281      -2.78926461 </v>
   <v>       0.55355193      -0.67463122      -1.15219430 </v>
   <v>      -0.31764591       0.35928574      -0.76471997 </v>
   <v>       0.20992538      -0.00835222       0.01594809 </v>
   <v>       0.13834205       0.38336380       0.56763591 </v>
   <v>       0.25303656       0.57621729       0.86496126 </v>
   <v>       0.56940509      -0.24671456       0.47642824 </v>
   <v>      -0.17315402       0.14641976      -1.46265213 </v>
   <v>      -0.67050690      -0.19033304      -0.87066918 </v>
   <v>      -0.09347089      -0.30430877      -0.74971612 </v>
   <v>      -0.07007291      -0.04045652      -0.03156267 </v>
   <v>      -0.23509516      -0.19068605       1.13389679 </v>
   <v>       1.34373736      -2.64550015      -0.35269116 </v>
   <v>       0.44415790       0.24249212      -0.63188301 </v>
   <v>      -0.24334300      -1.42036822       2.19533153 </v>
   <v>       0.14749655      -0.55237565      -0.63321617 </v>
   <v>       0.24413817      -0.17227747       0.09005526 </v>
   <v>       0.12922060       0.35282205      -1.01930208 </v>
   <v>      -0.03619742      -0.11041116       0.82277866 </v>
  </varray>
  <varray name="stress" >
   <v>      -6.24376738       1.04222218      -0.37748543 </v>
   <v>       1.04222040       8.05082300       2.75516515 </v>
   <v>      -0.37748655       2.75515957       4.93106058 </v>
  </varray>
  <energy>
   <i name="e_fr_energy">   -539.32622019 </i>
   <i name="e_wo_entrp">   -539.32338033 </i>
   <i name="e_0_energy">   -539.32480026 </i>
  </energy>
  <time name="totalsc">  688.27  694.90</time>
  <eigenvalues>
   <array>
    <dimension dim="1">band</dimension>
    <dimension dim="2">kpoint</dimension>
    <dimension dim="3">spin</dimension>
    <field>eigene</field>
    <field>occ</field>
    <set>
     <set comment="spin 1">
      <set comment="kpoint 1">
       <r>   -8.4191    1.0000 </r>
       <r>   -8.1655    1.0000 </r>
       <r>   -8.0740    1.0000 </r>
       <r>   -8.0184    1.0000 </r>
       <r>   -7.8456    1.0000 </r>
       <r>   -7.7228    1.0000 </r>
       <r>   -7.6736    1.0000 </r>
       <r>   -7.4159    1.0000 </r>
       <r>   -7.3550    1.0000 </r>
       <r>   -7.2412    1.0000 </r>
       <r>   -7.1898    1.0000 </r>
       <r>   -7.1522    1.0000 </r>
       <r>   -7.0645    1.0000 </r>
       <r>   -7.0353    1.0000 </r>
       <r>   -6.9203    1.0000 </r>
       <r>   -6.9113    1.0000 </r>
       <r>   -6.8672    1.0000 </r>
       <r>   -6.8373    1.0000 </r>
       <r>   -6.7971    1.0000 </r>
       <r>   -6.6713    1.0000 </r>
       <r>   -6.6410    1.0000 </r>
       <r>   -6.5753    1.0000 </r>
       <r>   -6.5634    1.0000 </r>
       <r>   -6.5093    1.0000 </r>
       <r>   -6.4598    1.0000 </r>
       <r>   -6.4153    1.0000 </r>
       <r>   -6.3650    1.0000 </r>
       <r>   -6.2971    1.0000 </r>
       <r>   -6.1970    1.0000 </r>
       <r>   -6.0920    1.0000 </r>
       <r>   -6.0190    1.0000 </r>
       <r>   -6.0157    1.0000 </r>
       <r>   -5.9989    1.0000 </r>
       <r>   -5.9473    1.0000 </r>
       <r>   -5.8694    1.0000 </r>
       <r>   -5.8517    1.0000 </r>
       <r>   -5.7777    1.0000 </r>
       <r>   -5.7368    1.0000 </r>
       <r>   -5.6649    1.0000 </r>
       <r>   -5.6550    1.0000 </r>
       <r>   -5.5410    1.0000 </r>
       <r>   -5.5343    1.0000 </r>
       <r>   -5.4990    1.0000 </r>
       <r>   -5.4125    1.0000 </r>
       <r>   -5.3658    1.0000 </r>
       <r>   -5.2997    1.0000 </r>
       <r>   -5.1851    1.0000 </r>
       <r>   -5.1266    1.0000 </r>
       <r>   -5.0999    1.0000 </r>
       <r>   -5.0505    1.0000 </r>
       <r>   -5.0014    1.0000 </r>
       <r>   -4.8457    1.0000 </r>
       <r>   -4.8189    1.0000 </r>
       <r>   -4.7652    1.0000 </r>
       <r>   -4.6458    1.0000 </r>
       <r>   -4.5778    1.0000 </r>
       <r>   -4.4944    1.0000 </r>
       <r>   -4.4790    1.0000 </r>
       <r>   -4.3955    1.0000 </r>
       <r>   -4.3302    1.0000 </r>
       <r>   -4.3150    1.0000 </r>
       <r>   -4.2603    1.0000 </r>
       <r>   -4.2493    1.0000 </r>
       <r>   -4.1179    1.0000 </r>
       <r>   -4.0675    1.0000 </r>
       <r>   -3.9554    1.0000 </r>
       <r>   -3.9384    1.0000 </r>
       <r>   -3.8122    1.0000 </r>
       <r>   -3.7205    1.0000 </r>
       <r>   -3.6377    1.0000 </r>
       <r>   -3.6052    1.0000 </r>
       <r>   -3.5851    1.0000 </r>
       <r>   -3.5692    1.0000 </r>
       <r>   -3.4791    1.0000 </r>
       <r>   -3.3568    1.0000 </r>
       <r>   -3.2395    1.0000 </r>
       <r>   -3.1904    1.0000 </r>
       <r>   -3.1690    1.0000 </r>
       <r>   -3.1310    1.0000 </r>
       <r>   -3.0766    1.0000 </r>
       <r>   -3.0290    1.0000 </r>
       <r>   -2.9741    1.0000 </r>
       <r>   -2.8765    1.0000 </r>
       <r>   -2.8178    1.0000 </r>
       <r>   -2.7229    1.0000 </r>
       <r>   -2.6503    1.0000 </r>
       <r>   -2.5758    1.0000 </r>
       <r>   -2.5398    1.0000 </r>
       <r>   -2.5296    1.0000 </r>
       <r>   -2.4747    1.0000 </r>
       <r>   -2.4011    1.0000 </r>
       <r>   -2.3490    1.0000 </r>
       <r>   -2.2427    1.0000 </r>
       <r>   -2.2222    1.0000 </r>
       <r>   -2.1573    1.0000 </r>
       <r>   -2.0869    1.0000 </r>
       <r>   -2.0611    1.0000 </r>
       <r>   -1.9829    1.0000 </r>
       <r>   -1.9362    1.0000 </r>
       <r>   -1.8805    1.0000 </r>
       <r>   -1.8300    1.0000 </r>
       <r>   -1.7716    1.0000 </r>
       <r>   -1.7405    1.0000 </r>
       <r>   -1.7162    1.0000 </r>
       <r>   -1.6709    1.0000 </r>
       <r>   -1.5643    1.0000 </r>
       <r>   -1.5503    1.0000 </r>
       <r>   -1.4591    1.0000 </r>
       <r>   -1.3938    1.0000 </r>
       <r>   -1.3833    1.0000 </r>
       <r>   -1.2477    1.0000 </r>
       <r>   -1.1570    1.0000 </r>
       <r>   -1.1257    1.0000 </r>
       <r>   -1.0867    1.0000 </r>
       <r>   -1.0716    1.0000 </r>
       <r>   -0.7534    1.0000 </r>
       <r>   -0.7071    1.0000 </r>
       <r>   -0.4154    1.0000 </r>
       <r>   -0.2698    1.0000 </r>
       <r>   -0.2518    1.0000 </r>
       <r>   -0.2434    1.0000 </r>
       <r>   -0.2011    1.0000 </r>
       <r>   -0.1463    1.0000 </r>
       <r>   -0.1044    1.0000 </r>
       <r>   -0.0939    1.0000 </r>
       <r>   -0.0511    1.0000 </r>
       <r>   -0.0078    1.0000 </r>
       <r>    0.0268    1.0000 </r>
       <r>    0.0470    1.0000 </r>
       <r>    0.0919    1.0000 </r>
       <r>    0.1075    1.0000 </r>
       <r>    0.1367    1.0000 </r>
       <r>    0.1595    1.0000 </r>
       <r>    0.1830    1.0000 </r>
       <r>    0.1938    1.0000 </r>
       <r>    0.2414    1.0000 </r>
       <r>    0.2550    1.0000 </r>
       <r>    0.2703    1.0000 </r>
       <r>    0.2867    1.0000 </r>
       <r>    0.3467    1.0000 </r>
       <r>    0.3611    1.0000 </r>
       <r>    0.3848    1.0000 </r>
       <r>    0.4330    1.0000 </r>
       <r>    0.4567    1.0000 </r>
       <r>    0.5066    1.0000 </r>
       <r>    0.5210    1.0000 </r>
       <r>    0.5243    1.0000 </r>
       <r>    0.5573    1.0000 </r>
       <r>    0.5864    1.0000 </r>
       <r>    0.6521    1.0000 </r>
       <r>    0.6752    1.0000 </r>
       <r>    0.7066    1.0000 </r>
       <r>    0.7387    1.0000 </r>
       <r>    0.7527    1.0000 </r>
       <r>    0.8011    1.0000 </r>
       <r>    0.8209    1.0000 </r>
       <r>    0.8291    1.0000 </r>
       <r>    0.8938    1.0000 </r>
       <r>    0.9125    1.0000 </r>
       <r>    0.9244    1.0000 </r>
       <r>    0.9356    1.0000 </r>
       <r>    0.9530    1.0000 </r>
       <r>    0.9950    1.0000 </r>
       <r>    1.0399    1.0000 </r>
       <r>    1.1165    1.0000 </r>
       <r>    1.1291    1.0000 </r>
       <r>    1.1492    1.0000 </r>
       <r>    1.2314    1.0000 </r>
       <r>    1.2692    1.0000 </r>
       <r>    1.2968    1.0000 </r>
       <r>    1.3191    1.0000 </r>
       <r>    1.3334    1.0000 </r>
       <r>    1.3674    1.0000 </r>
       <r>    1.3830    1.0000 </r>
       <r>    1.4052    1.0000 </r>
       <r>    1.4308    1.0000 </r>
       <r>    1.4856    1.0000 </r>
       <r>    1.4963    1.0000 </r>
       <r>    1.5178    1.0000 </r>
       <r>    1.5517    1.0000 </r>
       <r>    1.5675    1.0000 </r>
       <r>    1.5949    1.0000 </r>
       <r>    1.6338    1.0000 </r>
       <r>    1.6719    1.0000 </r>
       <r>    1.7044    1.0000 </r>
       <r>    1.7367    1.0000 </r>
       <r>    1.7762    1.0000 </r>
       <r>    1.7854    1.0000 </r>
       <r>    1.8171    1.0000 </r>
       <r>    1.8531    1.0000 </r>
       <r>    1.8683    1.0000 </r>
       <r>    1.8996    1.0000 </r>
       <r>    1.9413    1.0000 </r>
       <r>    1.9543    1.0000 </r>
       <r>    1.9784    1.0000 </r>
       <r>    1.9929    1.0000 </r>
       <r>    2.0612    1.0000 </r>
       <r>    2.0830    1.0000 </r>
       <r>    2.0940    1.0000 </r>
       <r>    2.1603    1.0000 </r>
       <r>    2.1856    1.0000 </r>
       <r>    2.2397    1.0000 </r>
       <r>    2.2635    1.0000 </r>
       <r>    2.2984    1.0000 </r>
       <r>    2.3158    1.0000 </r>
       <r>    2.3478    1.0000 </r>
       <r>    2.3782    1.0000 </r>
       <r>    2.4204    1.0000 </r>
       <r>    2.4430    1.0000 </r>
       <r>    2.4594    1.0000 </r>
       <r>    2.4963    1.0000 </r>
       <r>    2.5104    1.0000 </r>
       <r>    2.5506    1.0000 </r>
       <r>    2.5755    1.0000 </r>
       <r>    2.6228    1.0000 </r>
       <r>    2.6778    1.0000 </r>
       <r>    2.7332    1.0000 </r>
       <r>    2.7838    1.0000 </r>
       <r>    2.7947    1.0000 </r>
       <r>    2.8742    1.0000 </r>
       <r>    2.9160    1.0000 </r>
       <r>    2.9342    1.0000 </r>
       <r>    2.9708    1.0000 </r>
       <r>    3.0033    1.0000 </r>
       <r>    3.0373    1.0000 </r>
       <r>    3.0615    1.0000 </r>
       <r>    3.1154    1.0000 </r>
       <r>    3.1395    1.0000 </r>
       <r>    3.2198    1.0000 </r>
       <r>    3.2951    1.0000 </r>
       <r>    3.3054    1.0000 </r>
       <r>    3.3309    1.0000 </r>
       <r>    3.3588    1.0000 </r>
       <r>    3.4239    1.0000 </r>
       <r>    3.4431    1.0000 </r>
       <r>    3.4998    1.0000 </r>
       <r>    3.5313    1.0000 </r>
       <r>    3.5557    1.0000 </r>
       <r>    3.5776    1.0000 </r>
       <r>    3.6028    1.0000 </r>
       <r>    3.6722    0.0005 </r>
       <r>    3.7389    0.0000 </r>
       <r>    3.7660    0.0000 </r>
       <r>    3.7779    0.0000 </r>
       <r>    3.8044    0.0000 </r>
       <r>    3.8377    0.0000 </r>
       <r>    3.8642    0.0000 </r>
       <r>    3.9053    0.0000 </r>
       <r>    3.9383    0.0000 </r>
       <r>    3.9912    0.0000 </r>
       <r>    4.0210    0.0000 </r>
       <r>    4.0425    0.0000 </r>
       <r>    4.0959    0.0000 </r>
       <r>    4.1635    0.0000 </r>
       <r>    4.1824    0.0000 </r>
       <r>    4.2523    0.0000 </r>
       <r>    4.2824    0.0000 </r>
       <r>    4.3268    0.0000 </r>
       <r>    4.3542    0.0000 </r>
       <r>    4.4013    0.0000 </r>
       <r>    4.4125    0.0000 </r>
       <r>    4.4756    0.0000 </r>
       <r>    4.5283    0.0000 </r>
       <r>    4.5382    0.0000 </r>
       <r>    4.5721    0.0000 </r>
       <r>    4.6035    0.0000 </r>
       <r>    4.6100    0.0000 </r>
       <r>    4.6744    0.0000 </r>
       <r>    4.6973    0.0000 </r>
       <r>    4.7348    0.0000 </r>
       <r>    4.7590    0.0000 </r>
       <r>    4.8400    0.0000 </r>
       <r>    4.8769    0.0000 </r>
       <r>    4.9095    0.0000 </r>
       <r>    4.9268    0.0000 </r>
       <r>    4.9868    0.0000 </r>
       <r>    5.0465    0.0000 </r>
       <r>    5.0630    0.0000 </r>
       <r>    5.0713    0.0000 </r>
       <r>    5.1418    0.0000 </r>
       <r>    5.1681    0.0000 </r>
       <r>    5.1971    0.0000 </r>
       <r>    5.2594    0.0000 </r>
       <r>    5.2831    0.0000 </r>
       <r>    5.3039    0.0000 </r>
       <r>    5.3568    0.0000 </r>
       <r>    5.3751    0.0000 </r>
       <r>    5.4094    0.0000 </r>
      </set>
      <set comment="kpoint 2">
       <r>   -8.3623    1.0000 </r>
       <r>   -8.2730    1.0000 </r>
       <r>   -8.1150    1.0000 </r>
       <r>   -7.9572    1.0000 </r>
       <r>   -7.8152    1.0000 </r>
       <r>   -7.7675    1.0000 </r>
       <r>   -7.5223    1.0000 </r>
       <r>   -7.4658    1.0000 </r>
       <r>   -7.3455    1.0000 </r>
       <r>   -7.2832    1.0000 </r>
       <r>   -7.1595    1.0000 </r>
       <r>   -7.1343    1.0000 </r>
       <r>   -7.1057    1.0000 </r>
       <r>   -7.0328    1.0000 </r>
       <r>   -6.9720    1.0000 </r>
       <r>   -6.9612    1.0000 </r>
       <r>   -6.8847    1.0000 </r>
       <r>   -6.7944    1.0000 </r>
       <r>   -6.7811    1.0000 </r>
       <r>   -6.7419    1.0000 </r>
       <r>   -6.7199    1.0000 </r>
       <r>   -6.5671    1.0000 </r>
       <r>   -6.5153    1.0000 </r>
       <r>   -6.4259    1.0000 </r>
       <r>   -6.4184    1.0000 </r>
       <r>   -6.3237    1.0000 </r>
       <r>   -6.2945    1.0000 </r>
       <r>   -6.2611    1.0000 </r>
       <r>   -6.2027    1.0000 </r>
       <r>   -6.1553    1.0000 </r>
       <r>   -6.0782    1.0000 </r>
       <r>   -6.0396    1.0000 </r>
       <r>   -5.9920    1.0000 </r>
       <r>   -5.9519    1.0000 </r>
       <r>   -5.9156    1.0000 </r>
       <r>   -5.8855    1.0000 </r>
       <r>   -5.8723    1.0000 </r>
       <r>   -5.7333    1.0000 </r>
       <r>   -5.6944    1.0000 </r>
       <r>   -5.6348    1.0000 </r>
       <r>   -5.5764    1.0000 </r>
       <r>   -5.5417    1.0000 </r>
       <r>   -5.4521    1.0000 </r>
       <r>   -5.4179    1.0000 </r>
       <r>   -5.3690    1.0000 </r>
       <r>   -5.2449    1.0000 </r>
       <r>   -5.1662    1.0000 </r>
       <r>   -5.1290    1.0000 </r>
       <r>   -5.0169    1.0000 </r>
       <r>   -4.9820    1.0000 </r>
       <r>   -4.9214    1.0000 </r>
       <r>   -4.8650    1.0000 </r>
       <r>   -4.8554    1.0000 </r>
       <r>   -4.7257    1.0000 </r>
       <r>   -4.6514    1.0000 </r>
       <r>   -4.6223    1.0000 </r>
       <r>   -4.5732    1.0000 </r>
       <r>   -4.4757    1.0000 </r>
       <r>   -4.4340    1.0000 </r>
       <r>   -4.3397    1.0000 </r>
       <r>   -4.3165    1.0000 </r>
       <r>   -4.2561    1.0000 </r>
       <r>   -4.2234    1.0000 </r>
       <r>   -4.1466    1.0000 </r>
       <r>   -4.0948    1.0000 </r>
       <r>   -4.0431    1.0000 </r>
[...]
       <r>    -5.9482    45.0066    65.4429 </r>
       <r>    -5.8971    39.3287    67.4522 </r>
       <r>    -5.8460    38.3563    69.4119 </r>
       <r>    -5.7949    34.8175    71.1907 </r>
       <r>    -5.7438    28.3008    72.6366 </r>
       <r>    -5.6927    34.5830    74.4035 </r>
       <r>    -5.6416    37.6646    76.3278 </r>
       <r>    -5.5905    41.3747    78.4417 </r>
       <r>    -5.5394    39.1284    80.4408 </r>
       <r>    -5.4884    38.1034    82.3875 </r>
       <r>    -5.4373    34.9247    84.1718 </r>
       <r>    -5.3862    41.0138    86.2672 </r>
       <r>    -5.3351    34.1161    88.0102 </r>
       <r>    -5.2840    21.7587    89.1219 </r>
       <r>    -5.2329    36.6742    90.9956 </r>
       <r>    -5.1818    34.0697    92.7363 </r>
       <r>    -5.1307    52.4369    95.4153 </r>
       <r>    -5.0796    22.4301    96.5613 </r>
       <r>    -5.0285    34.8212    98.3403 </r>
       <r>    -4.9775    30.6899    99.9083 </r>
       <r>    -4.9264    41.2134   102.0139 </r>
       <r>    -4.8753    12.4430   102.6496 </r>
       <r>    -4.8242    40.5861   104.7232 </r>
       <r>    -4.7731    38.5839   106.6945 </r>
       <r>    -4.7220    36.6945   108.5692 </r>
       <r>    -4.6709    31.9564   110.2019 </r>
       <r>    -4.6198    39.7067   112.2305 </r>
       <r>    -4.5687    27.5489   113.6380 </r>
       <r>    -4.5176    29.3488   115.1375 </r>
       <r>    -4.4665    34.5378   116.9020 </r>
       <r>    -4.4155    37.9889   118.8429 </r>
       <r>    -4.3644    34.4211   120.6015 </r>
       <r>    -4.3133    32.6901   122.2716 </r>
       <r>    -4.2622    39.2942   124.2792 </r>
       <r>    -4.2111    36.4235   126.1401 </r>
       <r>    -4.1600    25.8045   127.4585 </r>
       <r>    -4.1089    31.6182   129.0739 </r>
       <r>    -4.0578    17.2307   129.9542 </r>
       <r>    -4.0067    21.5136   131.0533 </r>
       <r>    -3.9556    15.9618   131.8688 </r>
       <r>    -3.9045    46.7591   134.2578 </r>
       <r>    -3.8535    21.6611   135.3645 </r>
       <r>    -3.8024    28.5295   136.8221 </r>
       <r>    -3.7513    18.6648   137.7757 </r>
       <r>    -3.7002    13.6421   138.4727 </r>
       <r>    -3.6491    24.2934   139.7138 </r>
       <r>    -3.5980    36.6479   141.5862 </r>
       <r>    -3.5469    26.6584   142.9482 </r>
       <r>    -3.4958    28.7379   144.4164 </r>
       <r>    -3.4447    40.7326   146.4975 </r>
       <r>    -3.3936    22.8991   147.6674 </r>
       <r>    -3.3426    21.1540   148.7482 </r>
       <r>    -3.2915    41.3541   150.8610 </r>
       <r>    -3.2404    40.2499   152.9174 </r>
       <r>    -3.1893    27.2051   154.3073 </r>
       <r>    -3.1382    29.0431   155.7911 </r>
       <r>    -3.0871    40.1090   157.8403 </r>
       <r>    -3.0360    22.7435   159.0023 </r>
       <r>    -2.9849    44.0358   161.2521 </r>
       <r>    -2.9338    28.6970   162.7183 </r>
       <r>    -2.8827    34.5425   164.4831 </r>
       <r>    -2.8316    39.0475   166.4780 </r>
       <r>    -2.7806    51.5682   169.1127 </r>
       <r>    -2.7295    24.8068   170.3801 </r>
       <r>    -2.6784    29.2185   171.8729 </r>
       <r>    -2.6273    32.4401   173.5303 </r>
       <r>    -2.5762    34.1214   175.2736 </r>
       <r>    -2.5251    26.7239   176.6389 </r>
       <r>    -2.4740    29.7812   178.1604 </r>
       <r>    -2.4229    28.7618   179.6299 </r>
       <r>    -2.3718    44.4305   181.8999 </r>
       <r>    -2.3207    46.3465   184.2677 </r>
       <r>    -2.2696    31.3532   185.8696 </r>
       <r>    -2.2186    39.9810   187.9123 </r>
       <r>    -2.1675    37.6994   189.8383 </r>
       <r>    -2.1164    31.9855   191.4725 </r>
       <r>    -2.0653    61.1972   194.5991 </r>
       <r>    -2.0142    23.6680   195.8083 </r>
       <r>    -1.9631    30.9184   197.3880 </r>
       <r>    -1.9120    30.9080   198.9671 </r>
       <r>    -1.8609    34.4196   200.7256 </r>
       <r>    -1.8098    40.9712   202.8188 </r>
       <r>    -1.7587    36.0507   204.6607 </r>
       <r>    -1.7077    31.5482   206.2725 </r>
       <r>    -1.6566    26.8124   207.6424 </r>
       <r>    -1.6055    20.8985   208.7101 </r>
       <r>    -1.5544    19.3719   209.6998 </r>
       <r>    -1.5033    35.7829   211.5280 </r>
       <r>    -1.4522    29.8043   213.0507 </r>
       <r>    -1.4011    28.1958   214.4913 </r>
       <r>    -1.3500    26.5280   215.8466 </r>
       <r>    -1.2989    18.0336   216.7679 </r>
       <r>    -1.2478    18.2782   217.7018 </r>
       <r>    -1.1967    19.1675   218.6811 </r>
       <r>    -1.1457    48.1304   221.1401 </r>
       <r>    -1.0946    31.8189   222.7657 </r>
       <r>    -1.0435    37.7332   224.6935 </r>
       <r>    -0.9924    16.8831   225.5561 </r>
       <r>    -0.9413    28.3587   227.0050 </r>
       <r>    -0.8902    16.2309   227.8342 </r>
       <r>    -0.8391    19.6969   228.8405 </r>
       <r>    -0.7880    12.9068   229.5000 </r>
       <r>    -0.7369     6.3966   229.8268 </r>
       <r>    -0.6858    19.5407   230.8251 </r>
       <r>    -0.6348    11.8832   231.4322 </r>
       <r>    -0.5837    11.1685   232.0028 </r>
       <r>    -0.5326    27.3130   233.3983 </r>
       <r>    -0.4815    15.1781   234.1737 </r>
       <r>    -0.4304    16.2946   235.0062 </r>
       <r>    -0.3793    13.6137   235.7018 </r>
       <r>    -0.3282    32.8295   237.3791 </r>
       <r>    -0.2771    36.5527   239.2466 </r>
       <r>    -0.2260    54.4287   242.0274 </r>
       <r>    -0.1749    41.9468   244.1705 </r>
       <r>    -0.1238    52.3737   246.8463 </r>
       <r>    -0.0728    73.4005   250.5963 </r>
       <r>    -0.0217    51.8213   253.2439 </r>
       <r>     0.0294    72.5938   256.9528 </r>
       <r>     0.0805    61.4632   260.0930 </r>
       <r>     0.1316    64.3179   263.3790 </r>
       <r>     0.1827    76.8247   267.3040 </r>
       <r>     0.2338    61.9343   270.4683 </r>
       <r>     0.2849    69.4383   274.0160 </r>
       <r>     0.3360    68.2862   277.5047 </r>
       <r>     0.3871    78.4455   281.5126 </r>
       <r>     0.4382    59.1908   284.5367 </r>
       <r>     0.4892    68.1894   288.0205 </r>
       <r>     0.5403    58.6280   291.0158 </r>
       <r>     0.5914    76.7162   294.9353 </r>
       <r>     0.6425    57.9842   297.8978 </r>
       <r>     0.6936    78.5454   301.9107 </r>
       <r>     0.7447    67.8107   305.3752 </r>
       <r>     0.7958    63.5485   308.6219 </r>
       <r>     0.8469    78.1744   312.6159 </r>
       <r>     0.8980    69.0289   316.1427 </r>
       <r>     0.9491    78.1869   320.1373 </r>
       <r>     1.0001    66.6976   323.5449 </r>
       <r>     1.0512    68.1768   327.0281 </r>
       <r>     1.1023    54.0808   329.7911 </r>
       <r>     1.1534    60.9997   332.9076 </r>
       <r>     1.2045    78.8450   336.9359 </r>
       <r>     1.2556    71.1922   340.5731 </r>
       <r>     1.3067    73.4985   344.3282 </r>
       <r>     1.3578    51.9741   346.9836 </r>
       <r>     1.4089    53.6844   349.7264 </r>
       <r>     1.4600    74.3870   353.5269 </r>
       <r>     1.5111    78.4100   357.5329 </r>
       <r>     1.5621    55.6754   360.3774 </r>
       <r>     1.6132    63.1974   363.6062 </r>
       <r>     1.6643    51.6191   366.2434 </r>
       <r>     1.7154    62.7395   369.4488 </r>
       <r>     1.7665    70.6815   373.0600 </r>
       <r>     1.8176    71.9838   376.7377 </r>
       <r>     1.8687    53.7632   379.4845 </r>
       <r>     1.9198    64.6453   382.7873 </r>
       <r>     1.9709    54.0192   385.5471 </r>
       <r>     2.0220    64.7541   388.8555 </r>
       <r>     2.0731    54.7348   391.6519 </r>
       <r>     2.1241    64.2437   394.9342 </r>
       <r>     2.1752    74.5053   398.7407 </r>
       <r>     2.2263    60.0323   401.8078 </r>
       <r>     2.2774    65.5421   405.1564 </r>
       <r>     2.3285    68.2328   408.6424 </r>
       <r>     2.3796    72.6366   412.3535 </r>
       <r>     2.4307    50.5289   414.9350 </r>
       <r>     2.4818    74.7947   418.7563 </r>
       <r>     2.5329    49.2329   421.2717 </r>
       <r>     2.5840    55.1956   424.0917 </r>
       <r>     2.6350    61.5700   427.2373 </r>
       <r>     2.6861    50.2480   429.8045 </r>
       <r>     2.7372    38.2049   431.7564 </r>
       <r>     2.7883    61.9432   434.9211 </r>
       <r>     2.8394    58.4678   437.9083 </r>
       <r>     2.8905    44.2215   440.1676 </r>
       <r>     2.9416    60.6825   443.2679 </r>
       <r>     2.9927    44.7453   445.5540 </r>
       <r>     3.0438    46.7986   447.9450 </r>
       <r>     3.0949    31.5205   449.5554 </r>
       <r>     3.1460    63.1051   452.7794 </r>
       <r>     3.1970    50.5780   455.3635 </r>
       <r>     3.2481    61.2809   458.4944 </r>
       <r>     3.2992    44.8649   460.7866 </r>
       <r>     3.3503    66.2994   464.1738 </r>
       <r>     3.4014    57.5669   467.1150 </r>
       <r>     3.4525    51.6635   469.7545 </r>
       <r>     3.5036    51.9732   472.4098 </r>
       <r>     3.5547    60.5618   475.5040 </r>
       <r>     3.6058    59.0362   478.5202 </r>
       <r>     3.6569    42.0196   480.6670 </r>
       <r>     3.7080    53.6834   483.4097 </r>
       <r>     3.7590    52.5966   486.0969 </r>
       <r>     3.8101    55.7195   488.9436 </r>
       <r>     3.8612    71.9670   492.6205 </r>
       <r>     3.9123    36.0761   494.4636 </r>
       <r>     3.9634    53.1188   497.1775 </r>
       <r>     4.0145    57.1056   500.0950 </r>
       <r>     4.0656    62.5231   503.2894 </r>
       <r>     4.1167    49.7983   505.8336 </r>
       <r>     4.1678    57.9819   508.7960 </r>
       <r>     4.2189    47.0389   511.1992 </r>
       <r>     4.2699    45.2399   513.5105 </r>
       <r>     4.3210    52.8489   516.2106 </r>
       <r>     4.3721    44.6404   518.4913 </r>
       <r>     4.4232    55.5334   521.3286 </r>
       <r>     4.4743    42.2929   523.4893 </r>
       <r>     4.5254    53.3002   526.2125 </r>
       <r>     4.5765    55.1869   529.0320 </r>
       <r>     4.6276    46.0539   531.3849 </r>
       <r>     4.6787    58.7842   534.3883 </r>
       <r>     4.7298    53.5253   537.1229 </r>
       <r>     4.7809    54.8648   539.9260 </r>
       <r>     4.8319    53.4350   542.6560 </r>
       <r>     4.8830    40.6028   544.7304 </r>
       <r>     4.9341    65.4367   548.0736 </r>
       <r>     4.9852    42.8902   550.2649 </r>
       <r>     5.0363    54.7436   553.0618 </r>
       <r>     5.0874    62.7149   556.2660 </r>
       <r>     5.1385    47.1775   558.6763 </r>
       <r>     5.1896    50.8519   561.2743 </r>
       <r>     5.2407    43.7122   563.5076 </r>
       <r>     5.2918    53.9326   566.2631 </r>
       <r>     5.3429    54.9937   569.0727 </r>
       <r>     5.3939    52.6611   571.7632 </r>
       <r>     5.4450    47.9106   574.2110 </r>
       <r>     5.4961    25.8385   575.5311 </r>
       <r>     5.5472     9.1773   576.0000 </r>
       <r>     5.5983     0.0000   576.0000 </r>
       <r>     5.6494     0.0000   576.0000 </r>
       <r>     5.7005     0.0000   576.0000 </r>
       <r>     5.7516     0.0000   576.0000 </r>
       <r>     5.8027     0.0000   576.0000 </r>
       <r>     5.8538     0.0000   576.0000 </r>
       <r>     5.9048     0.0000   576.0000 </r>
       <r>     5.9559     0.0000   576.0000 </r>
       <r>     6.0070     0.0000   576.0000 </r>
       <r>     6.0581     0.0000   576.0000 </r>
       <r>     6.1092     0.0000   576.0000 </r>
       <r>     6.1603     0.0000   576.0000 </r>
       <r>     6.2114     0.0000   576.0000 </r>
      </set>
     </set>
    </array>
   </total>
  </dos>
 </calculation>
 <structure name="finalpos" >
  <crystal>
   <varray name="basis" >
    <v>      16.29300118       0.00000000       0.00000000 </v>
    <v>       0.00000000      17.17432976       0.00000000 </v>
    <v>       0.00000000       0.00000025      10.40234280 </v>
   </varray>
   <i name="volume">   2910.79786364 </i>
   <varray name="rec_basis" >
    <v>       0.06137605       0.00000000       0.00000000 </v>
    <v>       0.00000000       0.05822644      -0.00000000 </v>
    <v>       0.00000000       0.00000000       0.09613219 </v>
   </varray>
  </crystal>
  <varray name="positions" >
   <v>       0.13037890       0.82620466       0.41275215 </v>
   <v>       0.96371245       0.07620391       0.00000006 </v>
   <v>       0.79704571       0.42620403       0.08255048 </v>
   <v>       0.63037908       0.77620417       0.16510089 </v>
   <v>       0.46371227       0.12620449       0.24765132 </v>
   <v>       0.29704553       0.47620463       0.33020181 </v>
   <v>       0.46371227       0.82620466       0.41275215 </v>
   <v>       0.29704580       0.07620391       0.00000006 </v>
   <v>       0.13037908       0.42620403       0.08255048 </v>
   <v>       0.96371239       0.77620417       0.16510089 </v>
   <v>       0.79704559       0.12620449       0.24765132 </v>
   <v>       0.63037884       0.47620463       0.33020181 </v>
   <v>       0.79704559       0.82620466       0.41275215 </v>
   <v>       0.63037914       0.07620391       0.00000006 </v>
   <v>       0.46371242       0.42620403       0.08255048 </v>
   <v>       0.29704577       0.77620417       0.16510089 </v>
   <v>       0.13037898       0.12620449       0.24765132 </v>
   <v>       0.96371222       0.47620463       0.33020181 </v>
   <v>       0.21371222       0.57620478       0.41275209 </v>
   <v>       0.04704577       0.82620400       0.00000000 </v>
   <v>       0.88037908       0.17620420       0.08255047 </v>
   <v>       0.71371233       0.52620447       0.16510080 </v>
   <v>       0.54704559       0.87620461       0.24765126 </v>
   <v>       0.38037896       0.22620463       0.33020163 </v>
   <v>       0.54704559       0.57620478       0.41275209 </v>
   <v>       0.38037908       0.82620400       0.00000000 </v>
   <v>       0.21371238       0.17620420       0.08255047 </v>
   <v>       0.04704569       0.52620447       0.16510080 </v>
   <v>       0.88037896       0.87620461       0.24765126 </v>
   <v>       0.71371233       0.22620463       0.33020163 </v>
   <v>       0.88037890       0.57620478       0.41275209 </v>
   <v>       0.71371239       0.82620400       0.00000000 </v>
   <v>       0.54704571       0.17620420       0.08255047 </v>
   <v>       0.38037899       0.52620447       0.16510080 </v>
   <v>       0.21371223       0.87620461       0.24765126 </v>
   <v>       0.04704558       0.22620463       0.33020163 </v>
   <v>       0.13037890       0.32620478       0.41275215 </v>
   <v>       0.96371239       0.57620400       0.00000002 </v>
   <v>       0.79704571       0.92620414       0.08255044 </v>
   <v>       0.63037902       0.27620423       0.16510080 </v>
   <v>       0.46371227       0.62620449       0.24765132 </v>
   <v>       0.29704565       0.97620463       0.33020163 </v>
   <v>       0.46371227       0.32620478       0.41275215 </v>
   <v>       0.29704577       0.57620400       0.00000002 </v>
   <v>       0.13037905       0.92620414       0.08255044 </v>
   <v>       0.96371239       0.27620423       0.16510080 </v>
   <v>       0.79704559       0.62620449       0.24765132 </v>
   <v>       0.63037896       0.97620463       0.33020163 </v>
   <v>       0.79704559       0.32620478       0.41275215 </v>
   <v>       0.63037914       0.57620400       0.00000002 </v>
   <v>       0.46371239       0.92620414       0.08255044 </v>
   <v>       0.29704574       0.27620423       0.16510080 </v>
   <v>       0.13037898       0.62620449       0.24765132 </v>
   <v>       0.96371233       0.97620463       0.33020163 </v>
   <v>       0.21371222       0.07620478       0.41275206 </v>
   <v>       0.04704577       0.32620391       0.00000006 </v>
   <v>       0.88037908       0.67620403       0.08255045 </v>
   <v>       0.71371239       0.02620423       0.16510081 </v>
   <v>       0.54704559       0.37620449       0.24765126 </v>
   <v>       0.38037884       0.72620475       0.33020163 </v>
   <v>       0.54704559       0.07620478       0.41275206 </v>
   <v>       0.38037911       0.32620391       0.00000006 </v>
   <v>       0.21371241       0.67620403       0.08255045 </v>
   <v>       0.04704573       0.02620423       0.16510081 </v>
   <v>       0.88037896       0.37620449       0.24765126 </v>
   <v>       0.71371222       0.72620475       0.33020163 </v>
   <v>       0.88037896       0.07620478       0.41275206 </v>
   <v>       0.71371245       0.32620391       0.00000006 </v>
   <v>       0.54704577       0.67620403       0.08255045 </v>
   <v>       0.38037908       0.02620423       0.16510081 </v>
   <v>       0.21371229       0.37620449       0.24765126 </v>
   <v>       0.04704554       0.72620475       0.33020163 </v>
   <v>       0.71570682       0.68195414       0.54612887 </v>
   <v>       0.34070686       0.29306507       0.61022770 </v>
   <v>       0.96570689       0.90417624       0.67432654 </v>
   <v>       0.59070694       0.51528740       0.73842549 </v>
   <v>       0.21570694       0.12639832       0.80252433 </v>
   <v>       0.84070682       0.73750925       0.86662328 </v>
   <v>       0.21570682       0.68195414       0.54612887 </v>
   <v>       0.84070694       0.29306507       0.61022770 </v>
   <v>       0.46570689       0.90417618       0.67432654 </v>
   <v>       0.09070694       0.51528740       0.73842549 </v>
   <v>       0.71570706       0.12639832       0.80252433 </v>
   <v>       0.34070694       0.73750925       0.86662328 </v>
   <v>       0.09070682       0.43195403       0.54612887 </v>
   <v>       0.71570689       0.04306507       0.61022782 </v>
   <v>       0.34070691       0.65417624       0.67432666 </v>
   <v>       0.96570700       0.26528740       0.73842549 </v>
   <v>       0.59070712       0.87639844       0.80252445 </v>
   <v>       0.21570682       0.48750925       0.86662328 </v>
   <v>       0.59070682       0.43195403       0.54612887 </v>
   <v>       0.21570682       0.04306507       0.61022770 </v>
   <v>       0.84070689       0.65417612       0.67432654 </v>
   <v>       0.46570694       0.26528728       0.73842549 </v>
   <v>       0.09070706       0.87639832       0.80252433 </v>
   <v>       0.71570682       0.48750925       0.86662328 </v>
   <v>       0.84070682       0.43195403       0.54612887 </v>
   <v>       0.46570682       0.04306507       0.61022770 </v>
   <v>       0.09070682       0.65417612       0.67432654 </v>
   <v>       0.71570694       0.26528728       0.73842549 </v>
   <v>       0.34070706       0.87639839       0.80252433 </v>
   <v>       0.96570682       0.48750925       0.86662328 </v>
   <v>       0.34070682       0.43195403       0.54612887 </v>
   <v>       0.96570689       0.04306507       0.61022770 </v>
   <v>       0.59070689       0.65417624       0.67432654 </v>
   <v>       0.21570694       0.26528728       0.73842549 </v>
   <v>       0.84070706       0.87639839       0.80252433 </v>
   <v>       0.46570694       0.48750925       0.86662328 </v>
   <v>       0.96570677       0.68195414       0.54612887 </v>
   <v>       0.59070682       0.29306507       0.61022770 </v>
   <v>       0.21570682       0.90417624       0.67432654 </v>
   <v>       0.84070694       0.51528716       0.73842549 </v>
   <v>       0.46570706       0.12639832       0.80252433 </v>
   <v>       0.09070682       0.73750925       0.86662328 </v>
   <v>       0.46570682       0.68195414       0.54612887 </v>
   <v>       0.09070682       0.29306507       0.61022770 </v>
   <v>       0.71570694       0.90417624       0.67432666 </v>
   <v>       0.34070700       0.51528740       0.73842549 </v>
   <v>       0.96570706       0.12639832       0.80252433 </v>
   <v>       0.59070682       0.73750925       0.86662328 </v>
  </varray>
 </structure>
</modeling>
