Si and Ge interface calculation         
           1
    16.293001    0.000000    0.000000
     0.000000   17.174330    0.000000
     0.000000    0.000000   10.402343
   Si   Ge
    72    48
Direct configuration=     1
   0.13037890  0.82620466  0.41275215
   0.96371245  0.07620391  0.00000006
   0.79704571  0.42620403  0.08255048
   0.63037908  0.77620417  0.16510089
   0.46371227  0.12620449  0.24765132
   0.29704553  0.47620463  0.33020181
   0.46371227  0.82620466  0.41275215
   0.29704580  0.07620391  0.00000006
   0.13037908  0.42620403  0.08255048
   0.96371239  0.77620417  0.16510089
   0.79704559  0.12620449  0.24765132
   0.63037884  0.47620463  0.33020181
   0.79704559  0.82620466  0.41275215
   0.63037914  0.07620391  0.00000006
   0.46371242  0.42620403  0.08255048
   0.29704577  0.77620417  0.16510089
   0.13037898  0.12620449  0.24765132
   0.96371222  0.47620463  0.33020181
   0.21371222  0.57620478  0.41275209
   0.04704577  0.82620400  0.00000000
   0.88037908  0.17620420  0.08255047
   0.71371233  0.52620447  0.16510080
   0.54704559  0.87620461  0.24765126
   0.38037896  0.22620463  0.33020163
   0.54704559  0.57620478  0.41275209
   0.38037908  0.82620400  0.00000000
   0.21371238  0.17620420  0.08255047
   0.04704569  0.52620447  0.16510080
   0.88037896  0.87620461  0.24765126
   0.71371233  0.22620463  0.33020163
   0.88037890  0.57620478  0.41275209
   0.71371239  0.82620400  0.00000000
   0.54704571  0.17620420  0.08255047
   0.38037899  0.52620447  0.16510080
   0.21371223  0.87620461  0.24765126
   0.04704558  0.22620463  0.33020163
   0.13037890  0.32620478  0.41275215
   0.96371239  0.57620400  0.00000002
   0.79704571  0.92620414  0.08255044
   0.63037902  0.27620423  0.16510080
   0.46371227  0.62620449  0.24765132
   0.29704565  0.97620463  0.33020163
   0.46371227  0.32620478  0.41275215
   0.29704577  0.57620400  0.00000002
   0.13037905  0.92620414  0.08255044
   0.96371239  0.27620423  0.16510080
   0.79704559  0.62620449  0.24765132
   0.63037896  0.97620463  0.33020163
   0.79704559  0.32620478  0.41275215
   0.63037914  0.57620400  0.00000002
   0.46371239  0.92620414  0.08255044
   0.29704574  0.27620423  0.16510080
   0.13037898  0.62620449  0.24765132
   0.96371233  0.97620463  0.33020163
   0.21371222  0.07620478  0.41275206
   0.04704577  0.32620391  0.00000006
   0.88037908  0.67620403  0.08255045
   0.71371239  0.02620423  0.16510081
   0.54704559  0.37620449  0.24765126
   0.38037884  0.72620475  0.33020163
   0.54704559  0.07620478  0.41275206
   0.38037911  0.32620391  0.00000006
   0.21371241  0.67620403  0.08255045
   0.04704573  0.02620423  0.16510081
   0.88037896  0.37620449  0.24765126
   0.71371222  0.72620475  0.33020163
   0.88037896  0.07620478  0.41275206
   0.71371245  0.32620391  0.00000006
   0.54704577  0.67620403  0.08255045
   0.38037908  0.02620423  0.16510081
   0.21371229  0.37620449  0.24765126
   0.04704554  0.72620475  0.33020163
   0.71570682  0.68195414  0.54612887
   0.34070686  0.29306507  0.61022770
   0.96570689  0.90417624  0.67432654
   0.59070694  0.51528740  0.73842549
   0.21570694  0.12639832  0.80252433
   0.84070682  0.73750925  0.86662328
   0.21570682  0.68195414  0.54612887
   0.84070694  0.29306507  0.61022770
   0.46570689  0.90417618  0.67432654
   0.09070694  0.51528740  0.73842549
   0.71570706  0.12639832  0.80252433
   0.34070694  0.73750925  0.86662328
   0.09070682  0.43195403  0.54612887
   0.71570689  0.04306507  0.61022782
   0.34070691  0.65417624  0.67432666
   0.96570700  0.26528740  0.73842549
   0.59070712  0.87639844  0.80252445
   0.21570682  0.48750925  0.86662328
   0.59070682  0.43195403  0.54612887
   0.21570682  0.04306507  0.61022770
   0.84070689  0.65417612  0.67432654
   0.46570694  0.26528728  0.73842549
   0.09070706  0.87639832  0.80252433
   0.71570682  0.48750925  0.86662328
   0.84070682  0.43195403  0.54612887
   0.46570682  0.04306507  0.61022770
   0.09070682  0.65417612  0.67432654
   0.71570694  0.26528728  0.73842549
   0.34070706  0.87639839  0.80252433
   0.96570682  0.48750925  0.86662328
   0.34070682  0.43195403  0.54612887
   0.96570689  0.04306507  0.61022770
   0.59070689  0.65417624  0.67432654
   0.21570694  0.26528728  0.73842549
   0.84070706  0.87639839  0.80252433
   0.46570694  0.48750925  0.86662328
   0.96570677  0.68195414  0.54612887
   0.59070682  0.29306507  0.61022770
   0.21570682  0.90417624  0.67432654
   0.84070694  0.51528716  0.73842549
   0.46570706  0.12639832  0.80252433
   0.09070682  0.73750925  0.86662328
   0.46570682  0.68195414  0.54612887
   0.09070682  0.29306507  0.61022770
   0.71570694  0.90417624  0.67432666
   0.34070700  0.51528740  0.73842549
   0.96570706  0.12639832  0.80252433
   0.59070682  0.73750925  0.86662328
