 264 264   0   0
  0.2770664E+02  0.1946760E-08  0.1946760E-08  0.1930025E-08  0.5000000E-15
  1.000000000000000E-004
  CAR 
 Si and Ge interface calculation         
      6.64913522     -8.86960703  301      4.06723739      1.00000000
     -8.870  0.0000E+00  0.0000E+00  0.0000E+00  0.0000E+00
     -8.818  0.0000E+00  0.0000E+00  0.0000E+00  0.0000E+00
     -8.766  0.0000E+00  0.0000E+00  0.0000E+00  0.0000E+00
     -8.714  0.0000E+00  0.0000E+00  0.0000E+00  0.0000E+00
     -8.663  0.0000E+00  0.0000E+00  0.0000E+00  0.0000E+00
     -8.611  0.0000E+00  0.0000E+00  0.0000E+00  0.0000E+00
     -8.559  0.0000E+00  0.0000E+00  0.0000E+00  0.0000E+00
     -8.508  0.0000E+00  0.0000E+00  0.0000E+00  0.0000E+00
     -8.456  0.0000E+00  0.0000E+00  0.0000E+00  0.0000E+00
     -8.404  0.0000E+00  0.0000E+00  0.0000E+00  0.0000E+00
     -8.352  0.0000E+00  0.0000E+00  0.0000E+00  0.0000E+00
     -8.301  0.0000E+00  0.0000E+00  0.0000E+00  0.0000E+00
     -8.249  0.0000E+00  0.0000E+00  0.0000E+00  0.0000E+00
     -8.197  0.1532E-04  0.4068E-05  0.7927E-06  0.2105E-06
     -8.145  0.9628E+01  0.9584E+01  0.4980E+00  0.4958E+00
     -8.094  0.1927E+02  0.1920E+02  0.1495E+01  0.1489E+01
     -8.042  0.2105E+02  0.1953E+02  0.2584E+01  0.2500E+01
     -7.990  0.1575E+02  0.1659E+02  0.3399E+01  0.3358E+01
     -7.938  0.1205E+02  0.1265E+02  0.4022E+01  0.4012E+01
     -7.887  0.1242E+02  0.1172E+02  0.4664E+01  0.4618E+01
     -7.835  0.1616E+02  0.1705E+02  0.5500E+01  0.5500E+01
     -7.783  0.3944E+02  0.3706E+02  0.7540E+01  0.7417E+01
     -7.732  0.1888E+02  0.2104E+02  0.8517E+01  0.8505E+01
     -7.680  0.2699E+02  0.2605E+02  0.9913E+01  0.9853E+01
     -7.628  0.1136E+02  0.1251E+02  0.1050E+02  0.1050E+02
     -7.576  0.4999E+01  0.4080E+01  0.1076E+02  0.1071E+02
     -7.525  0.2320E+02  0.2369E+02  0.1196E+02  0.1194E+02
     -7.473  0.1047E+02  0.1089E+02  0.1250E+02  0.1250E+02
     -7.421  0.2353E+02  0.2234E+02  0.1372E+02  0.1366E+02
     -7.369  0.2933E+02  0.2963E+02  0.1524E+02  0.1519E+02
     -7.318  0.2003E+02  0.2004E+02  0.1627E+02  0.1622E+02
     -7.266  0.1607E+02  0.1624E+02  0.1710E+02  0.1706E+02
     -7.214  0.5227E+02  0.5158E+02  0.1981E+02  0.1973E+02
     -7.163  0.2290E+02  0.2416E+02  0.2099E+02  0.2098E+02
     -7.111  0.1824E+02  0.1720E+02  0.2194E+02  0.2187E+02
     -7.059  0.4841E+02  0.4859E+02  0.2444E+02  0.2439E+02
     -7.007  0.4980E+02  0.5005E+02  0.2702E+02  0.2697E+02
     -6.956  0.2027E+02  0.2045E+02  0.2806E+02  0.2803E+02
     -6.904  0.4543E+02  0.4497E+02  0.3041E+02  0.3036E+02
     -6.852  0.3688E+02  0.3642E+02  0.3232E+02  0.3224E+02
     -6.800  0.2928E+02  0.2897E+02  0.3384E+02  0.3374E+02
     -6.749  0.4302E+02  0.4430E+02  0.3606E+02  0.3603E+02
     -6.697  0.7267E+02  0.7102E+02  0.3982E+02  0.3971E+02
     -6.645  0.4155E+02  0.4286E+02  0.4197E+02  0.4192E+02
     -6.594  0.4024E+02  0.3947E+02  0.4405E+02  0.4397E+02
     -6.542  0.4927E+02  0.4923E+02  0.4660E+02  0.4651E+02
     -6.490  0.2328E+02  0.2378E+02  0.4781E+02  0.4774E+02
     -6.438  0.6567E+02  0.6375E+02  0.5120E+02  0.5104E+02
     -6.387  0.3290E+02  0.3493E+02  0.5290E+02  0.5285E+02
     -6.335  0.2219E+02  0.2274E+02  0.5405E+02  0.5402E+02
     -6.283  0.5416E+02  0.5202E+02  0.5685E+02  0.5671E+02
     -6.231  0.3721E+02  0.3758E+02  0.5878E+02  0.5866E+02
     -6.180  0.6689E+02  0.6654E+02  0.6224E+02  0.6210E+02
     -6.128  0.4936E+02  0.4847E+02  0.6479E+02  0.6461E+02
     -6.076  0.8784E+02  0.8903E+02  0.6934E+02  0.6921E+02
     -6.025  0.8422E+02  0.8279E+02  0.7369E+02  0.7350E+02
     -5.973  0.7910E+02  0.7976E+02  0.7778E+02  0.7762E+02
     -5.921  0.4594E+02  0.4732E+02  0.8016E+02  0.8007E+02
     -5.869  0.6490E+02  0.6388E+02  0.8352E+02  0.8337E+02
     -5.818  0.6599E+02  0.6691E+02  0.8693E+02  0.8684E+02
     -5.766  0.5486E+02  0.5339E+02  0.8977E+02  0.8960E+02
     -5.714  0.8913E+02  0.8844E+02  0.9438E+02  0.9417E+02
     -5.662  0.7932E+02  0.7859E+02  0.9848E+02  0.9824E+02
     -5.611  0.9294E+02  0.9505E+02  0.1033E+03  0.1032E+03
     -5.559  0.6904E+02  0.6745E+02  0.1069E+03  0.1066E+03
     -5.507  0.7004E+02  0.7162E+02  0.1105E+03  0.1103E+03
     -5.455  0.8344E+02  0.8178E+02  0.1148E+03  0.1146E+03
     -5.404  0.6780E+02  0.6943E+02  0.1183E+03  0.1182E+03
     -5.352  0.8327E+02  0.8311E+02  0.1226E+03  0.1225E+03
     -5.300  0.7898E+02  0.7753E+02  0.1267E+03  0.1265E+03
     -5.249  0.9240E+02  0.9108E+02  0.1315E+03  0.1312E+03
     -5.197  0.6347E+02  0.6588E+02  0.1348E+03  0.1346E+03
     -5.145  0.5588E+02  0.5574E+02  0.1377E+03  0.1375E+03
     -5.093  0.7683E+02  0.7496E+02  0.1416E+03  0.1414E+03
     -5.042  0.8207E+02  0.8372E+02  0.1459E+03  0.1457E+03
     -4.990  0.6621E+02  0.6521E+02  0.1493E+03  0.1491E+03
     -4.938  0.6406E+02  0.6624E+02  0.1526E+03  0.1525E+03
     -4.886  0.6333E+02  0.6001E+02  0.1559E+03  0.1556E+03
     -4.835  0.1006E+03  0.1007E+03  0.1611E+03  0.1608E+03
     -4.783  0.9352E+02  0.9459E+02  0.1659E+03  0.1657E+03
     -4.731  0.9339E+02  0.9056E+02  0.1708E+03  0.1704E+03
     -4.680  0.1194E+03  0.1184E+03  0.1769E+03  0.1765E+03
     -4.628  0.1092E+03  0.1123E+03  0.1826E+03  0.1823E+03
     -4.576  0.1006E+03  0.1003E+03  0.1878E+03  0.1875E+03
     -4.524  0.1168E+03  0.1129E+03  0.1938E+03  0.1933E+03
     -4.473  0.1072E+03  0.1104E+03  0.1994E+03  0.1991E+03
     -4.421  0.1076E+03  0.1088E+03  0.2049E+03  0.2047E+03
     -4.369  0.9087E+02  0.9079E+02  0.2096E+03  0.2094E+03
     -4.317  0.8230E+02  0.8170E+02  0.2139E+03  0.2136E+03
     -4.266  0.5745E+02  0.5854E+02  0.2169E+03  0.2166E+03
     -4.214  0.9102E+02  0.9120E+02  0.2216E+03  0.2214E+03
     -4.162  0.9620E+02  0.9499E+02  0.2266E+03  0.2263E+03
     -4.111  0.5319E+02  0.5602E+02  0.2293E+03  0.2292E+03
     -4.059  0.4100E+02  0.4060E+02  0.2314E+03  0.2313E+03
     -4.007  0.5929E+02  0.5806E+02  0.2345E+03  0.2343E+03
     -3.955  0.7786E+02  0.7831E+02  0.2385E+03  0.2383E+03
     -3.904  0.7692E+02  0.7855E+02  0.2425E+03  0.2424E+03
     -3.852  0.6372E+02  0.6107E+02  0.2458E+03  0.2455E+03
     -3.800  0.6576E+02  0.6536E+02  0.2492E+03  0.2489E+03
     -3.748  0.6692E+02  0.6684E+02  0.2527E+03  0.2524E+03
     -3.697  0.5364E+02  0.5367E+02  0.2554E+03  0.2552E+03
     -3.645  0.9097E+02  0.9315E+02  0.2601E+03  0.2600E+03
     -3.593  0.6199E+02  0.6282E+02  0.2633E+03  0.2632E+03
     -3.542  0.3795E+02  0.3932E+02  0.2653E+03  0.2653E+03
     -3.490  0.5956E+02  0.5535E+02  0.2684E+03  0.2681E+03
     -3.438  0.8534E+02  0.8733E+02  0.2728E+03  0.2726E+03
     -3.386  0.7759E+02  0.7377E+02  0.2768E+03  0.2765E+03
     -3.335  0.7724E+02  0.8216E+02  0.2808E+03  0.2807E+03
     -3.283  0.6583E+02  0.6308E+02  0.2842E+03  0.2840E+03
     -3.231  0.9596E+02  0.9523E+02  0.2892E+03  0.2889E+03
     -3.179  0.7314E+02  0.7291E+02  0.2930E+03  0.2927E+03
     -3.128  0.7606E+02  0.7631E+02  0.2969E+03  0.2966E+03
     -3.076  0.6834E+02  0.6990E+02  0.3004E+03  0.3002E+03
     -3.024  0.7204E+02  0.7076E+02  0.3042E+03  0.3039E+03
     -2.972  0.6085E+02  0.6279E+02  0.3073E+03  0.3071E+03
     -2.921  0.9789E+02  0.9072E+02  0.3124E+03  0.3118E+03
     -2.869  0.1104E+03  0.1132E+03  0.3181E+03  0.3177E+03
     -2.817  0.6901E+02  0.7323E+02  0.3217E+03  0.3215E+03
     -2.766  0.9773E+02  0.9337E+02  0.3267E+03  0.3263E+03
     -2.714  0.1012E+03  0.1043E+03  0.3320E+03  0.3317E+03
     -2.662  0.8997E+02  0.9035E+02  0.3366E+03  0.3364E+03
     -2.610  0.9253E+02  0.9033E+02  0.3414E+03  0.3411E+03
     -2.559  0.1231E+03  0.1225E+03  0.3478E+03  0.3474E+03
     -2.507  0.1430E+03  0.1425E+03  0.3552E+03  0.3548E+03
     -2.455  0.8986E+02  0.9165E+02  0.3598E+03  0.3595E+03
     -2.403  0.8059E+02  0.8282E+02  0.3640E+03  0.3638E+03
     -2.352  0.1032E+03  0.1008E+03  0.3693E+03  0.3690E+03
     -2.300  0.1022E+03  0.1020E+03  0.3746E+03  0.3743E+03
     -2.248  0.9181E+02  0.9268E+02  0.3794E+03  0.3791E+03
     -2.197  0.6565E+02  0.6827E+02  0.3827E+03  0.3826E+03
     -2.145  0.3190E+02  0.3277E+02  0.3844E+03  0.3843E+03
     -2.093  0.6420E+02  0.6247E+02  0.3877E+03  0.3875E+03
     -2.041  0.6228E+02  0.6080E+02  0.3909E+03  0.3907E+03
     -1.990  0.8797E+02  0.8945E+02  0.3955E+03  0.3953E+03
     -1.938  0.8997E+02  0.8772E+02  0.4001E+03  0.3998E+03
     -1.886  0.1120E+03  0.1127E+03  0.4059E+03  0.4057E+03
     -1.834  0.7283E+02  0.7467E+02  0.4097E+03  0.4095E+03
     -1.783  0.6938E+02  0.6850E+02  0.4133E+03  0.4131E+03
     -1.731  0.9638E+02  0.9509E+02  0.4183E+03  0.4180E+03
     -1.679  0.1020E+03  0.1020E+03  0.4236E+03  0.4233E+03
     -1.628  0.7294E+02  0.7417E+02  0.4273E+03  0.4271E+03
     -1.576  0.9348E+02  0.9125E+02  0.4322E+03  0.4318E+03
     -1.524  0.7414E+02  0.7742E+02  0.4360E+03  0.4358E+03
     -1.472  0.6729E+02  0.6573E+02  0.4395E+03  0.4392E+03
     -1.421  0.5005E+02  0.5207E+02  0.4421E+03  0.4419E+03
     -1.369  0.6078E+02  0.5886E+02  0.4452E+03  0.4450E+03
     -1.317  0.6008E+02  0.6153E+02  0.4483E+03  0.4482E+03
     -1.265  0.5490E+02  0.5513E+02  0.4512E+03  0.4510E+03
     -1.214  0.5176E+02  0.5185E+02  0.4538E+03  0.4537E+03
     -1.162  0.5748E+02  0.5759E+02  0.4568E+03  0.4567E+03
     -1.110  0.4678E+02  0.4499E+02  0.4592E+03  0.4590E+03
     -1.059  0.5467E+02  0.5725E+02  0.4621E+03  0.4620E+03
     -1.007  0.6938E+02  0.6925E+02  0.4657E+03  0.4655E+03
     -0.955  0.3079E+02  0.3002E+02  0.4672E+03  0.4671E+03
     -0.903  0.3864E+02  0.3809E+02  0.4692E+03  0.4691E+03
     -0.852  0.6814E+02  0.6576E+02  0.4728E+03  0.4725E+03
     -0.800  0.6624E+02  0.6811E+02  0.4762E+03  0.4760E+03
     -0.748  0.6002E+02  0.6110E+02  0.4793E+03  0.4792E+03
     -0.696  0.5370E+02  0.5221E+02  0.4821E+03  0.4819E+03
     -0.645  0.7215E+02  0.7117E+02  0.4858E+03  0.4855E+03
     -0.593  0.3078E+02  0.3423E+02  0.4874E+03  0.4873E+03
     -0.541  0.3170E+02  0.3232E+02  0.4890E+03  0.4890E+03
     -0.489  0.1210E+02  0.1208E+02  0.4897E+03  0.4896E+03
     -0.438  0.4304E+02  0.4142E+02  0.4919E+03  0.4917E+03
     -0.386  0.4470E+02  0.4561E+02  0.4942E+03  0.4941E+03
     -0.334  0.5386E+02  0.5085E+02  0.4970E+03  0.4967E+03
     -0.283  0.9498E+02  0.9717E+02  0.5019E+03  0.5018E+03
     -0.231  0.5790E+02  0.5698E+02  0.5049E+03  0.5047E+03
     -0.179  0.6873E+02  0.6832E+02  0.5085E+03  0.5082E+03
     -0.127  0.1184E+03  0.1175E+03  0.5146E+03  0.5143E+03
     -0.076  0.1043E+03  0.1058E+03  0.5200E+03  0.5198E+03
     -0.024  0.1282E+03  0.1247E+03  0.5266E+03  0.5262E+03
      0.028  0.1108E+03  0.1122E+03  0.5323E+03  0.5320E+03
      0.080  0.1764E+03  0.1713E+03  0.5415E+03  0.5409E+03
      0.131  0.1215E+03  0.1269E+03  0.5477E+03  0.5475E+03
      0.183  0.7525E+02  0.7813E+02  0.5516E+03  0.5515E+03
      0.235  0.8235E+02  0.7914E+02  0.5559E+03  0.5556E+03
      0.286  0.9752E+02  0.9916E+02  0.5609E+03  0.5607E+03
      0.338  0.6632E+02  0.6712E+02  0.5644E+03  0.5642E+03
      0.390  0.1022E+03  0.9807E+02  0.5697E+03  0.5693E+03
      0.442  0.9736E+02  0.1007E+03  0.5747E+03  0.5745E+03
      0.493  0.6579E+02  0.6783E+02  0.5781E+03  0.5780E+03
      0.545  0.1214E+03  0.1183E+03  0.5844E+03  0.5841E+03
      0.597  0.1476E+03  0.1473E+03  0.5920E+03  0.5917E+03
      0.649  0.1532E+03  0.1522E+03  0.5999E+03  0.5996E+03
      0.700  0.1156E+03  0.1181E+03  0.6059E+03  0.6057E+03
      0.752  0.1151E+03  0.1147E+03  0.6119E+03  0.6117E+03
      0.804  0.1342E+03  0.1330E+03  0.6188E+03  0.6185E+03
      0.855  0.9734E+02  0.9825E+02  0.6239E+03  0.6236E+03
      0.907  0.9238E+02  0.9404E+02  0.6286E+03  0.6285E+03
      0.959  0.1168E+03  0.1115E+03  0.6347E+03  0.6343E+03
      1.011  0.1015E+03  0.1042E+03  0.6399E+03  0.6396E+03
      1.062  0.1766E+03  0.1726E+03  0.6491E+03  0.6486E+03
      1.114  0.1295E+03  0.1330E+03  0.6558E+03  0.6555E+03
      1.166  0.1567E+03  0.1530E+03  0.6639E+03  0.6634E+03
      1.218  0.1605E+03  0.1604E+03  0.6722E+03  0.6717E+03
      1.269  0.1734E+03  0.1731E+03  0.6811E+03  0.6806E+03
      1.321  0.1764E+03  0.1761E+03  0.6903E+03  0.6897E+03
      1.373  0.2068E+03  0.2059E+03  0.7010E+03  0.7004E+03
      1.424  0.1509E+03  0.1547E+03  0.7088E+03  0.7084E+03
      1.476  0.1431E+03  0.1420E+03  0.7162E+03  0.7157E+03
      1.528  0.2332E+03  0.2283E+03  0.7282E+03  0.7275E+03
      1.580  0.2012E+03  0.2010E+03  0.7386E+03  0.7379E+03
      1.631  0.1693E+03  0.1718E+03  0.7474E+03  0.7468E+03
      1.683  0.1694E+03  0.1684E+03  0.7562E+03  0.7555E+03
      1.735  0.2032E+03  0.2040E+03  0.7667E+03  0.7661E+03
      1.787  0.1648E+03  0.1670E+03  0.7752E+03  0.7747E+03
      1.838  0.1899E+03  0.1892E+03  0.7850E+03  0.7845E+03
      1.890  0.1565E+03  0.1575E+03  0.7931E+03  0.7926E+03
      1.942  0.2015E+03  0.1979E+03  0.8035E+03  0.8029E+03
      1.994  0.1848E+03  0.1896E+03  0.8131E+03  0.8127E+03
      2.045  0.1622E+03  0.1583E+03  0.8215E+03  0.8209E+03
      2.097  0.1857E+03  0.1845E+03  0.8311E+03  0.8304E+03
      2.149  0.1908E+03  0.1920E+03  0.8410E+03  0.8404E+03
      2.200  0.1794E+03  0.1827E+03  0.8503E+03  0.8498E+03
      2.252  0.1657E+03  0.1637E+03  0.8588E+03  0.8583E+03
      2.304  0.1595E+03  0.1596E+03  0.8671E+03  0.8665E+03
      2.356  0.1664E+03  0.1659E+03  0.8757E+03  0.8751E+03
      2.407  0.1990E+03  0.2007E+03  0.8860E+03  0.8855E+03
      2.459  0.1551E+03  0.1566E+03  0.8940E+03  0.8936E+03
      2.511  0.1527E+03  0.1521E+03  0.9019E+03  0.9015E+03
      2.563  0.1613E+03  0.1585E+03  0.9103E+03  0.9097E+03
      2.614  0.1323E+03  0.1328E+03  0.9171E+03  0.9165E+03
      2.666  0.1107E+03  0.1113E+03  0.9228E+03  0.9223E+03
      2.718  0.1614E+03  0.1569E+03  0.9312E+03  0.9304E+03
      2.769  0.1192E+03  0.1275E+03  0.9373E+03  0.9370E+03
      2.821  0.1609E+03  0.1561E+03  0.9457E+03  0.9451E+03
      2.873  0.1430E+03  0.1455E+03  0.9530E+03  0.9526E+03
      2.925  0.1327E+03  0.1336E+03  0.9599E+03  0.9595E+03
      2.976  0.9027E+02  0.8982E+02  0.9646E+03  0.9642E+03
      3.028  0.1482E+03  0.1476E+03  0.9722E+03  0.9718E+03
      3.080  0.1226E+03  0.1230E+03  0.9786E+03  0.9782E+03
      3.132  0.1259E+03  0.1245E+03  0.9851E+03  0.9846E+03
      3.183  0.1064E+03  0.1079E+03  0.9906E+03  0.9902E+03
      3.235  0.9848E+02  0.9571E+02  0.9957E+03  0.9951E+03
      3.287  0.1180E+03  0.1142E+03  0.1002E+04  0.1001E+04
      3.338  0.1225E+03  0.1264E+03  0.1008E+04  0.1008E+04
      3.390  0.5974E+02  0.6368E+02  0.1011E+04  0.1011E+04
      3.442  0.1008E+03  0.9834E+02  0.1016E+04  0.1016E+04
      3.494  0.7822E+02  0.7945E+02  0.1020E+04  0.1020E+04
      3.545  0.7633E+02  0.7530E+02  0.1024E+04  0.1024E+04
      3.597  0.8391E+02  0.8277E+02  0.1029E+04  0.1028E+04
      3.649  0.6997E+02  0.7730E+02  0.1032E+04  0.1032E+04
      3.701  0.2929E+02  0.2646E+02  0.1034E+04  0.1034E+04
      3.752  0.7988E+02  0.7977E+02  0.1038E+04  0.1038E+04
      3.804  0.3883E+02  0.3650E+02  0.1040E+04  0.1040E+04
      3.856  0.5748E+02  0.6097E+02  0.1043E+04  0.1043E+04
      3.907  0.2921E+02  0.2934E+02  0.1045E+04  0.1044E+04
      3.959  0.5528E+02  0.5410E+02  0.1047E+04  0.1047E+04
      4.011  0.7319E+02  0.6604E+02  0.1051E+04  0.1051E+04
      4.063  0.8541E+02  0.7714E+02  0.1056E+04  0.1055E+04
      4.114  0.1012E+03  0.1034E+03  0.1061E+04  0.1060E+04
      4.166  0.1039E+03  0.1072E+03  0.1066E+04  0.1065E+04
      4.218  0.1011E+03  0.1058E+03  0.1071E+04  0.1071E+04
      4.270  0.1077E+03  0.9636E+02  0.1077E+04  0.1076E+04
      4.321  0.6076E+02  0.6921E+02  0.1080E+04  0.1079E+04
      4.373  0.1417E+03  0.1370E+03  0.1087E+04  0.1087E+04
      4.425  0.1052E+03  0.1039E+03  0.1093E+04  0.1092E+04
      4.477  0.1075E+03  0.1145E+03  0.1098E+04  0.1098E+04
      4.528  0.1191E+03  0.1126E+03  0.1105E+04  0.1104E+04
      4.580  0.8911E+02  0.9666E+02  0.1109E+04  0.1109E+04
      4.632  0.1122E+03  0.1107E+03  0.1115E+04  0.1114E+04
      4.683  0.1083E+03  0.1101E+03  0.1121E+04  0.1120E+04
      4.735  0.1368E+03  0.1340E+03  0.1128E+04  0.1127E+04
      4.787  0.1186E+03  0.1188E+03  0.1134E+04  0.1133E+04
      4.839  0.1285E+03  0.1310E+03  0.1141E+04  0.1140E+04
      4.890  0.1257E+03  0.1227E+03  0.1147E+04  0.1146E+04
      4.942  0.1089E+03  0.1110E+03  0.1153E+04  0.1152E+04
      4.994  0.1161E+03  0.1190E+03  0.1159E+04  0.1158E+04
      5.046  0.1199E+03  0.1117E+03  0.1165E+04  0.1164E+04
      5.097  0.1431E+03  0.1526E+03  0.1172E+04  0.1172E+04
      5.149  0.9602E+02  0.9503E+02  0.1177E+04  0.1177E+04
      5.201  0.1017E+03  0.9946E+02  0.1183E+04  0.1182E+04
      5.252  0.1011E+03  0.1033E+03  0.1188E+04  0.1187E+04
      5.304  0.1020E+03  0.1028E+03  0.1193E+04  0.1193E+04
      5.356  0.1271E+03  0.1266E+03  0.1200E+04  0.1199E+04
      5.408  0.1280E+03  0.1274E+03  0.1206E+04  0.1206E+04
      5.459  0.1654E+03  0.1621E+03  0.1215E+04  0.1214E+04
      5.511  0.1331E+03  0.1347E+03  0.1222E+04  0.1221E+04
      5.563  0.1407E+03  0.1425E+03  0.1229E+04  0.1228E+04
      5.615  0.1397E+03  0.1369E+03  0.1236E+04  0.1236E+04
      5.666  0.1094E+03  0.1112E+03  0.1242E+04  0.1241E+04
      5.718  0.1436E+03  0.1434E+03  0.1249E+04  0.1249E+04
      5.770  0.1099E+03  0.1147E+03  0.1255E+04  0.1255E+04
      5.821  0.1437E+03  0.1397E+03  0.1262E+04  0.1262E+04
      5.873  0.1181E+03  0.1201E+03  0.1268E+04  0.1268E+04
      5.925  0.5588E+02  0.6489E+02  0.1271E+04  0.1271E+04
      5.977  0.1240E+02  0.1126E+02  0.1272E+04  0.1272E+04
      6.028  0.0000E+00  0.0000E+00  0.1272E+04  0.1272E+04
      6.080  0.0000E+00  0.0000E+00  0.1272E+04  0.1272E+04
      6.132  0.0000E+00  0.0000E+00  0.1272E+04  0.1272E+04
      6.184  0.0000E+00  0.0000E+00  0.1272E+04  0.1272E+04
      6.235  0.0000E+00  0.0000E+00  0.1272E+04  0.1272E+04
      6.287  0.0000E+00  0.0000E+00  0.1272E+04  0.1272E+04
      6.339  0.0000E+00  0.0000E+00  0.1272E+04  0.1272E+04
      6.390  0.0000E+00  0.0000E+00  0.1272E+04  0.1272E+04
      6.442  0.0000E+00  0.0000E+00  0.1272E+04  0.1272E+04
      6.494  0.0000E+00  0.0000E+00  0.1272E+04  0.1272E+04
      6.546  0.0000E+00  0.0000E+00  0.1272E+04  0.1272E+04
      6.597  0.0000E+00  0.0000E+00  0.1272E+04  0.1272E+04
      6.649  0.0000E+00  0.0000E+00  0.1272E+04  0.1272E+04
