 vasp.6.4.3 19Mar24 (build Oct 22 2024 11:23:12) complex                        
  
 executed on             LinuxIFC date 2025.06.08  14:41:18
 running   64 mpi-ranks, on    4 nodes
 distrk:  each k-point on   64 cores,    1 groups
 distr:  one band on NCORE=  16 cores,    4 groups


--------------------------------------------------------------------------------------------------------


 INCAR:
   SYSTEM = Si and Ge interface calculation
   ISTART = 0
   ICHARG = 2
   LWAVE = .FALSE.
   LREAL = AUTO
   ENCUT = 700
   ENAUG = 900
   ADDGRID = .TRUE.
   LMAXMIX = 6
   LASPH = .TRUE.
   LMIXTAU = .TRUE.
   NCORE = 16
   NELM = 100
   NBANDS = 288
   EDIFF = 1d-7
   AMIX = 0.6
   ISMEAR = 0
   SIGMA = 0.01
   NELECT = 480
   ISPIN = 2
   NUPDOWN = 1
   LVTOT = .FALSE.
   LVHAR = .TRUE.

 POTCAR:    PAW_PBE Si 05Jan2001                  
 POTCAR:    PAW_PBE Ge 05Jan2001                  
 -----------------------------------------------------------------------------
|                                                                             |
|           W    W    AA    RRRRR   N    N  II  N    N   GGGG   !!!           |
|           W    W   A  A   R    R  NN   N  II  NN   N  G    G  !!!           |
|           W    W  A    A  R    R  N N  N  II  N N  N  G       !!!           |
|           W WW W  AAAAAA  RRRRR   N  N N  II  N  N N  G  GGG   !            |
|           WW  WW  A    A  R   R   N   NN  II  N   NN  G    G                |
|           W    W  A    A  R    R  N    N  II  N    N   GGGG   !!!           |
|                                                                             |
|     You use a magnetic or noncollinear calculation, but did not specify     |
|     the initial magnetic moment with the MAGMOM tag. Note that a            |
|     default of 8.333e-3 will be used for all atoms. This ferromagnetic      |
|     setup may break the symmetry of the crystal, in particular it may       |
|     rule out finding an antiferromagnetic solution. Thence, we              |
|     recommend setting the initial magnetic moment manually or verifying     |
|     carefully that this magnetic setup is desired.                          |
|                                                                             |
 -----------------------------------------------------------------------------

 POTCAR:    PAW_PBE Si 05Jan2001                  
   VRHFIN =Si: s2p2                                                                                 
   LEXCH  = PE                                                                                      
   EATOM  =   103.0669 eV,    7.5752 Ry                                                             
                                                                                                    
   TITEL  = PAW_PBE Si 05Jan2001                                                                    
   LULTRA =        F    use ultrasoft PP ?                                                          
   IUNSCR =        1    unscreen: 0-lin 1-nonlin 2-no                                               
   RPACOR =    1.500    partial core radius                                                         
   POMASS =   28.085; ZVAL   =    4.000    mass and valenz                                          
   RCORE  =    1.900    outmost cutoff radius                                                       
   RWIGS  =    2.480; RWIGS  =    1.312    wigner-seitz radius (au A)                               
   ENMAX  =  245.345; ENMIN  =  184.009 eV                                                          
   ICORE  =        2    local potential                                                             
   LCOR   =        T    correct aug charges                                                         
   LPAW   =        T    paw PP                                                                      
   EAUG   =  322.069                                                                                
   DEXC   =    0.000                                                                                
   RMAX   =    1.950    core radius for proj-oper                                                   
   RAUG   =    1.300    factor for augmentation sphere                                              
   RDEP   =    1.993    radius for radial grids                                                     
   RDEPT  =    1.837    core radius for aug-charge                                                  
                                                                                                    
   Atomic configuration                                                                             
    6 entries                                                                                       
     n  l   j            E        occ.                                                              
     1  0  0.50     -1785.8828   2.0000                                                             
     2  0  0.50      -139.4969   2.0000                                                             
     2  1  1.50       -95.5546   6.0000                                                             
     3  0  0.50       -10.8127   2.0000                                                             
     3  1  0.50        -4.0811   2.0000                                                             
     3  2  1.50        -4.0817   0.0000                                                             
   Description                                                                                      
     l       E           TYP  RCUT    TYP  RCUT                                                     
     0    -10.8127223     23  1.900                                                                 
     0     -7.6451159     23  1.900                                                                 
     1     -4.0811372     23  1.900                                                                 
     1      2.4879257     23  1.900                                                                 
     2     -4.0817478      7  1.900                                                                 
  local pseudopotential read in
  partial core-charges read in
  partial kinetic energy density read in
  atomic valenz-charges read in
  non local Contribution for L=           0  read in
    real space projection operators read in
  non local Contribution for L=           0  read in
    real space projection operators read in
  non local Contribution for L=           1  read in
    real space projection operators read in
  non local Contribution for L=           1  read in
    real space projection operators read in
    PAW grid and wavefunctions read in
 
   number of l-projection  operators is LMAX  =           4
   number of lm-projection operators is LMMAX =           8
 
 POTCAR:    PAW_PBE Ge 05Jan2001                  
   VRHFIN =Ge: s2p2                                                                                 
   LEXCH  = PE                                                                                      
   EATOM  =   104.9960 eV,    7.7170 Ry                                                             
                                                                                                    
   TITEL  = PAW_PBE Ge 05Jan2001                                                                    
   LULTRA =        F    use ultrasoft PP ?                                                          
   IUNSCR =        1    unscreen: 0-lin 1-nonlin 2-no                                               
   RPACOR =    2.170    partial core radius                                                         
   POMASS =   72.610; ZVAL   =    4.000    mass and valenz                                          
   RCORE  =    2.300    outmost cutoff radius                                                       
   RWIGS  =    2.300; RWIGS  =    1.217    wigner-seitz radius (au A)                               
   ENMAX  =  173.807; ENMIN  =  130.355 eV                                                          
   ICORE  =        3    local potential                                                             
   LCOR   =        T    correct aug charges                                                         
   LPAW   =        T    paw PP                                                                      
   EAUG   =  385.843                                                                                
   DEXC   =    0.000                                                                                
   RMAX   =    2.342    core radius for proj-oper                                                   
   RAUG   =    1.300    factor for augmentation sphere                                              
   RDEP   =    2.318    radius for radial grids                                                     
   RDEPT  =    2.103    core radius for aug-charge                                                  
                                                                                                    
   Atomic configuration                                                                             
   10 entries                                                                                       
     n  l   j            E        occ.                                                              
     1  0  0.50    -10959.8463   2.0000                                                             
     2  0  0.50     -1371.6056   2.0000                                                             
     2  1  1.50     -1198.4791   6.0000                                                             
     3  0  0.50      -168.4733   2.0000                                                             
     3  1  1.50      -115.6019   6.0000                                                             
     3  2  2.50       -29.3106  10.0000                                                             
     4  0  0.50       -11.7309   2.0000                                                             
     4  1  0.50        -3.8952   2.0000                                                             
     4  2  1.50        -4.0817   0.0000                                                             
     4  3  2.50        -4.0817   0.0000                                                             
   Description                                                                                      
     l       E           TYP  RCUT    TYP  RCUT                                                     
     0    -11.7309493     23  2.300                                                                 
     0     -7.4578696     23  2.300                                                                 
     1     -3.8952261     23  2.300                                                                 
     1      6.1178114     23  2.300                                                                 
     2     -4.0817478     23  2.300                                                                 
     3     -1.3605826      7  2.300                                                                 
  local pseudopotential read in
  partial core-charges read in
  partial kinetic energy density read in
  atomic valenz-charges read in
  non local Contribution for L=           0  read in
    real space projection operators read in
  non local Contribution for L=           0  read in
    real space projection operators read in
  non local Contribution for L=           1  read in
    real space projection operators read in
  non local Contribution for L=           1  read in
    real space projection operators read in
  non local Contribution for L=           2  read in
    real space projection operators read in
    PAW grid and wavefunctions read in
 
   number of l-projection  operators is LMAX  =           5
   number of lm-projection operators is LMMAX =          13
 
 Optimization of the real space projectors (new method)

 maximal supplied QI-value         = 19.84
 optimisation between [QCUT,QGAM] = [ 13.49, 26.99] = [ 50.98,203.92] Ry 
 Optimized for a Real-space Cutoff    1.07 Angstroem

   l    n(q)    QCUT    max X(q) W(low)/X(q) W(high)/X(q)  e(spline) 
   0      9    13.493   159.560    0.22E-03    0.15E-03    0.72E-07
   0      9    13.493   115.863    0.21E-03    0.15E-03    0.71E-07
   1      8    13.493    88.339    0.15E-03    0.11E-03    0.13E-06
   1      8    13.493    48.592    0.15E-03    0.10E-03    0.13E-06
 Optimization of the real space projectors (new method)

 maximal supplied QI-value         = 16.25
 optimisation between [QCUT,QGAM] = [ 13.49, 26.98] = [ 50.95,203.80] Ry 
 Optimized for a Real-space Cutoff    1.25 Angstroem

   l    n(q)    QCUT    max X(q) W(low)/X(q) W(high)/X(q)  e(spline) 
   0     10    13.489    65.336    0.91E-04    0.11E-03    0.34E-06
   0     10    13.489    52.220    0.89E-04    0.11E-03    0.34E-06
   1     10    13.489    36.409    0.22E-03    0.27E-03    0.14E-06
   1     10    13.489    21.334    0.21E-03    0.27E-03    0.14E-06
   2      9    13.489     4.673    0.11E-03    0.12E-03    0.19E-06
  PAW_PBE Si 05Jan2001                  :
 energy of atom  1       EATOM= -103.0669
 kinetic energy error for atom=    0.0003 (will be added to EATOM!!)
  PAW_PBE Ge 05Jan2001                  :
 energy of atom  2       EATOM= -104.9960
 kinetic energy error for atom=    0.0001 (will be added to EATOM!!)
 
 
 POSCAR: Si+Ge
  positions in direct lattice
  No initial velocities read in


 exchange-correlation table for PE
   RHO(1)=    0.500       N(1)  =     2000
   RHO(2)=  100.500       N(2)  =     4000
 


--------------------------------------------------------------------------------------------------------


 ion  position               nearest neighbor table
   1  0.979  0.986  0.000-  49 2.35  67 2.35  56 2.35 117 2.40
   2  0.729  0.819  0.092-  50 2.35  68 2.35  57 2.35  49 2.35
   3  0.479  0.652  0.185-  51 2.35  69 2.35  58 2.35  50 2.35
   4  0.229  0.486  0.277-  52 2.35  51 2.35  70 2.35  59 2.35
   5  0.979  0.319  0.369-  53 2.35  71 2.35  60 2.35  52 2.35
   6  0.729  0.152  0.461-  72 2.35  54 2.35  53 2.35  79 2.42
   7  0.979  0.319  0.000-  37 2.35  55 2.35  62 2.35
   8  0.729  0.152  0.092-  38 2.35  63 2.35  37 2.35  56 2.35
   9  0.479  0.986  0.185-  64 2.35  39 2.35  57 2.35  38 2.35
  10  0.229  0.819  0.277-  39 2.35  40 2.35  65 2.35  58 2.35
  11  0.979  0.652  0.369-  41 2.35  59 2.35  66 2.35  40 2.35
  12  0.729  0.486  0.461-  60 2.35  42 2.35  41 2.35 100 2.40
  13  0.979  0.652  0.000-  68 2.35  43 2.35  61 2.35  96 2.42
  14  0.729  0.486  0.092-  44 2.35  62 2.35  69 2.35  43 2.35
  15  0.479  0.319  0.185-  70 2.35  45 2.35  63 2.35  44 2.35
  16  0.229  0.152  0.277-  45 2.35  71 2.35  46 2.35  64 2.35
  17  0.979  0.986  0.369-  47 2.35  72 2.35  65 2.35  46 2.35
  18  0.729  0.819  0.461-  66 2.35  48 2.35  47 2.35
  19  0.479  0.986  0.000-  67 2.35  38 2.35  49 2.35  87 2.40
  20  0.229  0.819  0.092-  68 2.35  50 2.35  39 2.35  67 2.35
  21  0.979  0.652  0.185-  51 2.35  69 2.35  40 2.35  68 2.35
  22  0.729  0.486  0.277-  69 2.35  70 2.35  52 2.35  41 2.35
  23  0.479  0.319  0.369-  42 2.35  71 2.35  53 2.35  70 2.35
  24  0.229  0.152  0.461-  72 2.35  54 2.35  71 2.35 106 2.42
  25  0.479  0.319  0.000-  44 2.35  55 2.35  37 2.35
  26  0.229  0.152  0.092-  45 2.35  55 2.35  56 2.35  38 2.35
  27  0.979  0.986  0.185-  46 2.35  56 2.35  39 2.35  57 2.35
  28  0.729  0.819  0.277-  57 2.35  58 2.35  40 2.35  47 2.35
  29  0.479  0.652  0.369-  48 2.35  59 2.35  41 2.35  58 2.35
  30  0.229  0.486  0.461-  59 2.35  60 2.35  42 2.35  82 2.40
  31  0.479  0.652  0.000-  50 2.35  61 2.35  43 2.35 114 2.42
  32  0.229  0.486  0.092-  62 2.35  51 2.35  44 2.35  61 2.35
  33  0.979  0.319  0.185-  52 2.35  45 2.35  63 2.35  62 2.35
  34  0.729  0.152  0.277-  63 2.35  64 2.35  46 2.35  53 2.35
  35  0.479  0.986  0.369-  54 2.35  65 2.35  47 2.35  64 2.35
  36  0.229  0.819  0.461-  66 2.35  48 2.35  65 2.35
  37  0.729  0.236  0.000- 111 2.33   7 2.35   8 2.35  25 2.35
  38  0.479  0.069  0.092-  19 2.35   8 2.35   9 2.35  26 2.35
  39  0.229  0.902  0.185-  10 2.35   9 2.35  20 2.35  27 2.35
  40  0.979  0.736  0.277-  21 2.35  10 2.35  28 2.35  11 2.35
  41  0.729  0.569  0.369-  11 2.35  29 2.35  22 2.35  12 2.35
  42  0.479  0.402  0.461-  23 2.35  12 2.35  30 2.35  82 2.36
  43  0.729  0.569  0.000-  13 2.35  31 2.35  14 2.35  93 3.01
  44  0.479  0.402  0.092-  14 2.35  25 2.35  32 2.35  15 2.35
  45  0.229  0.236  0.185-  15 2.35  16 2.35  33 2.35  26 2.35
  46  0.979  0.069  0.277-  16 2.35  34 2.35  27 2.35  17 2.35
  47  0.729  0.902  0.369-  17 2.35  35 2.35  28 2.35  18 2.35
  48  0.479  0.736  0.461- 103 2.33  29 2.35  18 2.35  36 2.35
  49  0.729  0.902  0.000-   1 2.35  19 2.35   2 2.35  87 2.36
  50  0.479  0.736  0.092-   2 2.35  31 2.35  20 2.35   3 2.35
  51  0.229  0.569  0.185-   3 2.35  21 2.35   4 2.35  32 2.35
  52  0.979  0.402  0.277-   4 2.35  22 2.35  33 2.35   5 2.35
  53  0.729  0.236  0.369-   5 2.35  23 2.35  34 2.35   6 2.35
  54  0.479  0.069  0.461-  35 2.35   6 2.35  24 2.35  76 3.01
  55  0.229  0.236  0.000-  90 2.33  25 2.35   7 2.35  26 2.35
  56  0.979  0.069  0.092-   1 2.35  27 2.35   8 2.35  26 2.35
  57  0.729  0.902  0.185-  28 2.35   2 2.35   9 2.35  27 2.35
  58  0.479  0.736  0.277-   3 2.35  28 2.35  10 2.35  29 2.35
  59  0.229  0.569  0.369-  11 2.35  29 2.35   4 2.35  30 2.35
  60  0.979  0.402  0.461-   5 2.35  12 2.35  30 2.35 100 2.36
  61  0.229  0.569  0.000-  13 2.35  31 2.35  32 2.35 120 3.01
  62  0.979  0.402  0.092-  14 2.35  32 2.35   7 2.35  33 2.35
  63  0.729  0.236  0.185-  34 2.35  15 2.35  33 2.35   8 2.35
  64  0.479  0.069  0.277-   9 2.35  34 2.35  16 2.35  35 2.35
  65  0.229  0.902  0.369-  17 2.35  35 2.35  10 2.35  36 2.35
  66  0.979  0.736  0.461-  73 2.33  18 2.35  11 2.35  36 2.35
  67  0.229  0.902  0.000-   1 2.35  19 2.35  20 2.35 117 2.36
  68  0.979  0.736  0.092-   2 2.35  20 2.35  13 2.35  21 2.35
  69  0.729  0.569  0.185-   3 2.35  22 2.35  21 2.35  14 2.35
  70  0.479  0.402  0.277-  15 2.35  22 2.35   4 2.35  23 2.35
  71  0.229  0.236  0.369-   5 2.35  23 2.35  16 2.35  24 2.35
  72  0.979  0.069  0.461-   6 2.35  17 2.35  24 2.35  97 3.01
  73  0.864  0.696  0.561-  66 2.33  85 2.38 115 2.38
  74  0.614  0.321  0.697-  86 2.38 116 2.38 118 2.48  94 2.48
  75  0.364  0.946  0.833-  87 2.38 117 2.38  95 2.48 119 2.48
  76  0.364  0.946  0.561- 109 2.38  88 2.38  54 3.01
  77  0.114  0.571  0.697-  89 2.38 110 2.38  85 2.48 112 2.48
  78  0.864  0.196  0.833- 111 2.38  90 2.38  86 2.48 113 2.48
  79  0.864  0.196  0.561-  91 2.38 118 2.38   6 2.42
  80  0.614  0.821  0.697-  92 2.38 119 2.38  88 2.48 115 2.48
  81  0.364  0.446  0.833-  93 2.38 120 2.38  89 2.48 116 2.48
  82  0.364  0.446  0.561-  42 2.36  94 2.38 112 2.38  30 2.40
  83  0.114  0.071  0.697-  95 2.38 113 2.38  91 2.48 109 2.48
  84  0.864  0.696  0.833-  96 2.38 114 2.38 110 2.48  92 2.48
  85  0.114  0.696  0.629-  73 2.38 103 2.38  77 2.48 107 2.48
  86  0.864  0.321  0.765-  74 2.38 104 2.38  78 2.48 108 2.48
  87  0.614  0.946  0.901-  49 2.36  75 2.38 105 2.38  19 2.40
  88  0.614  0.946  0.629-  76 2.38  97 2.38  80 2.48 101 2.48
  89  0.364  0.571  0.765-  77 2.38  98 2.38  81 2.48 102 2.48
  90  0.114  0.196  0.901-  55 2.33  78 2.38  99 2.38
  91  0.114  0.196  0.629-  79 2.38 106 2.38 104 2.48  83 2.48
  92  0.864  0.821  0.765-  80 2.38 107 2.38 105 2.48  84 2.48
  93  0.614  0.446  0.901-  81 2.38 108 2.38  43 3.01
  94  0.614  0.446  0.629-  82 2.38 100 2.38  74 2.48  98 2.48
  95  0.364  0.071  0.765-  83 2.38 101 2.38  99 2.48  75 2.48
  96  0.114  0.696  0.901-  84 2.38 102 2.38  13 2.42
  97  0.864  0.946  0.561-  88 2.38 109 2.38  72 3.01
  98  0.614  0.571  0.697- 110 2.38  89 2.38 115 2.48  94 2.48
  99  0.364  0.196  0.833- 111 2.38  90 2.38 116 2.48  95 2.48
 100  0.864  0.446  0.561-  60 2.36 112 2.38  94 2.38  12 2.40
 101  0.614  0.071  0.697-  95 2.38 113 2.38 118 2.48  88 2.48
 102  0.364  0.696  0.833-  96 2.38 114 2.38  89 2.48 119 2.48
 103  0.364  0.696  0.561-  48 2.33  85 2.38 115 2.38
 104  0.114  0.321  0.697-  86 2.38 116 2.38 112 2.48  91 2.48
 105  0.864  0.946  0.833-  87 2.38 117 2.38 113 2.48  92 2.48
 106  0.364  0.196  0.561-  91 2.38 118 2.38  24 2.42
 107  0.114  0.821  0.697-  92 2.38 119 2.38 109 2.48  85 2.48
 108  0.864  0.446  0.833-  93 2.38 120 2.38 110 2.48  86 2.48
 109  0.114  0.946  0.629-  76 2.38  97 2.38 107 2.48  83 2.48
 110  0.864  0.571  0.765-  98 2.38  77 2.38  84 2.48 108 2.48
 111  0.614  0.196  0.901-  37 2.33  78 2.38  99 2.38
 112  0.114  0.446  0.629- 100 2.38  82 2.38 104 2.48  77 2.48
 113  0.864  0.071  0.765-  83 2.38 101 2.38  78 2.48 105 2.48
 114  0.614  0.696  0.901-  84 2.38 102 2.38  31 2.42
 115  0.614  0.696  0.629-  73 2.38 103 2.38  98 2.48  80 2.48
 116  0.364  0.321  0.765-  74 2.38 104 2.38  99 2.48  81 2.48
 117  0.114  0.946  0.901-  67 2.36  75 2.38 105 2.38   1 2.40
 118  0.614  0.196  0.629-  79 2.38 106 2.38  74 2.48 101 2.48
 119  0.364  0.821  0.765-  80 2.38 107 2.38  75 2.48 102 2.48
 120  0.114  0.446  0.901-  81 2.38 108 2.38  61 3.01
 
  LATTYP: Found a simple orthorhombic cell.
 ALAT       =     7.6805944440
 B/A-ratio  =     2.1213200862
 C/A-ratio  =     2.7086627530
  
  Lattice vectors:
  
 A1 = (   7.6805944440,   0.0000000000,   0.0000000000)
 A2 = (   0.0000000000,  16.2929992680,   0.0000000000)
 A3 = (   0.0000000000,   0.0000000000,  20.8041400910)


Analysis of symmetry for initial positions (statically):
=====================================================================
 Subroutine PRICEL returns following result:
 
  LATTYP: Found a simple orthorhombic cell.
 ALAT       =     3.8402972220
 B/A-ratio  =     4.2426401724
 C/A-ratio  =     5.4173255059
  
  Lattice vectors:
  
 A1 = (   3.8402972220,   0.0000000000,   0.0000000000)
 A2 = (   0.0000000000,  16.2929992680,   0.0000000000)
 A3 = (   0.0000000000,   0.0000000000,  20.8041400910)
 
   2 primitive cells build up your supercell.
 

 Routine SETGRP: Setting up the symmetry group for a 
 simple orthorhombic supercell.


 Subroutine GETGRP returns: Found  2 space group operations
 (whereof  1 operations were pure point group operations)
 out of a pool of  8 trial point group operations.


The static configuration has the point symmetry C_1 .
 The point group associated with its full space group is C_1h.


Analysis of symmetry for dynamics (positions and initial velocities):
=====================================================================
 Subroutine PRICEL returns following result:
 
  LATTYP: Found a simple orthorhombic cell.
 ALAT       =     3.8402972220
 B/A-ratio  =     4.2426401724
 C/A-ratio  =     5.4173255059
  
  Lattice vectors:
  
 A1 = (   3.8402972220,   0.0000000000,   0.0000000000)
 A2 = (   0.0000000000,  16.2929992680,   0.0000000000)
 A3 = (   0.0000000000,   0.0000000000,  20.8041400910)
 
   2 primitive cells build up your supercell.
 

 Routine SETGRP: Setting up the symmetry group for a 
 simple orthorhombic supercell.


 Subroutine GETGRP returns: Found  2 space group operations
 (whereof  1 operations were pure point group operations)
 out of a pool of  8 trial point group operations.


The dynamic configuration has the point symmetry C_1 .
 The point group associated with its full space group is C_1h.


Analysis of structural, dynamic, and magnetic symmetry:
=====================================================================
 Subroutine PRICEL returns following result:
 
  LATTYP: Found a simple orthorhombic cell.
 ALAT       =     3.8402972220
 B/A-ratio  =     4.2426401724
 C/A-ratio  =     5.4173255059
  
  Lattice vectors:
  
 A1 = (   3.8402972220,   0.0000000000,   0.0000000000)
 A2 = (   0.0000000000,  16.2929992680,   0.0000000000)
 A3 = (   0.0000000000,   0.0000000000,  20.8041400910)
 
   2 primitive cells build up your supercell.
 

 Routine SETGRP: Setting up the symmetry group for a 
 simple orthorhombic supercell.


 Subroutine GETGRP returns: Found  2 space group operations
 (whereof  1 operations were pure point group operations)
 out of a pool of  8 trial point group operations.


The overall configuration has the point symmetry C_1 .
 The point group associated with its full space group is C_1h.


 Subroutine INISYM returns: Found  2 space group operations
 (whereof  1 operations are pure point group operations),
 and found     2 'primitive' translations


----------------------------------------------------------------------------------------

                                     Primitive cell                                     

  volume of cell :    1301.7142

  direct lattice vectors                    reciprocal lattice vectors
     3.840297222  0.000000000  0.000000000     0.260396512  0.000000000  0.000000000
     0.000000000 16.292999268  0.000000000     0.000000000  0.061376054  0.000000000
     0.000000000  0.000000000 20.804140091     0.000000000  0.000000000  0.048067356

  length of vectors
     3.840297222 16.292999268 20.804140091     0.260396512  0.061376054  0.048067356

  position of ions in fractional coordinates (direct lattice)
     0.957034588  0.985678196  0.000000001
     0.457034498  0.819011450  0.092296474
     0.957034468  0.652344763  0.184592947
     0.457034468  0.485678136  0.276889384
     0.957034350  0.319011390  0.369185865
     0.457034230  0.152344704  0.461482346
     0.957034588  0.319011539  0.000000001
     0.457034498  0.152344853  0.092296474
     0.957034468  0.985678136  0.184592947
     0.457034468  0.819011509  0.276889384
     0.957034350  0.652344763  0.369185865
     0.457034230  0.485678077  0.461482346
     0.957034588  0.652344942  0.000000001
     0.457034498  0.485678196  0.092296474
     0.957034468  0.319011509  0.184592947
     0.457034468  0.152344868  0.276889384
     0.957034350  0.985678136  0.369185865
     0.457034230  0.819011390  0.461482346
     0.457034708  0.235678196  0.000000000
     0.957034468  0.069011487  0.092296474
     0.457034528  0.902344763  0.184592947
     0.957034588  0.735678136  0.276889384
     0.457034350  0.569011450  0.369185865
     0.957034112  0.402344644  0.461482346
     0.457034708  0.569011629  0.000000000
     0.957034468  0.402344882  0.092296474
     0.457034528  0.235678196  0.184592947
     0.957034588  0.069011539  0.276889384
     0.457034350  0.902344823  0.369185865
     0.957034112  0.735678077  0.461482346
     0.457034708  0.902344942  0.000000000
     0.957034468  0.735678196  0.092296474
     0.457034528  0.569011509  0.184592947
     0.957034588  0.402344853  0.276889384
     0.457034350  0.235678121  0.369185865
     0.957034112  0.069011383  0.461482346
     0.728642940  0.696336031  0.560769081
     0.228642940  0.321336150  0.696746767
     0.728642940  0.946336150  0.832724512
     0.728642940  0.946336091  0.560769081
     0.228642940  0.571336091  0.696746767
     0.728642940  0.196336150  0.832724512
     0.728642940  0.196336150  0.560769081
     0.228642940  0.821336091  0.696746767
     0.728642940  0.446336150  0.832724512
     0.728642940  0.446336091  0.560769081
     0.228642940  0.071336150  0.696746767
     0.728642940  0.696336091  0.832724512
     0.228642940  0.696336031  0.628757894
     0.728642940  0.321336091  0.764735699
     0.228642940  0.946336031  0.900713384
     0.228643178  0.946336091  0.628757894
     0.728642940  0.571336150  0.764735699
     0.228642940  0.196336031  0.900713384
     0.228642940  0.196336150  0.628757894
     0.728642940  0.821336150  0.764735699
     0.228642940  0.446336091  0.900713384
     0.228642940  0.446336091  0.628757894
     0.728642940  0.071336150  0.764735699
     0.228642940  0.696336091  0.900713384

  ion indices of the primitive-cell ions
   primitive index   ion index
                 1           1
                 2          20
                 3          21
                 4           4
                 5           5
                 6          24
                 7           7
                 8          26
                 9          27
                10          10
                11          11
                12          30
                13          13
                14          32
                15          33
                16          16
                17          17
                18          36
                19          37
                20          56
                21          39
                22          40
                23          59
                24          60
                25          43
                26          62
                27          45
                28          46
                29          65
                30          66
                31          49
                32          68
                33          51
                34          52
                35          71
                36          72
                37          73
                38         104
                39         105
                40          97
                41          77
                42          78
                43          79
                44         107
                45         108
                46         100
                47          83
                48          84
                49          85
                50          86
                51         117
                52         109
                53         110
                54          90
                55          91
                56          92
                57         120
                58         112
                59         113
                60          96

----------------------------------------------------------------------------------------

 
 
 KPOINTS: Automatic KPOINTS generated             

Automatic generation of k-mesh.
 Grid dimensions read from file:
 generate k-points for:    4    2    2

 Generating k-lattice:

  Cartesian coordinates                     Fractional coordinates (reciprocal lattice)
     0.032549564  0.000000000  0.000000000     0.250000000  0.000000000  0.000000000
     0.000000000  0.030688027  0.000000000     0.000000000  0.500000000  0.000000000
     0.000000000  0.000000000  0.024033678     0.000000000  0.000000000  0.500000000

  Length of vectors
     0.032549564  0.030688027  0.024033678

  Shift w.r.t. Gamma in fractional coordinates (k-lattice)
     0.000000000  0.000000000  0.000000000

 
 Subroutine IBZKPT returns following result:
 ===========================================
 
 Found     12 irreducible k-points:
 
 Following reciprocal coordinates:
            Coordinates               Weight
  0.000000  0.000000  0.000000      1.000000
  0.250000  0.000000  0.000000      2.000000
  0.500000  0.000000  0.000000      1.000000
  0.000000  0.500000  0.000000      1.000000
  0.250000  0.500000  0.000000      2.000000
  0.500000  0.500000  0.000000      1.000000
  0.000000  0.000000  0.500000      1.000000
  0.250000  0.000000  0.500000      2.000000
  0.500000  0.000000  0.500000      1.000000
  0.000000  0.500000  0.500000      1.000000
  0.250000  0.500000  0.500000      2.000000
  0.500000  0.500000  0.500000      1.000000
 
 Following cartesian coordinates:
            Coordinates               Weight
  0.000000  0.000000  0.000000      1.000000
  0.032550  0.000000  0.000000      2.000000
  0.065099  0.000000  0.000000      1.000000
  0.000000  0.030688  0.000000      1.000000
  0.032550  0.030688  0.000000      2.000000
  0.065099  0.030688  0.000000      1.000000
  0.000000  0.000000  0.024034      1.000000
  0.032550  0.000000  0.024034      2.000000
  0.065099  0.000000  0.024034      1.000000
  0.000000  0.030688  0.024034      1.000000
  0.032550  0.030688  0.024034      2.000000
  0.065099  0.030688  0.024034      1.000000
 


--------------------------------------------------------------------------------------------------------




 Dimension of arrays:
   k-points           NKPTS =     12   k-points in BZ     NKDIM =     12   number of bands    NBANDS=    288
   number of dos      NEDOS =    301   number of ions     NIONS =    120
   non local maximal  LDIM  =      5   non local SUM 2l+1 LMDIM =     13
   total plane-waves  NPLWV = 756000
   max r-space proj   IRMAX =   2403   max aug-charges    IRDMAX= 126445
   dimension x,y,z NGX =    50 NGY =  108 NGZ =  140
   dimension x,y,z NGXF=   100 NGYF=  216 NGZF=  280
   support grid    NGXF=   200 NGYF=  432 NGZF=  560
   ions per type =              72  48
   NGX,Y,Z   is equivalent  to a cutoff of  10.82, 11.02, 11.19 a.u.
   NGXF,Y,Z  is equivalent  to a cutoff of  21.64, 22.04, 22.37 a.u.

 SYSTEM =  Si and Ge interface calculation         
 POSCAR =  Si+Ge                                   

 Startparameter for this run:
   NWRITE =      2    write-flag & timer
   PREC   = normal    normal or accurate (medium, high low for compatibility)
   ISTART =      0    job   : 0-new  1-cont  2-samecut
   ICHARG =      2    charge: 1-file 2-atom 10-const
   ISPIN  =      2    spin polarized calculation?
   LNONCOLLINEAR =      F non collinear calculations
   LSORBIT =      F    spin-orbit coupling
   INIWAV =      1    electr: 0-lowe 1-rand  2-diag
   LASPH  =      T    aspherical Exc in radial PAW
 Electronic Relaxation 1
   ENCUT  =  700.0 eV  51.45 Ry    7.17 a.u.  16.57 35.15 44.88*2*pi/ulx,y,z
   ENINI  =  700.0     initial cutoff
   ENAUG  =  900.0 eV  augmentation charge cutoff
   NELM   =    100;   NELMIN=  2; NELMDL= -5     # of ELM steps 
   EDIFF  = 0.1E-06   stopping-criterion for ELM
   LREAL  =      T    real-space projection
   NLSPLINE    = F    spline interpolate recip. space projectors
   LCOMPAT=      F    compatible to vasp.4.4
   GGA_COMPAT  = T    GGA compatible to vasp.4.4-vasp.4.6
   LMAXPAW     = -100 max onsite density
   LMAXMIX     =    6 max onsite mixed and CHGCAR
   VOSKOWN=      0    Vosko Wilk Nusair interpolation
   ROPT   =   -0.00050  -0.00050
 Ionic relaxation
   EDIFFG = 0.1E-05   stopping-criterion for IOM
   NSW    =      0    number of steps for IOM
   NBLOCK =      1;   KBLOCK =      1    inner block; outer block 
   IBRION =     -1    ionic relax: 0-MD 1-quasi-New 2-CG
   NFREE  =      0    steps in history (QN), initial steepest desc. (CG)
   ISIF   =      2    stress and relaxation
   IWAVPR =     10    prediction:  0-non 1-charg 2-wave 3-comb
   ISYM   =      2    0-nonsym 1-usesym 2-fastsym
   LCORR  =      T    Harris-Foulkes like correction to forces

   POTIM  = 0.5000    time-step for ionic-motion
   TEIN   =    0.0    initial temperature
   TEBEG  =    0.0;   TEEND  =   0.0 temperature during run
   SMASS  =  -3.00    Nose mass-parameter (am)
   estimated Nose-frequenzy (Omega)   =  0.10E-29 period in steps = 0.13E+47 mass=  -0.135E-26a.u.
   SCALEE = 1.0000    scale energy and forces
   NPACO  =    256;   APACO  = 10.0  distance and # of slots for P.C.
   PSTRESS=    0.0 pullay stress

  Mass of Ions in am
   POMASS =  28.09 72.61
  Ionic Valenz
   ZVAL   =   4.00  4.00
  Atomic Wigner-Seitz radii
   RWIGS  =  -1.00 -1.00
  virtual crystal weights 
   VCA    =   1.00  1.00
   NELECT =     480.0000    total number of electrons
   NUPDOWN=       1.0000    fix difference up-down

 DOS related values:
   EMIN   =  10.00;   EMAX   =-10.00  energy-range for DOS
   EFERMI =   0.00;   METHOD = LEGACY      
   ISMEAR =     0;   SIGMA  =   0.01  broadening in eV -4-tet -1-fermi 0-gaus

 Electronic relaxation 2 (details)
   IALGO  =     38    algorithm
   LDIAG  =      T    sub-space diagonalisation (order eigenvalues)
   LSUBROT=      F    optimize rotation matrix (better conditioning)
   TURBO    =      0    0=normal 1=particle mesh
   IRESTART =      0    0=no restart 2=restart with 2 vectors
   NREBOOT  =      0    no. of reboots
   NMIN     =      0    reboot dimension
   EREF     =   0.00    reference energy to select bands
   IMIX   =      4    mixing-type and parameters
     AMIX     =   0.60;   BMIX     =  1.00
     AMIX_MAG =   2.40;   BMIX_MAG =  1.00
     AMIN     =   0.10
     WC   =   100.;   INIMIX=   1;  MIXPRE=   1;  MAXMIX= -45

 Intra band minimization:
   WEIMIN = 0.0000     energy-eigenvalue tresh-hold
   EBREAK =  0.87E-10  absolut break condition
   DEPER  =   0.30     relativ break condition  

   TIME   =   0.40     timestep for ELM

  volume/ion in A,a.u.               =      21.70       146.41
  Fermi-wavevector in a.u.,A,eV,Ry     =   0.931766  1.760782 11.812404  0.868187
  Thomas-Fermi vector in A             =   2.058293
 
 Write flags
   LWAVE        =      F    write WAVECAR
   LDOWNSAMPLE  =      F    k-point downsampling of WAVECAR
   LCHARG       =      T    write CHGCAR
   LVTOT        =      F    write LOCPOT, total local potential
   LVHAR        =      T    write LOCPOT, Hartree potential only
   WRT_POTENTIAL=  hartree ionic  ! write potential to hdf5 file
   LELF         =      F    write electronic localiz. function (ELF)
   LORBIT       =      0    0 simple, 1 ext, 2 COOP (PROOUT), +10 PAW based schemes


 Dipole corrections
   LMONO      =      F    monopole corrections only (constant potential shift)
   LDIPOL     =      F    correct potential (dipole corrections)
   IDIPOL     =      0    1-x, 2-y, 3-z, 4-all directions 
   EPSILON    =  1.0000000 bulk dielectric constant
   LVACPOTAV  =      F  vacuum potentials using an averaging scheme for the charge density
   VACPOTFLAT =  0.1000000 required flatness to determine vacuum potential
 Exchange correlation treatment:
   GGA     = PE    functional components
   XC_C    = 1    coefficients multiplying the functional components
   LIBXC   =     F    Libxc                    
   VOSKOWN =     0    Vosko Wilk Nusair interpolation
   LHFCALC =     F    Hartree Fock is set to
   LHFONE  =     F    Hartree Fock one center treatment
   AEXX    =    0.0000 exact exchange contribution

 Parameters of functionals:
   PE:
     No parameter
 
 Van der Waals corrections
   IVDW    =     0    specifies the selected vdW correction

 Linear response parameters
   LEPSILON=     F    determine dielectric tensor
   LRPA    =     F    only Hartree local field effects (RPA)
   LNABLA  =     F    use nabla operator in PAW spheres
   LVEL    =     F    velocity operator in full k-point grid
   CSHIFT  =0.1000    complex shift for real part using Kramers Kronig
   OMEGAMAX=  -1.0    maximum frequency
   DEG_THRESHOLD= 0.2000000E-02 threshold for treating states as degnerate
   RTIME   =   -0.100 relaxation time in fs
  (WPLASMAI=    0.000 imaginary part of plasma frequency in eV, 0.658/RTIME)
   DFIELD  = 0.0000000 0.0000000 0.0000000 field for delta impulse in time
 
  Optional k-point grid parameters
   LKPOINTS_OPT  =     F    use optional k-point grid
   KPOINTS_OPT_MODE=     1    mode for optional k-point grid
 
 Orbital magnetization related:
   ORBITALMAG=     F  switch on orbital magnetization
   LCHIMAG   =     F  perturbation theory with respect to B field
   DQ        =  0.001000  dq finite difference perturbation B field
   LLRAUG    =     F  two centre corrections for induced B field
   LBONE     =     F  B-component reconstruction in AE one-centre
   LVGVCALC  =     T  calculate vGv susceptibility
   LVGVAPPL  =     F  apply vGv susceptibility instead of pGv for G=0

 Random number generation:
   RANDOM_GENERATOR = DEFAULT
   PCG_SEED         = not used


--------------------------------------------------------------------------------------------------------


 Static calculation
 charge density and potential will be updated during run
 spin polarized calculation
 Variant of blocked Davidson
 Davidson routine will perform the subspace rotation
 perform sub-space diagonalisation
    after iterative eigenvector-optimisation
 modified Broyden-mixing scheme, WC =      100.0
 initial mixing is a Kerker type mixing with AMIX =  0.6000 and BMIX =      1.0000
 Hartree-type preconditioning will be used
 using additional bands           48
 real space projection scheme for non local part
 use partial core corrections
 calculate Harris-corrections to forces 
   (improved forces if not selfconsistent)
 use gradient corrections 
 use of overlap-Matrix (Vanderbilt PP)
 Gauss-broadening in eV      SIGMA  =   0.01


--------------------------------------------------------------------------------------------------------


  energy-cutoff  :      700.00
  volume of cell :     2603.43
      direct lattice vectors                 reciprocal lattice vectors
     7.680594444  0.000000000  0.000000000     0.130198256  0.000000000  0.000000000
     0.000000000 16.292999268  0.000000000     0.000000000  0.061376054  0.000000000
     0.000000000  0.000000000 20.804140091     0.000000000  0.000000000  0.048067356

  length of vectors
     7.680594444 16.292999268 20.804140091     0.130198256  0.061376054  0.048067356


 
 k-points in units of 2pi/SCALE and weight: Automatic KPOINTS generated             
   0.00000000  0.00000000  0.00000000       0.062
   0.03254956  0.00000000  0.00000000       0.125
   0.06509913  0.00000000  0.00000000       0.062
   0.00000000  0.03068803  0.00000000       0.062
   0.03254956  0.03068803  0.00000000       0.125
   0.06509913  0.03068803  0.00000000       0.062
   0.00000000  0.00000000  0.02403368       0.062
   0.03254956  0.00000000  0.02403368       0.125
   0.06509913  0.00000000  0.02403368       0.062
   0.00000000  0.03068803  0.02403368       0.062
   0.03254956  0.03068803  0.02403368       0.125
   0.06509913  0.03068803  0.02403368       0.062
 
 k-points in reciprocal lattice and weights: Automatic KPOINTS generated             
   0.00000000  0.00000000  0.00000000       0.062
   0.25000000  0.00000000  0.00000000       0.125
   0.50000000  0.00000000  0.00000000       0.062
   0.00000000  0.50000000  0.00000000       0.062
   0.25000000  0.50000000  0.00000000       0.125
   0.50000000  0.50000000  0.00000000       0.062
   0.00000000  0.00000000  0.50000000       0.062
   0.25000000  0.00000000  0.50000000       0.125
   0.50000000  0.00000000  0.50000000       0.062
   0.00000000  0.50000000  0.50000000       0.062
   0.25000000  0.50000000  0.50000000       0.125
   0.50000000  0.50000000  0.50000000       0.062
 
 position of ions in fractional coordinates (direct lattice) 
   0.97851729  0.98567820  0.00000000
   0.72851723  0.81901145  0.09229647
   0.47851718  0.65234476  0.18459295
   0.22851723  0.48567814  0.27688938
   0.97851718  0.31901139  0.36918586
   0.72851718  0.15234470  0.46148235
   0.97851729  0.31901154  0.00000000
   0.72851723  0.15234485  0.09229647
   0.47851718  0.98567814  0.18459295
   0.22851723  0.81901151  0.27688938
   0.97851718  0.65234476  0.36918586
   0.72851718  0.48567808  0.46148235
   0.97851729  0.65234494  0.00000000
   0.72851723  0.48567820  0.09229647
   0.47851718  0.31901151  0.18459295
   0.22851723  0.15234487  0.27688938
   0.97851718  0.98567814  0.36918586
   0.72851718  0.81901139  0.46148235
   0.47851729  0.98567820  0.00000000
   0.22851725  0.81901145  0.09229647
   0.97851723  0.65234476  0.18459295
   0.72851729  0.48567814  0.27688935
   0.47851718  0.31901139  0.36918586
   0.22851712  0.15234470  0.46148235
   0.47851729  0.31901154  0.00000000
   0.22851725  0.15234485  0.09229647
   0.97851723  0.98567814  0.18459295
   0.72851729  0.81901151  0.27688935
   0.47851718  0.65234476  0.36918586
   0.22851712  0.48567808  0.46148235
   0.47851729  0.65234494  0.00000000
   0.22851725  0.48567820  0.09229647
   0.97851723  0.31901151  0.18459295
   0.72851729  0.15234487  0.27688935
   0.47851718  0.98567814  0.36918586
   0.22851712  0.81901139  0.46148235
   0.72851735  0.23567820  0.00000000
   0.47851729  0.06901149  0.09229647
   0.22851726  0.90234476  0.18459295
   0.97851729  0.73567814  0.27688938
   0.72851723  0.56901145  0.36918586
   0.47851723  0.40234464  0.46148229
   0.72851735  0.56901163  0.00000000
   0.47851729  0.40234488  0.09229647
   0.22851726  0.23567820  0.18459295
   0.97851729  0.06901154  0.27688938
   0.72851723  0.90234482  0.36918586
   0.47851723  0.73567808  0.46148229
   0.72851735  0.90234494  0.00000000
   0.47851729  0.73567820  0.09229647
   0.22851726  0.56901151  0.18459295
   0.97851729  0.40234485  0.27688938
   0.72851723  0.23567812  0.36918586
   0.47851723  0.06901138  0.46148229
   0.22851729  0.23567820  0.00000000
   0.97851723  0.06901149  0.09229647
   0.72851718  0.90234476  0.18459295
   0.47851729  0.73567814  0.27688935
   0.22851718  0.56901145  0.36918586
   0.97851706  0.40234464  0.46148235
   0.22851729  0.56901163  0.00000000
   0.97851723  0.40234488  0.09229647
   0.72851718  0.23567820  0.18459295
   0.47851729  0.06901154  0.27688935
   0.22851718  0.90234482  0.36918586
   0.97851706  0.73567808  0.46148235
   0.22851729  0.90234494  0.00000000
   0.97851723  0.73567820  0.09229647
   0.72851718  0.56901151  0.18459295
   0.47851729  0.40234485  0.27688935
   0.22851718  0.23567812  0.36918586
   0.97851706  0.06901138  0.46148235
   0.86432147  0.69633603  0.56076908
   0.61432147  0.32133609  0.69674677
   0.36432147  0.94633615  0.83272451
   0.36432147  0.94633603  0.56076908
   0.11432147  0.57133609  0.69674677
   0.86432147  0.19633615  0.83272451
   0.86432147  0.19633615  0.56076908
   0.61432147  0.82133615  0.69674677
   0.36432147  0.44633609  0.83272451
   0.36432147  0.44633606  0.56076908
   0.11432147  0.07133615  0.69674677
   0.86432147  0.69633609  0.83272451
   0.11432147  0.69633603  0.62875789
   0.86432147  0.32133609  0.76473570
   0.61432147  0.94633603  0.90071338
   0.61432147  0.94633603  0.62875789
   0.36432147  0.57133609  0.76473570
   0.11432147  0.19633603  0.90071338
   0.11432147  0.19633615  0.62875789
   0.86432147  0.82133615  0.76473570
   0.61432147  0.44633609  0.90071338
   0.61432147  0.44633606  0.62875789
   0.36432147  0.07133615  0.76473570
   0.11432147  0.69633609  0.90071338
   0.86432147  0.94633609  0.56076908
   0.61432159  0.57133615  0.69674677
   0.36432147  0.19633615  0.83272451
   0.86432147  0.44633609  0.56076908
   0.61432147  0.07133615  0.69674677
   0.36432147  0.69633609  0.83272451
   0.36432147  0.69633609  0.56076908
   0.11432147  0.32133615  0.69674677
   0.86432147  0.94633615  0.83272451
   0.36432147  0.19633615  0.56076908
   0.11432147  0.82133609  0.69674677
   0.86432147  0.44633615  0.83272451
   0.11432159  0.94633609  0.62875789
   0.86432147  0.57133615  0.76473570
   0.61432147  0.19633615  0.90071338
   0.11432147  0.44633609  0.62875789
   0.86432147  0.07133615  0.76473570
   0.61432147  0.69633609  0.90071338
   0.61432147  0.69633603  0.62875789
   0.36432147  0.32133606  0.76473570
   0.11432147  0.94633603  0.90071338
   0.61432147  0.19633615  0.62875789
   0.36432147  0.82133615  0.76473570
   0.11432147  0.44633609  0.90071338
 
 position of ions in cartesian coordinates  (Angst):
   7.51559449 16.05965413  0.00000002
   5.59544542 13.34415296  1.92014878
   3.67529636 10.62865275  3.84029753
   1.75514820  7.91315351  5.76044553
   7.51559358  5.19765234  7.68059446
   5.59544497  2.48215215  9.60074338
   7.51559449  5.19765477  0.00000002
   5.59544542  2.48215458  1.92014878
   3.67529636 16.05965315  3.84029753
   1.75514820 13.34415392  5.76044553
   7.51559358 10.62865275  7.68059446
   5.59544497  7.91315255  9.60074338
   7.51559449 10.62865566  0.00000002
   5.59544542  7.91315449  1.92014878
   3.67529636  5.19765428  3.84029753
   1.75514820  2.48215482  5.76044553
   7.51559358 16.05965315  7.68059446
   5.59544497 13.34415198  9.60074338
   3.67529727 16.05965413  0.00000000
   1.75514831 13.34415296  1.92014878
   7.51559403 10.62865275  3.84029753
   5.59544588  7.91315351  5.76044491
   3.67529636  5.19765234  7.68059446
   1.75514728  2.48215215  9.60074338
   3.67529727  5.19765477  0.00000000
   1.75514831  2.48215458  1.92014878
   7.51559403 16.05965315  3.84029753
   5.59544588 13.34415392  5.76044491
   3.67529636 10.62865275  7.68059446
   1.75514728  7.91315255  9.60074338
   3.67529727 10.62865566  0.00000000
   1.75514831  7.91315449  1.92014878
   7.51559403  5.19765428  3.84029753
   5.59544588  2.48215482  5.76044491
   3.67529636 16.05965315  7.68059446
   1.75514728 13.34415198  9.60074338
   5.59544634  3.83990467  0.00000000
   3.67529727  1.12440411  1.92014861
   1.75514843 14.70190256  3.84029753
   7.51559449 11.98640333  5.76044553
   5.59544542  9.27090314  7.68059446
   3.67529681  6.55540099  9.60074213
   5.59544634  9.27090605  0.00000000
   3.67529727  6.55540487  1.92014861
   1.75514843  3.83990467  3.84029753
   7.51559449  1.12440495  5.76044553
   5.59544542 14.70190354  7.68059446
   3.67529681 11.98640237  9.60074213
   5.59544634 14.70190548  0.00000000
   3.67529727 11.98640431  1.92014861
   1.75514843  9.27090410  3.84029753
   7.51559449  6.55540440  5.76044553
   5.59544542  3.83990345  7.68059446
   3.67529681  1.12440241  9.60074213
   1.75514866  3.83990467  0.00000002
   7.51559403  1.12440411  1.92014878
   5.59544497 14.70190256  3.84029753
   3.67529727 11.98640333  5.76044491
   1.75514774  9.27090314  7.68059446
   7.51559266  6.55540099  9.60074338
   1.75514866  9.27090605  0.00000002
   7.51559403  6.55540487  1.92014878
   5.59544497  3.83990467  3.84029753
   3.67529727  1.12440495  5.76044491
   1.75514774 14.70190354  7.68059446
   7.51559266 11.98640237  9.60074338
   1.75514866 14.70190548  0.00000002
   7.51559403 11.98640431  1.92014878
   5.59544497  9.27090410  3.84029753
   3.67529727  6.55540440  5.76044491
   1.75514774  3.83990345  7.68059446
   7.51559266  1.12440241  9.60074338
   6.63850268 11.34540244 11.66631852
   4.71835407  5.23552870 14.49521735
   2.79820546 15.41865420 17.32411740
   2.79820546 15.41865226 11.66631852
   0.87805685  9.30877851 14.49521735
   6.63850268  3.19890475 17.32411740
   6.63850268  3.19890475 11.66631852
   4.71835407 13.38202929 14.49521735
   2.79820546  7.27215360 17.32411740
   2.79820546  7.27215312 11.66631852
   0.87805685  1.16227984 14.49521735
   6.63850268 11.34540342 17.32411740
   0.87805685 11.34540244 13.08076731
   6.63850268  5.23552870 15.90966861
   4.71835407 15.41865226 18.73856742
   4.71835407 15.41865226 13.08076731
   2.79820546  9.30877851 15.90966861
   0.87805685  3.19890281 18.73856742
   0.87805685  3.19890475 13.08076731
   6.63850268 13.38202929 15.90966861
   4.71835407  7.27215360 18.73856742
   4.71835407  7.27215312 13.08076731
   2.79820546  1.16227984 15.90966861
   0.87805685 11.34540342 18.73856742
   6.63850268 15.41865324 11.66631852
   4.71835498  9.30877947 14.49521735
   2.79820546  3.19890475 17.32411740
   6.63850268  7.27215360 11.66631852
   4.71835407  1.16227984 14.49521735
   2.79820546 11.34540342 17.32411740
   2.79820546 11.34540342 11.66631852
   0.87805685  5.23552966 14.49521735
   6.63850268 15.41865420 17.32411740
   2.79820546  3.19890475 11.66631852
   0.87805685 13.38202833 14.49521735
   6.63850268  7.27215457 17.32411740
   0.87805776 15.41865324 13.08076731
   6.63850268  9.30877947 15.90966861
   4.71835407  3.19890475 18.73856742
   0.87805685  7.27215360 13.08076731
   6.63850268  1.16227984 15.90966861
   4.71835407 11.34540342 18.73856742
   4.71835407 11.34540244 13.08076731
   2.79820546  5.23552821 15.90966861
   0.87805685 15.41865226 18.73856742
   4.71835407  3.19890475 13.08076731
   2.79820546 13.38202929 15.90966861
   0.87805685  7.27215360 18.73856742
 


--------------------------------------------------------------------------------------------------------


 k-point     1 :   0.0000 0.0000 0.0000  plane waves:  109471
 k-point     2 :   0.2500 0.0000 0.0000  plane waves:  109475
 k-point     3 :   0.5000 0.0000 0.0000  plane waves:  109458
 k-point     4 :   0.0000 0.5000 0.0000  plane waves:  109558
 k-point     5 :   0.2500 0.5000 0.0000  plane waves:  109496
 k-point     6 :   0.5000 0.5000 0.0000  plane waves:  109460
 k-point     7 :   0.0000 0.0000 0.5000  plane waves:  109486
 k-point     8 :   0.2500 0.0000 0.5000  plane waves:  109462
 k-point     9 :   0.5000 0.0000 0.5000  plane waves:  109440
 k-point    10 :   0.0000 0.5000 0.5000  plane waves:  109640
 k-point    11 :   0.2500 0.5000 0.5000  plane waves:  109512
 k-point    12 :   0.5000 0.5000 0.5000  plane waves:  109336

 maximum and minimum number of plane-waves per node :      6888     6794

 maximum number of plane-waves:    109640
 maximum index in each direction: 
   IXMAX=   16   IYMAX=   35   IZMAX=   44
   IXMIN=  -17   IYMIN=  -35   IZMIN=  -45


 real space projection operators:
  total allocation   :      17740.94 KBytes
  max/ min on nodes  :       1437.31       1028.06


 parallel 3D FFT for wavefunctions:
    minimum data exchange during FFTs selected (reduces bandwidth)
 parallel 3D FFT for charge:
    minimum data exchange during FFTs selected (reduces bandwidth)


 total amount of memory used by VASP MPI-rank0   262164. kBytes
=======================================================================

   base      :      30000. kBytes
   nonlr-proj:       6608. kBytes
   fftplans  :      18524. kBytes
   grid      :      14584. kBytes
   one-center:        129. kBytes
   wavefun   :     192319. kBytes
 
     INWAV:  cpu time      0.0000: real time      0.0002
 Broyden mixing: mesh for mixing (old mesh)
   NGX = 33   NGY = 71   NGZ = 89
  (NGX  =100   NGY  =216   NGZ  =280)
  gives a total of 208527 points

 initial charge density was supplied:
 charge density of overlapping atoms calculated
 number of electron     480.0000000 magnetization       1.0000000
 keeping initial charge density in first step


--------------------------------------------------------------------------------------------------------


 Maximum index for non-local projection operator          316
 Maximum index for augmentation-charges         4288 (set IRDMAX)


--------------------------------------------------------------------------------------------------------


 First call to EWALD:  gamma=   0.129
 Maximum number of real-space cells 5x 2x 2
 Maximum number of reciprocal cells 2x 3x 4

    FEWALD:  cpu time      0.0033: real time      0.0033


--------------------------------------- Ionic step        1  -------------------------------------------




--------------------------------------- Iteration      1(   1)  ---------------------------------------


    POTLOK:  cpu time      0.2276: real time      0.2294
    SETDIJ:  cpu time      1.1228: real time      1.1286
     EDDAV:  cpu time     36.7290: real time     37.0269
       DOS:  cpu time      0.0029: real time      0.0029
    --------------------------------------------
      LOOP:  cpu time     38.0824: real time     38.3878

 eigenvalue-minimisations  : 13824
 total energy-change (2. order) : 0.1967334E+04  (-0.2144105E+05)
 number of electron     480.0000000 magnetization       1.0000000
 augmentation part      480.0000000 magnetization       1.0000000

 Free energy of the ion-electron system (eV)
  ---------------------------------------------------
  alpha Z        PSCENC =       534.59184046
  Ewald energy   TEWEN  =    -12842.15681451
  -Hartree energ DENC   =     -1179.21503288
  -exchange      EXHF   =         0.00000000
  -V(xc)+E(xc)   XCENC  =     -1033.95756097
  PAW double counting   =     10575.88222728    -8613.76247617
  entropy T*S    EENTRO =        -0.00105633
  eigenvalues    EBANDS =      2065.35196751
  atomic energy  EATOM  =     12460.60057749
  Solvation  Ediel_sol  =         0.00000000
  ---------------------------------------------------
  free energy    TOTEN  =      1967.33367189 eV

  energy without entropy =     1967.33472822  energy(sigma->0) =     1967.33420006


--------------------------------------------------------------------------------------------------------




--------------------------------------- Iteration      1(   2)  ---------------------------------------


     EDDAV:  cpu time     41.1369: real time     41.4661
       DOS:  cpu time      0.0025: real time      0.0025
    --------------------------------------------
      LOOP:  cpu time     41.1394: real time     41.4686

 eigenvalue-minimisations  : 16200
 total energy-change (2. order) :-0.2331568E+04  (-0.2248885E+04)
 number of electron     480.0000000 magnetization       1.0000000
 augmentation part      480.0000000 magnetization       1.0000000

 Free energy of the ion-electron system (eV)
  ---------------------------------------------------
  alpha Z        PSCENC =       534.59184046
  Ewald energy   TEWEN  =    -12842.15681451
  -Hartree energ DENC   =     -1179.21503288
  -exchange      EXHF   =         0.00000000
  -V(xc)+E(xc)   XCENC  =     -1033.95756097
  PAW double counting   =     10575.88222728    -8613.76247617
  entropy T*S    EENTRO =        -0.00137260
  eigenvalues    EBANDS =      -266.21606895
  atomic energy  EATOM  =     12460.60057749
  Solvation  Ediel_sol  =         0.00000000
  ---------------------------------------------------
  free energy    TOTEN  =      -364.23468084 eV

  energy without entropy =     -364.23330825  energy(sigma->0) =     -364.23399454


--------------------------------------------------------------------------------------------------------




--------------------------------------- Iteration      1(   3)  ---------------------------------------


     EDDAV:  cpu time     42.8226: real time     43.1652
       DOS:  cpu time      0.0024: real time      0.0024
    --------------------------------------------
      LOOP:  cpu time     42.8250: real time     43.1677

 eigenvalue-minimisations  : 17048
 total energy-change (2. order) :-0.2165466E+03  (-0.2103663E+03)
 number of electron     480.0000000 magnetization       1.0000000
 augmentation part      480.0000000 magnetization       1.0000000

 Free energy of the ion-electron system (eV)
  ---------------------------------------------------
  alpha Z        PSCENC =       534.59184046
  Ewald energy   TEWEN  =    -12842.15681451
  -Hartree energ DENC   =     -1179.21503288
  -exchange      EXHF   =         0.00000000
  -V(xc)+E(xc)   XCENC  =     -1033.95756097
  PAW double counting   =     10575.88222728    -8613.76247617
  entropy T*S    EENTRO =        -0.00203765
  eigenvalues    EBANDS =      -482.76203144
  atomic energy  EATOM  =     12460.60057749
  Solvation  Ediel_sol  =         0.00000000
  ---------------------------------------------------
  free energy    TOTEN  =      -580.78130838 eV

  energy without entropy =     -580.77927073  energy(sigma->0) =     -580.78028956


--------------------------------------------------------------------------------------------------------




--------------------------------------- Iteration      1(   4)  ---------------------------------------


     EDDAV:  cpu time     41.3215: real time     41.6566
       DOS:  cpu time      0.0023: real time      0.0023
    --------------------------------------------
      LOOP:  cpu time     41.3237: real time     41.6589

 eigenvalue-minimisations  : 16296
 total energy-change (2. order) :-0.7830339E+01  (-0.7701571E+01)
 number of electron     480.0000000 magnetization       1.0000000
 augmentation part      480.0000000 magnetization       1.0000000

 Free energy of the ion-electron system (eV)
  ---------------------------------------------------
  alpha Z        PSCENC =       534.59184046
  Ewald energy   TEWEN  =    -12842.15681451
  -Hartree energ DENC   =     -1179.21503288
  -exchange      EXHF   =         0.00000000
  -V(xc)+E(xc)   XCENC  =     -1033.95756097
  PAW double counting   =     10575.88222728    -8613.76247617
  entropy T*S    EENTRO =        -0.00133513
  eigenvalues    EBANDS =      -490.59307293
  atomic energy  EATOM  =     12460.60057749
  Solvation  Ediel_sol  =         0.00000000
  ---------------------------------------------------
  free energy    TOTEN  =      -588.61164735 eV

  energy without entropy =     -588.61031222  energy(sigma->0) =     -588.61097978


--------------------------------------------------------------------------------------------------------




--------------------------------------- Iteration      1(   5)  ---------------------------------------


     EDDAV:  cpu time     45.2859: real time     45.6505
       DOS:  cpu time      0.0023: real time      0.0023
    CHARGE:  cpu time      1.9308: real time      1.9513
    MIXING:  cpu time      0.0047: real time      0.0047
    --------------------------------------------
      LOOP:  cpu time     47.2237: real time     47.6089

 eigenvalue-minimisations  : 18320
 total energy-change (2. order) :-0.3011785E+00  (-0.2993179E+00)
 number of electron     479.9999996 magnetization       1.0000000
 augmentation part      -48.5511498 magnetization      -0.0830554

 Broyden mixing:
  rms(total) = 0.32196E+01    rms(broyden)= 0.32196E+01
  rms(prec ) = 0.33841E+01
  weight for this iteration     100.00

 Free energy of the ion-electron system (eV)
  ---------------------------------------------------
  alpha Z        PSCENC =       534.59184046
  Ewald energy   TEWEN  =    -12842.15681451
  -Hartree energ DENC   =     -1179.21503288
  -exchange      EXHF   =         0.00000000
  -V(xc)+E(xc)   XCENC  =     -1033.95756097
  PAW double counting   =     10575.88222728    -8613.76247617
  entropy T*S    EENTRO =        -0.00121636
  eigenvalues    EBANDS =      -490.89437018
  atomic energy  EATOM  =     12460.60057749
  Solvation  Ediel_sol  =         0.00000000
  ---------------------------------------------------
  free energy    TOTEN  =      -588.91282583 eV

  energy without entropy =     -588.91160947  energy(sigma->0) =     -588.91221765


--------------------------------------------------------------------------------------------------------




--------------------------------------- Iteration      1(   6)  ---------------------------------------


    POTLOK:  cpu time      0.2068: real time      0.2085
    SETDIJ:  cpu time      1.1131: real time      1.1184
     EDDAV:  cpu time     42.2712: real time     42.6211
       DOS:  cpu time      0.0027: real time      0.0027
    CHARGE:  cpu time      1.9216: real time      1.9343
    MIXING:  cpu time      0.0046: real time      0.0047
    --------------------------------------------
      LOOP:  cpu time     45.5201: real time     45.8897

 eigenvalue-minimisations  : 16776
 total energy-change (2. order) : 0.9635854E+01  (-0.1730564E+01)
 number of electron     479.9999996 magnetization       1.0000000
 augmentation part      -48.3317965 magnetization      -0.0723254

 Broyden mixing:
  rms(total) = 0.14582E+01    rms(broyden)= 0.14582E+01
  rms(prec ) = 0.15610E+01
  weight for this iteration     100.00

 eigenvalues of (default mixing * dielectric matrix)
  average eigenvalue GAMMA=   1.7010
  1.7010

 Free energy of the ion-electron system (eV)
  ---------------------------------------------------
  alpha Z        PSCENC =       534.59184046
  Ewald energy   TEWEN  =    -12842.15681451
  -Hartree energ DENC   =     -1317.28969773
  -exchange      EXHF   =         0.00000000
  -V(xc)+E(xc)   XCENC  =     -1014.54437208
  PAW double counting   =     22681.06800508   -20727.87000417
  entropy T*S    EENTRO =        -0.00036761
  eigenvalues    EBANDS =      -353.67613914
  atomic energy  EATOM  =     12460.60057749
  Solvation  Ediel_sol  =         0.00000000
  ---------------------------------------------------
  free energy    TOTEN  =      -579.27697220 eV

  energy without entropy =     -579.27660459  energy(sigma->0) =     -579.27678840


--------------------------------------------------------------------------------------------------------




--------------------------------------- Iteration      1(   7)  ---------------------------------------


    POTLOK:  cpu time      0.2061: real time      0.2089
    SETDIJ:  cpu time      1.1133: real time      1.1187
     EDDAV:  cpu time     42.4993: real time     42.8443
       DOS:  cpu time      0.0024: real time      0.0024
    CHARGE:  cpu time      1.9236: real time      1.9365
    MIXING:  cpu time      0.0049: real time      0.0049
    --------------------------------------------
      LOOP:  cpu time     45.7496: real time     46.1157

 eigenvalue-minimisations  : 16872
 total energy-change (2. order) : 0.1864670E-01  (-0.1697519E+01)
 number of electron     479.9999996 magnetization       1.0000000
 augmentation part      -48.0834515 magnetization      -0.0730161

 Broyden mixing:
  rms(total) = 0.67395E+00    rms(broyden)= 0.67395E+00
  rms(prec ) = 0.88630E+00
  weight for this iteration     100.00

 eigenvalues of (default mixing * dielectric matrix)
  average eigenvalue GAMMA=   1.1968
  1.8635  0.5301

 Free energy of the ion-electron system (eV)
  ---------------------------------------------------
  alpha Z        PSCENC =       534.59184046
  Ewald energy   TEWEN  =    -12842.15681451
  -Hartree energ DENC   =     -1374.05997974
  -exchange      EXHF   =         0.00000000
  -V(xc)+E(xc)   XCENC  =     -1002.19340897
  PAW double counting   =     34185.60620155   -32237.82679718
  entropy T*S    EENTRO =        -0.00089118
  eigenvalues    EBANDS =      -303.81905342
  atomic energy  EATOM  =     12460.60057749
  Solvation  Ediel_sol  =         0.00000000
  ---------------------------------------------------
  free energy    TOTEN  =      -579.25832551 eV

  energy without entropy =     -579.25743433  energy(sigma->0) =     -579.25787992


--------------------------------------------------------------------------------------------------------




--------------------------------------- Iteration      1(   8)  ---------------------------------------


    POTLOK:  cpu time      0.2078: real time      0.2092
    SETDIJ:  cpu time      1.1135: real time      1.1204
     EDDAV:  cpu time     42.3729: real time     42.7183
       DOS:  cpu time      0.0025: real time      0.0025
    CHARGE:  cpu time      1.9209: real time      1.9337
    MIXING:  cpu time      0.0050: real time      0.0051
    --------------------------------------------
      LOOP:  cpu time     45.6227: real time     45.9892

 eigenvalue-minimisations  : 16784
 total energy-change (2. order) : 0.8491071E+00  (-0.4601192E+00)
 number of electron     479.9999996 magnetization       1.0000000
 augmentation part      -47.8244385 magnetization      -0.0698337

 Broyden mixing:
  rms(total) = 0.15859E+00    rms(broyden)= 0.15859E+00
  rms(prec ) = 0.17920E+00
  weight for this iteration     100.00

 eigenvalues of (default mixing * dielectric matrix)
  average eigenvalue GAMMA=   1.2144
  1.8096  1.2291  0.6045

 Free energy of the ion-electron system (eV)
  ---------------------------------------------------
  alpha Z        PSCENC =       534.59184046
  Ewald energy   TEWEN  =    -12842.15681451
  -Hartree energ DENC   =     -1400.06292669
  -exchange      EXHF   =         0.00000000
  -V(xc)+E(xc)   XCENC  =      -998.83157489
  PAW double counting   =     39606.71883365   -37660.41913661
  entropy T*S    EENTRO =        -0.00190943
  eigenvalues    EBANDS =      -278.84810787
  atomic energy  EATOM  =     12460.60057749
  Solvation  Ediel_sol  =         0.00000000
  ---------------------------------------------------
  free energy    TOTEN  =      -578.40921840 eV

  energy without entropy =     -578.40730897  energy(sigma->0) =     -578.40826369


--------------------------------------------------------------------------------------------------------




--------------------------------------- Iteration      1(   9)  ---------------------------------------


    POTLOK:  cpu time      0.2079: real time      0.2093
    SETDIJ:  cpu time      1.1120: real time      1.1174
     EDDAV:  cpu time     41.7980: real time     42.1380
       DOS:  cpu time      0.0024: real time      0.0024
    CHARGE:  cpu time      1.9251: real time      1.9393
    MIXING:  cpu time      0.0050: real time      0.0050
    --------------------------------------------
      LOOP:  cpu time     45.0504: real time     45.4114

 eigenvalue-minimisations  : 16472
 total energy-change (2. order) :-0.4794095E-01  (-0.1387316E+00)
 number of electron     479.9999996 magnetization       1.0000000
 augmentation part      -47.9212448 magnetization      -0.0714202

 Broyden mixing:
  rms(total) = 0.11563E+00    rms(broyden)= 0.11563E+00
  rms(prec ) = 0.12568E+00
  weight for this iteration     100.00

 eigenvalues of (default mixing * dielectric matrix)
  average eigenvalue GAMMA=   1.1529
  1.6895  1.6895  0.6571  0.5753

 Free energy of the ion-electron system (eV)
  ---------------------------------------------------
  alpha Z        PSCENC =       534.59184046
  Ewald energy   TEWEN  =    -12842.15681451
  -Hartree energ DENC   =     -1389.80069022
  -exchange      EXHF   =         0.00000000
  -V(xc)+E(xc)   XCENC  =      -999.69644438
  PAW double counting   =     39997.17556406   -38050.49968129
  entropy T*S    EENTRO =        -0.00137410
  eigenvalues    EBANDS =      -288.67013687
  atomic energy  EATOM  =     12460.60057749
  Solvation  Ediel_sol  =         0.00000000
  ---------------------------------------------------
  free energy    TOTEN  =      -578.45715935 eV

  energy without entropy =     -578.45578525  energy(sigma->0) =     -578.45647230


--------------------------------------------------------------------------------------------------------




--------------------------------------- Iteration      1(  10)  ---------------------------------------


    POTLOK:  cpu time      0.2056: real time      0.2086
    SETDIJ:  cpu time      1.1140: real time      1.1196
     EDDAV:  cpu time     41.0074: real time     41.3470
       DOS:  cpu time      0.0026: real time      0.0026
    CHARGE:  cpu time      1.9308: real time      1.9439
    MIXING:  cpu time      0.0049: real time      0.0049
    --------------------------------------------
      LOOP:  cpu time     44.2653: real time     44.6265

 eigenvalue-minimisations  : 16104
 total energy-change (2. order) : 0.1118455E-01  (-0.1455517E-01)
 number of electron     479.9999996 magnetization       1.0000000
 augmentation part      -47.9894359 magnetization      -0.0735221

 Broyden mixing:
  rms(total) = 0.70077E-01    rms(broyden)= 0.70077E-01
  rms(prec ) = 0.71897E-01
  weight for this iteration     100.00

 eigenvalues of (default mixing * dielectric matrix)
  average eigenvalue GAMMA=   1.1099
  1.7078  1.7078  0.8469  0.6435  0.6435

 Free energy of the ion-electron system (eV)
  ---------------------------------------------------
  alpha Z        PSCENC =       534.59184046
  Ewald energy   TEWEN  =    -12842.15681451
  -Hartree energ DENC   =     -1383.74219819
  -exchange      EXHF   =         0.00000000
  -V(xc)+E(xc)   XCENC  =     -1000.25356007
  PAW double counting   =     40214.23641859   -38267.31672134
  entropy T*S    EENTRO =        -0.00211298
  eigenvalues    EBANDS =      -294.40340425
  atomic energy  EATOM  =     12460.60057749
  Solvation  Ediel_sol  =         0.00000000
  ---------------------------------------------------
  free energy    TOTEN  =      -578.44597481 eV

  energy without entropy =     -578.44386183  energy(sigma->0) =     -578.44491832


--------------------------------------------------------------------------------------------------------




--------------------------------------- Iteration      1(  11)  ---------------------------------------


    POTLOK:  cpu time      0.2068: real time      0.2087
    SETDIJ:  cpu time      1.1133: real time      1.1187
     EDDAV:  cpu time     39.9976: real time     40.3241
       DOS:  cpu time      0.0024: real time      0.0024
    CHARGE:  cpu time      1.9257: real time      1.9389
    MIXING:  cpu time      0.0048: real time      0.0048
    --------------------------------------------
      LOOP:  cpu time     43.2505: real time     43.5975

 eigenvalue-minimisations  : 15584
 total energy-change (2. order) : 0.1447617E-02  (-0.3708621E-02)
 number of electron     479.9999996 magnetization       1.0000000
 augmentation part      -47.9701938 magnetization      -0.0718499

 Broyden mixing:
  rms(total) = 0.41907E-01    rms(broyden)= 0.41907E-01
  rms(prec ) = 0.42984E-01
  weight for this iteration     100.00

 eigenvalues of (default mixing * dielectric matrix)
  average eigenvalue GAMMA=   1.0659
  1.6783  1.3630  1.3630  0.7474  0.7474  0.4963

 Free energy of the ion-electron system (eV)
  ---------------------------------------------------
  alpha Z        PSCENC =       534.59184046
  Ewald energy   TEWEN  =    -12842.15681451
  -Hartree energ DENC   =     -1384.73048030
  -exchange      EXHF   =         0.00000000
  -V(xc)+E(xc)   XCENC  =     -1000.23568766
  PAW double counting   =     40403.83056266   -38456.93053028
  entropy T*S    EENTRO =        -0.00205213
  eigenvalues    EBANDS =      -293.41194293
  atomic energy  EATOM  =     12460.60057749
  Solvation  Ediel_sol  =         0.00000000
  ---------------------------------------------------
  free energy    TOTEN  =      -578.44452719 eV

  energy without entropy =     -578.44247506  energy(sigma->0) =     -578.44350112


--------------------------------------------------------------------------------------------------------




--------------------------------------- Iteration      1(  12)  ---------------------------------------


    POTLOK:  cpu time      0.2075: real time      0.2088
    SETDIJ:  cpu time      1.1137: real time      1.1213
     EDDAV:  cpu time     40.2917: real time     40.6291
       DOS:  cpu time      0.0025: real time      0.0025
    CHARGE:  cpu time      1.9145: real time      1.9276
    MIXING:  cpu time      0.0058: real time      0.0058
    --------------------------------------------
      LOOP:  cpu time     43.5356: real time     43.8950

 eigenvalue-minimisations  : 15736
 total energy-change (2. order) :-0.1473631E-02  (-0.6021289E-03)
 number of electron     479.9999996 magnetization       1.0000000
 augmentation part      -47.9678702 magnetization      -0.0730380

 Broyden mixing:
  rms(total) = 0.23071E-01    rms(broyden)= 0.23071E-01
  rms(prec ) = 0.23961E-01
  weight for this iteration     100.00

 eigenvalues of (default mixing * dielectric matrix)
  average eigenvalue GAMMA=   1.1545
  1.9050  1.9050  1.5991  0.7562  0.7562  0.6715  0.4882

 Free energy of the ion-electron system (eV)
  ---------------------------------------------------
  alpha Z        PSCENC =       534.59184046
  Ewald energy   TEWEN  =    -12842.15681451
  -Hartree energ DENC   =     -1384.71651237
  -exchange      EXHF   =         0.00000000
  -V(xc)+E(xc)   XCENC  =     -1000.27478434
  PAW double counting   =     40379.31644452   -38432.40353185
  entropy T*S    EENTRO =        -0.00204543
  eigenvalues    EBANDS =      -293.40117480
  atomic energy  EATOM  =     12460.60057749
  Solvation  Ediel_sol  =         0.00000000
  ---------------------------------------------------
  free energy    TOTEN  =      -578.44600082 eV

  energy without entropy =     -578.44395540  energy(sigma->0) =     -578.44497811


--------------------------------------------------------------------------------------------------------




--------------------------------------- Iteration      1(  13)  ---------------------------------------


    POTLOK:  cpu time      0.2068: real time      0.2088
    SETDIJ:  cpu time      1.1150: real time      1.1204
     EDDAV:  cpu time     40.6531: real time     40.9815
       DOS:  cpu time      0.0023: real time      0.0023
    CHARGE:  cpu time      1.9166: real time      1.9294
    MIXING:  cpu time      0.0053: real time      0.0054
    --------------------------------------------
      LOOP:  cpu time     43.8991: real time     44.2479

 eigenvalue-minimisations  : 15872
 total energy-change (2. order) : 0.3196628E-03  (-0.2182167E-03)
 number of electron     479.9999996 magnetization       1.0000000
 augmentation part      -47.9696853 magnetization      -0.0736118

 Broyden mixing:
  rms(total) = 0.98091E-02    rms(broyden)= 0.98091E-02
  rms(prec ) = 0.10160E-01
  weight for this iteration     100.00

 eigenvalues of (default mixing * dielectric matrix)
  average eigenvalue GAMMA=   1.1398
  2.0413  2.0413  1.7066  0.7910  0.7910  0.6344  0.6344  0.4786

 Free energy of the ion-electron system (eV)
  ---------------------------------------------------
  alpha Z        PSCENC =       534.59184046
  Ewald energy   TEWEN  =    -12842.15681451
  -Hartree energ DENC   =     -1384.08023370
  -exchange      EXHF   =         0.00000000
  -V(xc)+E(xc)   XCENC  =     -1000.36146700
  PAW double counting   =     40334.57498223   -38387.62598120
  entropy T*S    EENTRO =        -0.00209893
  eigenvalues    EBANDS =      -293.98648600
  atomic energy  EATOM  =     12460.60057749
  Solvation  Ediel_sol  =         0.00000000
  ---------------------------------------------------
  free energy    TOTEN  =      -578.44568116 eV

  energy without entropy =     -578.44358223  energy(sigma->0) =     -578.44463169


--------------------------------------------------------------------------------------------------------




--------------------------------------- Iteration      1(  14)  ---------------------------------------


    POTLOK:  cpu time      0.2064: real time      0.2089
    SETDIJ:  cpu time      1.1151: real time      1.1205
     EDDAV:  cpu time     39.9540: real time     40.2747
       DOS:  cpu time      0.0027: real time      0.0027
    CHARGE:  cpu time      1.9246: real time      1.9379
    MIXING:  cpu time      0.0057: real time      0.0058
    --------------------------------------------
      LOOP:  cpu time     43.2085: real time     43.5505

 eigenvalue-minimisations  : 15464
 total energy-change (2. order) :-0.6903621E-04  (-0.8695623E-04)
 number of electron     479.9999996 magnetization       1.0000000
 augmentation part      -47.9676386 magnetization      -0.0731561

 Broyden mixing:
  rms(total) = 0.76761E-02    rms(broyden)= 0.76761E-02
  rms(prec ) = 0.79332E-02
  weight for this iteration     100.00

 eigenvalues of (default mixing * dielectric matrix)
  average eigenvalue GAMMA=   1.1169
  1.9419  1.9419  1.8764  0.9764  0.9764  0.6760  0.6760  0.5124  0.4745

 Free energy of the ion-electron system (eV)
  ---------------------------------------------------
  alpha Z        PSCENC =       534.59184046
  Ewald energy   TEWEN  =    -12842.15681451
  -Hartree energ DENC   =     -1384.20357315
  -exchange      EXHF   =         0.00000000
  -V(xc)+E(xc)   XCENC  =     -1000.33771431
  PAW double counting   =     40358.08483406   -38411.14376663
  entropy T*S    EENTRO =        -0.00209168
  eigenvalues    EBANDS =      -293.87904193
  atomic energy  EATOM  =     12460.60057749
  Solvation  Ediel_sol  =         0.00000000
  ---------------------------------------------------
  free energy    TOTEN  =      -578.44575019 eV

  energy without entropy =     -578.44365851  energy(sigma->0) =     -578.44470435


--------------------------------------------------------------------------------------------------------




--------------------------------------- Iteration      1(  15)  ---------------------------------------


    POTLOK:  cpu time      0.2080: real time      0.2094
    SETDIJ:  cpu time      1.1155: real time      1.1212
     EDDAV:  cpu time     40.3070: real time     40.6315
       DOS:  cpu time      0.0023: real time      0.0023
    CHARGE:  cpu time      1.9138: real time      1.9266
    MIXING:  cpu time      0.0056: real time      0.0057
    --------------------------------------------
      LOOP:  cpu time     43.5522: real time     43.8966

 eigenvalue-minimisations  : 15664
 total energy-change (2. order) :-0.3938923E-04  (-0.1648207E-04)
[...]
   -.469E-01 0.296E+00 0.105E+02   0.102E-01 -.124E+00 -.105E+02   0.195E-01 -.617E-01 -.622E-01   -.474E-06 0.397E-05 0.174E-04
   -.455E-01 0.252E+00 -.105E+02   0.953E-02 -.143E+00 0.105E+02   0.194E-01 -.162E-01 -.881E-02   -.784E-06 -.887E-05 -.546E-04
   -.130E+00 -.882E+00 -.335E+02   -.255E+00 0.101E+01 0.335E+02   0.208E+00 -.482E-02 0.938E-01   -.147E-06 -.210E-04 -.118E-03
   -.798E+01 0.109E+02 -.403E+02   0.695E+01 -.933E+01 0.386E+02   0.733E+00 -.119E+01 0.923E+00   -.643E-05 0.587E-05 -.139E-03
   -.705E+01 0.266E+02 0.411E+02   0.667E+01 -.248E+02 -.395E+02   0.501E+00 -.233E+01 -.739E+00   -.549E-05 0.345E-04 0.166E-03
   -.414E-01 -.136E+01 0.336E+02   -.259E+00 0.176E+01 -.335E+02   0.237E+00 -.226E+00 -.209E+00   0.501E-06 0.998E-05 0.139E-03
   -.454E-01 0.252E+00 0.105E+02   0.954E-02 -.143E+00 -.105E+02   0.194E-01 -.162E-01 0.881E-02   -.778E-06 -.977E-05 0.424E-04
   -.196E-01 0.281E+00 -.107E+02   0.102E-01 -.165E+00 0.105E+02   -.310E-02 0.748E-02 0.239E+00   0.522E-07 0.132E-05 -.459E-04
   -.414E-01 -.136E+01 -.336E+02   -.259E+00 0.176E+01 0.335E+02   0.237E+00 -.226E+00 0.209E+00   0.505E-06 0.119E-04 -.146E-03
   -.405E+01 0.178E+02 -.542E+02   0.325E+01 -.164E+02 0.515E+02   0.140E+00 -.203E+01 0.337E+01   -.441E-05 -.221E-04 -.171E-03
   0.589E+01 0.157E+02 -.232E+02   -.527E+01 -.164E+02 0.229E+02   -.480E+00 0.200E+00 0.113E+00   0.940E-07 -.579E-06 -.606E-04
   -.315E+00 0.448E+00 0.352E+01   0.136E-01 -.364E+00 -.305E+01   -.294E-01 -.646E-01 -.103E+01   -.142E-05 -.284E-05 0.247E-04
   0.102E+00 -.110E+00 0.166E+02   -.162E-01 0.105E+00 -.166E+02   -.595E-01 -.505E-02 -.749E+00   -.327E-07 0.241E-04 0.125E-04
   0.169E+00 0.975E+00 -.655E+01   -.168E+00 -.103E+01 0.554E+01   0.275E-02 0.973E-01 -.136E+01   0.170E-06 -.386E-04 -.722E-04
   0.250E+00 -.403E+00 0.361E+01   -.125E-01 0.336E+00 -.309E+01   0.426E-01 0.535E-01 -.111E+01   0.131E-05 0.169E-04 -.229E-04
   -.143E+01 0.321E+01 0.139E+02   0.304E+00 -.313E+01 -.135E+02   0.939E+00 0.369E-02 -.665E+00   -.126E-05 -.628E-05 0.399E-04
   -.558E+01 -.152E+02 -.202E+02   0.494E+01 0.161E+02 0.198E+02   0.207E+00 -.496E+00 -.405E+00   -.121E-05 0.623E-06 -.432E-04
   0.346E+00 -.251E+00 0.217E+01   -.142E-01 0.364E+00 -.205E+01   -.783E-01 -.436E-01 -.666E+00   0.157E-05 -.236E-04 -.353E-05
   -.293E-01 0.141E+00 0.108E+02   0.116E-01 -.111E+00 -.102E+02   0.163E-01 -.169E-01 -.114E+01   -.382E-06 -.253E-04 0.125E-04
   -.197E+00 -.146E+01 -.373E+02   0.155E+00 0.137E+01 0.371E+02   -.122E+00 0.171E+00 0.361E+00   0.212E-06 0.339E-04 -.656E-04
   -.294E+00 0.220E+00 0.208E+01   0.130E-01 -.336E+00 -.201E+01   0.629E-01 0.474E-01 -.581E+00   -.153E-05 0.898E-05 0.429E-04
   0.147E+01 -.325E+01 0.137E+02   -.303E+00 0.314E+01 -.133E+02   -.945E+00 -.151E-01 -.787E+00   0.186E-05 0.755E-05 -.194E-04
   -.143E+01 0.321E+01 -.139E+02   0.304E+00 -.313E+01 0.135E+02   0.939E+00 0.369E-02 0.665E+00   -.125E-05 -.833E-05 -.299E-04
   0.346E+00 -.251E+00 -.217E+01   -.142E-01 0.364E+00 0.205E+01   -.783E-01 -.436E-01 0.666E+00   0.157E-05 -.226E-04 0.160E-04
   -.197E+00 -.146E+01 0.373E+02   0.155E+00 0.137E+01 -.371E+02   -.122E+00 0.171E+00 -.361E+00   0.209E-06 0.342E-04 0.718E-04
   -.293E-01 0.142E+00 -.108E+02   0.116E-01 -.111E+00 0.102E+02   0.163E-01 -.169E-01 0.114E+01   -.385E-06 -.247E-04 -.232E-05
   -.294E+00 0.220E+00 -.208E+01   0.131E-01 -.336E+00 0.201E+01   0.629E-01 0.474E-01 0.581E+00   -.153E-05 0.704E-05 -.303E-04
   0.589E+01 0.157E+02 0.232E+02   -.527E+01 -.164E+02 -.229E+02   -.480E+00 0.200E+00 -.113E+00   0.105E-06 0.149E-05 0.663E-04
   0.147E+01 -.325E+01 -.137E+02   -.303E+00 0.314E+01 0.133E+02   -.945E+00 -.151E-01 0.787E+00   0.187E-05 0.959E-05 0.299E-04
   -.315E+00 0.448E+00 -.352E+01   0.137E-01 -.364E+00 0.305E+01   -.294E-01 -.646E-01 0.103E+01   -.142E-05 -.383E-05 -.121E-04
   0.169E+00 0.975E+00 0.655E+01   -.168E+00 -.103E+01 -.554E+01   0.275E-02 0.973E-01 0.136E+01   0.169E-06 -.389E-04 0.782E-04
   0.102E+00 -.110E+00 -.166E+02   -.162E-01 0.105E+00 0.166E+02   -.595E-01 -.505E-02 0.749E+00   -.491E-07 0.236E-04 -.223E-05
   0.250E+00 -.403E+00 -.361E+01   -.125E-01 0.336E+00 0.309E+01   0.426E-01 0.535E-01 0.111E+01   0.130E-05 0.189E-04 0.354E-04
   -.558E+01 -.152E+02 0.202E+02   0.494E+01 0.161E+02 -.198E+02   0.207E+00 -.496E+00 0.405E+00   -.122E-05 -.142E-05 0.497E-04
   0.169E+00 0.975E+00 -.655E+01   -.168E+00 -.103E+01 0.554E+01   0.275E-02 0.973E-01 -.136E+01   0.175E-06 -.386E-04 -.722E-04
   0.250E+00 -.403E+00 0.361E+01   -.125E-01 0.336E+00 -.309E+01   0.426E-01 0.535E-01 -.111E+01   0.129E-05 0.169E-04 -.229E-04
   -.143E+01 0.321E+01 0.139E+02   0.304E+00 -.313E+01 -.135E+02   0.939E+00 0.369E-02 -.665E+00   -.126E-05 -.627E-05 0.399E-04
   -.197E+00 -.146E+01 -.373E+02   0.155E+00 0.137E+01 0.371E+02   -.122E+00 0.171E+00 0.361E+00   0.210E-06 0.339E-04 -.656E-04
   -.294E+00 0.220E+00 0.208E+01   0.131E-01 -.336E+00 -.201E+01   0.629E-01 0.474E-01 -.581E+00   -.153E-05 0.898E-05 0.429E-04
   0.147E+01 -.325E+01 0.137E+02   -.303E+00 0.314E+01 -.133E+02   -.945E+00 -.151E-01 -.787E+00   0.186E-05 0.755E-05 -.194E-04
   0.589E+01 0.157E+02 -.232E+02   -.527E+01 -.164E+02 0.229E+02   -.480E+00 0.200E+00 0.113E+00   0.915E-07 -.586E-06 -.606E-04
   -.315E+00 0.448E+00 0.352E+01   0.136E-01 -.364E+00 -.305E+01   -.294E-01 -.646E-01 -.103E+01   -.141E-05 -.284E-05 0.247E-04
   0.102E+00 -.110E+00 0.166E+02   -.162E-01 0.105E+00 -.166E+02   -.595E-01 -.505E-02 -.749E+00   -.347E-07 0.241E-04 0.125E-04
   -.558E+01 -.152E+02 -.202E+02   0.494E+01 0.161E+02 0.198E+02   0.207E+00 -.496E+00 -.405E+00   -.121E-05 0.626E-06 -.432E-04
   0.346E+00 -.251E+00 0.217E+01   -.143E-01 0.364E+00 -.205E+01   -.783E-01 -.436E-01 -.666E+00   0.157E-05 -.236E-04 -.353E-05
   -.293E-01 0.141E+00 0.108E+02   0.116E-01 -.111E+00 -.102E+02   0.163E-01 -.169E-01 -.114E+01   -.382E-06 -.253E-04 0.125E-04
   -.294E-01 0.142E+00 -.108E+02   0.116E-01 -.111E+00 0.102E+02   0.163E-01 -.169E-01 0.114E+01   -.379E-06 -.247E-04 -.233E-05
   -.294E+00 0.220E+00 -.208E+01   0.131E-01 -.336E+00 0.201E+01   0.629E-01 0.474E-01 0.581E+00   -.153E-05 0.704E-05 -.303E-04
   0.589E+01 0.157E+02 0.232E+02   -.527E+01 -.164E+02 -.229E+02   -.480E+00 0.200E+00 -.113E+00   0.106E-06 0.148E-05 0.663E-04
   0.102E+00 -.110E+00 -.166E+02   -.162E-01 0.105E+00 0.166E+02   -.595E-01 -.505E-02 0.749E+00   -.185E-07 0.236E-04 -.223E-05
   0.250E+00 -.403E+00 -.361E+01   -.125E-01 0.336E+00 0.309E+01   0.426E-01 0.535E-01 0.111E+01   0.130E-05 0.189E-04 0.354E-04
   -.558E+01 -.152E+02 0.202E+02   0.494E+01 0.161E+02 -.198E+02   0.207E+00 -.496E+00 0.405E+00   -.123E-05 -.142E-05 0.497E-04
   -.143E+01 0.321E+01 -.139E+02   0.304E+00 -.313E+01 0.135E+02   0.939E+00 0.369E-02 0.665E+00   -.127E-05 -.834E-05 -.299E-04
   0.346E+00 -.251E+00 -.217E+01   -.143E-01 0.364E+00 0.205E+01   -.783E-01 -.436E-01 0.666E+00   0.157E-05 -.226E-04 0.160E-04
   -.197E+00 -.146E+01 0.373E+02   0.155E+00 0.137E+01 -.371E+02   -.122E+00 0.171E+00 -.361E+00   0.212E-06 0.342E-04 0.718E-04
   0.147E+01 -.325E+01 -.137E+02   -.303E+00 0.314E+01 0.133E+02   -.945E+00 -.151E-01 0.787E+00   0.185E-05 0.959E-05 0.299E-04
   -.315E+00 0.448E+00 -.352E+01   0.136E-01 -.364E+00 0.305E+01   -.294E-01 -.646E-01 0.103E+01   -.142E-05 -.383E-05 -.121E-04
   0.169E+00 0.975E+00 0.655E+01   -.168E+00 -.103E+01 -.554E+01   0.275E-02 0.973E-01 0.136E+01   0.177E-06 -.389E-04 0.782E-04
 -----------------------------------------------------------------------------------------------
   -.154E+01 0.413E+00 0.685E-02   0.264E-13 0.108E-12 -.391E-13   0.159E+01 -.593E+00 0.111E-14   -.221E-05 -.229E-04 -.331E-04
 
 
 POSITION                                       TOTAL-FORCE (eV/Angst)
 -----------------------------------------------------------------------------------
      7.51559     16.05965      0.00000         0.021995      0.460780      0.703217
      5.59545     13.34415      1.92015         0.074607     -0.327103     -0.222384
      3.67530     10.62865      3.84030         0.016848     -0.106255     -0.031929
      1.75515      7.91315      5.76045         0.009992     -0.115394      0.057408
      7.51559      5.19765      7.68059         0.074607     -0.327103      0.222384
      5.59544      2.48215      9.60074         0.550418     -0.211557     -0.249316
      7.51559      5.19765      0.00000         0.653679      0.551560     -0.629627
      5.59545      2.48215      1.92015         0.062136     -0.193088     -0.081027
      3.67530     16.05965      3.84030         0.009992     -0.115394     -0.057408
      1.75515     13.34415      5.76045         0.019930     -0.094833      0.011021
      7.51559     10.62865      7.68059         0.062136     -0.193088      0.081027
      5.59544      7.91315      9.60074         0.021995      0.460780     -0.703217
      7.51559     10.62866      0.00000         0.550418     -0.211557      0.249316
      5.59545      7.91315      1.92015         0.194397     -0.142315     -0.092624
      3.67530      5.19765      3.84030         0.019930     -0.094833     -0.011021
      1.75515      2.48215      5.76045         0.016848     -0.106255      0.031929
      7.51559     16.05965      7.68059         0.194397     -0.142315      0.092624
      5.59544     13.34415      9.60074         0.653679      0.551560      0.629627
      3.67530     16.05965      0.00000         0.021995      0.460780      0.703217
      1.75515     13.34415      1.92015         0.074607     -0.327103     -0.222384
      7.51559     10.62865      3.84030         0.016848     -0.106255     -0.031929
      5.59545      7.91315      5.76044         0.009992     -0.115394      0.057408
      3.67530      5.19765      7.68059         0.074607     -0.327103      0.222384
      1.75515      2.48215      9.60074         0.550418     -0.211557     -0.249316
      3.67530      5.19765      0.00000         0.653679      0.551560     -0.629627
      1.75515      2.48215      1.92015         0.062136     -0.193088     -0.081027
      7.51559     16.05965      3.84030         0.009992     -0.115394     -0.057408
      5.59545     13.34415      5.76044         0.019930     -0.094833      0.011021
      3.67530     10.62865      7.68059         0.062136     -0.193088      0.081027
      1.75515      7.91315      9.60074         0.021995      0.460780     -0.703217
      3.67530     10.62866      0.00000         0.550418     -0.211557      0.249316
      1.75515      7.91315      1.92015         0.194397     -0.142315     -0.092624
      7.51559      5.19765      3.84030         0.019930     -0.094833     -0.011021
      5.59545      2.48215      5.76044         0.016848     -0.106255      0.031929
      3.67530     16.05965      7.68059         0.194397     -0.142315      0.092624
      1.75515     13.34415      9.60074         0.653679      0.551560      0.629627
      5.59545      3.83990      0.00000        -0.300117      0.384333      0.769048
      3.67530      1.12440      1.92015        -0.052374      0.299929     -0.234828
      1.75515     14.70190      3.84030        -0.012907      0.125232     -0.057205
      7.51559     11.98640      5.76045        -0.017701      0.111192      0.040707
      5.59545      9.27090      7.68059        -0.052374      0.299929      0.234828
      3.67530      6.55540      9.60074         0.113696     -0.514418     -0.850053
      5.59545      9.27091      0.00000        -0.663387     -0.577106     -0.709503
      3.67530      6.55540      1.92015        -0.177703      0.125937     -0.111862
      1.75515      3.83990      3.84030        -0.017701      0.111192     -0.040707
      7.51559      1.12440      5.76045        -0.016917      0.094698      0.017202
      5.59545     14.70190      7.68059        -0.177703      0.125937      0.111862
      3.67530     11.98640      9.60074        -0.300117      0.384333     -0.769048
      5.59545     14.70191      0.00000         0.113696     -0.514418      0.850053
      3.67530     11.98640      1.92015        -0.063372      0.170411     -0.102084
      1.75515      9.27090      3.84030        -0.016917      0.094698     -0.017202
      7.51559      6.55540      5.76045        -0.012907      0.125232      0.057205
      5.59545      3.83990      7.68059        -0.063372      0.170411      0.102084
      3.67530      1.12440      9.60074        -0.663387     -0.577106      0.709503
      1.75515      3.83990      0.00000        -0.300117      0.384333      0.769048
      7.51559      1.12440      1.92015        -0.052374      0.299929     -0.234828
      5.59544     14.70190      3.84030        -0.012907      0.125232     -0.057205
      3.67530     11.98640      5.76044        -0.017701      0.111192      0.040707
      1.75515      9.27090      7.68059        -0.052374      0.299929      0.234828
      7.51559      6.55540      9.60074         0.113696     -0.514418     -0.850053
      1.75515      9.27091      0.00000        -0.663387     -0.577106     -0.709503
      7.51559      6.55540      1.92015        -0.177703      0.125937     -0.111862
      5.59544      3.83990      3.84030        -0.017701      0.111192     -0.040707
      3.67530      1.12440      5.76044        -0.016917      0.094698      0.017202
      1.75515     14.70190      7.68059        -0.177703      0.125937      0.111862
      7.51559     11.98640      9.60074        -0.300117      0.384333     -0.769048
      1.75515     14.70191      0.00000         0.113696     -0.514418      0.850053
      7.51559     11.98640      1.92015        -0.063372      0.170411     -0.102084
      5.59544      9.27090      3.84030        -0.016917      0.094698     -0.017202
      3.67530      6.55540      5.76044        -0.012907      0.125232      0.057205
      1.75515      3.83990      7.68059        -0.063372      0.170411      0.102084
      7.51559      1.12440      9.60074        -0.663387     -0.577106      0.709503
      6.63850     11.34540     11.66632         0.140591     -0.515849     -0.141315
      4.71835      5.23553     14.49522        -0.330843      0.020624     -0.559517
      2.79821     15.41865     17.32412         0.025997     -0.009256     -0.763375
      2.79821     15.41865     11.66632         0.003344      0.041203     -2.373874
      0.87806      9.30878     14.49522         0.279885     -0.011739     -0.592383
      6.63850      3.19890     17.32412        -0.188111      0.080327     -0.250771
      6.63850      3.19890     11.66632        -0.430688      0.376059     -0.810676
      4.71835     13.38203     14.49522         0.252800      0.071134     -0.543748
      2.79821      7.27215     17.32412        -0.001708      0.015080     -0.522823
      2.79821      7.27215     11.66632        -0.164708      0.085127      0.147354
      0.87806      1.16228     14.49522        -0.218420     -0.066902     -0.511561
      6.63850     11.34540     17.32412         0.218641     -0.127813     -0.354567
      0.87806     11.34540     13.08077        -0.188111      0.080327      0.250771
      6.63850      5.23553     15.90967         0.252800      0.071134      0.543748
      4.71835     15.41865     18.73857        -0.164708      0.085127     -0.147354
      4.71835     15.41865     13.08077        -0.001708      0.015080      0.522823
      2.79821      9.30878     15.90967        -0.218420     -0.066902      0.511561
      0.87806      3.19890     18.73857         0.140591     -0.515849      0.141315
      0.87806      3.19890     13.08077         0.218641     -0.127813      0.354567
      6.63850     13.38203     15.90967        -0.330843      0.020624      0.559517
      4.71835      7.27215     18.73857         0.003344      0.041203      2.373874
      4.71835      7.27215     13.08077         0.025997     -0.009256      0.763375
      2.79821      1.16228     15.90967         0.279885     -0.011739      0.592383
      0.87806     11.34540     18.73857        -0.430688      0.376059      0.810676
      6.63850     15.41865     11.66632         0.003344      0.041203     -2.373874
      4.71835      9.30878     14.49522         0.279885     -0.011739     -0.592383
      2.79821      3.19890     17.32412        -0.188111      0.080327     -0.250771
      6.63850      7.27215     11.66632        -0.164708      0.085127      0.147354
      4.71835      1.16228     14.49522        -0.218420     -0.066902     -0.511561
      2.79821     11.34540     17.32412         0.218641     -0.127813     -0.354567
      2.79821     11.34540     11.66632         0.140591     -0.515849     -0.141315
      0.87806      5.23553     14.49522        -0.330843      0.020624     -0.559517
      6.63850     15.41865     17.32412         0.025997     -0.009256     -0.763375
      2.79821      3.19890     11.66632        -0.430688      0.376059     -0.810676
      0.87806     13.38203     14.49522         0.252800      0.071134     -0.543748
      6.63850      7.27215     17.32412        -0.001708      0.015080     -0.522823
      0.87806     15.41865     13.08077        -0.001708      0.015080      0.522823
      6.63850      9.30878     15.90967        -0.218420     -0.066902      0.511561
      4.71835      3.19890     18.73857         0.140591     -0.515849      0.141315
      0.87806      7.27215     13.08077         0.025997     -0.009256      0.763375
      6.63850      1.16228     15.90967         0.279885     -0.011739      0.592383
      4.71835     11.34540     18.73857        -0.430688      0.376059      0.810676
      4.71835     11.34540     13.08077        -0.188111      0.080327      0.250771
      2.79821      5.23553     15.90967         0.252800      0.071134      0.543748
      0.87806     15.41865     18.73857        -0.164708      0.085127     -0.147354
      4.71835      3.19890     13.08077         0.218641     -0.127813      0.354567
      2.79821     13.38203     15.90967        -0.330843      0.020624      0.559517
      0.87806      7.27215     18.73857         0.003344      0.041203      2.373874
 -----------------------------------------------------------------------------------
    total drift:                                0.045772     -0.179612      0.006816


--------------------------------------------------------------------------------------------------------



  FREE ENERGIE OF THE ION-ELECTRON SYSTEM (eV)
  ---------------------------------------------------
  free  energy   TOTEN  =      -578.44579529 eV

  energy  without entropy=     -578.44370339  energy(sigma->0) =     -578.44474934
 


--------------------------------------------------------------------------------------------------------


    POTLOK:  cpu time      1.2975: real time      1.3037


--------------------------------------------------------------------------------------------------------


     LOOP+:  cpu time   1080.5314: real time   1089.8104
    4ORBIT:  cpu time      0.0000: real time      0.0000

 total amount of memory used by VASP MPI-rank0   262164. kBytes
=======================================================================

   base      :      30000. kBytes
   nonlr-proj:       6608. kBytes
   fftplans  :      18524. kBytes
   grid      :      14584. kBytes
   one-center:        129. kBytes
   wavefun   :     192319. kBytes
 
  
  
 General timing and accounting informations for this job:
 ========================================================
  
                  Total CPU time used (sec):     1159.362
                            User time (sec):     1095.122
                          System time (sec):       64.240
                         Elapsed time (sec):     1171.482
  
                   Maximum memory used (kb):      526868.
                   Average memory used (kb):          N/A
  
                          Minor page faults:       158100
                          Major page faults:           38
                 Voluntary context switches:         1862
