  48  48   0   0
  0.3605712E+02  0.1297840E-08  0.1946760E-08  0.9190412E-09  0.5000000E-15
  1.000000000000000E-004
  CAR 
 Si and Ge interface calculation         
      3.88375315    -10.96677228  301      1.68835122      1.00000000
    -10.967  0.0000E+00  0.0000E+00  0.0000E+00  0.0000E+00
    -10.917  0.0000E+00  0.0000E+00  0.0000E+00  0.0000E+00
    -10.868  0.0000E+00  0.0000E+00  0.0000E+00  0.0000E+00
    -10.818  0.0000E+00  0.0000E+00  0.0000E+00  0.0000E+00
    -10.769  0.0000E+00  0.0000E+00  0.0000E+00  0.0000E+00
    -10.719  0.0000E+00  0.0000E+00  0.0000E+00  0.0000E+00
    -10.670  0.0000E+00  0.0000E+00  0.0000E+00  0.0000E+00
    -10.620  0.0000E+00  0.0000E+00  0.0000E+00  0.0000E+00
    -10.571  0.0000E+00  0.0000E+00  0.0000E+00  0.0000E+00
    -10.521  0.0000E+00  0.0000E+00  0.0000E+00  0.0000E+00
    -10.472  0.0000E+00  0.0000E+00  0.0000E+00  0.0000E+00
    -10.422  0.0000E+00  0.0000E+00  0.0000E+00  0.0000E+00
    -10.373  0.0000E+00  0.0000E+00  0.0000E+00  0.0000E+00
    -10.323  0.5015E-04  0.4933E-06  0.2482E-05  0.2442E-07
    -10.274  0.3951E+02  0.3535E+02  0.1956E+01  0.1750E+01
    -10.224  0.8932E+00  0.5056E+01  0.2000E+01  0.2000E+01
    -10.175  0.0000E+00  0.0000E+00  0.2000E+01  0.2000E+01
    -10.125  0.0000E+00  0.0000E+00  0.2000E+01  0.2000E+01
    -10.076  0.0000E+00  0.0000E+00  0.2000E+01  0.2000E+01
    -10.026  0.0000E+00  0.0000E+00  0.2000E+01  0.2000E+01
     -9.977  0.0000E+00  0.0000E+00  0.2000E+01  0.2000E+01
     -9.927  0.0000E+00  0.0000E+00  0.2000E+01  0.2000E+01
     -9.878  0.0000E+00  0.0000E+00  0.2000E+01  0.2000E+01
     -9.828  0.0000E+00  0.0000E+00  0.2000E+01  0.2000E+01
     -9.779  0.0000E+00  0.0000E+00  0.2000E+01  0.2000E+01
     -9.729  0.0000E+00  0.0000E+00  0.2000E+01  0.2000E+01
     -9.680  0.0000E+00  0.0000E+00  0.2000E+01  0.2000E+01
     -9.630  0.0000E+00  0.0000E+00  0.2000E+01  0.2000E+01
     -9.581  0.0000E+00  0.0000E+00  0.2000E+01  0.2000E+01
     -9.531  0.0000E+00  0.0000E+00  0.2000E+01  0.2000E+01
     -9.482  0.5097E-10  0.0000E+00  0.2000E+01  0.2000E+01
     -9.432  0.3442E+01  0.1974E+00  0.2170E+01  0.2010E+01
     -9.383  0.3653E+02  0.3144E+02  0.3979E+01  0.3566E+01
     -9.333  0.4298E+00  0.8765E+01  0.4000E+01  0.4000E+01
     -9.284  0.0000E+00  0.0000E+00  0.4000E+01  0.4000E+01
     -9.234  0.0000E+00  0.0000E+00  0.4000E+01  0.4000E+01
     -9.185  0.0000E+00  0.0000E+00  0.4000E+01  0.4000E+01
     -9.135  0.0000E+00  0.0000E+00  0.4000E+01  0.4000E+01
     -9.086  0.7008E-08  0.0000E+00  0.4000E+01  0.4000E+01
     -9.036  0.2164E+02  0.4197E+00  0.5071E+01  0.4021E+01
     -8.987  0.1876E+02  0.3983E+02  0.6000E+01  0.5993E+01
     -8.937  0.0000E+00  0.1511E+00  0.6000E+01  0.6000E+01
     -8.888  0.3066E-12  0.0000E+00  0.6000E+01  0.6000E+01
     -8.838  0.2019E+01  0.1094E+00  0.6100E+01  0.6005E+01
     -8.789  0.2247E+02  0.2145E+02  0.7212E+01  0.7067E+01
     -8.739  0.9839E+01  0.1213E+02  0.7699E+01  0.7668E+01
     -8.690  0.1232E+02  0.1082E+02  0.8309E+01  0.8204E+01
     -8.640  0.3389E+02  0.3289E+02  0.9987E+01  0.9832E+01
     -8.591  0.2641E+00  0.3399E+01  0.1000E+02  0.1000E+02
     -8.541  0.0000E+00  0.0000E+00  0.1000E+02  0.1000E+02
     -8.492  0.0000E+00  0.0000E+00  0.1000E+02  0.1000E+02
     -8.442  0.0000E+00  0.0000E+00  0.1000E+02  0.1000E+02
     -8.393  0.5687E-07  0.0000E+00  0.1000E+02  0.1000E+02
     -8.343  0.2224E+01  0.9876E-01  0.1011E+02  0.1000E+02
     -8.294  0.1774E+02  0.1197E+02  0.1099E+02  0.1060E+02
     -8.244  0.1786E+02  0.1221E+02  0.1187E+02  0.1120E+02
     -8.195  0.2578E+01  0.1612E+02  0.1200E+02  0.1200E+02
     -8.145  0.4290E-07  0.1246E-14  0.1200E+02  0.1200E+02
     -8.096  0.2067E+02  0.1817E+01  0.1302E+02  0.1209E+02
     -8.046  0.2368E+02  0.3777E+02  0.1420E+02  0.1396E+02
     -7.997  0.1226E+02  0.1393E+02  0.1480E+02  0.1465E+02
     -7.947  0.2011E+02  0.1796E+02  0.1580E+02  0.1554E+02
     -7.898  0.7575E+01  0.1081E+02  0.1617E+02  0.1607E+02
     -7.848  0.8274E+01  0.5343E+01  0.1658E+02  0.1634E+02
     -7.799  0.8943E+01  0.1336E+02  0.1702E+02  0.1700E+02
     -7.749  0.1725E+02  0.9565E+01  0.1788E+02  0.1747E+02
     -7.700  0.2444E+01  0.1065E+02  0.1800E+02  0.1800E+02
     -7.650  0.7127E+01  0.5152E+00  0.1835E+02  0.1803E+02
     -7.601  0.1592E+02  0.1060E+02  0.1914E+02  0.1855E+02
     -7.551  0.1281E+02  0.2051E+02  0.1978E+02  0.1957E+02
     -7.502  0.3434E+01  0.6592E+01  0.1995E+02  0.1989E+02
     -7.452  0.2204E+02  0.1025E+02  0.2104E+02  0.2040E+02
     -7.403  0.2130E+02  0.2966E+02  0.2209E+02  0.2187E+02
     -7.353  0.1573E+02  0.1518E+02  0.2287E+02  0.2262E+02
     -7.304  0.1192E+02  0.1456E+02  0.2346E+02  0.2334E+02
     -7.254  0.2697E+02  0.1658E+02  0.2479E+02  0.2416E+02
     -7.205  0.9505E+01  0.1941E+02  0.2526E+02  0.2512E+02
     -7.155  0.1643E+02  0.1332E+02  0.2608E+02  0.2578E+02
     -7.106  0.2169E+02  0.2624E+02  0.2715E+02  0.2708E+02
     -7.056  0.1515E+02  0.1095E+02  0.2790E+02  0.2762E+02
     -7.007  0.2149E+02  0.2095E+02  0.2897E+02  0.2866E+02
     -6.957  0.1993E+02  0.2213E+02  0.2995E+02  0.2975E+02
     -6.908  0.1666E+02  0.1624E+02  0.3078E+02  0.3056E+02
     -6.858  0.1588E+02  0.1220E+02  0.3156E+02  0.3116E+02
     -6.809  0.1117E+02  0.1706E+02  0.3212E+02  0.3201E+02
     -6.759  0.1804E+02  0.1919E+02  0.3301E+02  0.3296E+02
     -6.710  0.2247E+02  0.1656E+02  0.3412E+02  0.3378E+02
     -6.660  0.2043E+02  0.1884E+02  0.3513E+02  0.3471E+02
     -6.611  0.2128E+02  0.2268E+02  0.3619E+02  0.3583E+02
     -6.561  0.1510E+02  0.1782E+02  0.3693E+02  0.3671E+02
     -6.512  0.2765E+02  0.2621E+02  0.3830E+02  0.3801E+02
     -6.462  0.1183E+02  0.1561E+02  0.3889E+02  0.3878E+02
     -6.413  0.2437E+02  0.2137E+02  0.4009E+02  0.3984E+02
     -6.363  0.1193E+02  0.1379E+02  0.4068E+02  0.4052E+02
     -6.314  0.2847E+02  0.2391E+02  0.4209E+02  0.4171E+02
     -6.264  0.6264E+01  0.8441E+01  0.4240E+02  0.4213E+02
     -6.215  0.2462E+02  0.2100E+02  0.4362E+02  0.4317E+02
     -6.165  0.9645E+01  0.1741E+02  0.4410E+02  0.4403E+02
     -6.116  0.6420E+01  0.3501E+01  0.4442E+02  0.4420E+02
     -6.066  0.2762E+02  0.1978E+02  0.4578E+02  0.4518E+02
     -6.017  0.1552E+02  0.2427E+02  0.4655E+02  0.4638E+02
     -5.967  0.1997E+02  0.1119E+02  0.4754E+02  0.4694E+02
     -5.918  0.1808E+02  0.2735E+02  0.4844E+02  0.4829E+02
     -5.868  0.4153E+01  0.3884E+01  0.4864E+02  0.4848E+02
     -5.819  0.9215E+01  0.8455E+01  0.4910E+02  0.4890E+02
     -5.769  0.1232E+02  0.1545E+02  0.4971E+02  0.4966E+02
     -5.720  0.1630E+02  0.1345E+02  0.5052E+02  0.5033E+02
     -5.670  0.5425E+01  0.8822E+01  0.5078E+02  0.5077E+02
     -5.621  0.6769E+01  0.6854E+01  0.5112E+02  0.5111E+02
     -5.571  0.2057E+02  0.1395E+02  0.5214E+02  0.5180E+02
     -5.522  0.1295E+02  0.1675E+02  0.5278E+02  0.5263E+02
     -5.472  0.2204E+02  0.1922E+02  0.5387E+02  0.5358E+02
     -5.423  0.2631E+01  0.8235E+01  0.5400E+02  0.5399E+02
     -5.373  0.1451E+02  0.6623E+01  0.5472E+02  0.5431E+02
     -5.324  0.2182E+02  0.2565E+02  0.5580E+02  0.5558E+02
     -5.274  0.6311E+01  0.1035E+02  0.5611E+02  0.5609E+02
     -5.225  0.3191E+01  0.2484E+01  0.5627E+02  0.5622E+02
     -5.175  0.1251E+02  0.1125E+02  0.5689E+02  0.5677E+02
     -5.126  0.1342E+02  0.1008E+02  0.5755E+02  0.5727E+02
     -5.076  0.1409E+02  0.1362E+02  0.5825E+02  0.5795E+02
     -5.027  0.1553E+02  0.1771E+02  0.5902E+02  0.5882E+02
     -4.977  0.4939E+01  0.5992E+01  0.5926E+02  0.5912E+02
     -4.928  0.2623E+02  0.2256E+02  0.6056E+02  0.6024E+02
     -4.878  0.1083E+02  0.1494E+02  0.6110E+02  0.6098E+02
     -4.829  0.1372E+02  0.1303E+02  0.6178E+02  0.6162E+02
     -4.779  0.7182E+01  0.8379E+01  0.6213E+02  0.6204E+02
     -4.730  0.1737E+02  0.1628E+02  0.6299E+02  0.6284E+02
     -4.680  0.1871E+02  0.1205E+02  0.6392E+02  0.6344E+02
     -4.631  0.1622E+02  0.2048E+02  0.6472E+02  0.6445E+02
     -4.581  0.1185E+02  0.1396E+02  0.6531E+02  0.6514E+02
     -4.532  0.1682E+02  0.1902E+02  0.6614E+02  0.6609E+02
     -4.482  0.2275E+02  0.1763E+02  0.6727E+02  0.6696E+02
     -4.433  0.2308E+02  0.1598E+02  0.6841E+02  0.6775E+02
     -4.383  0.9003E+01  0.1924E+02  0.6885E+02  0.6870E+02
     -4.334  0.2052E+02  0.1198E+02  0.6987E+02  0.6930E+02
     -4.284  0.1633E+02  0.2597E+02  0.7068E+02  0.7058E+02
     -4.235  0.1409E+02  0.1298E+02  0.7138E+02  0.7122E+02
     -4.185  0.2111E+02  0.2042E+02  0.7242E+02  0.7223E+02
     -4.136  0.7031E+01  0.7381E+01  0.7277E+02  0.7260E+02
     -4.086  0.1468E+02  0.1024E+02  0.7350E+02  0.7311E+02
     -4.037  0.2136E+02  0.2549E+02  0.7455E+02  0.7437E+02
     -3.987  0.2171E+02  0.1911E+02  0.7563E+02  0.7531E+02
     -3.938  0.1338E+02  0.1826E+02  0.7629E+02  0.7622E+02
     -3.888  0.1591E+02  0.9152E+01  0.7708E+02  0.7667E+02
     -3.839  0.8811E+01  0.9839E+01  0.7751E+02  0.7716E+02
     -3.789  0.9918E+01  0.1701E+02  0.7801E+02  0.7800E+02
     -3.740  0.8778E+01  0.6496E+01  0.7844E+02  0.7832E+02
     -3.690  0.1805E+02  0.1302E+02  0.7933E+02  0.7897E+02
     -3.641  0.2225E+02  0.2416E+02  0.8043E+02  0.8016E+02
     -3.591  0.5175E+01  0.8449E+01  0.8069E+02  0.8058E+02
     -3.542  0.1077E+02  0.1276E+02  0.8122E+02  0.8121E+02
     -3.492  0.6200E+01  0.4547E+01  0.8153E+02  0.8144E+02
     -3.443  0.1087E+02  0.4858E+01  0.8207E+02  0.8168E+02
     -3.393  0.1324E+02  0.1719E+02  0.8272E+02  0.8253E+02
     -3.344  0.7442E+01  0.7393E+01  0.8309E+02  0.8289E+02
     -3.294  0.1425E+02  0.1449E+02  0.8380E+02  0.8361E+02
     -3.244  0.4090E+01  0.7838E+01  0.8400E+02  0.8400E+02
     -3.195  0.1494E+02  0.1046E+02  0.8474E+02  0.8452E+02
     -3.145  0.1408E+02  0.1226E+02  0.8544E+02  0.8512E+02
     -3.096  0.2398E+01  0.8707E+01  0.8556E+02  0.8556E+02
     -3.046  0.2791E+01  0.4405E+00  0.8569E+02  0.8558E+02
     -2.997  0.1768E+02  0.1543E+02  0.8657E+02  0.8634E+02
     -2.947  0.1532E+02  0.1785E+02  0.8733E+02  0.8722E+02
     -2.898  0.1236E+02  0.1042E+02  0.8794E+02  0.8774E+02
     -2.848  0.1011E+02  0.1061E+02  0.8844E+02  0.8827E+02
     -2.799  0.1712E+02  0.1102E+02  0.8929E+02  0.8881E+02
     -2.749  0.3871E+01  0.1280E+02  0.8948E+02  0.8944E+02
     -2.700  0.1277E+02  0.7255E+01  0.9011E+02  0.8980E+02
     -2.650  0.1122E+02  0.1727E+02  0.9067E+02  0.9066E+02
     -2.601  0.8841E+01  0.4646E+01  0.9110E+02  0.9089E+02
     -2.551  0.1135E+02  0.1509E+02  0.9167E+02  0.9164E+02
     -2.502  0.6294E+01  0.2301E+01  0.9198E+02  0.9175E+02
     -2.452  0.1179E+02  0.1347E+02  0.9256E+02  0.9242E+02
     -2.403  0.7200E+01  0.9512E+01  0.9292E+02  0.9289E+02
     -2.353  0.4864E+01  0.4523E+01  0.9316E+02  0.9311E+02
     -2.304  0.1248E+02  0.1184E+02  0.9378E+02  0.9370E+02
     -2.254  0.1017E+02  0.6130E+01  0.9428E+02  0.9400E+02
     -2.205  0.1089E+02  0.9306E+01  0.9482E+02  0.9446E+02
     -2.155  0.1125E+02  0.1761E+02  0.9538E+02  0.9533E+02
     -2.106  0.3778E+01  0.4488E+01  0.9556E+02  0.9556E+02
     -2.056  0.4348E+01  0.4225E+01  0.9578E+02  0.9576E+02
     -2.007  0.4466E+01  0.3442E+01  0.9600E+02  0.9594E+02
     -1.957  0.2674E-01  0.1310E+01  0.9600E+02  0.9600E+02
     -1.908  0.0000E+00  0.0000E+00  0.9600E+02  0.9600E+02
     -1.858  0.0000E+00  0.0000E+00  0.9600E+02  0.9600E+02
     -1.809  0.0000E+00  0.0000E+00  0.9600E+02  0.9600E+02
     -1.759  0.5125E-10  0.2492E-15  0.9600E+02  0.9600E+02
     -1.710  0.3071E+01  0.4595E+00  0.9615E+02  0.9602E+02
     -1.660  0.2139E+02  0.2082E+02  0.9721E+02  0.9705E+02
     -1.611  0.1583E+02  0.1739E+02  0.9799E+02  0.9791E+02
     -1.561  0.1147E+00  0.1740E+01  0.9800E+02  0.9800E+02
     -1.512  0.1612E-04  0.7244E-09  0.9800E+02  0.9800E+02
     -1.462  0.7799E+01  0.4411E+01  0.9839E+02  0.9822E+02
     -1.413  0.3252E+02  0.3296E+02  0.1000E+03  0.9985E+02
     -1.363  0.4351E+01  0.3652E+01  0.1002E+03  0.1000E+03
     -1.314  0.3034E+02  0.2395E+02  0.1017E+03  0.1012E+03
     -1.264  0.3512E+02  0.2391E+02  0.1035E+03  0.1024E+03
     -1.215  0.2128E+02  0.3842E+02  0.1045E+03  0.1043E+03
     -1.165  0.2571E+02  0.2508E+02  0.1058E+03  0.1055E+03
     -1.116  0.1794E+02  0.1748E+02  0.1067E+03  0.1064E+03
     -1.066  0.2506E+02  0.2661E+02  0.1079E+03  0.1077E+03
     -1.017  0.3573E+02  0.2290E+02  0.1097E+03  0.1089E+03
     -0.967  0.3138E+02  0.3360E+02  0.1112E+03  0.1105E+03
     -0.918  0.1819E+02  0.3144E+02  0.1121E+03  0.1121E+03
     -0.868  0.3542E+02  0.2607E+02  0.1139E+03  0.1134E+03
     -0.819  0.2273E+02  0.2149E+02  0.1150E+03  0.1144E+03
     -0.769  0.3189E+02  0.3694E+02  0.1166E+03  0.1163E+03
     -0.720  0.4030E+02  0.3538E+02  0.1186E+03  0.1180E+03
     -0.670  0.3041E+02  0.3339E+02  0.1201E+03  0.1197E+03
     -0.621  0.3099E+02  0.3125E+02  0.1216E+03  0.1212E+03
     -0.571  0.3133E+02  0.2748E+02  0.1232E+03  0.1226E+03
     -0.522  0.2138E+02  0.2417E+02  0.1242E+03  0.1238E+03
     -0.472  0.3319E+02  0.3165E+02  0.1259E+03  0.1253E+03
     -0.423  0.3927E+02  0.3299E+02  0.1278E+03  0.1270E+03
     -0.373  0.2190E+02  0.3358E+02  0.1289E+03  0.1286E+03
     -0.324  0.3222E+02  0.2682E+02  0.1305E+03  0.1300E+03
     -0.274  0.2604E+02  0.2757E+02  0.1318E+03  0.1313E+03
     -0.225  0.3423E+02  0.3619E+02  0.1335E+03  0.1331E+03
     -0.175  0.3400E+02  0.2685E+02  0.1352E+03  0.1344E+03
     -0.126  0.2586E+02  0.2968E+02  0.1364E+03  0.1359E+03
     -0.076  0.3152E+02  0.3321E+02  0.1380E+03  0.1376E+03
     -0.027  0.3973E+02  0.3447E+02  0.1400E+03  0.1393E+03
      0.023  0.1961E+02  0.2470E+02  0.1409E+03  0.1405E+03
      0.072  0.2365E+02  0.2149E+02  0.1421E+03  0.1416E+03
      0.122  0.3552E+02  0.3423E+02  0.1439E+03  0.1432E+03
      0.171  0.2976E+02  0.3427E+02  0.1453E+03  0.1449E+03
      0.221  0.3766E+02  0.3566E+02  0.1472E+03  0.1467E+03
      0.270  0.3224E+02  0.3150E+02  0.1488E+03  0.1483E+03
      0.320  0.2361E+02  0.2693E+02  0.1500E+03  0.1496E+03
      0.369  0.3399E+02  0.3048E+02  0.1517E+03  0.1511E+03
      0.419  0.4014E+02  0.4298E+02  0.1536E+03  0.1532E+03
      0.468  0.3516E+02  0.3053E+02  0.1554E+03  0.1547E+03
      0.518  0.2548E+02  0.2644E+02  0.1566E+03  0.1561E+03
      0.567  0.3422E+02  0.3749E+02  0.1583E+03  0.1579E+03
      0.617  0.1817E+02  0.1785E+02  0.1592E+03  0.1588E+03
      0.666  0.3166E+02  0.3572E+02  0.1608E+03  0.1606E+03
      0.716  0.3238E+02  0.2307E+02  0.1624E+03  0.1617E+03
      0.765  0.2438E+02  0.3403E+02  0.1636E+03  0.1634E+03
      0.815  0.3748E+02  0.2611E+02  0.1655E+03  0.1647E+03
      0.864  0.3733E+02  0.4331E+02  0.1673E+03  0.1668E+03
      0.914  0.2983E+02  0.2185E+02  0.1688E+03  0.1679E+03
      0.963  0.3174E+02  0.3778E+02  0.1704E+03  0.1698E+03
      1.013  0.3059E+02  0.3107E+02  0.1719E+03  0.1713E+03
      1.062  0.3689E+02  0.2672E+02  0.1737E+03  0.1726E+03
      1.112  0.3302E+02  0.4110E+02  0.1753E+03  0.1747E+03
      1.161  0.4390E+02  0.3757E+02  0.1775E+03  0.1765E+03
      1.211  0.2152E+02  0.3293E+02  0.1786E+03  0.1782E+03
      1.260  0.2206E+02  0.2021E+02  0.1797E+03  0.1792E+03
      1.310  0.3158E+02  0.2837E+02  0.1812E+03  0.1806E+03
      1.359  0.2616E+02  0.2570E+02  0.1825E+03  0.1818E+03
      1.409  0.1975E+02  0.2714E+02  0.1835E+03  0.1832E+03
      1.458  0.3350E+02  0.2860E+02  0.1852E+03  0.1846E+03
      1.508  0.2728E+02  0.2169E+02  0.1865E+03  0.1857E+03
      1.557  0.3019E+02  0.3443E+02  0.1880E+03  0.1874E+03
      1.607  0.3548E+02  0.3159E+02  0.1898E+03  0.1889E+03
      1.656  0.2647E+02  0.2732E+02  0.1911E+03  0.1903E+03
      1.706  0.2236E+02  0.2287E+02  0.1922E+03  0.1914E+03
      1.755  0.4241E+02  0.3472E+02  0.1943E+03  0.1931E+03
      1.805  0.3996E+02  0.4934E+02  0.1963E+03  0.1956E+03
      1.854  0.2469E+02  0.2761E+02  0.1975E+03  0.1970E+03
      1.904  0.2329E+02  0.2078E+02  0.1986E+03  0.1980E+03
      1.953  0.2952E+02  0.2989E+02  0.2001E+03  0.1995E+03
      2.003  0.3161E+02  0.2996E+02  0.2017E+03  0.2009E+03
      2.052  0.2062E+02  0.2921E+02  0.2027E+03  0.2024E+03
      2.102  0.3375E+02  0.2691E+02  0.2044E+03  0.2037E+03
      2.151  0.3313E+02  0.3717E+02  0.2060E+03  0.2056E+03
      2.201  0.2685E+02  0.1434E+02  0.2073E+03  0.2063E+03
      2.250  0.2372E+02  0.3731E+02  0.2085E+03  0.2081E+03
      2.300  0.3076E+02  0.2532E+02  0.2100E+03  0.2094E+03
      2.349  0.1911E+02  0.2126E+02  0.2110E+03  0.2104E+03
      2.399  0.2854E+02  0.2966E+02  0.2124E+03  0.2119E+03
      2.448  0.3500E+02  0.2636E+02  0.2141E+03  0.2132E+03
      2.498  0.3277E+02  0.3630E+02  0.2157E+03  0.2150E+03
      2.547  0.1710E+02  0.3057E+02  0.2166E+03  0.2165E+03
      2.597  0.2885E+02  0.1177E+02  0.2180E+03  0.2171E+03
      2.646  0.2906E+02  0.3384E+02  0.2194E+03  0.2188E+03
      2.696  0.1928E+02  0.2294E+02  0.2204E+03  0.2199E+03
      2.745  0.1937E+02  0.2096E+02  0.2214E+03  0.2209E+03
      2.795  0.3505E+02  0.3406E+02  0.2231E+03  0.2226E+03
      2.844  0.2289E+02  0.2222E+02  0.2242E+03  0.2237E+03
      2.894  0.2312E+02  0.2285E+02  0.2254E+03  0.2249E+03
      2.943  0.2509E+02  0.2944E+02  0.2266E+03  0.2263E+03
      2.993  0.1986E+02  0.1849E+02  0.2276E+03  0.2272E+03
      3.042  0.2573E+02  0.2212E+02  0.2289E+03  0.2283E+03
      3.092  0.3398E+02  0.3584E+02  0.2306E+03  0.2301E+03
      3.141  0.1169E+02  0.1675E+02  0.2311E+03  0.2309E+03
      3.191  0.1556E+02  0.1201E+02  0.2319E+03  0.2315E+03
      3.240  0.2006E+01  0.9620E+01  0.2320E+03  0.2320E+03
      3.290  0.0000E+00  0.0000E+00  0.2320E+03  0.2320E+03
      3.339  0.0000E+00  0.0000E+00  0.2320E+03  0.2320E+03
      3.389  0.0000E+00  0.0000E+00  0.2320E+03  0.2320E+03
      3.438  0.0000E+00  0.0000E+00  0.2320E+03  0.2320E+03
      3.488  0.0000E+00  0.0000E+00  0.2320E+03  0.2320E+03
      3.537  0.0000E+00  0.0000E+00  0.2320E+03  0.2320E+03
      3.587  0.0000E+00  0.0000E+00  0.2320E+03  0.2320E+03
      3.636  0.0000E+00  0.0000E+00  0.2320E+03  0.2320E+03
      3.686  0.0000E+00  0.0000E+00  0.2320E+03  0.2320E+03
      3.735  0.0000E+00  0.0000E+00  0.2320E+03  0.2320E+03
      3.785  0.0000E+00  0.0000E+00  0.2320E+03  0.2320E+03
      3.834  0.0000E+00  0.0000E+00  0.2320E+03  0.2320E+03
      3.884  0.0000E+00  0.0000E+00  0.2320E+03  0.2320E+03
