 120 120   0   0
  0.2190039E+02  0.7680595E-09  0.1629300E-08  0.2100086E-08  0.5000000E-15
  1.000000000000000E-004
  CAR 
 Si and Ge interface calculation         
      7.78518342     -8.57009995  301      4.74967199      1.00000000
     -8.570  0.0000E+00  0.0000E+00  0.0000E+00  0.0000E+00
     -8.516  0.0000E+00  0.0000E+00  0.0000E+00  0.0000E+00
     -8.461  0.0000E+00  0.0000E+00  0.0000E+00  0.0000E+00
     -8.407  0.0000E+00  0.0000E+00  0.0000E+00  0.0000E+00
     -8.352  0.0000E+00  0.0000E+00  0.0000E+00  0.0000E+00
     -8.298  0.0000E+00  0.0000E+00  0.0000E+00  0.0000E+00
     -8.243  0.0000E+00  0.0000E+00  0.0000E+00  0.0000E+00
     -8.188  0.0000E+00  0.0000E+00  0.0000E+00  0.0000E+00
     -8.134  0.0000E+00  0.0000E+00  0.0000E+00  0.0000E+00
     -8.079  0.0000E+00  0.0000E+00  0.0000E+00  0.0000E+00
     -8.025  0.0000E+00  0.0000E+00  0.0000E+00  0.0000E+00
     -7.970  0.0000E+00  0.0000E+00  0.0000E+00  0.0000E+00
     -7.916  0.0000E+00  0.0000E+00  0.0000E+00  0.0000E+00
     -7.861  0.2128E-05  0.1340E-07  0.1160E-06  0.7305E-09
     -7.807  0.4574E+01  0.4451E+01  0.2494E+00  0.2426E+00
     -7.752  0.1159E-01  0.1351E+00  0.2500E+00  0.2500E+00
     -7.698  0.1017E+02  0.9043E+01  0.8046E+00  0.7430E+00
     -7.643  0.8171E+01  0.9300E+01  0.1250E+01  0.1250E+01
     -7.589  0.6581E+01  0.4863E+01  0.1609E+01  0.1515E+01
     -7.534  0.1635E+02  0.1807E+02  0.2500E+01  0.2500E+01
     -7.480  0.1304E+02  0.1162E+02  0.3211E+01  0.3133E+01
     -7.425  0.9887E+01  0.1131E+02  0.3750E+01  0.3750E+01
     -7.371  0.3494E+01  0.1956E+01  0.3940E+01  0.3857E+01
     -7.316  0.2700E+02  0.2269E+02  0.5412E+01  0.5093E+01
     -7.262  0.1281E+02  0.1659E+02  0.6110E+01  0.5998E+01
     -7.207  0.8334E+01  0.7884E+01  0.6565E+01  0.6428E+01
     -7.153  0.3042E+02  0.2945E+02  0.8223E+01  0.8033E+01
     -7.098  0.2342E+02  0.2690E+02  0.9500E+01  0.9500E+01
     -7.044  0.1437E+02  0.7704E+01  0.1028E+02  0.9920E+01
     -6.989  0.4061E+02  0.4715E+02  0.1250E+02  0.1249E+02
     -6.935  0.4508E+01  0.3811E+01  0.1274E+02  0.1270E+02
     -6.880  0.2207E+02  0.1776E+02  0.1395E+02  0.1367E+02
     -6.826  0.1467E+02  0.1959E+02  0.1475E+02  0.1473E+02
     -6.771  0.2383E+02  0.1935E+02  0.1605E+02  0.1579E+02
     -6.717  0.1294E+02  0.1716E+02  0.1675E+02  0.1672E+02
     -6.662  0.2299E+02  0.2006E+02  0.1800E+02  0.1782E+02
     -6.607  0.2794E+02  0.2906E+02  0.1953E+02  0.1940E+02
     -6.553  0.2891E+02  0.2880E+02  0.2110E+02  0.2097E+02
     -6.498  0.5061E+02  0.4629E+02  0.2386E+02  0.2350E+02
     -6.444  0.2068E+02  0.2311E+02  0.2499E+02  0.2476E+02
     -6.389  0.3411E+02  0.3557E+02  0.2685E+02  0.2670E+02
     -6.335  0.3839E+02  0.3885E+02  0.2894E+02  0.2881E+02
     -6.280  0.4363E+02  0.3934E+02  0.3132E+02  0.3096E+02
     -6.226  0.3008E+02  0.3465E+02  0.3296E+02  0.3285E+02
     -6.171  0.3322E+02  0.3076E+02  0.3477E+02  0.3452E+02
     -6.117  0.3624E+02  0.4038E+02  0.3675E+02  0.3673E+02
     -6.062  0.3962E+02  0.3646E+02  0.3891E+02  0.3871E+02
     -6.008  0.2505E+02  0.2360E+02  0.4027E+02  0.4000E+02
     -5.953  0.3179E+02  0.3614E+02  0.4201E+02  0.4197E+02
     -5.899  0.3904E+02  0.3633E+02  0.4414E+02  0.4395E+02
     -5.844  0.3860E+02  0.3971E+02  0.4624E+02  0.4612E+02
     -5.790  0.3581E+02  0.3555E+02  0.4819E+02  0.4805E+02
     -5.735  0.4970E+02  0.4928E+02  0.5090E+02  0.5074E+02
     -5.681  0.3015E+02  0.3032E+02  0.5254E+02  0.5239E+02
     -5.626  0.4680E+02  0.4659E+02  0.5510E+02  0.5493E+02
     -5.572  0.2638E+02  0.2739E+02  0.5653E+02  0.5643E+02
     -5.517  0.4914E+02  0.4828E+02  0.5921E+02  0.5906E+02
     -5.463  0.4053E+02  0.4067E+02  0.6142E+02  0.6128E+02
     -5.408  0.2716E+02  0.2733E+02  0.6290E+02  0.6277E+02
     -5.354  0.5264E+02  0.5273E+02  0.6577E+02  0.6564E+02
     -5.299  0.2888E+02  0.2624E+02  0.6735E+02  0.6707E+02
     -5.245  0.6242E+02  0.6016E+02  0.7075E+02  0.7035E+02
     -5.190  0.4966E+02  0.5242E+02  0.7346E+02  0.7321E+02
     -5.135  0.5427E+02  0.5569E+02  0.7642E+02  0.7625E+02
     -5.081  0.2255E+02  0.2216E+02  0.7765E+02  0.7745E+02
     -5.026  0.3273E+02  0.3229E+02  0.7943E+02  0.7922E+02
     -4.972  0.3472E+02  0.3665E+02  0.8132E+02  0.8121E+02
     -4.917  0.2451E+02  0.2145E+02  0.8266E+02  0.8238E+02
     -4.863  0.5389E+02  0.5661E+02  0.8560E+02  0.8547E+02
     -4.808  0.4042E+02  0.3530E+02  0.8780E+02  0.8739E+02
     -4.754  0.4077E+02  0.4718E+02  0.9002E+02  0.8997E+02
     -4.699  0.2105E+02  0.1686E+02  0.9117E+02  0.9088E+02
     -4.645  0.4959E+02  0.5244E+02  0.9388E+02  0.9374E+02
     -4.590  0.2683E+02  0.2517E+02  0.9534E+02  0.9512E+02
     -4.536  0.4283E+02  0.4036E+02  0.9767E+02  0.9732E+02
     -4.481  0.2851E+02  0.3259E+02  0.9923E+02  0.9909E+02
     -4.427  0.1508E+02  0.1439E+02  0.1000E+03  0.9988E+02
     -4.372  0.5199E+02  0.4821E+02  0.1029E+03  0.1025E+03
     -4.318  0.5235E+02  0.5416E+02  0.1057E+03  0.1055E+03
     -4.263  0.1398E+02  0.1901E+02  0.1065E+03  0.1065E+03
     -4.209  0.1662E+02  0.1314E+02  0.1074E+03  0.1072E+03
     -4.154  0.2745E+02  0.2683E+02  0.1089E+03  0.1087E+03
     -4.100  0.1088E+02  0.1400E+02  0.1095E+03  0.1094E+03
     -4.045  0.1180E+02  0.9321E+01  0.1101E+03  0.1099E+03
     -3.991  0.1770E+02  0.1968E+02  0.1111E+03  0.1110E+03
     -3.936  0.3789E+02  0.3255E+02  0.1132E+03  0.1128E+03
     -3.882  0.1463E+02  0.2023E+02  0.1140E+03  0.1139E+03
     -3.827  0.5602E+01  0.6279E+01  0.1143E+03  0.1142E+03
     -3.773  0.3215E+02  0.2320E+02  0.1160E+03  0.1155E+03
     -3.718  0.2696E+02  0.3640E+02  0.1175E+03  0.1175E+03
     -3.664  0.7475E+01  0.5887E+01  0.1179E+03  0.1178E+03
     -3.609  0.8507E+01  0.8335E+01  0.1184E+03  0.1183E+03
     -3.554  0.2662E+02  0.2745E+02  0.1198E+03  0.1198E+03
     -3.500  0.2171E+02  0.2235E+02  0.1210E+03  0.1210E+03
     -3.445  0.1353E+02  0.1349E+02  0.1217E+03  0.1217E+03
     -3.391  0.2291E+02  0.2105E+02  0.1230E+03  0.1229E+03
     -3.336  0.2038E+02  0.2167E+02  0.1241E+03  0.1240E+03
     -3.282  0.2080E+02  0.1917E+02  0.1252E+03  0.1251E+03
     -3.227  0.8546E+01  0.7341E+01  0.1257E+03  0.1255E+03
     -3.173  0.4929E+02  0.4487E+02  0.1284E+03  0.1279E+03
     -3.118  0.1370E+02  0.2047E+02  0.1291E+03  0.1290E+03
     -3.064  0.1131E+02  0.1279E+02  0.1297E+03  0.1297E+03
     -3.009  0.1628E+02  0.1013E+02  0.1306E+03  0.1303E+03
     -2.955  0.1779E+02  0.1675E+02  0.1316E+03  0.1312E+03
     -2.900  0.2731E+02  0.3278E+02  0.1331E+03  0.1330E+03
     -2.846  0.3064E+02  0.2697E+02  0.1348E+03  0.1345E+03
     -2.791  0.3586E+02  0.3743E+02  0.1367E+03  0.1365E+03
     -2.737  0.4483E+02  0.4613E+02  0.1392E+03  0.1390E+03
     -2.682  0.4612E+02  0.4119E+02  0.1417E+03  0.1413E+03
     -2.628  0.4370E+02  0.4722E+02  0.1441E+03  0.1438E+03
     -2.573  0.5122E+02  0.4994E+02  0.1469E+03  0.1466E+03
     -2.519  0.7807E+02  0.7877E+02  0.1511E+03  0.1509E+03
     -2.464  0.6473E+02  0.6041E+02  0.1546E+03  0.1542E+03
     -2.410  0.5225E+02  0.5796E+02  0.1575E+03  0.1573E+03
     -2.355  0.5476E+02  0.5212E+02  0.1605E+03  0.1602E+03
     -2.301  0.4301E+02  0.4557E+02  0.1628E+03  0.1626E+03
     -2.246  0.6481E+02  0.6208E+02  0.1664E+03  0.1660E+03
     -2.192  0.2962E+02  0.3239E+02  0.1680E+03  0.1678E+03
     -2.137  0.5862E+02  0.5384E+02  0.1712E+03  0.1707E+03
     -2.083  0.5270E+02  0.5234E+02  0.1740E+03  0.1736E+03
     -2.028  0.4467E+02  0.4880E+02  0.1765E+03  0.1762E+03
     -1.973  0.2479E+02  0.2666E+02  0.1778E+03  0.1777E+03
     -1.919  0.3480E+02  0.3530E+02  0.1797E+03  0.1796E+03
     -1.864  0.2104E+02  0.1973E+02  0.1809E+03  0.1807E+03
     -1.810  0.1112E+02  0.1007E+02  0.1815E+03  0.1812E+03
     -1.755  0.3525E+02  0.3578E+02  0.1834E+03  0.1832E+03
     -1.701  0.5657E+02  0.5229E+02  0.1865E+03  0.1860E+03
     -1.646  0.4411E+02  0.4323E+02  0.1889E+03  0.1884E+03
     -1.592  0.3958E+02  0.4334E+02  0.1910E+03  0.1908E+03
     -1.537  0.2621E+02  0.2801E+02  0.1925E+03  0.1923E+03
     -1.483  0.1984E+02  0.2219E+02  0.1936E+03  0.1935E+03
     -1.428  0.2154E+02  0.1489E+02  0.1947E+03  0.1943E+03
     -1.374  0.3744E+02  0.4222E+02  0.1968E+03  0.1966E+03
     -1.319  0.2370E+02  0.2321E+02  0.1981E+03  0.1979E+03
     -1.265  0.2176E+02  0.2374E+02  0.1992E+03  0.1992E+03
     -1.210  0.9255E+01  0.1056E+02  0.1998E+03  0.1997E+03
     -1.156  0.9526E+01  0.9158E+01  0.2003E+03  0.2002E+03
     -1.101  0.1555E+02  0.1414E+02  0.2011E+03  0.2010E+03
     -1.047  0.2678E+02  0.2475E+02  0.2026E+03  0.2024E+03
     -0.992  0.3443E+02  0.3453E+02  0.2045E+03  0.2043E+03
     -0.938  0.1452E+02  0.1786E+02  0.2052E+03  0.2052E+03
     -0.883  0.4658E+01  0.5027E+01  0.2055E+03  0.2055E+03
     -0.829  0.1507E+02  0.6409E+01  0.2063E+03  0.2058E+03
     -0.774  0.1716E+02  0.2569E+02  0.2073E+03  0.2073E+03
     -0.720  0.1034E+02  0.5707E+01  0.2078E+03  0.2076E+03
     -0.665  0.3607E+02  0.3263E+02  0.2098E+03  0.2093E+03
     -0.611  0.3380E+02  0.3496E+02  0.2116E+03  0.2112E+03
     -0.556  0.4798E+02  0.4874E+02  0.2142E+03  0.2139E+03
     -0.501  0.4881E+02  0.4682E+02  0.2169E+03  0.2165E+03
     -0.447  0.1090E+02  0.1912E+02  0.2175E+03  0.2175E+03
     -0.392  0.2672E+02  0.2507E+02  0.2190E+03  0.2189E+03
     -0.338  0.1159E+02  0.1166E+02  0.2196E+03  0.2195E+03
     -0.283  0.7535E+01  0.9160E+01  0.2200E+03  0.2200E+03
     -0.229  0.1726E+02  0.1313E+02  0.2209E+03  0.2207E+03
     -0.174  0.3260E+02  0.3461E+02  0.2227E+03  0.2226E+03
     -0.120  0.3759E+01  0.4637E+01  0.2229E+03  0.2229E+03
     -0.065  0.1629E+02  0.1544E+02  0.2238E+03  0.2237E+03
     -0.011  0.2267E+02  0.2254E+02  0.2250E+03  0.2249E+03
      0.044  0.8321E+01  0.1053E+02  0.2255E+03  0.2255E+03
      0.098  0.4577E+01  0.4585E+01  0.2258E+03  0.2257E+03
      0.153  0.2417E+02  0.2034E+02  0.2271E+03  0.2269E+03
      0.207  0.4844E+02  0.4639E+02  0.2297E+03  0.2294E+03
      0.262  0.8242E+02  0.7859E+02  0.2342E+03  0.2337E+03
      0.316  0.3835E+02  0.4338E+02  0.2363E+03  0.2360E+03
      0.371  0.4277E+02  0.4135E+02  0.2386E+03  0.2383E+03
      0.425  0.3572E+02  0.3250E+02  0.2406E+03  0.2401E+03
      0.480  0.4469E+02  0.5096E+02  0.2430E+03  0.2428E+03
      0.534  0.4380E+02  0.4016E+02  0.2454E+03  0.2450E+03
      0.589  0.4301E+02  0.4303E+02  0.2477E+03  0.2474E+03
      0.643  0.6661E+02  0.6374E+02  0.2514E+03  0.2509E+03
      0.698  0.3503E+02  0.3884E+02  0.2533E+03  0.2530E+03
      0.752  0.1078E+03  0.1022E+03  0.2592E+03  0.2585E+03
      0.807  0.9064E+02  0.9299E+02  0.2641E+03  0.2636E+03
      0.861  0.5791E+02  0.6051E+02  0.2673E+03  0.2669E+03
      0.916  0.5709E+02  0.5371E+02  0.2704E+03  0.2698E+03
      0.970  0.5439E+02  0.5739E+02  0.2733E+03  0.2730E+03
      1.025  0.3247E+02  0.3565E+02  0.2751E+03  0.2749E+03
      1.080  0.9881E+02  0.9045E+02  0.2805E+03  0.2798E+03
      1.134  0.5945E+02  0.6484E+02  0.2837E+03  0.2834E+03
      1.189  0.8254E+02  0.7057E+02  0.2882E+03  0.2872E+03
      1.243  0.6812E+02  0.8194E+02  0.2919E+03  0.2917E+03
      1.298  0.7041E+02  0.6075E+02  0.2958E+03  0.2950E+03
      1.352  0.8928E+02  0.9521E+02  0.3007E+03  0.3002E+03
      1.407  0.7385E+02  0.7229E+02  0.3047E+03  0.3041E+03
      1.461  0.8199E+02  0.7859E+02  0.3092E+03  0.3084E+03
      1.516  0.4193E+02  0.5199E+02  0.3114E+03  0.3113E+03
      1.570  0.5897E+02  0.5653E+02  0.3147E+03  0.3143E+03
      1.625  0.8763E+02  0.7997E+02  0.3194E+03  0.3187E+03
      1.679  0.7570E+02  0.8322E+02  0.3236E+03  0.3232E+03
      1.734  0.8186E+02  0.7924E+02  0.3280E+03  0.3275E+03
      1.788  0.8679E+02  0.8620E+02  0.3328E+03  0.3322E+03
      1.843  0.9900E+02  0.8905E+02  0.3381E+03  0.3371E+03
      1.897  0.8477E+02  0.9417E+02  0.3428E+03  0.3422E+03
      1.952  0.7979E+02  0.8067E+02  0.3471E+03  0.3466E+03
      2.006  0.4685E+02  0.4945E+02  0.3497E+03  0.3493E+03
      2.061  0.5672E+02  0.5387E+02  0.3528E+03  0.3523E+03
      2.115  0.7514E+02  0.7578E+02  0.3569E+03  0.3564E+03
      2.170  0.5030E+02  0.5623E+02  0.3596E+03  0.3595E+03
      2.224  0.8544E+02  0.7836E+02  0.3643E+03  0.3637E+03
      2.279  0.5928E+02  0.6145E+02  0.3675E+03  0.3671E+03
      2.333  0.9338E+02  0.8836E+02  0.3726E+03  0.3719E+03
      2.388  0.5835E+02  0.6166E+02  0.3758E+03  0.3753E+03
      2.442  0.7543E+02  0.7301E+02  0.3799E+03  0.3792E+03
      2.497  0.7208E+02  0.7522E+02  0.3838E+03  0.3833E+03
      2.551  0.7874E+02  0.7947E+02  0.3881E+03  0.3877E+03
      2.606  0.6518E+02  0.6285E+02  0.3917E+03  0.3911E+03
      2.661  0.5237E+02  0.5232E+02  0.3945E+03  0.3940E+03
      2.715  0.8267E+02  0.8610E+02  0.3990E+03  0.3987E+03
      2.770  0.6027E+02  0.5928E+02  0.4023E+03  0.4019E+03
      2.824  0.4378E+02  0.4666E+02  0.4047E+03  0.4044E+03
      2.879  0.4856E+02  0.4587E+02  0.4073E+03  0.4069E+03
      2.933  0.8405E+02  0.7756E+02  0.4119E+03  0.4112E+03
      2.988  0.5923E+02  0.6501E+02  0.4151E+03  0.4147E+03
      3.042  0.4766E+02  0.4412E+02  0.4177E+03  0.4171E+03
      3.097  0.9226E+02  0.9583E+02  0.4228E+03  0.4223E+03
      3.151  0.4163E+02  0.3831E+02  0.4250E+03  0.4244E+03
      3.206  0.7755E+02  0.7925E+02  0.4293E+03  0.4287E+03
      3.260  0.8797E+02  0.9230E+02  0.4341E+03  0.4338E+03
      3.315  0.6717E+02  0.5778E+02  0.4377E+03  0.4369E+03
      3.369  0.6161E+02  0.6181E+02  0.4411E+03  0.4403E+03
      3.424  0.5371E+02  0.6209E+02  0.4440E+03  0.4437E+03
      3.478  0.6255E+02  0.5558E+02  0.4474E+03  0.4467E+03
      3.533  0.2563E+02  0.3732E+02  0.4488E+03  0.4487E+03
      3.587  0.6107E+02  0.4947E+02  0.4522E+03  0.4514E+03
      3.642  0.2733E+02  0.3597E+02  0.4536E+03  0.4534E+03
      3.696  0.2678E+02  0.2555E+02  0.4551E+03  0.4548E+03
      3.751  0.4223E+02  0.4267E+02  0.4574E+03  0.4571E+03
      3.805  0.2943E+02  0.2590E+02  0.4590E+03  0.4585E+03
      3.860  0.2272E+02  0.3144E+02  0.4603E+03  0.4602E+03
      3.914  0.3161E+02  0.2385E+02  0.4620E+03  0.4615E+03
      3.969  0.3238E+02  0.3521E+02  0.4637E+03  0.4635E+03
      4.023  0.3146E+02  0.3149E+02  0.4655E+03  0.4652E+03
      4.078  0.2848E+02  0.3159E+02  0.4670E+03  0.4669E+03
      4.133  0.1991E+02  0.1990E+02  0.4681E+03  0.4680E+03
      4.187  0.2294E+02  0.1521E+02  0.4693E+03  0.4688E+03
      4.242  0.2494E+02  0.2174E+02  0.4707E+03  0.4700E+03
      4.296  0.1930E+02  0.3096E+02  0.4718E+03  0.4717E+03
      4.351  0.1366E+02  0.1479E+02  0.4725E+03  0.4725E+03
      4.405  0.1755E+01  0.1279E+00  0.4726E+03  0.4725E+03
      4.460  0.2909E+02  0.1154E+02  0.4742E+03  0.4731E+03
      4.514  0.2646E+02  0.3119E+02  0.4756E+03  0.4748E+03
      4.569  0.1625E+02  0.2142E+02  0.4765E+03  0.4760E+03
      4.623  0.4407E+01  0.1230E+02  0.4768E+03  0.4767E+03
      4.678  0.1868E+02  0.1433E+01  0.4778E+03  0.4768E+03
      4.732  0.4222E+02  0.2827E+02  0.4801E+03  0.4783E+03
      4.787  0.3095E+02  0.3522E+02  0.4818E+03  0.4802E+03
      4.841  0.2810E+02  0.4331E+02  0.4833E+03  0.4826E+03
      4.896  0.3101E+02  0.2267E+02  0.4850E+03  0.4838E+03
      4.950  0.2311E+02  0.2787E+02  0.4862E+03  0.4853E+03
      5.005  0.2178E+02  0.1686E+02  0.4874E+03  0.4863E+03
      5.059  0.4563E+02  0.3304E+02  0.4899E+03  0.4881E+03
      5.114  0.2873E+02  0.4839E+02  0.4915E+03  0.4907E+03
      5.168  0.3441E+02  0.2957E+02  0.4934E+03  0.4923E+03
      5.223  0.2266E+02  0.2450E+02  0.4946E+03  0.4936E+03
      5.277  0.5378E+02  0.4392E+02  0.4975E+03  0.4960E+03
      5.332  0.2819E+02  0.5241E+02  0.4991E+03  0.4989E+03
      5.386  0.3212E+02  0.2032E+02  0.5008E+03  0.5000E+03
      5.441  0.5436E+02  0.4843E+02  0.5038E+03  0.5026E+03
      5.495  0.1808E+02  0.3870E+02  0.5048E+03  0.5047E+03
      5.550  0.4562E+02  0.3426E+02  0.5072E+03  0.5066E+03
      5.604  0.4666E+02  0.5059E+02  0.5098E+03  0.5094E+03
      5.659  0.5388E+02  0.5090E+02  0.5127E+03  0.5121E+03
      5.714  0.5170E+02  0.5125E+02  0.5155E+03  0.5149E+03
      5.768  0.5411E+02  0.5561E+02  0.5185E+03  0.5180E+03
      5.823  0.5180E+02  0.4952E+02  0.5213E+03  0.5207E+03
      5.877  0.5826E+02  0.5484E+02  0.5245E+03  0.5237E+03
      5.932  0.5596E+02  0.5537E+02  0.5276E+03  0.5267E+03
      5.986  0.4466E+02  0.5048E+02  0.5300E+03  0.5294E+03
      6.041  0.4215E+02  0.4372E+02  0.5323E+03  0.5318E+03
      6.095  0.4705E+02  0.4182E+02  0.5348E+03  0.5341E+03
      6.150  0.6322E+02  0.5905E+02  0.5383E+03  0.5373E+03
      6.204  0.6197E+02  0.7337E+02  0.5417E+03  0.5413E+03
      6.259  0.3372E+02  0.3597E+02  0.5435E+03  0.5433E+03
      6.313  0.3115E+02  0.3028E+02  0.5452E+03  0.5449E+03
      6.368  0.5470E+02  0.4696E+02  0.5482E+03  0.5475E+03
      6.422  0.5783E+02  0.6515E+02  0.5513E+03  0.5510E+03
      6.477  0.6172E+02  0.5783E+02  0.5547E+03  0.5542E+03
      6.531  0.7501E+02  0.7321E+02  0.5588E+03  0.5582E+03
      6.586  0.4005E+02  0.4470E+02  0.5610E+03  0.5606E+03
      6.640  0.4498E+02  0.4581E+02  0.5634E+03  0.5631E+03
      6.695  0.3722E+02  0.3835E+02  0.5655E+03  0.5652E+03
      6.749  0.3188E+02  0.3269E+02  0.5672E+03  0.5670E+03
      6.804  0.5794E+02  0.5243E+02  0.5704E+03  0.5698E+03
      6.858  0.5310E+02  0.5827E+02  0.5733E+03  0.5730E+03
      6.913  0.2271E+02  0.2674E+02  0.5745E+03  0.5745E+03
      6.967  0.5426E+01  0.2627E+01  0.5748E+03  0.5746E+03
      7.022  0.1649E+02  0.1589E+02  0.5757E+03  0.5755E+03
      7.076  0.5695E+01  0.9278E+01  0.5760E+03  0.5760E+03
      7.131  0.0000E+00  0.0000E+00  0.5760E+03  0.5760E+03
      7.185  0.0000E+00  0.0000E+00  0.5760E+03  0.5760E+03
      7.240  0.0000E+00  0.0000E+00  0.5760E+03  0.5760E+03
      7.295  0.0000E+00  0.0000E+00  0.5760E+03  0.5760E+03
      7.349  0.0000E+00  0.0000E+00  0.5760E+03  0.5760E+03
      7.404  0.0000E+00  0.0000E+00  0.5760E+03  0.5760E+03
      7.458  0.0000E+00  0.0000E+00  0.5760E+03  0.5760E+03
      7.513  0.0000E+00  0.0000E+00  0.5760E+03  0.5760E+03
      7.567  0.0000E+00  0.0000E+00  0.5760E+03  0.5760E+03
      7.622  0.0000E+00  0.0000E+00  0.5760E+03  0.5760E+03
      7.676  0.0000E+00  0.0000E+00  0.5760E+03  0.5760E+03
      7.731  0.0000E+00  0.0000E+00  0.5760E+03  0.5760E+03
      7.785  0.0000E+00  0.0000E+00  0.5760E+03  0.5760E+03
