Si Bulk DFT energetics calculations using VASP\n
This script is running on comp019.cluster.local in /lustre/home/ah1365/projects/127870/upgrade_report/case_studies/common/structures/interfaces/168_Sn72Ge96_011_011_a0.696203_b0.07732_c2.065575_interface3shift8\n
Job started on: Mon  9 Jun 03:26:16 UTC 2025\n
 running   64 mpi-ranks, on    4 nodes
 distrk:  each k-point on   64 cores,    1 groups
 distr:  one band on   16 cores,    4 groups
 vasp.6.4.3 19Mar24 (build Oct 22 2024 11:23:12) complex                        
  
 POSCAR found type information on POSCAR SnGe
 POSCAR found :  2 types and     168 ions
 -----------------------------------------------------------------------------
|                                                                             |
|           W    W    AA    RRRRR   N    N  II  N    N   GGGG   !!!           |
|           W    W   A  A   R    R  NN   N  II  NN   N  G    G  !!!           |
|           W    W  A    A  R    R  N N  N  II  N N  N  G       !!!           |
|           W WW W  AAAAAA  RRRRR   N  N N  II  N  N N  G  GGG   !            |
|           WW  WW  A    A  R   R   N   NN  II  N   NN  G    G                |
|           W    W  A    A  R    R  N    N  II  N    N   GGGG   !!!           |
|                                                                             |
|     You use a magnetic or noncollinear calculation, but did not specify     |
|     the initial magnetic moment with the MAGMOM tag. Note that a            |
|     default of 5.952e-3 will be used for all atoms. This ferromagnetic      |
|     setup may break the symmetry of the crystal, in particular it may       |
|     rule out finding an antiferromagnetic solution. Thence, we              |
|     recommend setting the initial magnetic moment manually or verifying     |
|     carefully that this magnetic setup is desired.                          |
|                                                                             |
 -----------------------------------------------------------------------------

 scaLAPACK will be used
 WARNING: PSMAXN for non-local potential too small
 LDA part: xc-table for (Slater+PW92), standard interpolation
 POSCAR, INCAR and KPOINTS ok, starting setup
 FFT: planning ... GRIDC
 FFT: planning ... GRID_SOFT
 FFT: planning ... GRID
 WAVECAR not read
 entering main loop
       N       E                     dE             d eps       ncg     rms          rms(c)
DAV:   1     0.347382004772E+04    0.34738E+04   -0.28104E+05  8080   0.168E+03
DAV:   2    -0.254438352910E+03   -0.37283E+04   -0.36048E+04  9512   0.200E+02
DAV:   3    -0.663253433997E+03   -0.40882E+03   -0.39744E+03  9864   0.649E+01
DAV:   4    -0.679781146644E+03   -0.16528E+02   -0.16225E+02  9728   0.129E+01
DAV:   5    -0.680512988594E+03   -0.73184E+00   -0.72681E+00 10680   0.232E+00    0.300E+01
DAV:   6    -0.670533412816E+03    0.99796E+01   -0.22773E+01 12112   0.888E+00    0.147E+01
DAV:   7    -0.674176429448E+03   -0.36430E+01   -0.35568E+01 11528   0.132E+01    0.707E+00
DAV:   8    -0.669267700457E+03    0.49087E+01   -0.17757E+01 12608   0.100E+01    0.332E+00
DAV:   9    -0.668599774110E+03    0.66793E+00   -0.76123E+00 10608   0.477E+00    0.177E+00
DAV:  10    -0.668586040587E+03    0.13734E-01   -0.19111E+00  9208   0.192E+00    0.116E+00
DAV:  11    -0.668580011004E+03    0.60296E-02   -0.33366E-01 10248   0.645E-01    0.578E-01
DAV:  12    -0.668580865976E+03   -0.85497E-03   -0.73672E-02  9648   0.381E-01    0.189E-01
DAV:  13    -0.668582077961E+03   -0.12120E-02   -0.12910E-02  9184   0.154E-01    0.123E-01
DAV:  14    -0.668582406265E+03   -0.32830E-03   -0.19201E-03  9592   0.537E-02    0.754E-02
DAV:  15    -0.668582449234E+03   -0.42969E-04   -0.35020E-04  9816   0.260E-02    0.469E-02
DAV:  16    -0.668582510372E+03   -0.61138E-04   -0.18268E-04  8936   0.171E-02    0.260E-02
DAV:  17    -0.668582536680E+03   -0.26308E-04   -0.42869E-05  9168   0.969E-03    0.176E-02
DAV:  18    -0.668582541381E+03   -0.47011E-05   -0.93851E-06  9384   0.461E-03    0.142E-02
DAV:  19    -0.668582546219E+03   -0.48380E-05   -0.64428E-06 10120   0.346E-03    0.113E-02
DAV:  20    -0.668582553621E+03   -0.74025E-05   -0.47722E-06  9384   0.316E-03    0.858E-03
DAV:  21    -0.668582558891E+03   -0.52698E-05   -0.36992E-06  9472   0.276E-03    0.611E-03
DAV:  22    -0.668582560572E+03   -0.16804E-05   -0.15423E-06  9624   0.204E-03    0.362E-03
DAV:  23    -0.668582561050E+03   -0.47854E-06   -0.10693E-06  9312   0.139E-03    0.157E-03
DAV:  24    -0.668582561364E+03   -0.31342E-06   -0.36920E-07  7376   0.914E-04    0.716E-04
DAV:  25    -0.668582561525E+03   -0.16180E-06   -0.11681E-07  4912   0.456E-04    0.387E-04
DAV:  26    -0.668582561566E+03   -0.40251E-07   -0.22026E-08  4824   0.234E-04
   1 F= -.66858256E+03 E0= -.66858108E+03  d E =-.296187E-02  mag=     1.0000
Job ended on: Mon  9 Jun 04:06:45 UTC 2025\n
