 120 120   0   0
  0.2091485E+02  0.9177115E-09  0.1589523E-08  0.2107214E-08  0.5000000E-15
  1.000000000000000E-004
  CAR 
 Si and Ge interface calculation         
      9.64216239     -9.75480441  301      6.86040048      1.00000000
     -9.755  0.0000E+00  0.0000E+00  0.0000E+00  0.0000E+00
     -9.690  0.0000E+00  0.0000E+00  0.0000E+00  0.0000E+00
     -9.625  0.0000E+00  0.0000E+00  0.0000E+00  0.0000E+00
     -9.561  0.0000E+00  0.0000E+00  0.0000E+00  0.0000E+00
     -9.496  0.0000E+00  0.0000E+00  0.0000E+00  0.0000E+00
     -9.432  0.0000E+00  0.0000E+00  0.0000E+00  0.0000E+00
     -9.367  0.0000E+00  0.0000E+00  0.0000E+00  0.0000E+00
     -9.302  0.0000E+00  0.0000E+00  0.0000E+00  0.0000E+00
     -9.238  0.0000E+00  0.0000E+00  0.0000E+00  0.0000E+00
     -9.173  0.0000E+00  0.0000E+00  0.0000E+00  0.0000E+00
     -9.108  0.0000E+00  0.0000E+00  0.0000E+00  0.0000E+00
     -9.044  0.0000E+00  0.0000E+00  0.0000E+00  0.0000E+00
     -8.979  0.0000E+00  0.0000E+00  0.0000E+00  0.0000E+00
     -8.914  0.1146E-07  0.8766E-12  0.7409E-09  0.5668E-13
     -8.850  0.3865E+01  0.3757E+01  0.2499E+00  0.2429E+00
     -8.785  0.2325E+02  0.2308E+02  0.1753E+01  0.1735E+01
     -8.720  0.2628E+02  0.1633E+02  0.3453E+01  0.2796E+01
     -8.656  0.8389E+01  0.1756E+02  0.3995E+01  0.3933E+01
     -8.591  0.3944E+01  0.4906E+01  0.4250E+01  0.4250E+01
     -8.526  0.1436E+02  0.4519E+01  0.5178E+01  0.4542E+01
     -8.462  0.8839E+01  0.1868E+02  0.5750E+01  0.5750E+01
     -8.397  0.7874E+01  0.5296E+01  0.6259E+01  0.6092E+01
     -8.332  0.1533E+02  0.1790E+02  0.7250E+01  0.7250E+01
     -8.268  0.7727E+01  0.7733E+01  0.7750E+01  0.7750E+01
     -8.203  0.2856E+00  0.4614E-02  0.7768E+01  0.7750E+01
     -8.138  0.3581E+01  0.3862E+01  0.8000E+01  0.8000E+01
     -8.074  0.3862E+01  0.3431E+01  0.8250E+01  0.8222E+01
     -8.009  0.7725E+01  0.7315E+01  0.8749E+01  0.8695E+01
     -7.944  0.2011E+01  0.9882E+00  0.8880E+01  0.8759E+01
     -7.880  0.5044E+01  0.5103E+01  0.9206E+01  0.9089E+01
     -7.815  0.7174E+00  0.2497E+01  0.9253E+01  0.9250E+01
     -7.750  0.2257E+02  0.1832E+02  0.1071E+02  0.1043E+02
     -7.686  0.8323E+01  0.1253E+02  0.1125E+02  0.1125E+02
     -7.621  0.2359E+02  0.1896E+02  0.1278E+02  0.1248E+02
     -7.556  0.3477E+01  0.8102E+01  0.1300E+02  0.1300E+02
     -7.492  0.7688E+01  0.6889E+01  0.1350E+02  0.1345E+02
     -7.427  0.7733E+01  0.8549E+01  0.1400E+02  0.1400E+02
     -7.363  0.4017E+01  0.3510E+01  0.1426E+02  0.1423E+02
     -7.298  0.1145E+02  0.1194E+02  0.1500E+02  0.1500E+02
     -7.233  0.3867E+01  0.3865E+01  0.1525E+02  0.1525E+02
     -7.169  0.2300E+02  0.2112E+02  0.1674E+02  0.1662E+02
     -7.104  0.3277E+01  0.3226E+01  0.1695E+02  0.1682E+02
     -7.039  0.1280E+02  0.1148E+02  0.1778E+02  0.1757E+02
     -6.975  0.1649E+02  0.1833E+02  0.1884E+02  0.1875E+02
     -6.910  0.6301E+01  0.7677E+01  0.1925E+02  0.1925E+02
     -6.845  0.8827E+01  0.7350E+01  0.1982E+02  0.1973E+02
     -6.781  0.1385E+02  0.1231E+02  0.2072E+02  0.2052E+02
     -6.716  0.1984E+02  0.2280E+02  0.2200E+02  0.2200E+02
     -6.651  0.7709E+01  0.7177E+01  0.2250E+02  0.2246E+02
     -6.587  0.8623E+00  0.5927E+00  0.2256E+02  0.2250E+02
     -6.522  0.1847E+02  0.1930E+02  0.2375E+02  0.2375E+02
     -6.457  0.4805E-02  0.4191E-04  0.2375E+02  0.2375E+02
     -6.393  0.3908E+01  0.3868E+01  0.2400E+02  0.2400E+02
     -6.328  0.3821E+01  0.3866E+01  0.2425E+02  0.2425E+02
     -6.263  0.7859E-04  0.2056E-06  0.2425E+02  0.2425E+02
     -6.199  0.9153E+01  0.7856E+01  0.2484E+02  0.2476E+02
     -6.134  0.1817E+02  0.1469E+02  0.2602E+02  0.2571E+02
     -6.069  0.3607E+01  0.8386E+01  0.2625E+02  0.2625E+02
     -6.005  0.6504E-07  0.2424E-10  0.2625E+02  0.2625E+02
     -5.940  0.8534E+01  0.7662E+01  0.2680E+02  0.2675E+02
     -5.875  0.2242E+02  0.2234E+02  0.2825E+02  0.2820E+02
     -5.811  0.1859E+02  0.1509E+02  0.2946E+02  0.2917E+02
     -5.746  0.3912E+01  0.6806E+01  0.2971E+02  0.2961E+02
     -5.681  0.6396E+00  0.2150E+01  0.2975E+02  0.2975E+02
     -5.617  0.1537E+02  0.1490E+02  0.3075E+02  0.3071E+02
     -5.552  0.3799E+01  0.1437E+01  0.3099E+02  0.3081E+02
     -5.487  0.1616E+02  0.1698E+02  0.3204E+02  0.3191E+02
     -5.423  0.2640E+02  0.2720E+02  0.3375E+02  0.3366E+02
     -5.358  0.1789E-01  0.1322E+01  0.3375E+02  0.3375E+02
     -5.294  0.8259E+01  0.7748E+01  0.3429E+02  0.3425E+02
     -5.229  0.1745E+02  0.1331E+02  0.3541E+02  0.3511E+02
     -5.164  0.2354E+02  0.2415E+02  0.3694E+02  0.3667E+02
     -5.100  0.1296E+02  0.1666E+02  0.3777E+02  0.3775E+02
     -5.035  0.2581E+02  0.2351E+02  0.3944E+02  0.3927E+02
     -4.970  0.2357E+02  0.2347E+02  0.4097E+02  0.4079E+02
     -4.906  0.2042E+01  0.3462E+01  0.4110E+02  0.4101E+02
     -4.841  0.1713E+02  0.1676E+02  0.4221E+02  0.4210E+02
     -4.776  0.1991E+02  0.2040E+02  0.4349E+02  0.4342E+02
     -4.712  0.1177E+02  0.9792E+01  0.4426E+02  0.4405E+02
     -4.647  0.1039E+02  0.1166E+02  0.4493E+02  0.4480E+02
     -4.582  0.2584E+02  0.2627E+02  0.4661E+02  0.4650E+02
     -4.518  0.2594E+01  0.3769E+01  0.4677E+02  0.4675E+02
     -4.453  0.1983E+02  0.1710E+02  0.4806E+02  0.4786E+02
     -4.388  0.2609E+02  0.2744E+02  0.4974E+02  0.4963E+02
     -4.324  0.1422E+02  0.1403E+02  0.5066E+02  0.5055E+02
     -4.259  0.3885E+02  0.3158E+02  0.5317E+02  0.5259E+02
     -4.194  0.2433E+02  0.3322E+02  0.5475E+02  0.5473E+02
     -4.130  0.1512E+02  0.1407E+02  0.5573E+02  0.5564E+02
     -4.065  0.1366E+02  0.1256E+02  0.5661E+02  0.5646E+02
     -4.000  0.2142E+02  0.1931E+02  0.5800E+02  0.5770E+02
     -3.936  0.1724E+02  0.1902E+02  0.5911E+02  0.5894E+02
     -3.871  0.1774E+02  0.1648E+02  0.6026E+02  0.6000E+02
     -3.806  0.3162E+02  0.3192E+02  0.6231E+02  0.6206E+02
     -3.742  0.1859E+02  0.2222E+02  0.6351E+02  0.6350E+02
     -3.677  0.8056E+01  0.7705E+01  0.6403E+02  0.6400E+02
     -3.612  0.2777E+02  0.2616E+02  0.6582E+02  0.6569E+02
     -3.548  0.1805E+02  0.1472E+02  0.6700E+02  0.6665E+02
     -3.483  0.2568E+02  0.2655E+02  0.6866E+02  0.6836E+02
     -3.418  0.2078E+02  0.2511E+02  0.7000E+02  0.6999E+02
     -3.354  0.3343E+02  0.3047E+02  0.7216E+02  0.7196E+02
     -3.289  0.3514E+02  0.3453E+02  0.7444E+02  0.7419E+02
     -3.224  0.1608E+02  0.1650E+02  0.7548E+02  0.7526E+02
     -3.160  0.3633E+02  0.3630E+02  0.7783E+02  0.7761E+02
     -3.095  0.4902E+02  0.5028E+02  0.8101E+02  0.8086E+02
     -3.031  0.1908E+02  0.2077E+02  0.8225E+02  0.8220E+02
     -2.966  0.3387E+02  0.3058E+02  0.8444E+02  0.8418E+02
     -2.901  0.2879E+02  0.2844E+02  0.8630E+02  0.8602E+02
     -2.837  0.1780E+02  0.1889E+02  0.8746E+02  0.8724E+02
     -2.772  0.5910E+02  0.5858E+02  0.9128E+02  0.9103E+02
     -2.707  0.4792E+02  0.4710E+02  0.9438E+02  0.9407E+02
     -2.643  0.2928E+02  0.3187E+02  0.9627E+02  0.9614E+02
     -2.578  0.1858E+02  0.1800E+02  0.9747E+02  0.9730E+02
     -2.513  0.4769E+02  0.4569E+02  0.1006E+03  0.1003E+03
     -2.449  0.4638E+02  0.4268E+02  0.1036E+03  0.1030E+03
     -2.384  0.3132E+02  0.3823E+02  0.1056E+03  0.1055E+03
     -2.319  0.7151E+01  0.7982E+01  0.1061E+03  0.1060E+03
     -2.255  0.3153E+02  0.2512E+02  0.1081E+03  0.1076E+03
     -2.190  0.3817E+02  0.4360E+02  0.1106E+03  0.1104E+03
     -2.125  0.4874E+02  0.4684E+02  0.1137E+03  0.1135E+03
     -2.061  0.2788E+02  0.3104E+02  0.1155E+03  0.1155E+03
     -1.996  0.2976E+02  0.2296E+02  0.1174E+03  0.1170E+03
     -1.931  0.2808E+02  0.3497E+02  0.1193E+03  0.1192E+03
     -1.867  0.4410E+02  0.4040E+02  0.1221E+03  0.1218E+03
     -1.802  0.4603E+02  0.4580E+02  0.1251E+03  0.1248E+03
     -1.737  0.3148E+02  0.2868E+02  0.1271E+03  0.1267E+03
     -1.673  0.3646E+02  0.3800E+02  0.1295E+03  0.1291E+03
     -1.608  0.3130E+02  0.3133E+02  0.1315E+03  0.1311E+03
     -1.543  0.3718E+02  0.3929E+02  0.1339E+03  0.1337E+03
     -1.479  0.3101E+02  0.3159E+02  0.1359E+03  0.1357E+03
     -1.414  0.4030E+02  0.4232E+02  0.1385E+03  0.1385E+03
     -1.349  0.3092E+02  0.2336E+02  0.1405E+03  0.1400E+03
     -1.285  0.4296E+02  0.5070E+02  0.1433E+03  0.1433E+03
     -1.220  0.3381E+02  0.2976E+02  0.1455E+03  0.1452E+03
     -1.155  0.3285E+02  0.3393E+02  0.1476E+03  0.1474E+03
     -1.091  0.3185E+02  0.3004E+02  0.1497E+03  0.1493E+03
     -1.026  0.3491E+02  0.3592E+02  0.1519E+03  0.1516E+03
     -0.962  0.2376E+02  0.2731E+02  0.1535E+03  0.1534E+03
     -0.897  0.3150E+02  0.3222E+02  0.1555E+03  0.1555E+03
     -0.832  0.4056E+02  0.3388E+02  0.1581E+03  0.1577E+03
     -0.768  0.2675E+02  0.3062E+02  0.1599E+03  0.1597E+03
     -0.703  0.2694E+02  0.2497E+02  0.1616E+03  0.1613E+03
     -0.638  0.3264E+02  0.3156E+02  0.1637E+03  0.1633E+03
     -0.574  0.1434E+02  0.1600E+02  0.1647E+03  0.1644E+03
     -0.509  0.4200E+02  0.4421E+02  0.1674E+03  0.1672E+03
     -0.444  0.2543E+02  0.2761E+02  0.1690E+03  0.1690E+03
     -0.380  0.3652E+02  0.3041E+02  0.1714E+03  0.1710E+03
     -0.315  0.2605E+02  0.3090E+02  0.1731E+03  0.1730E+03
     -0.250  0.4491E+02  0.4176E+02  0.1760E+03  0.1757E+03
     -0.186  0.3267E+02  0.2844E+02  0.1781E+03  0.1775E+03
     -0.121  0.2946E+02  0.3360E+02  0.1800E+03  0.1797E+03
     -0.056  0.4537E+02  0.4436E+02  0.1829E+03  0.1825E+03
      0.008  0.3975E+02  0.4483E+02  0.1855E+03  0.1854E+03
      0.073  0.1802E+02  0.1355E+02  0.1867E+03  0.1863E+03
      0.138  0.2190E+02  0.2331E+02  0.1881E+03  0.1878E+03
      0.202  0.5791E+02  0.5146E+02  0.1918E+03  0.1912E+03
      0.267  0.4863E+02  0.5407E+02  0.1950E+03  0.1947E+03
      0.332  0.2451E+02  0.2446E+02  0.1966E+03  0.1962E+03
      0.396  0.3422E+02  0.3508E+02  0.1988E+03  0.1985E+03
      0.461  0.5888E+02  0.4909E+02  0.2026E+03  0.2017E+03
      0.526  0.1643E+02  0.2699E+02  0.2036E+03  0.2034E+03
      0.590  0.4412E+02  0.3967E+02  0.2065E+03  0.2060E+03
      0.655  0.3185E+02  0.3488E+02  0.2086E+03  0.2082E+03
      0.720  0.4938E+02  0.4751E+02  0.2118E+03  0.2113E+03
      0.784  0.1623E+02  0.2100E+02  0.2128E+03  0.2127E+03
      0.849  0.3731E+02  0.3467E+02  0.2152E+03  0.2149E+03
      0.914  0.2876E+02  0.2832E+02  0.2171E+03  0.2167E+03
      0.978  0.3740E+02  0.4006E+02  0.2195E+03  0.2193E+03
      1.043  0.5355E+02  0.5264E+02  0.2230E+03  0.2227E+03
      1.107  0.2956E+02  0.3126E+02  0.2249E+03  0.2248E+03
      1.172  0.4938E+02  0.4125E+02  0.2281E+03  0.2274E+03
      1.237  0.5140E+02  0.5430E+02  0.2314E+03  0.2309E+03
      1.301  0.2873E+02  0.3232E+02  0.2333E+03  0.2330E+03
      1.366  0.4188E+02  0.3885E+02  0.2360E+03  0.2355E+03
      1.431  0.3570E+02  0.3920E+02  0.2383E+03  0.2381E+03
      1.495  0.4375E+02  0.3863E+02  0.2411E+03  0.2406E+03
      1.560  0.4041E+02  0.4111E+02  0.2437E+03  0.2432E+03
      1.625  0.2972E+02  0.3541E+02  0.2457E+03  0.2455E+03
      1.689  0.3175E+02  0.2541E+02  0.2477E+03  0.2472E+03
      1.754  0.5851E+02  0.5581E+02  0.2515E+03  0.2508E+03
      1.819  0.4546E+02  0.5093E+02  0.2544E+03  0.2541E+03
      1.883  0.2359E+02  0.2280E+02  0.2560E+03  0.2556E+03
      1.948  0.4694E+02  0.4513E+02  0.2590E+03  0.2585E+03
      2.013  0.2435E+02  0.2470E+02  0.2606E+03  0.2601E+03
      2.077  0.3087E+02  0.3751E+02  0.2626E+03  0.2625E+03
      2.142  0.4667E+02  0.4601E+02  0.2656E+03  0.2655E+03
      2.207  0.3220E+02  0.3115E+02  0.2677E+03  0.2675E+03
      2.271  0.3183E+02  0.2790E+02  0.2697E+03  0.2693E+03
      2.336  0.4451E+02  0.4686E+02  0.2726E+03  0.2723E+03
      2.401  0.4051E+02  0.3706E+02  0.2752E+03  0.2747E+03
      2.465  0.4616E+02  0.5162E+02  0.2782E+03  0.2781E+03
      2.530  0.3753E+02  0.3300E+02  0.2806E+03  0.2802E+03
      2.595  0.3324E+02  0.3542E+02  0.2828E+03  0.2825E+03
      2.659  0.3402E+02  0.3487E+02  0.2850E+03  0.2848E+03
      2.724  0.4397E+02  0.4203E+02  0.2878E+03  0.2875E+03
      2.789  0.5030E+02  0.4892E+02  0.2911E+03  0.2906E+03
      2.853  0.4369E+02  0.4257E+02  0.2939E+03  0.2934E+03
      2.918  0.5486E+02  0.5591E+02  0.2975E+03  0.2970E+03
      2.983  0.5532E+02  0.5889E+02  0.3011E+03  0.3008E+03
      3.047  0.4766E+02  0.4341E+02  0.3041E+03  0.3036E+03
      3.112  0.4165E+02  0.4813E+02  0.3068E+03  0.3067E+03
      3.177  0.4464E+02  0.4078E+02  0.3097E+03  0.3094E+03
      3.241  0.5640E+02  0.5509E+02  0.3134E+03  0.3129E+03
      3.306  0.4436E+02  0.4933E+02  0.3162E+03  0.3161E+03
      3.370  0.4222E+02  0.4217E+02  0.3190E+03  0.3189E+03
      3.435  0.4505E+02  0.4206E+02  0.3219E+03  0.3216E+03
      3.500  0.7074E+02  0.7253E+02  0.3265E+03  0.3263E+03
      3.564  0.3305E+02  0.3280E+02  0.3286E+03  0.3284E+03
      3.629  0.4718E+02  0.4339E+02  0.3316E+03  0.3312E+03
      3.694  0.5058E+02  0.4649E+02  0.3349E+03  0.3342E+03
      3.758  0.6725E+02  0.6631E+02  0.3393E+03  0.3385E+03
      3.823  0.4891E+02  0.5601E+02  0.3424E+03  0.3421E+03
      3.888  0.6856E+02  0.6211E+02  0.3469E+03  0.3462E+03
      3.952  0.5884E+02  0.5921E+02  0.3507E+03  0.3500E+03
      4.017  0.4759E+02  0.5295E+02  0.3537E+03  0.3534E+03
      4.082  0.5742E+02  0.5299E+02  0.3575E+03  0.3568E+03
      4.146  0.7430E+02  0.7866E+02  0.3623E+03  0.3619E+03
      4.211  0.5866E+02  0.5692E+02  0.3661E+03  0.3656E+03
      4.276  0.6826E+02  0.6245E+02  0.3705E+03  0.3696E+03
      4.340  0.6811E+02  0.7665E+02  0.3749E+03  0.3746E+03
      4.405  0.6467E+02  0.5828E+02  0.3791E+03  0.3784E+03
      4.470  0.5429E+02  0.5931E+02  0.3826E+03  0.3822E+03
      4.534  0.5124E+02  0.5479E+02  0.3859E+03  0.3857E+03
      4.599  0.5110E+02  0.4447E+02  0.3892E+03  0.3886E+03
      4.664  0.6902E+02  0.7431E+02  0.3937E+03  0.3934E+03
      4.728  0.5268E+02  0.4755E+02  0.3971E+03  0.3965E+03
      4.793  0.5868E+02  0.6303E+02  0.4009E+03  0.4006E+03
      4.858  0.3330E+02  0.3525E+02  0.4030E+03  0.4029E+03
      4.922  0.5597E+02  0.5390E+02  0.4066E+03  0.4063E+03
      4.987  0.3897E+02  0.3724E+02  0.4092E+03  0.4088E+03
      5.052  0.4523E+02  0.4630E+02  0.4121E+03  0.4118E+03
      5.116  0.6707E+02  0.6767E+02  0.4164E+03  0.4161E+03
      5.181  0.4996E+02  0.4850E+02  0.4197E+03  0.4193E+03
      5.246  0.1462E+02  0.1723E+02  0.4206E+03  0.4204E+03
      5.310  0.2839E+02  0.2913E+02  0.4224E+03  0.4223E+03
      5.375  0.5052E+02  0.4560E+02  0.4257E+03  0.4252E+03
      5.439  0.5698E+02  0.5961E+02  0.4294E+03  0.4291E+03
      5.504  0.1378E+02  0.1538E+02  0.4303E+03  0.4301E+03
      5.569  0.3706E+02  0.3288E+02  0.4327E+03  0.4322E+03
      5.633  0.3784E+02  0.3822E+02  0.4351E+03  0.4347E+03
      5.698  0.3628E+02  0.3680E+02  0.4375E+03  0.4371E+03
      5.763  0.2900E+02  0.3160E+02  0.4394E+03  0.4391E+03
      5.827  0.1519E+02  0.1283E+02  0.4403E+03  0.4399E+03
      5.892  0.5007E+02  0.4642E+02  0.4436E+03  0.4429E+03
      5.957  0.3216E+02  0.3343E+02  0.4457E+03  0.4451E+03
      6.021  0.2386E+02  0.2528E+02  0.4472E+03  0.4467E+03
      6.086  0.3840E+02  0.3911E+02  0.4497E+03  0.4493E+03
      6.151  0.3965E+02  0.4595E+02  0.4523E+03  0.4522E+03
      6.215  0.3631E+02  0.2431E+02  0.4546E+03  0.4538E+03
      6.280  0.3415E+02  0.4320E+02  0.4568E+03  0.4566E+03
      6.345  0.3067E+02  0.3237E+02  0.4588E+03  0.4587E+03
      6.409  0.3259E+02  0.2983E+02  0.4609E+03  0.4606E+03
      6.474  0.4672E+02  0.4516E+02  0.4639E+03  0.4635E+03
      6.539  0.3589E+02  0.3247E+02  0.4662E+03  0.4656E+03
      6.603  0.3497E+02  0.4282E+02  0.4685E+03  0.4684E+03
      6.668  0.4800E+02  0.3859E+02  0.4716E+03  0.4709E+03
      6.733  0.2761E+02  0.3293E+02  0.4734E+03  0.4730E+03
      6.797  0.4442E+02  0.4391E+02  0.4763E+03  0.4759E+03
      6.862  0.4953E+02  0.4884E+02  0.4795E+03  0.4790E+03
      6.927  0.3586E+02  0.3439E+02  0.4818E+03  0.4813E+03
      6.991  0.5241E+02  0.5613E+02  0.4852E+03  0.4849E+03
      7.056  0.4795E+02  0.4226E+02  0.4883E+03  0.4876E+03
      7.121  0.2982E+02  0.3333E+02  0.4902E+03  0.4898E+03
      7.185  0.5603E+02  0.5425E+02  0.4938E+03  0.4933E+03
      7.250  0.3983E+02  0.4245E+02  0.4964E+03  0.4960E+03
      7.315  0.5815E+02  0.4684E+02  0.5002E+03  0.4991E+03
      7.379  0.4750E+02  0.5201E+02  0.5032E+03  0.5024E+03
      7.444  0.5003E+02  0.5841E+02  0.5065E+03  0.5062E+03
      7.508  0.5540E+02  0.5172E+02  0.5101E+03  0.5096E+03
      7.573  0.2787E+02  0.2765E+02  0.5119E+03  0.5113E+03
      7.638  0.3903E+02  0.3739E+02  0.5144E+03  0.5138E+03
      7.702  0.6041E+02  0.5854E+02  0.5183E+03  0.5176E+03
      7.767  0.2282E+02  0.3040E+02  0.5198E+03  0.5195E+03
      7.832  0.5595E+02  0.5355E+02  0.5234E+03  0.5230E+03
      7.896  0.5105E+02  0.5212E+02  0.5267E+03  0.5264E+03
      7.961  0.4210E+02  0.4444E+02  0.5294E+03  0.5292E+03
      8.026  0.4965E+02  0.4502E+02  0.5326E+03  0.5321E+03
      8.090  0.5597E+02  0.5051E+02  0.5363E+03  0.5354E+03
      8.155  0.6432E+02  0.7248E+02  0.5404E+03  0.5401E+03
      8.220  0.6661E+02  0.5783E+02  0.5447E+03  0.5438E+03
      8.284  0.6956E+02  0.7332E+02  0.5492E+03  0.5486E+03
      8.349  0.5714E+02  0.5963E+02  0.5529E+03  0.5524E+03
      8.414  0.7566E+02  0.6475E+02  0.5578E+03  0.5566E+03
      8.478  0.6332E+02  0.7351E+02  0.5619E+03  0.5614E+03
      8.543  0.6847E+02  0.6731E+02  0.5664E+03  0.5657E+03
      8.608  0.6134E+02  0.6121E+02  0.5703E+03  0.5697E+03
      8.672  0.7051E+02  0.6615E+02  0.5749E+03  0.5740E+03
      8.737  0.1325E+02  0.2732E+02  0.5758E+03  0.5758E+03
      8.802  0.3842E+01  0.3865E+01  0.5760E+03  0.5760E+03
      8.866  0.0000E+00  0.0000E+00  0.5760E+03  0.5760E+03
      8.931  0.0000E+00  0.0000E+00  0.5760E+03  0.5760E+03
      8.996  0.0000E+00  0.0000E+00  0.5760E+03  0.5760E+03
      9.060  0.0000E+00  0.0000E+00  0.5760E+03  0.5760E+03
      9.125  0.0000E+00  0.0000E+00  0.5760E+03  0.5760E+03
      9.190  0.0000E+00  0.0000E+00  0.5760E+03  0.5760E+03
      9.254  0.0000E+00  0.0000E+00  0.5760E+03  0.5760E+03
      9.319  0.0000E+00  0.0000E+00  0.5760E+03  0.5760E+03
      9.384  0.0000E+00  0.0000E+00  0.5760E+03  0.5760E+03
      9.448  0.0000E+00  0.0000E+00  0.5760E+03  0.5760E+03
      9.513  0.0000E+00  0.0000E+00  0.5760E+03  0.5760E+03
      9.578  0.0000E+00  0.0000E+00  0.5760E+03  0.5760E+03
      9.642  0.0000E+00  0.0000E+00  0.5760E+03  0.5760E+03
