  48  48   0   0
  0.2283438E+02  0.8001338E-09  0.1265123E-08  0.1141337E-08  0.5000000E-15
  1.000000000000000E-004
  CAR 
 Si and Ge interface calculation         
      6.79181704    -11.52336342  301      3.50295290      1.00000000
    -11.523  0.0000E+00  0.0000E+00  0.0000E+00  0.0000E+00
    -11.462  0.0000E+00  0.0000E+00  0.0000E+00  0.0000E+00
    -11.401  0.0000E+00  0.0000E+00  0.0000E+00  0.0000E+00
    -11.340  0.0000E+00  0.0000E+00  0.0000E+00  0.0000E+00
    -11.279  0.0000E+00  0.0000E+00  0.0000E+00  0.0000E+00
    -11.218  0.0000E+00  0.0000E+00  0.0000E+00  0.0000E+00
    -11.157  0.0000E+00  0.0000E+00  0.0000E+00  0.0000E+00
    -11.096  0.0000E+00  0.0000E+00  0.0000E+00  0.0000E+00
    -11.035  0.0000E+00  0.0000E+00  0.0000E+00  0.0000E+00
    -10.974  0.0000E+00  0.0000E+00  0.0000E+00  0.0000E+00
    -10.913  0.0000E+00  0.0000E+00  0.0000E+00  0.0000E+00
    -10.852  0.0000E+00  0.0000E+00  0.0000E+00  0.0000E+00
    -10.791  0.0000E+00  0.0000E+00  0.0000E+00  0.0000E+00
    -10.730  0.2658E-07  0.3334E-14  0.1622E-08  0.2035E-15
    -10.669  0.8144E+01  0.5029E+01  0.4972E+00  0.3070E+00
    -10.608  0.4116E-01  0.3161E+01  0.5000E+00  0.5000E+00
    -10.547  0.1167E+02  0.7880E+00  0.1212E+01  0.5481E+00
    -10.486  0.4710E+01  0.1559E+02  0.1500E+01  0.1500E+01
    -10.424  0.0000E+00  0.0000E+00  0.1500E+01  0.1500E+01
    -10.363  0.0000E+00  0.0000E+00  0.1500E+01  0.1500E+01
    -10.302  0.3469E-02  0.4968E-08  0.1500E+01  0.1500E+01
    -10.241  0.8186E+01  0.8139E+01  0.2000E+01  0.1997E+01
    -10.180  0.8163E-04  0.5104E-01  0.2000E+01  0.2000E+01
    -10.119  0.3275E+02  0.2689E+02  0.3999E+01  0.3642E+01
    -10.058  0.0000E+00  0.5872E+01  0.4000E+01  0.4000E+01
     -9.997  0.0000E+00  0.0000E+00  0.4000E+01  0.4000E+01
     -9.936  0.0000E+00  0.0000E+00  0.4000E+01  0.4000E+01
     -9.875  0.0000E+00  0.0000E+00  0.4000E+01  0.4000E+01
     -9.814  0.0000E+00  0.0000E+00  0.4000E+01  0.4000E+01
     -9.753  0.4818E+00  0.3538E-04  0.4029E+01  0.4000E+01
     -9.692  0.1590E+02  0.1638E+02  0.5000E+01  0.5000E+01
     -9.631  0.0000E+00  0.0000E+00  0.5000E+01  0.5000E+01
     -9.570  0.2784E-10  0.0000E+00  0.5000E+01  0.5000E+01
     -9.509  0.1519E+02  0.3656E+01  0.5927E+01  0.5223E+01
     -9.448  0.1189E+01  0.1272E+02  0.6000E+01  0.6000E+01
     -9.387  0.0000E+00  0.0000E+00  0.6000E+01  0.6000E+01
     -9.326  0.0000E+00  0.0000E+00  0.6000E+01  0.6000E+01
     -9.264  0.0000E+00  0.0000E+00  0.6000E+01  0.6000E+01
     -9.203  0.0000E+00  0.0000E+00  0.6000E+01  0.6000E+01
     -9.142  0.4174E-03  0.1709E-09  0.6000E+01  0.6000E+01
     -9.081  0.1638E+02  0.1592E+02  0.7000E+01  0.6972E+01
     -9.020  0.7732E+00  0.4658E+00  0.7047E+01  0.7000E+01
     -8.959  0.7417E+01  0.8188E+01  0.7500E+01  0.7500E+01
     -8.898  0.0000E+00  0.0000E+00  0.7500E+01  0.7500E+01
     -8.837  0.0000E+00  0.0000E+00  0.7500E+01  0.7500E+01
     -8.776  0.0000E+00  0.0000E+00  0.7500E+01  0.7500E+01
     -8.715  0.1043E-06  0.1848E-11  0.7500E+01  0.7500E+01
     -8.654  0.1826E+01  0.1721E+01  0.7611E+01  0.7605E+01
     -8.593  0.1273E+02  0.1172E+02  0.8389E+01  0.8320E+01
     -8.532  0.7717E+01  0.6116E+01  0.8860E+01  0.8694E+01
     -8.471  0.4615E+01  0.5986E+01  0.9142E+01  0.9059E+01
     -8.410  0.8098E+01  0.9028E+01  0.9636E+01  0.9610E+01
     -8.349  0.5560E+01  0.5258E+01  0.9976E+01  0.9931E+01
     -8.288  0.3112E+01  0.3435E+01  0.1017E+02  0.1014E+02
     -8.227  0.2646E+01  0.8865E+00  0.1033E+02  0.1020E+02
     -8.166  0.1102E+02  0.1051E+02  0.1100E+02  0.1084E+02
     -8.105  0.1190E+02  0.1187E+02  0.1173E+02  0.1156E+02
     -8.043  0.5533E+01  0.7165E+01  0.1207E+02  0.1200E+02
     -7.982  0.6955E+01  0.7301E+01  0.1249E+02  0.1244E+02
     -7.921  0.7886E+01  0.5074E+01  0.1297E+02  0.1275E+02
     -7.860  0.1100E+02  0.1311E+02  0.1364E+02  0.1356E+02
     -7.799  0.3325E+01  0.3260E+01  0.1385E+02  0.1375E+02
     -7.738  0.1770E+02  0.1762E+02  0.1493E+02  0.1483E+02
     -7.677  0.6407E+01  0.5781E+01  0.1532E+02  0.1518E+02
     -7.616  0.1283E+02  0.1178E+02  0.1610E+02  0.1590E+02
     -7.555  0.1195E+02  0.1376E+02  0.1683E+02  0.1674E+02
     -7.494  0.8074E+01  0.6460E+01  0.1732E+02  0.1714E+02
     -7.433  0.2444E+02  0.2250E+02  0.1882E+02  0.1851E+02
     -7.372  0.1266E+02  0.1319E+02  0.1959E+02  0.1932E+02
     -7.311  0.1101E+02  0.1180E+02  0.2026E+02  0.2004E+02
     -7.250  0.1088E+02  0.1011E+02  0.2092E+02  0.2065E+02
     -7.189  0.1776E+02  0.1512E+02  0.2201E+02  0.2158E+02
     -7.128  0.1967E+02  0.2406E+02  0.2321E+02  0.2305E+02
     -7.067  0.2680E+02  0.2397E+02  0.2485E+02  0.2451E+02
     -7.006  0.9387E+01  0.1180E+02  0.2542E+02  0.2523E+02
     -6.945  0.2649E+02  0.2349E+02  0.2704E+02  0.2666E+02
     -6.884  0.2500E+02  0.2507E+02  0.2856E+02  0.2819E+02
     -6.822  0.1796E+02  0.1829E+02  0.2966E+02  0.2931E+02
     -6.761  0.2120E+02  0.1771E+02  0.3095E+02  0.3039E+02
     -6.700  0.1282E+02  0.1574E+02  0.3174E+02  0.3135E+02
     -6.639  0.1261E+02  0.1725E+02  0.3251E+02  0.3241E+02
     -6.578  0.1678E+02  0.1544E+02  0.3353E+02  0.3335E+02
     -6.517  0.1681E+02  0.1584E+02  0.3456E+02  0.3432E+02
     -6.456  0.1096E+02  0.1160E+02  0.3523E+02  0.3503E+02
     -6.395  0.1152E+02  0.1321E+02  0.3593E+02  0.3583E+02
     -6.334  0.1102E+02  0.9958E+01  0.3660E+02  0.3644E+02
     -6.273  0.1378E+02  0.1417E+02  0.3744E+02  0.3731E+02
     -6.212  0.8261E+01  0.7872E+01  0.3795E+02  0.3779E+02
     -6.151  0.1309E+02  0.1239E+02  0.3875E+02  0.3854E+02
     -6.090  0.1942E+02  0.1738E+02  0.3993E+02  0.3960E+02
     -6.029  0.1156E+02  0.1468E+02  0.4064E+02  0.4050E+02
     -5.968  0.5762E+01  0.6283E+01  0.4099E+02  0.4088E+02
     -5.907  0.4658E+01  0.5342E+01  0.4128E+02  0.4121E+02
     -5.846  0.1027E+02  0.8053E+01  0.4190E+02  0.4170E+02
     -5.785  0.6733E+01  0.6083E+01  0.4231E+02  0.4207E+02
     -5.724  0.7054E+01  0.9014E+01  0.4274E+02  0.4262E+02
     -5.663  0.1563E+02  0.9207E+01  0.4370E+02  0.4319E+02
     -5.601  0.1474E+02  0.2026E+02  0.4460E+02  0.4442E+02
     -5.540  0.1162E+02  0.1233E+02  0.4531E+02  0.4518E+02
     -5.479  0.9798E+01  0.5336E+01  0.4591E+02  0.4550E+02
     -5.418  0.7797E+01  0.1287E+02  0.4638E+02  0.4629E+02
     -5.357  0.3971E+01  0.4266E+01  0.4662E+02  0.4655E+02
     -5.296  0.1893E+02  0.1297E+02  0.4778E+02  0.4734E+02
     -5.235  0.1329E+02  0.1583E+02  0.4859E+02  0.4831E+02
     -5.174  0.1477E+02  0.1490E+02  0.4949E+02  0.4922E+02
     -5.113  0.1470E+00  0.4658E+01  0.4950E+02  0.4950E+02
     -5.052  0.7599E+01  0.3317E+01  0.4997E+02  0.4970E+02
     -4.991  0.1784E+02  0.1797E+02  0.5106E+02  0.5080E+02
     -4.930  0.1020E+02  0.1361E+02  0.5168E+02  0.5163E+02
     -4.869  0.5258E+01  0.3812E+01  0.5200E+02  0.5186E+02
     -4.808  0.6170E+01  0.5030E+01  0.5238E+02  0.5217E+02
     -4.747  0.7667E+01  0.5724E+01  0.5284E+02  0.5252E+02
     -4.686  0.2653E+02  0.2393E+02  0.5446E+02  0.5398E+02
     -4.625  0.1417E+02  0.1863E+02  0.5533E+02  0.5512E+02
     -4.564  0.8309E+01  0.8630E+01  0.5584E+02  0.5565E+02
     -4.503  0.1088E+02  0.1390E+02  0.5650E+02  0.5649E+02
     -4.441  0.6927E+01  0.4641E+01  0.5692E+02  0.5678E+02
     -4.380  0.1325E+02  0.1391E+02  0.5773E+02  0.5763E+02
     -4.319  0.6606E+01  0.5873E+01  0.5814E+02  0.5799E+02
     -4.258  0.1373E+02  0.1337E+02  0.5897E+02  0.5880E+02
     -4.197  0.1310E+02  0.1274E+02  0.5977E+02  0.5958E+02
     -4.136  0.1495E+02  0.1336E+02  0.6069E+02  0.6040E+02
     -4.075  0.2169E+02  0.2132E+02  0.6201E+02  0.6170E+02
     -4.014  0.1991E+02  0.2102E+02  0.6323E+02  0.6298E+02
     -3.953  0.1703E+02  0.1581E+02  0.6427E+02  0.6395E+02
     -3.892  0.2101E+02  0.1834E+02  0.6555E+02  0.6507E+02
     -3.831  0.1491E+02  0.1994E+02  0.6646E+02  0.6628E+02
     -3.770  0.1785E+02  0.1319E+02  0.6755E+02  0.6709E+02
     -3.709  0.1611E+02  0.2069E+02  0.6853E+02  0.6835E+02
     -3.648  0.1403E+02  0.1574E+02  0.6939E+02  0.6931E+02
     -3.587  0.9793E+01  0.6077E+01  0.6999E+02  0.6968E+02
     -3.526  0.1292E+02  0.1600E+02  0.7078E+02  0.7066E+02
     -3.465  0.1900E+02  0.1522E+02  0.7194E+02  0.7159E+02
     -3.404  0.1138E+02  0.1301E+02  0.7263E+02  0.7238E+02
     -3.343  0.1677E+02  0.1650E+02  0.7366E+02  0.7339E+02
     -3.282  0.1845E+02  0.1873E+02  0.7478E+02  0.7453E+02
     -3.220  0.1667E+02  0.1624E+02  0.7580E+02  0.7553E+02
     -3.159  0.1325E+02  0.1568E+02  0.7661E+02  0.7648E+02
     -3.098  0.9817E+01  0.1090E+02  0.7721E+02  0.7715E+02
     -3.037  0.1292E+02  0.1138E+02  0.7800E+02  0.7784E+02
     -2.976  0.1263E+02  0.9645E+01  0.7877E+02  0.7843E+02
     -2.915  0.4405E+01  0.7260E+01  0.7904E+02  0.7888E+02
     -2.854  0.3432E+01  0.4752E+01  0.7925E+02  0.7917E+02
     -2.793  0.1573E+02  0.1257E+02  0.8021E+02  0.7993E+02
     -2.732  0.1385E+02  0.1633E+02  0.8105E+02  0.8093E+02
     -2.671  0.4727E+01  0.4185E+01  0.8134E+02  0.8119E+02
     -2.610  0.4414E+01  0.5206E+01  0.8161E+02  0.8151E+02
     -2.549  0.5914E+01  0.4402E+01  0.8197E+02  0.8177E+02
     -2.488  0.8627E+01  0.1030E+02  0.8250E+02  0.8240E+02
     -2.427  0.1092E+02  0.5922E+01  0.8317E+02  0.8276E+02
     -2.366  0.1246E+02  0.1742E+02  0.8393E+02  0.8383E+02
     -2.305  0.1208E+02  0.1195E+02  0.8466E+02  0.8456E+02
     -2.244  0.9134E+01  0.1066E+02  0.8522E+02  0.8521E+02
     -2.183  0.3844E+01  0.2480E+01  0.8546E+02  0.8536E+02
     -2.122  0.3449E+01  0.4198E+01  0.8567E+02  0.8562E+02
     -2.061  0.1383E+02  0.8274E+01  0.8651E+02  0.8612E+02
     -1.999  0.1709E+02  0.1445E+02  0.8756E+02  0.8700E+02
     -1.938  0.7744E+01  0.1607E+02  0.8803E+02  0.8798E+02
     -1.877  0.6310E+01  0.4613E+01  0.8841E+02  0.8827E+02
     -1.816  0.4245E+01  0.4787E+01  0.8867E+02  0.8856E+02
     -1.755  0.8836E+01  0.7203E+01  0.8921E+02  0.8900E+02
     -1.694  0.7408E+01  0.9288E+01  0.8966E+02  0.8957E+02
     -1.633  0.3818E+01  0.2315E+01  0.8990E+02  0.8971E+02
     -1.572  0.9029E+01  0.9498E+01  0.9045E+02  0.9029E+02
     -1.511  0.5379E+01  0.8032E+01  0.9078E+02  0.9078E+02
     -1.450  0.5472E+01  0.2415E+01  0.9111E+02  0.9093E+02
     -1.389  0.6357E+01  0.9294E+01  0.9150E+02  0.9149E+02
     -1.328  0.3231E-09  0.1162E+00  0.9150E+02  0.9150E+02
     -1.267  0.1806E+01  0.9209E+00  0.9161E+02  0.9156E+02
     -1.206  0.5167E+01  0.3916E+01  0.9193E+02  0.9180E+02
     -1.145  0.2068E+02  0.1722E+02  0.9319E+02  0.9285E+02
     -1.084  0.7554E+01  0.9857E+01  0.9365E+02  0.9345E+02
     -1.023  0.1451E+02  0.1339E+02  0.9454E+02  0.9427E+02
     -0.962  0.1937E+02  0.1668E+02  0.9572E+02  0.9528E+02
     -0.901  0.2319E+02  0.2472E+02  0.9713E+02  0.9679E+02
     -0.840  0.7829E+01  0.1322E+02  0.9761E+02  0.9760E+02
     -0.778  0.1227E+02  0.4010E+01  0.9836E+02  0.9785E+02
     -0.717  0.2833E+02  0.2855E+02  0.1001E+03  0.9959E+02
     -0.656  0.1865E+02  0.2340E+02  0.1012E+03  0.1010E+03
     -0.595  0.1073E+02  0.9777E+01  0.1019E+03  0.1016E+03
     -0.534  0.2332E+02  0.2217E+02  0.1033E+03  0.1030E+03
     -0.473  0.1708E+02  0.1931E+02  0.1044E+03  0.1041E+03
     -0.412  0.2259E+02  0.2092E+02  0.1057E+03  0.1054E+03
     -0.351  0.2422E+02  0.2042E+02  0.1072E+03  0.1067E+03
     -0.290  0.2697E+02  0.2764E+02  0.1089E+03  0.1084E+03
     -0.229  0.3160E+02  0.2857E+02  0.1108E+03  0.1101E+03
     -0.168  0.2655E+02  0.2899E+02  0.1124E+03  0.1119E+03
     -0.107  0.2707E+02  0.2693E+02  0.1141E+03  0.1135E+03
     -0.046  0.1897E+02  0.2267E+02  0.1152E+03  0.1149E+03
      0.015  0.2176E+02  0.1790E+02  0.1165E+03  0.1160E+03
      0.076  0.2843E+02  0.2967E+02  0.1183E+03  0.1178E+03
      0.137  0.2238E+02  0.2734E+02  0.1196E+03  0.1195E+03
      0.198  0.2279E+02  0.1679E+02  0.1210E+03  0.1205E+03
      0.259  0.2309E+02  0.2973E+02  0.1225E+03  0.1223E+03
      0.320  0.1616E+02  0.1410E+02  0.1234E+03  0.1232E+03
      0.382  0.2632E+02  0.2579E+02  0.1250E+03  0.1248E+03
      0.443  0.2907E+02  0.2357E+02  0.1268E+03  0.1262E+03
      0.504  0.1769E+02  0.2346E+02  0.1279E+03  0.1276E+03
      0.565  0.1834E+02  0.1764E+02  0.1290E+03  0.1287E+03
      0.626  0.3354E+02  0.2786E+02  0.1311E+03  0.1304E+03
      0.687  0.2598E+02  0.3007E+02  0.1327E+03  0.1322E+03
      0.748  0.2567E+02  0.2475E+02  0.1342E+03  0.1337E+03
      0.809  0.3312E+02  0.3215E+02  0.1362E+03  0.1357E+03
      0.870  0.2994E+02  0.2798E+02  0.1381E+03  0.1374E+03
      0.931  0.1912E+02  0.2417E+02  0.1392E+03  0.1389E+03
      0.992  0.3462E+02  0.3164E+02  0.1414E+03  0.1408E+03
      1.053  0.2995E+02  0.3011E+02  0.1432E+03  0.1427E+03
      1.114  0.2851E+02  0.2847E+02  0.1449E+03  0.1444E+03
      1.175  0.3126E+02  0.2705E+02  0.1468E+03  0.1461E+03
      1.236  0.2884E+02  0.3440E+02  0.1486E+03  0.1482E+03
      1.297  0.2767E+02  0.2602E+02  0.1503E+03  0.1497E+03
      1.358  0.2381E+02  0.2613E+02  0.1517E+03  0.1513E+03
      1.419  0.1416E+02  0.1805E+02  0.1526E+03  0.1524E+03
      1.480  0.1973E+02  0.1617E+02  0.1538E+03  0.1534E+03
      1.541  0.2627E+02  0.2257E+02  0.1554E+03  0.1548E+03
      1.603  0.1804E+02  0.1861E+02  0.1565E+03  0.1559E+03
      1.664  0.2096E+02  0.2405E+02  0.1578E+03  0.1574E+03
      1.725  0.1532E+02  0.1714E+02  0.1587E+03  0.1585E+03
      1.786  0.2225E+02  0.2212E+02  0.1601E+03  0.1598E+03
      1.847  0.2932E+02  0.1771E+02  0.1619E+03  0.1609E+03
      1.908  0.1562E+02  0.2779E+02  0.1628E+03  0.1626E+03
      1.969  0.1580E+02  0.1279E+02  0.1638E+03  0.1634E+03
      2.030  0.2029E+02  0.2092E+02  0.1650E+03  0.1646E+03
      2.091  0.2540E+02  0.2058E+02  0.1666E+03  0.1659E+03
      2.152  0.3059E+02  0.3393E+02  0.1684E+03  0.1680E+03
      2.213  0.1216E+02  0.1308E+02  0.1692E+03  0.1688E+03
      2.274  0.2533E+02  0.1784E+02  0.1707E+03  0.1699E+03
      2.335  0.2228E+02  0.2915E+02  0.1721E+03  0.1716E+03
      2.396  0.2469E+02  0.2811E+02  0.1736E+03  0.1734E+03
      2.457  0.2062E+02  0.1389E+02  0.1749E+03  0.1742E+03
      2.518  0.1506E+02  0.2154E+02  0.1758E+03  0.1755E+03
      2.579  0.1250E+02  0.1237E+02  0.1765E+03  0.1763E+03
      2.640  0.1521E+02  0.1285E+02  0.1775E+03  0.1771E+03
      2.701  0.2829E+02  0.2441E+02  0.1792E+03  0.1786E+03
      2.762  0.3081E+02  0.2454E+02  0.1811E+03  0.1800E+03
      2.824  0.1693E+02  0.2522E+02  0.1821E+03  0.1816E+03
      2.885  0.1293E+02  0.1487E+02  0.1829E+03  0.1825E+03
      2.946  0.6265E+01  0.9083E+01  0.1833E+03  0.1831E+03
      3.007  0.2498E+02  0.1151E+02  0.1848E+03  0.1838E+03
      3.068  0.1399E+02  0.2514E+02  0.1857E+03  0.1853E+03
      3.129  0.1042E+02  0.8045E+01  0.1863E+03  0.1858E+03
      3.190  0.1037E+02  0.1161E+02  0.1869E+03  0.1865E+03
      3.251  0.1390E+02  0.1029E+02  0.1878E+03  0.1871E+03
      3.312  0.1747E+02  0.1772E+02  0.1889E+03  0.1882E+03
      3.373  0.1338E+02  0.1893E+02  0.1897E+03  0.1894E+03
      3.434  0.1304E+02  0.7990E+01  0.1905E+03  0.1898E+03
      3.495  0.2072E+02  0.1751E+02  0.1917E+03  0.1909E+03
      3.556  0.1806E+02  0.2251E+02  0.1928E+03  0.1923E+03
      3.617  0.1451E+02  0.1405E+02  0.1937E+03  0.1931E+03
      3.678  0.7522E+01  0.1020E+02  0.1942E+03  0.1938E+03
      3.739  0.2697E+02  0.1307E+02  0.1958E+03  0.1946E+03
      3.800  0.1770E+02  0.2677E+02  0.1969E+03  0.1962E+03
      3.861  0.1839E+02  0.1930E+02  0.1980E+03  0.1974E+03
      3.922  0.1213E+02  0.1180E+02  0.1988E+03  0.1981E+03
      3.983  0.6049E+01  0.1479E+02  0.1991E+03  0.1990E+03
      4.045  0.8871E+01  0.8416E+01  0.1997E+03  0.1995E+03
      4.106  0.5125E+01  0.4582E+01  0.2000E+03  0.1998E+03
      4.167  0.1620E+02  0.1018E+02  0.2010E+03  0.2004E+03
      4.228  0.2700E+02  0.2770E+02  0.2026E+03  0.2021E+03
      4.289  0.1298E+02  0.1869E+02  0.2034E+03  0.2033E+03
      4.350  0.5985E+01  0.6244E+01  0.2038E+03  0.2036E+03
      4.411  0.1972E+02  0.1468E+02  0.2050E+03  0.2045E+03
      4.472  0.8172E+01  0.1229E+02  0.2055E+03  0.2053E+03
      4.533  0.1423E+02  0.1062E+02  0.2064E+03  0.2059E+03
      4.594  0.1624E+02  0.2088E+02  0.2074E+03  0.2072E+03
      4.655  0.1658E+02  0.1164E+02  0.2084E+03  0.2079E+03
      4.716  0.1507E+02  0.1621E+02  0.2093E+03  0.2089E+03
      4.777  0.1512E+02  0.1372E+02  0.2102E+03  0.2097E+03
      4.838  0.2385E+02  0.2099E+02  0.2117E+03  0.2110E+03
      4.899  0.1910E+02  0.2554E+02  0.2128E+03  0.2126E+03
      4.960  0.1573E+02  0.1612E+02  0.2138E+03  0.2136E+03
      5.021  0.2330E+02  0.2063E+02  0.2152E+03  0.2148E+03
      5.082  0.2122E+02  0.2382E+02  0.2165E+03  0.2163E+03
      5.143  0.2235E+02  0.2226E+02  0.2179E+03  0.2176E+03
      5.205  0.1483E+02  0.1099E+02  0.2188E+03  0.2183E+03
      5.266  0.2825E+02  0.2647E+02  0.2205E+03  0.2199E+03
      5.327  0.2049E+02  0.2670E+02  0.2218E+03  0.2216E+03
      5.388  0.2023E+02  0.1541E+02  0.2230E+03  0.2225E+03
      5.449  0.2703E+02  0.2854E+02  0.2246E+03  0.2242E+03
      5.510  0.2165E+02  0.2317E+02  0.2260E+03  0.2257E+03
      5.571  0.1785E+02  0.1889E+02  0.2271E+03  0.2268E+03
      5.632  0.1652E+02  0.1462E+02  0.2281E+03  0.2277E+03
      5.693  0.2591E+02  0.2540E+02  0.2296E+03  0.2293E+03
      5.754  0.1918E+02  0.1887E+02  0.2308E+03  0.2304E+03
      5.815  0.1034E+02  0.1518E+02  0.2314E+03  0.2313E+03
      5.876  0.6841E+01  0.6715E+01  0.2319E+03  0.2317E+03
      5.937  0.2064E+01  0.2408E+01  0.2320E+03  0.2319E+03
      5.998  0.1246E+00  0.1818E+01  0.2320E+03  0.2320E+03
      6.059  0.0000E+00  0.0000E+00  0.2320E+03  0.2320E+03
      6.120  0.0000E+00  0.0000E+00  0.2320E+03  0.2320E+03
      6.181  0.0000E+00  0.0000E+00  0.2320E+03  0.2320E+03
      6.242  0.0000E+00  0.0000E+00  0.2320E+03  0.2320E+03
      6.303  0.0000E+00  0.0000E+00  0.2320E+03  0.2320E+03
      6.364  0.0000E+00  0.0000E+00  0.2320E+03  0.2320E+03
      6.426  0.0000E+00  0.0000E+00  0.2320E+03  0.2320E+03
      6.487  0.0000E+00  0.0000E+00  0.2320E+03  0.2320E+03
      6.548  0.0000E+00  0.0000E+00  0.2320E+03  0.2320E+03
      6.609  0.0000E+00  0.0000E+00  0.2320E+03  0.2320E+03
      6.670  0.0000E+00  0.0000E+00  0.2320E+03  0.2320E+03
      6.731  0.0000E+00  0.0000E+00  0.2320E+03  0.2320E+03
      6.792  0.0000E+00  0.0000E+00  0.2320E+03  0.2320E+03
