 180 180   0   0
  0.2731342E+02  0.1451029E-08  0.1946760E-08  0.1740444E-08  0.5000000E-15
  1.000000000000000E-004
  CAR 
 Si and Ge interface calculation         
      5.61114187    -10.17019778  301      2.75452796      1.00000000
    -10.170  0.0000E+00  0.0000E+00  0.0000E+00  0.0000E+00
    -10.118  0.0000E+00  0.0000E+00  0.0000E+00  0.0000E+00
    -10.065  0.0000E+00  0.0000E+00  0.0000E+00  0.0000E+00
    -10.012  0.0000E+00  0.0000E+00  0.0000E+00  0.0000E+00
     -9.960  0.0000E+00  0.0000E+00  0.0000E+00  0.0000E+00
     -9.907  0.0000E+00  0.0000E+00  0.0000E+00  0.0000E+00
     -9.855  0.0000E+00  0.0000E+00  0.0000E+00  0.0000E+00
     -9.802  0.0000E+00  0.0000E+00  0.0000E+00  0.0000E+00
     -9.749  0.0000E+00  0.0000E+00  0.0000E+00  0.0000E+00
     -9.697  0.0000E+00  0.0000E+00  0.0000E+00  0.0000E+00
     -9.644  0.0000E+00  0.0000E+00  0.0000E+00  0.0000E+00
     -9.592  0.0000E+00  0.0000E+00  0.0000E+00  0.0000E+00
     -9.539  0.0000E+00  0.0000E+00  0.0000E+00  0.0000E+00
     -9.486  0.5506E-05  0.5236E-06  0.2897E-06  0.2754E-07
     -9.434  0.9412E+01  0.9231E+01  0.4951E+00  0.4856E+00
     -9.381  0.1528E+01  0.8423E+00  0.5755E+00  0.5299E+00
     -9.329  0.1835E+02  0.1870E+02  0.1541E+01  0.1514E+01
     -9.276  0.1990E+02  0.1935E+02  0.2588E+01  0.2532E+01
     -9.223  0.1756E+02  0.1848E+02  0.3511E+01  0.3504E+01
     -9.171  0.2830E+02  0.2843E+02  0.5000E+01  0.4999E+01
     -9.118  0.7329E+01  0.5438E+01  0.5385E+01  0.5285E+01
     -9.066  0.4925E+02  0.5046E+02  0.7976E+01  0.7940E+01
     -9.013  0.1603E+02  0.1343E+02  0.8820E+01  0.8647E+01
     -8.960  0.1402E+02  0.1665E+02  0.9557E+01  0.9522E+01
     -8.908  0.3685E+02  0.3712E+02  0.1150E+02  0.1147E+02
     -8.855  0.3167E+02  0.2836E+02  0.1316E+02  0.1297E+02
     -8.802  0.6068E+02  0.6056E+02  0.1635E+02  0.1615E+02
     -8.750  0.1307E+02  0.1637E+02  0.1704E+02  0.1701E+02
     -8.697  0.1838E+02  0.1880E+02  0.1801E+02  0.1800E+02
     -8.645  0.3795E+02  0.3783E+02  0.2000E+02  0.1999E+02
     -8.592  0.2846E+02  0.2866E+02  0.2150E+02  0.2150E+02
     -8.539  0.6010E+02  0.5414E+02  0.2466E+02  0.2435E+02
     -8.487  0.4851E+02  0.5141E+02  0.2721E+02  0.2705E+02
     -8.434  0.2504E+02  0.2767E+02  0.2853E+02  0.2851E+02
     -8.382  0.3324E+02  0.3309E+02  0.3028E+02  0.3025E+02
     -8.329  0.5787E+02  0.5339E+02  0.3332E+02  0.3306E+02
     -8.276  0.1870E+02  0.2297E+02  0.3431E+02  0.3427E+02
     -8.224  0.2512E+02  0.1879E+02  0.3563E+02  0.3525E+02
     -8.171  0.2751E+02  0.3364E+02  0.3708E+02  0.3702E+02
     -8.119  0.5360E+02  0.5144E+02  0.3990E+02  0.3973E+02
     -8.066  0.6341E+02  0.5968E+02  0.4323E+02  0.4287E+02
     -8.013  0.7171E+02  0.7769E+02  0.4700E+02  0.4696E+02
     -7.961  0.6569E+02  0.6551E+02  0.5046E+02  0.5040E+02
     -7.908  0.4465E+02  0.4180E+02  0.5281E+02  0.5260E+02
     -7.856  0.3261E+02  0.3595E+02  0.5452E+02  0.5449E+02
     -7.803  0.2696E+02  0.2578E+02  0.5594E+02  0.5585E+02
     -7.750  0.4650E+02  0.4309E+02  0.5839E+02  0.5812E+02
     -7.698  0.5474E+02  0.5700E+02  0.6127E+02  0.6111E+02
     -7.645  0.5957E+02  0.5926E+02  0.6440E+02  0.6423E+02
     -7.593  0.5973E+02  0.6009E+02  0.6754E+02  0.6739E+02
     -7.540  0.6963E+02  0.6447E+02  0.7121E+02  0.7078E+02
     -7.487  0.7757E+02  0.7592E+02  0.7529E+02  0.7478E+02
     -7.435  0.6103E+02  0.6808E+02  0.7850E+02  0.7836E+02
     -7.382  0.5895E+02  0.5778E+02  0.8160E+02  0.8140E+02
     -7.330  0.8808E+02  0.8651E+02  0.8623E+02  0.8595E+02
     -7.277  0.4199E+02  0.4475E+02  0.8844E+02  0.8830E+02
     -7.224  0.8499E+02  0.8451E+02  0.9291E+02  0.9275E+02
     -7.172  0.5792E+02  0.5851E+02  0.9596E+02  0.9583E+02
     -7.119  0.2202E+02  0.2189E+02  0.9712E+02  0.9698E+02
     -7.067  0.2795E+02  0.2858E+02  0.9859E+02  0.9848E+02
     -7.014  0.8916E+02  0.8609E+02  0.1033E+03  0.1030E+03
     -6.961  0.4108E+02  0.4380E+02  0.1054E+03  0.1053E+03
     -6.909  0.7044E+02  0.6494E+02  0.1091E+03  0.1087E+03
     -6.856  0.4814E+02  0.5328E+02  0.1117E+03  0.1115E+03
     -6.804  0.3669E+02  0.3844E+02  0.1136E+03  0.1136E+03
     -6.751  0.6770E+02  0.6040E+02  0.1172E+03  0.1167E+03
     -6.698  0.6159E+02  0.6602E+02  0.1204E+03  0.1202E+03
     -6.646  0.3542E+02  0.3681E+02  0.1223E+03  0.1221E+03
     -6.593  0.6022E+02  0.6095E+02  0.1254E+03  0.1253E+03
     -6.540  0.1788E+02  0.1279E+02  0.1264E+03  0.1260E+03
     -6.488  0.6394E+02  0.6725E+02  0.1297E+03  0.1296E+03
     -6.435  0.3213E+02  0.3168E+02  0.1314E+03  0.1312E+03
     -6.383  0.4847E+02  0.5033E+02  0.1340E+03  0.1339E+03
     -6.330  0.3506E+02  0.3250E+02  0.1358E+03  0.1356E+03
     -6.277  0.3713E+02  0.4083E+02  0.1378E+03  0.1377E+03
     -6.225  0.5145E+02  0.4713E+02  0.1405E+03  0.1402E+03
     -6.172  0.5719E+02  0.5920E+02  0.1435E+03  0.1433E+03
     -6.120  0.5501E+02  0.5439E+02  0.1464E+03  0.1462E+03
     -6.067  0.4525E+02  0.4560E+02  0.1488E+03  0.1486E+03
     -6.014  0.2131E+02  0.2245E+02  0.1499E+03  0.1498E+03
     -5.962  0.4653E+02  0.4656E+02  0.1523E+03  0.1522E+03
     -5.909  0.3718E+02  0.3822E+02  0.1543E+03  0.1542E+03
     -5.857  0.1994E+02  0.1791E+02  0.1553E+03  0.1552E+03
     -5.804  0.4335E+02  0.4467E+02  0.1576E+03  0.1575E+03
     -5.751  0.3376E+02  0.2885E+02  0.1594E+03  0.1590E+03
     -5.699  0.4998E+02  0.5248E+02  0.1620E+03  0.1618E+03
     -5.646  0.3620E+02  0.3342E+02  0.1639E+03  0.1636E+03
     -5.594  0.4429E+02  0.4723E+02  0.1663E+03  0.1660E+03
     -5.541  0.1486E+02  0.1814E+02  0.1670E+03  0.1670E+03
     -5.488  0.2328E+02  0.2310E+02  0.1683E+03  0.1682E+03
     -5.436  0.3844E+02  0.3348E+02  0.1703E+03  0.1700E+03
     -5.383  0.5922E+02  0.6338E+02  0.1734E+03  0.1733E+03
     -5.331  0.4815E+02  0.4526E+02  0.1759E+03  0.1757E+03
     -5.278  0.5524E+02  0.5593E+02  0.1788E+03  0.1786E+03
     -5.225  0.5248E+02  0.5172E+02  0.1816E+03  0.1813E+03
     -5.173  0.4157E+02  0.4463E+02  0.1838E+03  0.1837E+03
     -5.120  0.3778E+02  0.3700E+02  0.1858E+03  0.1856E+03
     -5.068  0.4690E+02  0.4925E+02  0.1882E+03  0.1882E+03
     -5.015  0.3807E+02  0.3559E+02  0.1902E+03  0.1901E+03
     -4.962  0.4932E+02  0.5080E+02  0.1928E+03  0.1928E+03
     -4.910  0.4257E+02  0.3858E+02  0.1951E+03  0.1948E+03
     -4.857  0.7062E+02  0.7269E+02  0.1988E+03  0.1986E+03
     -4.805  0.5975E+02  0.6087E+02  0.2019E+03  0.2018E+03
     -4.752  0.2301E+02  0.1985E+02  0.2032E+03  0.2029E+03
     -4.699  0.9587E+02  0.9490E+02  0.2082E+03  0.2079E+03
     -4.647  0.7535E+02  0.7646E+02  0.2122E+03  0.2119E+03
     -4.594  0.4448E+02  0.4437E+02  0.2145E+03  0.2142E+03
     -4.542  0.7488E+02  0.7333E+02  0.2184E+03  0.2181E+03
     -4.489  0.5675E+02  0.5564E+02  0.2214E+03  0.2210E+03
     -4.436  0.9095E+02  0.9161E+02  0.2262E+03  0.2258E+03
     -4.384  0.6170E+02  0.6230E+02  0.2295E+03  0.2291E+03
     -4.331  0.6813E+02  0.7202E+02  0.2330E+03  0.2329E+03
     -4.278  0.9133E+02  0.8575E+02  0.2378E+03  0.2374E+03
     -4.226  0.1013E+03  0.1061E+03  0.2432E+03  0.2430E+03
     -4.173  0.8647E+02  0.8716E+02  0.2477E+03  0.2476E+03
     -4.121  0.7838E+02  0.7357E+02  0.2518E+03  0.2514E+03
     -4.068  0.8447E+02  0.8507E+02  0.2563E+03  0.2559E+03
     -4.015  0.5493E+02  0.5762E+02  0.2592E+03  0.2589E+03
     -3.963  0.2912E+02  0.3126E+02  0.2607E+03  0.2606E+03
     -3.910  0.5458E+02  0.5016E+02  0.2636E+03  0.2632E+03
     -3.858  0.4041E+02  0.4333E+02  0.2657E+03  0.2655E+03
     -3.805  0.3560E+02  0.3658E+02  0.2676E+03  0.2674E+03
     -3.752  0.4879E+02  0.4963E+02  0.2701E+03  0.2700E+03
     -3.700  0.4438E+02  0.4408E+02  0.2725E+03  0.2724E+03
     -3.647  0.3825E+02  0.3676E+02  0.2745E+03  0.2743E+03
     -3.595  0.6122E+02  0.6223E+02  0.2777E+03  0.2776E+03
     -3.542  0.1587E+02  0.1728E+02  0.2785E+03  0.2785E+03
     -3.489  0.3948E+02  0.3744E+02  0.2806E+03  0.2804E+03
     -3.437  0.5511E+02  0.5263E+02  0.2835E+03  0.2832E+03
     -3.384  0.4695E+02  0.4813E+02  0.2860E+03  0.2857E+03
     -3.332  0.5380E+02  0.5586E+02  0.2888E+03  0.2887E+03
     -3.279  0.2905E+02  0.2939E+02  0.2904E+03  0.2902E+03
     -3.226  0.4743E+02  0.4638E+02  0.2928E+03  0.2927E+03
     -3.174  0.6507E+02  0.6476E+02  0.2963E+03  0.2961E+03
     -3.121  0.4709E+02  0.4999E+02  0.2987E+03  0.2987E+03
     -3.069  0.4549E+02  0.4161E+02  0.3011E+03  0.3009E+03
     -3.016  0.1738E+02  0.2023E+02  0.3021E+03  0.3020E+03
     -2.963  0.3066E+02  0.2926E+02  0.3037E+03  0.3035E+03
     -2.911  0.2483E+02  0.2569E+02  0.3050E+03  0.3049E+03
     -2.858  0.3904E+02  0.3564E+02  0.3070E+03  0.3067E+03
     -2.806  0.3912E+02  0.3939E+02  0.3091E+03  0.3088E+03
     -2.753  0.3698E+02  0.3422E+02  0.3110E+03  0.3106E+03
     -2.700  0.1870E+02  0.2658E+02  0.3120E+03  0.3120E+03
     -2.648  0.3541E+02  0.3004E+02  0.3139E+03  0.3136E+03
     -2.595  0.1168E+02  0.1415E+02  0.3145E+03  0.3143E+03
     -2.543  0.4312E+02  0.4570E+02  0.3168E+03  0.3167E+03
     -2.490  0.1876E+02  0.1612E+02  0.3177E+03  0.3176E+03
     -2.437  0.7054E+02  0.7033E+02  0.3215E+03  0.3213E+03
     -2.385  0.1997E+02  0.2321E+02  0.3225E+03  0.3225E+03
     -2.332  0.2546E+02  0.2240E+02  0.3238E+03  0.3237E+03
     -2.280  0.2767E+02  0.2480E+02  0.3253E+03  0.3250E+03
     -2.227  0.2012E+02  0.2342E+02  0.3264E+03  0.3262E+03
     -2.174  0.2295E+02  0.2303E+02  0.3276E+03  0.3274E+03
     -2.122  0.1297E+02  0.1577E+02  0.3283E+03  0.3283E+03
     -2.069  0.2866E+02  0.2497E+02  0.3298E+03  0.3296E+03
     -2.017  0.4032E+02  0.4163E+02  0.3319E+03  0.3318E+03
     -1.964  0.3668E+02  0.3592E+02  0.3338E+03  0.3336E+03
     -1.911  0.3683E+02  0.3585E+02  0.3357E+03  0.3355E+03
     -1.859  0.2253E+02  0.2339E+02  0.3369E+03  0.3368E+03
     -1.806  0.5576E+02  0.5627E+02  0.3399E+03  0.3397E+03
     -1.753  0.2651E+01  0.5354E+01  0.3400E+03  0.3400E+03
     -1.701  0.2902E+02  0.2548E+02  0.3415E+03  0.3413E+03
     -1.648  0.1742E+02  0.1988E+02  0.3424E+03  0.3424E+03
     -1.596  0.1275E+02  0.9327E+01  0.3431E+03  0.3429E+03
     -1.543  0.1505E+02  0.1752E+02  0.3439E+03  0.3438E+03
     -1.490  0.3489E+02  0.3650E+02  0.3457E+03  0.3457E+03
     -1.438  0.1278E+02  0.1111E+02  0.3464E+03  0.3463E+03
     -1.385  0.1679E+02  0.1826E+02  0.3473E+03  0.3473E+03
     -1.333  0.1997E+02  0.1915E+02  0.3484E+03  0.3483E+03
     -1.280  0.2894E+02  0.2681E+02  0.3499E+03  0.3497E+03
     -1.227  0.1944E+02  0.2088E+02  0.3509E+03  0.3508E+03
     -1.175  0.2755E+02  0.2687E+02  0.3523E+03  0.3522E+03
     -1.122  0.4591E+01  0.6305E+01  0.3526E+03  0.3525E+03
     -1.070  0.8239E+02  0.7957E+02  0.3569E+03  0.3567E+03
     -1.017  0.8674E+02  0.8743E+02  0.3615E+03  0.3613E+03
     -0.964  0.8343E+02  0.7818E+02  0.3659E+03  0.3654E+03
     -0.912  0.1163E+03  0.1163E+03  0.3720E+03  0.3715E+03
     -0.859  0.1152E+03  0.1173E+03  0.3781E+03  0.3777E+03
     -0.807  0.5277E+02  0.5191E+02  0.3808E+03  0.3804E+03
     -0.754  0.8261E+02  0.8319E+02  0.3852E+03  0.3848E+03
     -0.701  0.1230E+03  0.1191E+03  0.3916E+03  0.3911E+03
     -0.649  0.1128E+03  0.1156E+03  0.3976E+03  0.3972E+03
     -0.596  0.1005E+03  0.1013E+03  0.4029E+03  0.4025E+03
     -0.544  0.1085E+03  0.1090E+03  0.4086E+03  0.4082E+03
     -0.491  0.9556E+02  0.9348E+02  0.4136E+03  0.4131E+03
     -0.438  0.9786E+02  0.9978E+02  0.4187E+03  0.4184E+03
     -0.386  0.8049E+02  0.7889E+02  0.4230E+03  0.4225E+03
     -0.333  0.6336E+02  0.6646E+02  0.4263E+03  0.4260E+03
     -0.281  0.8666E+02  0.8587E+02  0.4309E+03  0.4306E+03
     -0.228  0.9258E+02  0.9255E+02  0.4357E+03  0.4354E+03
     -0.175  0.1120E+03  0.1079E+03  0.4416E+03  0.4411E+03
     -0.123  0.1242E+03  0.1254E+03  0.4482E+03  0.4477E+03
     -0.070  0.1264E+03  0.1269E+03  0.4548E+03  0.4544E+03
     -0.018  0.1013E+03  0.9765E+02  0.4601E+03  0.4595E+03
      0.035  0.1288E+03  0.1329E+03  0.4669E+03  0.4665E+03
      0.088  0.1129E+03  0.1124E+03  0.4729E+03  0.4724E+03
      0.140  0.1416E+03  0.1359E+03  0.4803E+03  0.4796E+03
      0.193  0.1165E+03  0.1206E+03  0.4864E+03  0.4859E+03
      0.245  0.1401E+03  0.1399E+03  0.4938E+03  0.4933E+03
      0.298  0.1139E+03  0.1134E+03  0.4998E+03  0.4992E+03
      0.351  0.1203E+03  0.1186E+03  0.5061E+03  0.5055E+03
      0.403  0.1051E+03  0.1076E+03  0.5117E+03  0.5111E+03
      0.456  0.1362E+03  0.1377E+03  0.5188E+03  0.5184E+03
      0.509  0.1380E+03  0.1341E+03  0.5261E+03  0.5254E+03
      0.561  0.1041E+03  0.1055E+03  0.5316E+03  0.5310E+03
      0.614  0.1125E+03  0.1109E+03  0.5375E+03  0.5368E+03
      0.666  0.9446E+02  0.1014E+03  0.5424E+03  0.5422E+03
      0.719  0.1003E+03  0.9851E+02  0.5477E+03  0.5473E+03
      0.772  0.1204E+03  0.1231E+03  0.5540E+03  0.5538E+03
      0.824  0.1145E+03  0.1072E+03  0.5601E+03  0.5594E+03
      0.877  0.8714E+02  0.9344E+02  0.5646E+03  0.5644E+03
      0.929  0.1298E+03  0.1248E+03  0.5715E+03  0.5709E+03
      0.982  0.1168E+03  0.1188E+03  0.5776E+03  0.5772E+03
      1.035  0.1136E+03  0.1124E+03  0.5836E+03  0.5831E+03
      1.087  0.7740E+02  0.7545E+02  0.5877E+03  0.5871E+03
      1.140  0.1091E+03  0.1118E+03  0.5934E+03  0.5929E+03
      1.192  0.9942E+02  0.9814E+02  0.5986E+03  0.5981E+03
      1.245  0.1070E+03  0.1022E+03  0.6043E+03  0.6035E+03
      1.298  0.8811E+02  0.9330E+02  0.6089E+03  0.6084E+03
      1.350  0.1146E+03  0.1161E+03  0.6149E+03  0.6145E+03
      1.403  0.1037E+03  0.1022E+03  0.6204E+03  0.6199E+03
      1.455  0.7977E+02  0.7798E+02  0.6246E+03  0.6240E+03
      1.508  0.1021E+03  0.1044E+03  0.6299E+03  0.6295E+03
      1.561  0.7611E+02  0.7702E+02  0.6340E+03  0.6335E+03
      1.613  0.7563E+02  0.7406E+02  0.6379E+03  0.6374E+03
      1.666  0.7669E+02  0.8078E+02  0.6420E+03  0.6417E+03
      1.718  0.6476E+02  0.6316E+02  0.6454E+03  0.6450E+03
      1.771  0.7863E+02  0.7947E+02  0.6495E+03  0.6492E+03
      1.824  0.7388E+02  0.6835E+02  0.6534E+03  0.6528E+03
      1.876  0.6176E+02  0.6930E+02  0.6566E+03  0.6564E+03
      1.929  0.9040E+02  0.8346E+02  0.6614E+03  0.6608E+03
      1.981  0.7482E+02  0.7569E+02  0.6653E+03  0.6648E+03
      2.034  0.7406E+02  0.7114E+02  0.6692E+03  0.6685E+03
      2.087  0.8016E+02  0.8879E+02  0.6734E+03  0.6732E+03
      2.139  0.8919E+02  0.8253E+02  0.6781E+03  0.6775E+03
      2.192  0.7211E+02  0.7571E+02  0.6819E+03  0.6815E+03
      2.244  0.4894E+02  0.5247E+02  0.6845E+03  0.6843E+03
      2.297  0.5956E+02  0.5016E+02  0.6876E+03  0.6869E+03
      2.350  0.8424E+02  0.8307E+02  0.6921E+03  0.6913E+03
      2.402  0.6072E+02  0.6223E+02  0.6953E+03  0.6946E+03
      2.455  0.6600E+02  0.7092E+02  0.6987E+03  0.6983E+03
      2.507  0.7844E+02  0.7396E+02  0.7029E+03  0.7022E+03
      2.560  0.5532E+02  0.4905E+02  0.7058E+03  0.7048E+03
      2.613  0.5681E+02  0.6555E+02  0.7088E+03  0.7082E+03
      2.665  0.8890E+02  0.8706E+02  0.7134E+03  0.7128E+03
      2.718  0.7811E+02  0.7542E+02  0.7175E+03  0.7168E+03
      2.771  0.5280E+02  0.5937E+02  0.7203E+03  0.7199E+03
      2.823  0.5199E+02  0.5393E+02  0.7231E+03  0.7227E+03
      2.876  0.6025E+02  0.4988E+02  0.7262E+03  0.7253E+03
      2.928  0.5489E+02  0.6042E+02  0.7291E+03  0.7285E+03
      2.981  0.5477E+02  0.5501E+02  0.7320E+03  0.7314E+03
      3.034  0.5789E+02  0.6221E+02  0.7350E+03  0.7347E+03
      3.086  0.4650E+02  0.4033E+02  0.7375E+03  0.7368E+03
      3.139  0.6401E+02  0.6231E+02  0.7409E+03  0.7401E+03
      3.191  0.5487E+02  0.5652E+02  0.7437E+03  0.7431E+03
      3.244  0.4960E+02  0.5370E+02  0.7464E+03  0.7459E+03
      3.297  0.6386E+02  0.5538E+02  0.7497E+03  0.7488E+03
      3.349  0.4225E+02  0.4971E+02  0.7519E+03  0.7514E+03
      3.402  0.5723E+02  0.5738E+02  0.7549E+03  0.7544E+03
      3.454  0.3443E+02  0.4365E+02  0.7568E+03  0.7567E+03
      3.507  0.5345E+02  0.4536E+02  0.7596E+03  0.7591E+03
      3.560  0.4777E+02  0.4852E+02  0.7621E+03  0.7617E+03
      3.612  0.5913E+02  0.6078E+02  0.7652E+03  0.7649E+03
      3.665  0.6886E+02  0.6532E+02  0.7688E+03  0.7683E+03
      3.717  0.4507E+02  0.4938E+02  0.7712E+03  0.7709E+03
      3.770  0.4999E+02  0.4779E+02  0.7738E+03  0.7734E+03
      3.823  0.5331E+02  0.5711E+02  0.7766E+03  0.7764E+03
      3.875  0.5960E+02  0.5845E+02  0.7798E+03  0.7795E+03
      3.928  0.3270E+02  0.3090E+02  0.7815E+03  0.7811E+03
      3.980  0.6404E+02  0.6607E+02  0.7848E+03  0.7846E+03
      4.033  0.7162E+02  0.6784E+02  0.7886E+03  0.7882E+03
      4.086  0.7180E+02  0.7302E+02  0.7924E+03  0.7920E+03
      4.138  0.9398E+02  0.9743E+02  0.7973E+03  0.7971E+03
      4.191  0.8158E+02  0.8255E+02  0.8016E+03  0.8015E+03
      4.243  0.8439E+02  0.8096E+02  0.8061E+03  0.8057E+03
      4.296  0.7453E+02  0.7802E+02  0.8100E+03  0.8098E+03
      4.349  0.9334E+02  0.8535E+02  0.8149E+03  0.8143E+03
      4.401  0.9152E+02  0.9746E+02  0.8197E+03  0.8194E+03
      4.454  0.1154E+03  0.1139E+03  0.8258E+03  0.8254E+03
      4.506  0.8042E+02  0.8067E+02  0.8300E+03  0.8297E+03
      4.559  0.9814E+02  0.9627E+02  0.8352E+03  0.8347E+03
      4.612  0.1125E+03  0.1137E+03  0.8411E+03  0.8407E+03
      4.664  0.1171E+03  0.1171E+03  0.8472E+03  0.8469E+03
      4.717  0.1156E+03  0.1157E+03  0.8533E+03  0.8530E+03
      4.769  0.7832E+02  0.8070E+02  0.8574E+03  0.8572E+03
      4.822  0.8216E+02  0.7809E+02  0.8618E+03  0.8613E+03
      4.875  0.3696E+02  0.4229E+02  0.8637E+03  0.8635E+03
      4.927  0.5479E+01  0.8591E+01  0.8640E+03  0.8640E+03
      4.980  0.0000E+00  0.0000E+00  0.8640E+03  0.8640E+03
      5.032  0.0000E+00  0.0000E+00  0.8640E+03  0.8640E+03
      5.085  0.0000E+00  0.0000E+00  0.8640E+03  0.8640E+03
      5.138  0.0000E+00  0.0000E+00  0.8640E+03  0.8640E+03
      5.190  0.0000E+00  0.0000E+00  0.8640E+03  0.8640E+03
      5.243  0.0000E+00  0.0000E+00  0.8640E+03  0.8640E+03
      5.296  0.0000E+00  0.0000E+00  0.8640E+03  0.8640E+03
      5.348  0.0000E+00  0.0000E+00  0.8640E+03  0.8640E+03
      5.401  0.0000E+00  0.0000E+00  0.8640E+03  0.8640E+03
      5.453  0.0000E+00  0.0000E+00  0.8640E+03  0.8640E+03
      5.506  0.0000E+00  0.0000E+00  0.8640E+03  0.8640E+03
      5.559  0.0000E+00  0.0000E+00  0.8640E+03  0.8640E+03
      5.611  0.0000E+00  0.0000E+00  0.8640E+03  0.8640E+03
