  72  72   0   0
  0.2358891E+02  0.8001338E-09  0.1600268E-08  0.1326432E-08  0.5000000E-15
  1.000000000000000E-004
  CAR 
 Si and Ge interface calculation         
      6.83660172     -9.52652338  301      3.68197755      1.00000000
     -9.527  0.0000E+00  0.0000E+00  0.0000E+00  0.0000E+00
     -9.472  0.0000E+00  0.0000E+00  0.0000E+00  0.0000E+00
     -9.417  0.0000E+00  0.0000E+00  0.0000E+00  0.0000E+00
     -9.363  0.0000E+00  0.0000E+00  0.0000E+00  0.0000E+00
     -9.308  0.0000E+00  0.0000E+00  0.0000E+00  0.0000E+00
     -9.254  0.0000E+00  0.0000E+00  0.0000E+00  0.0000E+00
     -9.199  0.0000E+00  0.0000E+00  0.0000E+00  0.0000E+00
     -9.145  0.0000E+00  0.0000E+00  0.0000E+00  0.0000E+00
     -9.090  0.0000E+00  0.0000E+00  0.0000E+00  0.0000E+00
     -9.036  0.0000E+00  0.0000E+00  0.0000E+00  0.0000E+00
     -8.981  0.0000E+00  0.0000E+00  0.0000E+00  0.0000E+00
     -8.927  0.0000E+00  0.0000E+00  0.0000E+00  0.0000E+00
     -8.872  0.0000E+00  0.0000E+00  0.0000E+00  0.0000E+00
     -8.817  0.1051E-05  0.4795E-08  0.5731E-07  0.2615E-09
     -8.763  0.2324E+01  0.2218E+01  0.1268E+00  0.1210E+00
     -8.708  0.2623E+01  0.2464E+01  0.2699E+00  0.2554E+00
     -8.654  0.6940E+01  0.4936E+01  0.6484E+00  0.5246E+00
     -8.599  0.1096E+02  0.1264E+02  0.1246E+01  0.1214E+01
     -8.545  0.4855E+01  0.5285E+01  0.1511E+01  0.1502E+01
     -8.490  0.1088E+02  0.8349E+01  0.2104E+01  0.1957E+01
     -8.436  0.2670E+01  0.5363E+01  0.2250E+01  0.2250E+01
     -8.381  0.3749E+01  0.3005E+01  0.2454E+01  0.2414E+01
     -8.327  0.8346E+00  0.1578E+01  0.2500E+01  0.2500E+01
     -8.272  0.1224E+02  0.1106E+02  0.3168E+01  0.3103E+01
     -8.217  0.1433E+02  0.1454E+02  0.3949E+01  0.3896E+01
     -8.163  0.1085E+02  0.8334E+01  0.4541E+01  0.4351E+01
     -8.108  0.2196E+02  0.2406E+02  0.5738E+01  0.5663E+01
     -8.054  0.1121E+01  0.1693E+01  0.5800E+01  0.5755E+01
     -7.999  0.7578E+01  0.6923E+01  0.6213E+01  0.6133E+01
     -7.945  0.9378E+01  0.8488E+01  0.6724E+01  0.6596E+01
     -7.890  0.1868E+02  0.2036E+02  0.7743E+01  0.7706E+01
     -7.836  0.1271E+02  0.9430E+01  0.8437E+01  0.8221E+01
     -7.781  0.1723E+02  0.1659E+02  0.9376E+01  0.9125E+01
     -7.727  0.1051E+02  0.1362E+02  0.9950E+01  0.9868E+01
     -7.672  0.1472E+02  0.1396E+02  0.1075E+02  0.1063E+02
     -7.617  0.1898E+02  0.1957E+02  0.1179E+02  0.1170E+02
     -7.563  0.2587E+02  0.2384E+02  0.1320E+02  0.1300E+02
     -7.508  0.2777E+02  0.2572E+02  0.1471E+02  0.1440E+02
     -7.454  0.7230E+01  0.1160E+02  0.1511E+02  0.1503E+02
     -7.399  0.1562E+02  0.1381E+02  0.1596E+02  0.1579E+02
     -7.345  0.1169E+02  0.1305E+02  0.1660E+02  0.1650E+02
     -7.290  0.2557E+02  0.2391E+02  0.1799E+02  0.1780E+02
     -7.236  0.9074E+01  0.9804E+01  0.1849E+02  0.1834E+02
     -7.181  0.2462E+02  0.2300E+02  0.1983E+02  0.1959E+02
     -7.127  0.2587E+02  0.2606E+02  0.2124E+02  0.2101E+02
     -7.072  0.3136E+02  0.3044E+02  0.2295E+02  0.2267E+02
     -7.018  0.1955E+02  0.2358E+02  0.2402E+02  0.2396E+02
     -6.963  0.2178E+02  0.1648E+02  0.2521E+02  0.2486E+02
     -6.908  0.3085E+02  0.3085E+02  0.2689E+02  0.2654E+02
     -6.854  0.3222E+02  0.3216E+02  0.2865E+02  0.2829E+02
     -6.799  0.1928E+02  0.2470E+02  0.2970E+02  0.2964E+02
     -6.745  0.1615E+02  0.1319E+02  0.3058E+02  0.3036E+02
     -6.690  0.2531E+02  0.2374E+02  0.3196E+02  0.3166E+02
     -6.636  0.2488E+02  0.2715E+02  0.3332E+02  0.3314E+02
     -6.581  0.2311E+02  0.2203E+02  0.3458E+02  0.3434E+02
     -6.527  0.2815E+02  0.2399E+02  0.3611E+02  0.3565E+02
     -6.472  0.3822E+02  0.4401E+02  0.3820E+02  0.3805E+02
     -6.418  0.2066E+02  0.1858E+02  0.3932E+02  0.3906E+02
     -6.363  0.1779E+02  0.2179E+02  0.4029E+02  0.4025E+02
     -6.308  0.9851E+01  0.8881E+01  0.4083E+02  0.4073E+02
     -6.254  0.1827E+02  0.1792E+02  0.4183E+02  0.4171E+02
     -6.199  0.2376E+02  0.2154E+02  0.4312E+02  0.4289E+02
     -6.145  0.2063E+02  0.2275E+02  0.4425E+02  0.4413E+02
     -6.090  0.1536E+02  0.1403E+02  0.4509E+02  0.4489E+02
     -6.036  0.1414E+02  0.1574E+02  0.4586E+02  0.4575E+02
     -5.981  0.2147E+02  0.1815E+02  0.4703E+02  0.4674E+02
     -5.927  0.2176E+02  0.2342E+02  0.4822E+02  0.4802E+02
     -5.872  0.3410E+02  0.3081E+02  0.5008E+02  0.4970E+02
     -5.818  0.2243E+02  0.2367E+02  0.5130E+02  0.5099E+02
     -5.763  0.1799E+02  0.1905E+02  0.5228E+02  0.5203E+02
     -5.708  0.1650E+02  0.2012E+02  0.5318E+02  0.5313E+02
     -5.654  0.1271E+02  0.8889E+01  0.5387E+02  0.5361E+02
     -5.599  0.3151E+02  0.2950E+02  0.5559E+02  0.5522E+02
     -5.545  0.1440E+02  0.2112E+02  0.5638E+02  0.5637E+02
     -5.490  0.7880E+01  0.4057E+01  0.5681E+02  0.5659E+02
     -5.436  0.2500E+02  0.2294E+02  0.5817E+02  0.5784E+02
     -5.381  0.1981E+02  0.2374E+02  0.5925E+02  0.5914E+02
     -5.327  0.2031E+02  0.1300E+02  0.6036E+02  0.5985E+02
     -5.272  0.1299E+02  0.1785E+02  0.6107E+02  0.6082E+02
     -5.218  0.1569E+02  0.1680E+02  0.6192E+02  0.6174E+02
     -5.163  0.1768E+02  0.1556E+02  0.6289E+02  0.6259E+02
     -5.108  0.1342E+02  0.1624E+02  0.6362E+02  0.6347E+02
     -5.054  0.4656E+02  0.4120E+02  0.6616E+02  0.6572E+02
     -4.999  0.8513E+01  0.1659E+02  0.6663E+02  0.6662E+02
     -4.945  0.8965E+01  0.6048E+01  0.6711E+02  0.6695E+02
     -4.890  0.3282E+01  0.5485E+01  0.6729E+02  0.6725E+02
     -4.836  0.1099E+02  0.9477E+01  0.6789E+02  0.6777E+02
     -4.781  0.2086E+01  0.4198E+01  0.6801E+02  0.6800E+02
     -4.727  0.1003E+02  0.3668E+01  0.6855E+02  0.6820E+02
     -4.672  0.1234E+02  0.1062E+02  0.6923E+02  0.6878E+02
     -4.618  0.1652E+02  0.1536E+02  0.7013E+02  0.6962E+02
     -4.563  0.2058E+02  0.2434E+02  0.7125E+02  0.7095E+02
     -4.508  0.2363E+02  0.2091E+02  0.7254E+02  0.7209E+02
     -4.454  0.2140E+02  0.2801E+02  0.7371E+02  0.7361E+02
     -4.399  0.7839E+01  0.8703E+01  0.7413E+02  0.7409E+02
     -4.345  0.2905E+02  0.2005E+02  0.7572E+02  0.7518E+02
     -4.290  0.2602E+02  0.3294E+02  0.7714E+02  0.7698E+02
     -4.236  0.3403E+02  0.2863E+02  0.7899E+02  0.7854E+02
     -4.181  0.2303E+02  0.2064E+02  0.8025E+02  0.7967E+02
     -4.127  0.3632E+02  0.4143E+02  0.8223E+02  0.8193E+02
     -4.072  0.1343E+02  0.1537E+02  0.8296E+02  0.8276E+02
     -4.018  0.1257E+02  0.1083E+02  0.8365E+02  0.8335E+02
     -3.963  0.5438E+01  0.9814E+01  0.8395E+02  0.8389E+02
     -3.909  0.7582E+01  0.6990E+01  0.8436E+02  0.8427E+02
     -3.854  0.1996E+02  0.1625E+02  0.8545E+02  0.8516E+02
     -3.799  0.1509E+02  0.1823E+02  0.8627E+02  0.8615E+02
     -3.745  0.1712E+02  0.1425E+02  0.8720E+02  0.8693E+02
     -3.690  0.1978E+02  0.1876E+02  0.8828E+02  0.8795E+02
     -3.636  0.4019E+02  0.3781E+02  0.9048E+02  0.9001E+02
     -3.581  0.2871E+02  0.2973E+02  0.9204E+02  0.9164E+02
     -3.527  0.2340E+02  0.2609E+02  0.9332E+02  0.9306E+02
     -3.472  0.2838E+02  0.2698E+02  0.9487E+02  0.9453E+02
     -3.418  0.1967E+02  0.2308E+02  0.9594E+02  0.9579E+02
     -3.363  0.4247E+02  0.4354E+02  0.9826E+02  0.9816E+02
     -3.309  0.2240E+02  0.1951E+02  0.9948E+02  0.9923E+02
     -3.254  0.2540E+02  0.2816E+02  0.1009E+03  0.1008E+03
     -3.199  0.1676E+02  0.1585E+02  0.1018E+03  0.1016E+03
     -3.145  0.1783E+02  0.1996E+02  0.1027E+03  0.1027E+03
     -3.090  0.1637E+02  0.1240E+02  0.1036E+03  0.1034E+03
     -3.036  0.8937E+01  0.1343E+02  0.1041E+03  0.1041E+03
     -2.981  0.1972E+02  0.1694E+02  0.1052E+03  0.1050E+03
     -2.927  0.7186E+01  0.8025E+01  0.1056E+03  0.1055E+03
     -2.872  0.2662E+02  0.2375E+02  0.1070E+03  0.1068E+03
     -2.818  0.2645E+02  0.2610E+02  0.1085E+03  0.1082E+03
     -2.763  0.2768E+02  0.2577E+02  0.1100E+03  0.1096E+03
     -2.709  0.1856E+02  0.2363E+02  0.1110E+03  0.1109E+03
     -2.654  0.2216E+02  0.2324E+02  0.1122E+03  0.1122E+03
     -2.599  0.5296E+01  0.4888E+01  0.1125E+03  0.1124E+03
     -2.545  0.1320E+02  0.7604E+01  0.1132E+03  0.1128E+03
     -2.490  0.2214E+02  0.2563E+02  0.1144E+03  0.1142E+03
     -2.436  0.1759E+02  0.1604E+02  0.1154E+03  0.1151E+03
     -2.381  0.2407E+02  0.2305E+02  0.1167E+03  0.1164E+03
     -2.327  0.1083E+02  0.1603E+02  0.1173E+03  0.1173E+03
     -2.272  0.2397E+02  0.1455E+02  0.1186E+03  0.1180E+03
     -2.218  0.1982E+02  0.2540E+02  0.1197E+03  0.1194E+03
     -2.163  0.8259E+01  0.1112E+02  0.1201E+03  0.1200E+03
     -2.109  0.1613E+02  0.1332E+02  0.1210E+03  0.1208E+03
     -2.054  0.2449E+02  0.2640E+02  0.1224E+03  0.1222E+03
     -1.999  0.9600E+01  0.1227E+02  0.1229E+03  0.1229E+03
     -1.945  0.1596E+02  0.1577E+02  0.1237E+03  0.1237E+03
     -1.890  0.3921E+01  0.1481E+01  0.1240E+03  0.1238E+03
     -1.836  0.1444E+02  0.1281E+02  0.1248E+03  0.1245E+03
     -1.781  0.1377E+02  0.1400E+02  0.1255E+03  0.1253E+03
     -1.727  0.7914E+01  0.9083E+01  0.1259E+03  0.1258E+03
     -1.672  0.2083E+02  0.1783E+02  0.1271E+03  0.1267E+03
     -1.618  0.7135E+01  0.9341E+01  0.1275E+03  0.1273E+03
     -1.563  0.1910E+02  0.1988E+02  0.1285E+03  0.1283E+03
     -1.509  0.1144E+02  0.1387E+02  0.1291E+03  0.1291E+03
     -1.454  0.8995E+01  0.4599E+01  0.1296E+03  0.1293E+03
     -1.400  0.2315E+02  0.2587E+02  0.1309E+03  0.1308E+03
     -1.345  0.1411E+02  0.1248E+02  0.1316E+03  0.1314E+03
     -1.290  0.2399E+02  0.2209E+02  0.1330E+03  0.1326E+03
     -1.236  0.8440E+01  0.1343E+02  0.1334E+03  0.1334E+03
     -1.181  0.9395E+01  0.7899E+01  0.1339E+03  0.1338E+03
     -1.127  0.8130E+01  0.8751E+01  0.1344E+03  0.1343E+03
     -1.072  0.4182E+01  0.4026E+01  0.1346E+03  0.1345E+03
     -1.018  0.7829E+01  0.7015E+01  0.1350E+03  0.1349E+03
     -0.963  0.3637E+01  0.5038E+01  0.1352E+03  0.1352E+03
     -0.909  0.5026E+01  0.6182E+01  0.1355E+03  0.1355E+03
     -0.854  0.8186E+01  0.1801E+01  0.1359E+03  0.1356E+03
     -0.800  0.1865E+02  0.2227E+02  0.1370E+03  0.1368E+03
     -0.745  0.1884E+02  0.1327E+02  0.1380E+03  0.1375E+03
     -0.690  0.1891E+02  0.2278E+02  0.1390E+03  0.1388E+03
     -0.636  0.1767E+02  0.1905E+02  0.1400E+03  0.1398E+03
     -0.581  0.1177E+01  0.3388E+01  0.1401E+03  0.1400E+03
     -0.527  0.2740E+02  0.2410E+02  0.1415E+03  0.1413E+03
     -0.472  0.2668E+02  0.2964E+02  0.1430E+03  0.1429E+03
     -0.418  0.1310E+02  0.1269E+02  0.1437E+03  0.1436E+03
     -0.363  0.3208E+02  0.2588E+02  0.1455E+03  0.1450E+03
     -0.309  0.3375E+02  0.3852E+02  0.1473E+03  0.1471E+03
     -0.254  0.2115E+02  0.1865E+02  0.1485E+03  0.1482E+03
     -0.200  0.5797E+02  0.5643E+02  0.1516E+03  0.1512E+03
     -0.145  0.2639E+02  0.3178E+02  0.1531E+03  0.1530E+03
     -0.090  0.4054E+02  0.3489E+02  0.1553E+03  0.1549E+03
     -0.036  0.3369E+02  0.3707E+02  0.1571E+03  0.1569E+03
      0.019  0.4542E+02  0.4047E+02  0.1596E+03  0.1591E+03
      0.073  0.4578E+02  0.4158E+02  0.1621E+03  0.1614E+03
      0.128  0.3864E+02  0.4360E+02  0.1642E+03  0.1637E+03
      0.182  0.3027E+02  0.3101E+02  0.1658E+03  0.1654E+03
      0.237  0.2988E+02  0.2766E+02  0.1675E+03  0.1669E+03
      0.291  0.4233E+02  0.4353E+02  0.1698E+03  0.1693E+03
      0.346  0.5367E+02  0.5031E+02  0.1727E+03  0.1721E+03
      0.400  0.3656E+02  0.4402E+02  0.1747E+03  0.1745E+03
      0.455  0.2981E+02  0.3012E+02  0.1763E+03  0.1761E+03
      0.510  0.4798E+02  0.4817E+02  0.1789E+03  0.1787E+03
      0.564  0.4275E+02  0.4156E+02  0.1813E+03  0.1810E+03
      0.619  0.5410E+02  0.4949E+02  0.1842E+03  0.1837E+03
      0.673  0.5297E+02  0.4346E+02  0.1871E+03  0.1861E+03
      0.728  0.3121E+02  0.4898E+02  0.1888E+03  0.1887E+03
      0.782  0.4503E+02  0.3518E+02  0.1913E+03  0.1907E+03
      0.837  0.3442E+02  0.3918E+02  0.1932E+03  0.1928E+03
      0.891  0.3508E+02  0.3413E+02  0.1951E+03  0.1947E+03
      0.946  0.4146E+02  0.3896E+02  0.1973E+03  0.1968E+03
      1.000  0.2905E+02  0.3017E+02  0.1989E+03  0.1984E+03
      1.055  0.3938E+02  0.3436E+02  0.2011E+03  0.2003E+03
      1.110  0.5066E+02  0.5978E+02  0.2038E+03  0.2036E+03
      1.164  0.5265E+02  0.4154E+02  0.2067E+03  0.2058E+03
      1.219  0.3317E+02  0.4298E+02  0.2085E+03  0.2082E+03
      1.273  0.5303E+02  0.4038E+02  0.2114E+03  0.2104E+03
      1.328  0.4262E+02  0.5346E+02  0.2137E+03  0.2133E+03
      1.382  0.4161E+02  0.3902E+02  0.2160E+03  0.2154E+03
      1.437  0.4930E+02  0.4678E+02  0.2187E+03  0.2180E+03
      1.491  0.4883E+02  0.4992E+02  0.2213E+03  0.2207E+03
      1.546  0.4266E+02  0.4858E+02  0.2237E+03  0.2233E+03
      1.600  0.3429E+02  0.2546E+02  0.2255E+03  0.2247E+03
      1.655  0.4594E+02  0.4618E+02  0.2280E+03  0.2273E+03
      1.709  0.4686E+02  0.5099E+02  0.2306E+03  0.2300E+03
      1.764  0.3876E+02  0.4216E+02  0.2327E+03  0.2323E+03
      1.819  0.3842E+02  0.3789E+02  0.2348E+03  0.2344E+03
      1.873  0.4277E+02  0.3914E+02  0.2371E+03  0.2365E+03
      1.928  0.4879E+02  0.5186E+02  0.2398E+03  0.2394E+03
      1.982  0.3635E+02  0.3318E+02  0.2418E+03  0.2412E+03
      2.037  0.2656E+02  0.3020E+02  0.2432E+03  0.2428E+03
      2.091  0.3053E+02  0.2512E+02  0.2449E+03  0.2442E+03
      2.146  0.3768E+02  0.4556E+02  0.2470E+03  0.2467E+03
      2.200  0.2471E+02  0.2209E+02  0.2483E+03  0.2479E+03
      2.255  0.3555E+02  0.3276E+02  0.2502E+03  0.2497E+03
      2.309  0.5528E+02  0.5594E+02  0.2533E+03  0.2527E+03
      2.364  0.2816E+02  0.2719E+02  0.2548E+03  0.2542E+03
      2.419  0.3042E+02  0.3188E+02  0.2565E+03  0.2559E+03
      2.473  0.3173E+02  0.3742E+02  0.2582E+03  0.2580E+03
      2.528  0.2557E+02  0.1956E+02  0.2596E+03  0.2591E+03
      2.582  0.4329E+02  0.4458E+02  0.2619E+03  0.2615E+03
      2.637  0.3315E+02  0.2736E+02  0.2637E+03  0.2630E+03
      2.691  0.1995E+02  0.3123E+02  0.2648E+03  0.2647E+03
      2.746  0.2300E+02  0.1907E+02  0.2661E+03  0.2657E+03
      2.800  0.2463E+02  0.2615E+02  0.2674E+03  0.2671E+03
      2.855  0.3151E+02  0.3017E+02  0.2692E+03  0.2688E+03
      2.909  0.3249E+02  0.3352E+02  0.2709E+03  0.2706E+03
      2.964  0.3255E+02  0.3064E+02  0.2727E+03  0.2723E+03
      3.019  0.2271E+02  0.2265E+02  0.2739E+03  0.2735E+03
      3.073  0.2757E+02  0.2628E+02  0.2754E+03  0.2750E+03
      3.128  0.1448E+02  0.1610E+02  0.2762E+03  0.2758E+03
      3.182  0.1123E+02  0.1263E+02  0.2768E+03  0.2765E+03
      3.237  0.1199E+02  0.1639E+02  0.2775E+03  0.2774E+03
      3.291  0.3310E+01  0.1452E+01  0.2777E+03  0.2775E+03
      3.346  0.3568E+02  0.2123E+02  0.2796E+03  0.2787E+03
      3.400  0.2120E+02  0.2142E+02  0.2808E+03  0.2798E+03
      3.455  0.2504E+02  0.3500E+02  0.2821E+03  0.2817E+03
      3.509  0.1660E+02  0.1167E+02  0.2831E+03  0.2824E+03
      3.564  0.3766E+02  0.2156E+02  0.2851E+03  0.2835E+03
      3.619  0.1615E+02  0.3526E+02  0.2860E+03  0.2855E+03
      3.673  0.3777E+02  0.2289E+02  0.2880E+03  0.2867E+03
      3.728  0.3089E+02  0.2422E+02  0.2897E+03  0.2880E+03
      3.782  0.4275E+02  0.4130E+02  0.2921E+03  0.2903E+03
      3.837  0.2654E+02  0.3756E+02  0.2935E+03  0.2923E+03
      3.891  0.2428E+02  0.2669E+02  0.2948E+03  0.2938E+03
      3.946  0.2230E+02  0.2559E+02  0.2961E+03  0.2952E+03
      4.000  0.3110E+02  0.4181E+02  0.2978E+03  0.2975E+03
      4.055  0.2820E+02  0.1874E+02  0.2993E+03  0.2985E+03
      4.109  0.2281E+02  0.3315E+02  0.3005E+03  0.3003E+03
      4.164  0.2376E+02  0.1771E+02  0.3018E+03  0.3013E+03
      4.219  0.2315E+02  0.2356E+02  0.3031E+03  0.3026E+03
      4.273  0.2215E+02  0.1924E+02  0.3043E+03  0.3036E+03
      4.328  0.3208E+02  0.2604E+02  0.3061E+03  0.3050E+03
      4.382  0.2486E+02  0.3630E+02  0.3074E+03  0.3070E+03
      4.437  0.2460E+02  0.2176E+02  0.3087E+03  0.3082E+03
      4.491  0.3884E+02  0.3567E+02  0.3109E+03  0.3101E+03
      4.546  0.3245E+02  0.3579E+02  0.3126E+03  0.3121E+03
      4.600  0.3468E+02  0.2348E+02  0.3145E+03  0.3134E+03
      4.655  0.2129E+02  0.3358E+02  0.3157E+03  0.3152E+03
      4.709  0.3245E+02  0.3066E+02  0.3175E+03  0.3169E+03
      4.764  0.2273E+02  0.2767E+02  0.3187E+03  0.3184E+03
      4.818  0.1851E+02  0.1386E+02  0.3197E+03  0.3191E+03
      4.873  0.2897E+02  0.3328E+02  0.3213E+03  0.3210E+03
      4.928  0.2789E+02  0.2344E+02  0.3228E+03  0.3222E+03
      4.982  0.2977E+02  0.3179E+02  0.3244E+03  0.3240E+03
      5.037  0.2084E+02  0.2175E+02  0.3256E+03  0.3252E+03
      5.091  0.4818E+02  0.4554E+02  0.3282E+03  0.3276E+03
      5.146  0.2868E+02  0.2928E+02  0.3298E+03  0.3292E+03
      5.200  0.3147E+02  0.3143E+02  0.3315E+03  0.3309E+03
      5.255  0.2941E+02  0.3305E+02  0.3331E+03  0.3328E+03
      5.309  0.3408E+02  0.2876E+02  0.3349E+03  0.3343E+03
      5.364  0.2317E+02  0.2651E+02  0.3362E+03  0.3358E+03
      5.418  0.5870E+02  0.5616E+02  0.3394E+03  0.3388E+03
      5.473  0.2002E+02  0.2614E+02  0.3405E+03  0.3403E+03
      5.528  0.3021E+02  0.2876E+02  0.3421E+03  0.3418E+03
      5.582  0.2354E+02  0.2616E+02  0.3434E+03  0.3433E+03
      5.637  0.1356E+02  0.1303E+02  0.3442E+03  0.3440E+03
      5.691  0.2904E+02  0.3005E+02  0.3458E+03  0.3456E+03
      5.746  0.2333E+02  0.2427E+02  0.3470E+03  0.3469E+03
      5.800  0.2951E+02  0.2604E+02  0.3486E+03  0.3483E+03
      5.855  0.2536E+02  0.2937E+02  0.3500E+03  0.3499E+03
      5.909  0.1336E+02  0.1463E+02  0.3507E+03  0.3507E+03
      5.964  0.8823E+01  0.6180E+01  0.3512E+03  0.3511E+03
      6.018  0.5412E+01  0.5823E+01  0.3515E+03  0.3514E+03
      6.073  0.5340E+01  0.6462E+01  0.3518E+03  0.3518E+03
      6.128  0.3360E+01  0.4554E+01  0.3520E+03  0.3520E+03
      6.182  0.0000E+00  0.0000E+00  0.3520E+03  0.3520E+03
      6.237  0.0000E+00  0.0000E+00  0.3520E+03  0.3520E+03
      6.291  0.0000E+00  0.0000E+00  0.3520E+03  0.3520E+03
      6.346  0.0000E+00  0.0000E+00  0.3520E+03  0.3520E+03
      6.400  0.0000E+00  0.0000E+00  0.3520E+03  0.3520E+03
      6.455  0.0000E+00  0.0000E+00  0.3520E+03  0.3520E+03
      6.509  0.0000E+00  0.0000E+00  0.3520E+03  0.3520E+03
      6.564  0.0000E+00  0.0000E+00  0.3520E+03  0.3520E+03
      6.618  0.0000E+00  0.0000E+00  0.3520E+03  0.3520E+03
      6.673  0.0000E+00  0.0000E+00  0.3520E+03  0.3520E+03
      6.728  0.0000E+00  0.0000E+00  0.3520E+03  0.3520E+03
      6.782  0.0000E+00  0.0000E+00  0.3520E+03  0.3520E+03
      6.837  0.0000E+00  0.0000E+00  0.3520E+03  0.3520E+03
