 120 120   0   0
  0.1350816E+02  0.1330318E-08  0.1629300E-08  0.8192406E-09  0.5000000E-15
  1.000000000000000E-004
  CAR 
 Si and Ge interface calculation         
      7.46866828    -15.05057518  301      4.09544996      1.00000000
    -15.051  0.0000E+00  0.0000E+00  0.0000E+00  0.0000E+00
    -14.976  0.0000E+00  0.0000E+00  0.0000E+00  0.0000E+00
    -14.900  0.0000E+00  0.0000E+00  0.0000E+00  0.0000E+00
    -14.825  0.0000E+00  0.0000E+00  0.0000E+00  0.0000E+00
    -14.750  0.0000E+00  0.0000E+00  0.0000E+00  0.0000E+00
    -14.675  0.0000E+00  0.0000E+00  0.0000E+00  0.0000E+00
    -14.600  0.0000E+00  0.0000E+00  0.0000E+00  0.0000E+00
    -14.525  0.0000E+00  0.0000E+00  0.0000E+00  0.0000E+00
    -14.450  0.0000E+00  0.0000E+00  0.0000E+00  0.0000E+00
    -14.375  0.0000E+00  0.0000E+00  0.0000E+00  0.0000E+00
    -14.300  0.0000E+00  0.0000E+00  0.0000E+00  0.0000E+00
    -14.225  0.0000E+00  0.0000E+00  0.0000E+00  0.0000E+00
    -14.150  0.0000E+00  0.0000E+00  0.0000E+00  0.0000E+00
    -14.075  0.2121E-10  0.1109E-14  0.1592E-11  0.8327E-16
    -14.000  0.4440E+01  0.4413E+01  0.3333E+00  0.3312E+00
    -13.925  0.9699E+01  0.8798E+01  0.1061E+01  0.9937E+00
    -13.850  0.1694E+02  0.1773E+02  0.2333E+01  0.2333E+01
    -13.774  0.7799E+00  0.3582E-01  0.2392E+01  0.2336E+01
    -13.699  0.2586E+02  0.2633E+02  0.4333E+01  0.4312E+01
    -13.624  0.8828E+01  0.7888E+01  0.4996E+01  0.4925E+01
    -13.549  0.1373E+02  0.1278E+02  0.6031E+01  0.5960E+01
    -13.474  0.8448E+01  0.8783E+01  0.6666E+01  0.6662E+01
    -13.399  0.1658E+02  0.1459E+02  0.7911E+01  0.7762E+01
    -13.324  0.1124E+02  0.1040E+02  0.8755E+01  0.8542E+01
    -13.249  0.1201E+02  0.1498E+02  0.9667E+01  0.9667E+01
    -13.174  0.1050E+02  0.8992E+01  0.1045E+02  0.1034E+02
    -13.099  0.1171E+02  0.1319E+02  0.1133E+02  0.1133E+02
    -13.024  0.1851E+02  0.1172E+02  0.1272E+02  0.1221E+02
    -12.949  0.2242E+02  0.2534E+02  0.1443E+02  0.1411E+02
    -12.874  0.7211E+01  0.1118E+02  0.1500E+02  0.1500E+02
    -12.799  0.2150E+02  0.1797E+02  0.1661E+02  0.1635E+02
    -12.724  0.8881E+01  0.1311E+02  0.1733E+02  0.1733E+02
    -12.649  0.9068E+01  0.8782E+01  0.1801E+02  0.1799E+02
    -12.573  0.8693E+01  0.8878E+01  0.1867E+02  0.1867E+02
    -12.498  0.1757E+02  0.1560E+02  0.1999E+02  0.1984E+02
    -12.423  0.2078E+02  0.1566E+02  0.2156E+02  0.2113E+02
    -12.348  0.3865E+01  0.1087E+02  0.2201E+02  0.2200E+02
    -12.273  0.1756E+02  0.1578E+02  0.2332E+02  0.2318E+02
    -12.198  0.8882E+01  0.1050E+02  0.2400E+02  0.2400E+02
    -12.123  0.4441E+01  0.4441E+01  0.2433E+02  0.2433E+02
    -12.048  0.8881E+01  0.8872E+01  0.2500E+02  0.2500E+02
    -11.973  0.2672E+01  0.5965E+00  0.2520E+02  0.2504E+02
    -11.898  0.1079E+02  0.9000E+01  0.2601E+02  0.2572E+02
    -11.823  0.2650E+02  0.3037E+02  0.2800E+02  0.2800E+02
    -11.748  0.0000E+00  0.0000E+00  0.2800E+02  0.2800E+02
    -11.673  0.2779E-12  0.0000E+00  0.2800E+02  0.2800E+02
    -11.598  0.4438E+01  0.4345E+01  0.2833E+02  0.2833E+02
    -11.523  0.8881E+01  0.8860E+01  0.2900E+02  0.2900E+02
    -11.447  0.0000E+00  0.0000E+00  0.2900E+02  0.2900E+02
    -11.372  0.3370E+00  0.1339E-01  0.2903E+02  0.2900E+02
    -11.297  0.1298E+02  0.1328E+02  0.3000E+02  0.3000E+02
    -11.222  0.3097E+02  0.2837E+02  0.3232E+02  0.3213E+02
    -11.147  0.3092E+02  0.2555E+02  0.3466E+02  0.3425E+02
    -11.072  0.2734E+02  0.2703E+02  0.3682E+02  0.3631E+02
    -10.997  0.1904E-01  0.9215E+01  0.3700E+02  0.3700E+02
    -10.922  0.8862E+01  0.8881E+01  0.3767E+02  0.3767E+02
    -10.847  0.1564E+02  0.1143E+02  0.3884E+02  0.3852E+02
    -10.772  0.8853E+01  0.1455E+02  0.3966E+02  0.3962E+02
    -10.697  0.2444E+00  0.5768E-02  0.3969E+02  0.3967E+02
    -10.622  0.1330E+02  0.8729E+01  0.4068E+02  0.4032E+02
    -10.547  0.2056E+02  0.2599E+02  0.4233E+02  0.4227E+02
    -10.472  0.1685E+01  0.1892E+00  0.4246E+02  0.4235E+02
    -10.397  0.7932E+01  0.8734E+01  0.4306E+02  0.4300E+02
    -10.322  0.8145E+01  0.8839E+01  0.4367E+02  0.4367E+02
    -10.246  0.1308E+02  0.1134E+02  0.4465E+02  0.4452E+02
    -10.171  0.4441E+01  0.4747E+01  0.4500E+02  0.4500E+02
    -10.096  0.1776E+02  0.1775E+02  0.4633E+02  0.4633E+02
    -10.021  0.1333E+02  0.1325E+02  0.4733E+02  0.4733E+02
     -9.946  0.2148E+02  0.1592E+02  0.4895E+02  0.4853E+02
     -9.871  0.1313E+02  0.1961E+02  0.5000E+02  0.5000E+02
     -9.796  0.1141E+02  0.7501E+01  0.5086E+02  0.5056E+02
     -9.721  0.1878E+02  0.1824E+02  0.5228E+02  0.5202E+02
     -9.646  0.1790E+02  0.2081E+02  0.5368E+02  0.5366E+02
     -9.571  0.2423E+02  0.2087E+02  0.5550E+02  0.5523E+02
     -9.496  0.2678E+02  0.2173E+02  0.5751E+02  0.5695E+02
     -9.421  0.1925E+02  0.2733E+02  0.5900E+02  0.5900E+02
     -9.346  0.1562E+02  0.1062E+02  0.6017E+02  0.5980E+02
     -9.271  0.2387E+02  0.2862E+02  0.6200E+02  0.6199E+02
     -9.196  0.1244E+02  0.8572E+01  0.6293E+02  0.6264E+02
     -9.121  0.1780E+02  0.1821E+02  0.6431E+02  0.6405E+02
     -9.045  0.3029E+02  0.2881E+02  0.6661E+02  0.6627E+02
     -8.970  0.1406E+02  0.1407E+02  0.6772E+02  0.6737E+02
     -8.895  0.2162E+02  0.2611E+02  0.6936E+02  0.6933E+02
     -8.820  0.1812E+02  0.1436E+02  0.7072E+02  0.7041E+02
     -8.745  0.1206E+02  0.1512E+02  0.7166E+02  0.7155E+02
     -8.670  0.2044E+02  0.1586E+02  0.7320E+02  0.7277E+02
     -8.595  0.1936E+02  0.2409E+02  0.7467E+02  0.7467E+02
     -8.520  0.2575E+02  0.2194E+02  0.7660E+02  0.7631E+02
     -8.445  0.1374E+02  0.1458E+02  0.7766E+02  0.7752E+02
     -8.370  0.2494E+02  0.2242E+02  0.7955E+02  0.7921E+02
     -8.295  0.4009E+01  0.6295E+01  0.7992E+02  0.7972E+02
     -8.220  0.1860E+02  0.2154E+02  0.8133E+02  0.8133E+02
     -8.145  0.8605E-01  0.6924E-03  0.8134E+02  0.8133E+02
     -8.070  0.8795E+01  0.8873E+01  0.8200E+02  0.8200E+02
     -7.995  0.0000E+00  0.0000E+00  0.8200E+02  0.8200E+02
     -7.919  0.7677E+00  0.3409E-01  0.8206E+02  0.8200E+02
     -7.844  0.1255E+02  0.1329E+02  0.8300E+02  0.8300E+02
     -7.769  0.0000E+00  0.0000E+00  0.8300E+02  0.8300E+02
     -7.694  0.7621E+01  0.4178E+01  0.8357E+02  0.8331E+02
     -7.619  0.4331E+01  0.7777E+01  0.8399E+02  0.8390E+02
     -7.544  0.4540E-07  0.1367E+01  0.8400E+02  0.8400E+02
     -7.469  0.8879E+01  0.8801E+01  0.8467E+02  0.8466E+02
     -7.394  0.8879E+01  0.8776E+01  0.8533E+02  0.8533E+02
     -7.319  0.8871E+01  0.8518E+01  0.8600E+02  0.8597E+02
     -7.244  0.1045E+02  0.6639E+01  0.8678E+02  0.8650E+02
     -7.169  0.6704E+01  0.1110E+02  0.8733E+02  0.8733E+02
     -7.094  0.3273E+01  0.8638E+00  0.8758E+02  0.8740E+02
     -7.019  0.5608E+01  0.8018E+01  0.8800E+02  0.8800E+02
     -6.944  0.1757E+02  0.1550E+02  0.8932E+02  0.8916E+02
     -6.869  0.2289E+01  0.2873E+01  0.8951E+02  0.8944E+02
     -6.794  0.1523E+02  0.1433E+02  0.9067E+02  0.9052E+02
     -6.718  0.1477E+02  0.1554E+02  0.9181E+02  0.9170E+02
     -6.643  0.1701E+02  0.1615E+02  0.9311E+02  0.9295E+02
     -6.568  0.3036E+02  0.2819E+02  0.9545E+02  0.9507E+02
     -6.493  0.2138E+02  0.2363E+02  0.9708E+02  0.9691E+02
     -6.418  0.2279E+02  0.2399E+02  0.9880E+02  0.9874E+02
     -6.343  0.2964E+02  0.2908E+02  0.1010E+03  0.1009E+03
     -6.268  0.1950E+02  0.1826E+02  0.1025E+03  0.1024E+03
     -6.193  0.3370E+02  0.2978E+02  0.1050E+03  0.1046E+03
     -6.118  0.2410E+02  0.2356E+02  0.1069E+03  0.1064E+03
     -6.043  0.1780E+02  0.2102E+02  0.1082E+03  0.1080E+03
     -5.968  0.2656E+02  0.2832E+02  0.1102E+03  0.1101E+03
     -5.893  0.2354E+02  0.2052E+02  0.1120E+03  0.1117E+03
     -5.818  0.2636E+02  0.2628E+02  0.1140E+03  0.1137E+03
     -5.743  0.2579E+02  0.2949E+02  0.1160E+03  0.1159E+03
     -5.668  0.2022E+02  0.1846E+02  0.1175E+03  0.1173E+03
     -5.592  0.2242E+02  0.2446E+02  0.1192E+03  0.1191E+03
     -5.517  0.3805E+02  0.3651E+02  0.1221E+03  0.1219E+03
     -5.442  0.2812E+02  0.2653E+02  0.1242E+03  0.1239E+03
     -5.367  0.3020E+02  0.2964E+02  0.1265E+03  0.1262E+03
     -5.292  0.2595E+02  0.2499E+02  0.1285E+03  0.1281E+03
     -5.217  0.2591E+02  0.2745E+02  0.1305E+03  0.1302E+03
     -5.142  0.3628E+02  0.3656E+02  0.1333E+03  0.1330E+03
     -5.067  0.3120E+02  0.3230E+02  0.1356E+03  0.1355E+03
     -4.992  0.2666E+02  0.2438E+02  0.1377E+03  0.1373E+03
     -4.917  0.3074E+02  0.3483E+02  0.1400E+03  0.1399E+03
     -4.842  0.3727E+02  0.3488E+02  0.1428E+03  0.1425E+03
     -4.767  0.1999E+02  0.2102E+02  0.1443E+03  0.1442E+03
     -4.692  0.2612E+02  0.2619E+02  0.1463E+03  0.1461E+03
     -4.617  0.3091E+02  0.2967E+02  0.1487E+03  0.1484E+03
     -4.542  0.3352E+02  0.3133E+02  0.1512E+03  0.1508E+03
     -4.467  0.2790E+02  0.3136E+02  0.1534E+03  0.1531E+03
     -4.391  0.3319E+02  0.3066E+02  0.1559E+03  0.1555E+03
     -4.316  0.2921E+02  0.3101E+02  0.1581E+03  0.1578E+03
     -4.241  0.3325E+02  0.3415E+02  0.1606E+03  0.1604E+03
     -4.166  0.3344E+02  0.3270E+02  0.1632E+03  0.1629E+03
     -4.091  0.2646E+02  0.2650E+02  0.1652E+03  0.1649E+03
     -4.016  0.3041E+02  0.3083E+02  0.1675E+03  0.1673E+03
     -3.941  0.1757E+02  0.1887E+02  0.1689E+03  0.1687E+03
     -3.866  0.2933E+02  0.3132E+02  0.1711E+03  0.1711E+03
     -3.791  0.1994E+02  0.1797E+02  0.1726E+03  0.1724E+03
     -3.716  0.3533E+02  0.3246E+02  0.1753E+03  0.1749E+03
     -3.641  0.3602E+02  0.3733E+02  0.1780E+03  0.1777E+03
     -3.566  0.2283E+02  0.2507E+02  0.1798E+03  0.1796E+03
     -3.491  0.2422E+02  0.2466E+02  0.1816E+03  0.1815E+03
     -3.416  0.3112E+02  0.3113E+02  0.1840E+03  0.1838E+03
     -3.341  0.2642E+02  0.2444E+02  0.1860E+03  0.1857E+03
     -3.266  0.1776E+02  0.2003E+02  0.1873E+03  0.1872E+03
     -3.190  0.2167E+02  0.2120E+02  0.1890E+03  0.1889E+03
     -3.115  0.3825E+02  0.3286E+02  0.1918E+03  0.1913E+03
     -3.040  0.3367E+02  0.3638E+02  0.1944E+03  0.1942E+03
     -2.965  0.2945E+02  0.2770E+02  0.1967E+03  0.1963E+03
     -2.890  0.2004E+02  0.2384E+02  0.1982E+03  0.1981E+03
     -2.815  0.2586E+02  0.2430E+02  0.2002E+03  0.1999E+03
     -2.740  0.2334E+02  0.2452E+02  0.2019E+03  0.2018E+03
     -2.665  0.2698E+02  0.2552E+02  0.2040E+03  0.2037E+03
     -2.590  0.3479E+02  0.3404E+02  0.2066E+03  0.2063E+03
     -2.515  0.2916E+02  0.2923E+02  0.2089E+03  0.2085E+03
     -2.440  0.3834E+02  0.4008E+02  0.2118E+03  0.2116E+03
     -2.365  0.2711E+02  0.2816E+02  0.2139E+03  0.2138E+03
     -2.290  0.3852E+02  0.3522E+02  0.2168E+03  0.2164E+03
     -2.215  0.3256E+02  0.3415E+02  0.2193E+03  0.2190E+03
     -2.140  0.4221E+02  0.4061E+02  0.2225E+03  0.2220E+03
     -2.064  0.2675E+02  0.2705E+02  0.2245E+03  0.2241E+03
     -1.989  0.3570E+02  0.3530E+02  0.2272E+03  0.2267E+03
     -1.914  0.3075E+02  0.3442E+02  0.2296E+03  0.2294E+03
     -1.839  0.4258E+02  0.4366E+02  0.2328E+03  0.2326E+03
     -1.764  0.2953E+02  0.2583E+02  0.2351E+03  0.2347E+03
     -1.689  0.2812E+02  0.2867E+02  0.2372E+03  0.2368E+03
     -1.614  0.4663E+02  0.4553E+02  0.2407E+03  0.2403E+03
     -1.539  0.3757E+02  0.3779E+02  0.2436E+03  0.2432E+03
     -1.464  0.3617E+02  0.3347E+02  0.2463E+03  0.2458E+03
     -1.389  0.3812E+02  0.4184E+02  0.2493E+03  0.2489E+03
     -1.314  0.4480E+02  0.4573E+02  0.2527E+03  0.2524E+03
     -1.239  0.4299E+02  0.4084E+02  0.2560E+03  0.2554E+03
     -1.164  0.3895E+02  0.4338E+02  0.2589E+03  0.2587E+03
     -1.089  0.4334E+02  0.4083E+02  0.2622E+03  0.2618E+03
     -1.014  0.3743E+02  0.3751E+02  0.2650E+03  0.2646E+03
     -0.939  0.4333E+02  0.4261E+02  0.2683E+03  0.2679E+03
     -0.863  0.2984E+02  0.3015E+02  0.2706E+03  0.2702E+03
     -0.788  0.4028E+02  0.4286E+02  0.2737E+03  0.2734E+03
     -0.713  0.4225E+02  0.4137E+02  0.2769E+03  0.2766E+03
     -0.638  0.2811E+02  0.3017E+02  0.2791E+03  0.2789E+03
     -0.563  0.4504E+02  0.4344E+02  0.2825E+03  0.2821E+03
     -0.488  0.3145E+02  0.3389E+02  0.2849E+03  0.2847E+03
     -0.413  0.3609E+02  0.3387E+02  0.2876E+03  0.2873E+03
     -0.338  0.2836E+02  0.2914E+02  0.2898E+03  0.2895E+03
     -0.263  0.2920E+02  0.2974E+02  0.2920E+03  0.2918E+03
     -0.188  0.3083E+02  0.3033E+02  0.2943E+03  0.2941E+03
     -0.113  0.3109E+02  0.2854E+02  0.2966E+03  0.2963E+03
     -0.038  0.2254E+02  0.2326E+02  0.2983E+03  0.2980E+03
      0.037  0.4935E+02  0.4572E+02  0.3021E+03  0.3015E+03
      0.112  0.3441E+02  0.3494E+02  0.3047E+03  0.3041E+03
      0.187  0.3310E+02  0.3823E+02  0.3073E+03  0.3070E+03
      0.263  0.3760E+02  0.3692E+02  0.3101E+03  0.3098E+03
      0.338  0.4666E+02  0.4440E+02  0.3136E+03  0.3132E+03
      0.413  0.3091E+02  0.3414E+02  0.3160E+03  0.3158E+03
      0.488  0.4412E+02  0.4148E+02  0.3193E+03  0.3189E+03
      0.563  0.5477E+02  0.5659E+02  0.3235E+03  0.3232E+03
      0.638  0.2727E+02  0.2563E+02  0.3255E+03  0.3252E+03
      0.713  0.4569E+02  0.4365E+02  0.3290E+03  0.3285E+03
      0.788  0.3896E+02  0.4031E+02  0.3319E+03  0.3316E+03
      0.863  0.3586E+02  0.3775E+02  0.3347E+03  0.3345E+03
      0.938  0.4525E+02  0.3624E+02  0.3381E+03  0.3372E+03
      1.013  0.3653E+02  0.4304E+02  0.3410E+03  0.3404E+03
      1.088  0.4242E+02  0.4081E+02  0.3442E+03  0.3436E+03
      1.163  0.5123E+02  0.5533E+02  0.3481E+03  0.3478E+03
      1.238  0.3633E+02  0.3270E+02  0.3509E+03  0.3503E+03
      1.313  0.3676E+02  0.3605E+02  0.3536E+03  0.3531E+03
      1.388  0.4043E+02  0.4279E+02  0.3568E+03  0.3563E+03
      1.464  0.3280E+02  0.3201E+02  0.3593E+03  0.3588E+03
      1.539  0.4130E+02  0.4003E+02  0.3624E+03  0.3619E+03
      1.614  0.4799E+02  0.4666E+02  0.3661E+03  0.3654E+03
      1.689  0.3876E+02  0.4176E+02  0.3690E+03  0.3686E+03
      1.764  0.5274E+02  0.4806E+02  0.3730E+03  0.3722E+03
      1.839  0.4929E+02  0.4788E+02  0.3768E+03  0.3759E+03
      1.914  0.4315E+02  0.4405E+02  0.3800E+03  0.3793E+03
      1.989  0.4488E+02  0.4883E+02  0.3835E+03  0.3830E+03
      2.064  0.5152E+02  0.5275E+02  0.3874E+03  0.3870E+03
      2.139  0.5374E+02  0.5071E+02  0.3914E+03  0.3909E+03
      2.214  0.5719E+02  0.5134E+02  0.3957E+03  0.3948E+03
      2.289  0.3811E+02  0.4181E+02  0.3987E+03  0.3980E+03
      2.364  0.3853E+02  0.3647E+02  0.4016E+03  0.4008E+03
      2.439  0.4524E+02  0.4333E+02  0.4051E+03  0.4041E+03
      2.514  0.5637E+02  0.5660E+02  0.4094E+03  0.4084E+03
      2.589  0.2741E+02  0.3591E+02  0.4115E+03  0.4111E+03
      2.665  0.5167E+02  0.4401E+02  0.4155E+03  0.4144E+03
      2.740  0.4716E+02  0.4814E+02  0.4191E+03  0.4181E+03
      2.815  0.4474E+02  0.4940E+02  0.4225E+03  0.4219E+03
      2.890  0.4204E+02  0.4510E+02  0.4257E+03  0.4253E+03
      2.965  0.4773E+02  0.3921E+02  0.4293E+03  0.4283E+03
      3.040  0.4798E+02  0.5513E+02  0.4330E+03  0.4325E+03
      3.115  0.4809E+02  0.4457E+02  0.4366E+03  0.4359E+03
      3.190  0.4389E+02  0.3967E+02  0.4399E+03  0.4389E+03
      3.265  0.5514E+02  0.5441E+02  0.4441E+03  0.4431E+03
      3.340  0.3589E+02  0.4226E+02  0.4469E+03  0.4463E+03
      3.415  0.4406E+02  0.3801E+02  0.4503E+03  0.4492E+03
      3.490  0.4319E+02  0.4686E+02  0.4536E+03  0.4527E+03
      3.565  0.4081E+02  0.4167E+02  0.4567E+03  0.4558E+03
      3.640  0.4385E+02  0.4260E+02  0.4600E+03  0.4591E+03
      3.715  0.4250E+02  0.4409E+02  0.4633E+03  0.4624E+03
      3.791  0.4325E+02  0.4270E+02  0.4666E+03  0.4656E+03
      3.866  0.4173E+02  0.4134E+02  0.4698E+03  0.4688E+03
      3.941  0.4479E+02  0.4100E+02  0.4732E+03  0.4719E+03
      4.016  0.4296E+02  0.4371E+02  0.4765E+03  0.4752E+03
      4.091  0.4782E+02  0.4713E+02  0.4801E+03  0.4788E+03
      4.166  0.4091E+02  0.3989E+02  0.4832E+03  0.4818E+03
      4.241  0.4093E+02  0.4958E+02  0.4863E+03  0.4856E+03
      4.316  0.5996E+02  0.5272E+02  0.4908E+03  0.4896E+03
      4.391  0.5237E+02  0.5715E+02  0.4949E+03  0.4939E+03
      4.466  0.4599E+02  0.4536E+02  0.4983E+03  0.4974E+03
      4.541  0.4894E+02  0.4575E+02  0.5020E+03  0.5009E+03
      4.616  0.5006E+02  0.5357E+02  0.5059E+03  0.5050E+03
      4.691  0.6063E+02  0.5867E+02  0.5105E+03  0.5094E+03
      4.766  0.4289E+02  0.4321E+02  0.5137E+03  0.5127E+03
      4.841  0.5233E+02  0.5019E+02  0.5177E+03  0.5165E+03
      4.916  0.3393E+02  0.4282E+02  0.5203E+03  0.5198E+03
      4.992  0.4248E+02  0.3495E+02  0.5235E+03  0.5225E+03
      5.067  0.3515E+02  0.4086E+02  0.5262E+03  0.5256E+03
      5.142  0.4492E+02  0.4110E+02  0.5296E+03  0.5287E+03
      5.217  0.3749E+02  0.4318E+02  0.5324E+03  0.5320E+03
      5.292  0.4211E+02  0.3876E+02  0.5356E+03  0.5350E+03
      5.367  0.4538E+02  0.4207E+02  0.5390E+03  0.5382E+03
      5.442  0.3647E+02  0.3700E+02  0.5418E+03  0.5410E+03
      5.517  0.2542E+02  0.3012E+02  0.5438E+03  0.5434E+03
      5.592  0.2260E+02  0.2241E+02  0.5455E+03  0.5451E+03
      5.667  0.3722E+02  0.3300E+02  0.5483E+03  0.5476E+03
      5.742  0.3743E+02  0.3597E+02  0.5511E+03  0.5503E+03
      5.817  0.4083E+02  0.4010E+02  0.5542E+03  0.5534E+03
      5.892  0.3035E+02  0.3437E+02  0.5565E+03  0.5560E+03
      5.967  0.4587E+02  0.3960E+02  0.5600E+03  0.5590E+03
      6.042  0.4652E+02  0.4579E+02  0.5635E+03  0.5625E+03
      6.118  0.3923E+02  0.4778E+02  0.5665E+03  0.5661E+03
      6.193  0.4231E+02  0.4077E+02  0.5697E+03  0.5692E+03
      6.268  0.3923E+02  0.3848E+02  0.5727E+03  0.5721E+03
      6.343  0.2171E+02  0.2081E+02  0.5743E+03  0.5737E+03
      6.418  0.1943E+02  0.2378E+02  0.5758E+03  0.5755E+03
      6.493  0.2093E+01  0.5397E+01  0.5760E+03  0.5760E+03
      6.568  0.0000E+00  0.0000E+00  0.5760E+03  0.5760E+03
      6.643  0.0000E+00  0.0000E+00  0.5760E+03  0.5760E+03
      6.718  0.0000E+00  0.0000E+00  0.5760E+03  0.5760E+03
      6.793  0.0000E+00  0.0000E+00  0.5760E+03  0.5760E+03
      6.868  0.0000E+00  0.0000E+00  0.5760E+03  0.5760E+03
      6.943  0.0000E+00  0.0000E+00  0.5760E+03  0.5760E+03
      7.018  0.0000E+00  0.0000E+00  0.5760E+03  0.5760E+03
      7.093  0.0000E+00  0.0000E+00  0.5760E+03  0.5760E+03
      7.168  0.0000E+00  0.0000E+00  0.5760E+03  0.5760E+03
      7.243  0.0000E+00  0.0000E+00  0.5760E+03  0.5760E+03
      7.319  0.0000E+00  0.0000E+00  0.5760E+03  0.5760E+03
      7.394  0.0000E+00  0.0000E+00  0.5760E+03  0.5760E+03
      7.469  0.0000E+00  0.0000E+00  0.5760E+03  0.5760E+03
