 vasp.6.4.3 19Mar24 (build Oct 22 2024 11:23:12) complex                        
  
 executed on             LinuxIFC date 2025.06.10  19:46:17
 running   64 mpi-ranks, on    4 nodes
 distrk:  each k-point on   64 cores,    1 groups
 distr:  one band on NCORE=  16 cores,    4 groups


--------------------------------------------------------------------------------------------------------


 INCAR:
   SYSTEM = Si and Ge interface calculation
   ISTART = 0
   ICHARG = 2
   LWAVE = .FALSE.
   LREAL = AUTO
   ENCUT = 700
   ENAUG = 900
   ADDGRID = .TRUE.
   LMAXMIX = 6
   LASPH = .TRUE.
   LMIXTAU = .TRUE.
   NCORE = 16
   NELM = 100
   NBANDS = 634
   EDIFF = 1d-7
   AMIX = 0.6
   ISMEAR = 0
   SIGMA = 0.01
   NELECT = 1056
   ISPIN = 2
   NUPDOWN = 1
   LVTOT = .FALSE.
   LVHAR = .TRUE.

 POTCAR:    PAW_PBE Si 05Jan2001                  
 POTCAR:    PAW_PBE Sn 08Apr2002                  
 -----------------------------------------------------------------------------
|                                                                             |
|           W    W    AA    RRRRR   N    N  II  N    N   GGGG   !!!           |
|           W    W   A  A   R    R  NN   N  II  NN   N  G    G  !!!           |
|           W    W  A    A  R    R  N N  N  II  N N  N  G       !!!           |
|           W WW W  AAAAAA  RRRRR   N  N N  II  N  N N  G  GGG   !            |
|           WW  WW  A    A  R   R   N   NN  II  N   NN  G    G                |
|           W    W  A    A  R    R  N    N  II  N    N   GGGG   !!!           |
|                                                                             |
|     You use a magnetic or noncollinear calculation, but did not specify     |
|     the initial magnetic moment with the MAGMOM tag. Note that a            |
|     default of 3.788e-3 will be used for all atoms. This ferromagnetic      |
|     setup may break the symmetry of the crystal, in particular it may       |
|     rule out finding an antiferromagnetic solution. Thence, we              |
|     recommend setting the initial magnetic moment manually or verifying     |
|     carefully that this magnetic setup is desired.                          |
|                                                                             |
 -----------------------------------------------------------------------------

 POTCAR:    PAW_PBE Si 05Jan2001                  
   VRHFIN =Si: s2p2                                                                                 
   LEXCH  = PE                                                                                      
   EATOM  =   103.0669 eV,    7.5752 Ry                                                             
                                                                                                    
   TITEL  = PAW_PBE Si 05Jan2001                                                                    
   LULTRA =        F    use ultrasoft PP ?                                                          
   IUNSCR =        1    unscreen: 0-lin 1-nonlin 2-no                                               
   RPACOR =    1.500    partial core radius                                                         
   POMASS =   28.085; ZVAL   =    4.000    mass and valenz                                          
   RCORE  =    1.900    outmost cutoff radius                                                       
   RWIGS  =    2.480; RWIGS  =    1.312    wigner-seitz radius (au A)                               
   ENMAX  =  245.345; ENMIN  =  184.009 eV                                                          
   ICORE  =        2    local potential                                                             
   LCOR   =        T    correct aug charges                                                         
   LPAW   =        T    paw PP                                                                      
   EAUG   =  322.069                                                                                
   DEXC   =    0.000                                                                                
   RMAX   =    1.950    core radius for proj-oper                                                   
   RAUG   =    1.300    factor for augmentation sphere                                              
   RDEP   =    1.993    radius for radial grids                                                     
   RDEPT  =    1.837    core radius for aug-charge                                                  
                                                                                                    
   Atomic configuration                                                                             
    6 entries                                                                                       
     n  l   j            E        occ.                                                              
     1  0  0.50     -1785.8828   2.0000                                                             
     2  0  0.50      -139.4969   2.0000                                                             
     2  1  1.50       -95.5546   6.0000                                                             
     3  0  0.50       -10.8127   2.0000                                                             
     3  1  0.50        -4.0811   2.0000                                                             
     3  2  1.50        -4.0817   0.0000                                                             
   Description                                                                                      
     l       E           TYP  RCUT    TYP  RCUT                                                     
     0    -10.8127223     23  1.900                                                                 
     0     -7.6451159     23  1.900                                                                 
     1     -4.0811372     23  1.900                                                                 
     1      2.4879257     23  1.900                                                                 
     2     -4.0817478      7  1.900                                                                 
  local pseudopotential read in
  partial core-charges read in
  partial kinetic energy density read in
  atomic valenz-charges read in
  non local Contribution for L=           0  read in
    real space projection operators read in
  non local Contribution for L=           0  read in
    real space projection operators read in
  non local Contribution for L=           1  read in
    real space projection operators read in
  non local Contribution for L=           1  read in
    real space projection operators read in
    PAW grid and wavefunctions read in
 
   number of l-projection  operators is LMAX  =           4
   number of lm-projection operators is LMMAX =           8
 
 POTCAR:    PAW_PBE Sn 08Apr2002                  
   VRHFIN =Sn: s2p2                                                                                 
   LEXCH  = PE                                                                                      
   EATOM  =    94.0860 eV,    6.9151 Ry                                                             
                                                                                                    
   TITEL  = PAW_PBE Sn 08Apr2002                                                                    
   LULTRA =        F    use ultrasoft PP ?                                                          
   IUNSCR =        1    unscreen: 0-lin 1-nonlin 2-no                                               
   RPACOR =    2.000    partial core radius                                                         
   POMASS =  118.710; ZVAL   =    4.000    mass and valenz                                          
   RCORE  =    3.000    outmost cutoff radius                                                       
   RWIGS  =    2.960; RWIGS  =    1.566    wigner-seitz radius (au A)                               
   ENMAX  =  103.236; ENMIN  =   77.427 eV                                                          
   ICORE  =        3    local potential                                                             
   LCOR   =        T    correct aug charges                                                         
   LPAW   =        T    paw PP                                                                      
   EAUG   =  263.585                                                                                
   DEXC   =    0.000                                                                                
   RMAX   =    3.078    core radius for proj-oper                                                   
   RAUG   =    1.300    factor for augmentation sphere                                              
   RDEP   =    3.022    radius for radial grids                                                     
   RDEPT  =    2.655    core radius for aug-charge                                                  
                                                                                                    
   Atomic configuration                                                                             
   13 entries                                                                                       
     n  l   j            E        occ.                                                              
     1  0  0.50    -29007.2859   2.0000                                                             
     2  0  0.50     -4378.8056   2.0000                                                             
     2  1  1.50     -3930.4293   6.0000                                                             
     3  0  0.50      -845.0264   2.0000                                                             
     3  1  1.50      -698.5725   6.0000                                                             
     3  2  2.50      -473.2839  10.0000                                                             
     4  0  0.50      -133.9036   2.0000                                                             
     4  1  1.50       -89.6752   6.0000                                                             
     4  2  2.50       -25.8375  10.0000                                                             
     5  0  0.50       -10.5484   2.0000                                                             
     5  1  0.50        -3.6940   2.0000                                                             
     5  2  1.50        -1.3606   0.0000                                                             
     4  3  2.50        -4.0817   0.0000                                                             
   Description                                                                                      
     l       E           TYP  RCUT    TYP  RCUT                                                     
     0    -10.5483727     23  3.000                                                                 
     0     27.2116520     23  3.000                                                                 
     1     -3.6939829     23  3.000                                                                 
     1      1.9821976     23  3.000                                                                 
     2     -1.3605826     23  3.000                                                                 
     3     -2.7211652     23  3.000                                                                 
  local pseudopotential read in
  partial core-charges read in
  partial kinetic energy density read in
  atomic valenz-charges read in
  non local Contribution for L=           0  read in
    real space projection operators read in
  non local Contribution for L=           0  read in
    real space projection operators read in
  non local Contribution for L=           1  read in
    real space projection operators read in
  non local Contribution for L=           1  read in
    real space projection operators read in
  non local Contribution for L=           2  read in
    real space projection operators read in
    PAW grid and wavefunctions read in
 
   number of l-projection  operators is LMAX  =           5
   number of lm-projection operators is LMMAX =          13
 
 Optimization of the real space projectors (new method)

 maximal supplied QI-value         = 19.84
 optimisation between [QCUT,QGAM] = [ 13.49, 26.99] = [ 50.98,203.92] Ry 
 Optimized for a Real-space Cutoff    1.07 Angstroem

   l    n(q)    QCUT    max X(q) W(low)/X(q) W(high)/X(q)  e(spline) 
   0      9    13.493   159.560    0.22E-03    0.15E-03    0.72E-07
   0      9    13.493   115.863    0.21E-03    0.15E-03    0.71E-07
   1      8    13.493    88.339    0.15E-03    0.11E-03    0.13E-06
   1      8    13.493    48.592    0.15E-03    0.10E-03    0.13E-06
 Optimization of the real space projectors (new method)

 maximal supplied QI-value         = 12.47
 optimisation between [QCUT,QGAM] = [ 12.47, 27.06] = [ 43.56,205.12] Ry 
 Optimized for a Real-space Cutoff    1.58 Angstroem

   l    n(q)    QCUT    max X(q) W(low)/X(q) W(high)/X(q)  e(spline) 
   0     13    12.472    14.688    0.45E-04    0.45E-04    0.25E-05
   0     13    12.472     7.308    0.94E-04    0.11E-03    0.61E-05
   1     12    12.472    45.102    0.34E-03    0.14E-03    0.21E-05
   1     12    12.472    30.691    0.31E-03    0.13E-03    0.20E-05
   2     12    12.472     7.156    0.86E-04    0.11E-03    0.17E-05
 WARNING: PSMAXN for non-local potential too small
          PSMAXN should be >   13.5545592237991       NTYP=           2
  PAW_PBE Si 05Jan2001                  :
 energy of atom  1       EATOM= -103.0669
 kinetic energy error for atom=    0.0003 (will be added to EATOM!!)
  PAW_PBE Sn 08Apr2002                  :
 energy of atom  2       EATOM=  -94.0860
 kinetic energy error for atom=    0.0000 (will be added to EATOM!!)
 
 
 POSCAR: Si+Sn
  positions in direct lattice
  No initial velocities read in


 exchange-correlation table for PE
   RHO(1)=    0.500       N(1)  =     2000
   RHO(2)=  100.500       N(2)  =     4000
 


--------------------------------------------------------------------------------------------------------


 ion  position               nearest neighbor table
   1  0.996  0.997  0.000- 112 2.29 145 2.35  49 2.35
   2  0.881  0.920  0.142-  76 2.35 146 2.35  50 2.35 145 2.35
   3  0.765  0.843  0.284-  77 2.35  51 2.35 147 2.35 146 2.35
   4  0.073  0.382  0.000-  43 2.35 154 2.35  20 2.91 246 3.44
   5  0.957  0.305  0.142-  73 2.35 160 2.35 155 2.35 154 2.35
   6  0.842  0.228  0.284-  74 2.35 262 2.35 155 2.35 156 2.35
   7  0.227  0.151  0.000- 195 2.35  46 2.35 118 2.91
   8  0.111  0.074  0.142-  49 2.35  47 2.35 195 2.35 119 2.35
   9  0.996  0.997  0.284-  50 2.35 163 2.35 220 2.35 119 2.35
  10  0.791  0.804  0.890-  34 2.30 148 2.82 216 2.82
  11  0.034  0.690  0.142-  40 2.35 122 2.35 121 2.35  53 2.35
  12  0.919  0.613  0.284-  41 2.35 123 2.35 169 2.35 122 2.35
  13  0.304  0.536  0.000-  55 2.35 162 2.35 133 2.90
  14  0.188  0.459  0.142-  43 2.35 125 2.35 172 2.35 162 2.35
  15  0.073  0.382  0.284- 160 2.35 211 2.35 126 2.35 125 2.35
  16  0.457  0.305  0.000- 168 2.35  58 2.35
  17  0.342  0.228  0.142-  46 2.35 232 2.35  59 2.35 168 2.35
  18  0.227  0.151  0.284-  47 2.35 223 2.35 175 2.35 232 2.35
  19  0.611  0.074  0.000- 130 2.35  61 2.35 101 2.93
  20  0.125  0.471  0.890- 171 2.82 228 2.82   4 2.91  82 2.93
  21  0.381  0.920  0.284-  65 2.35  63 2.35 132 2.35 187 2.35
  22  0.958  0.637  0.890-  37 2.28 216 2.82 171 2.82
  23  0.265  0.843  0.142-  52 2.35 134 2.35 252 2.35  65 2.35
  24  0.150  0.766  0.284-  53 2.35 166 2.35 135 2.35 134 2.35
  25  0.534  0.690  0.000- 136 2.35  67 2.35  97 2.93
  26  0.419  0.613  0.142-  55 2.35 137 2.35  68 2.35 136 2.35
  27  0.304  0.536  0.284- 172 2.35 138 2.35  69 2.35 137 2.35
  28  0.688  0.459  0.000- 139 2.35  70 2.35 106 2.92
  29  0.573  0.382  0.142-  58 2.35 140 2.35 139 2.35  71 2.35
  30  0.457  0.305  0.284- 141 2.35  59 2.35  72 2.35 140 2.35
  31  0.842  0.228  0.000- 142 2.35  73 2.35 186 2.93 246 3.43
  32  0.727  0.151  0.142-  61 2.35  74 2.35 143 2.35 142 2.35
  33  0.611  0.074  0.284-  62 2.35 144 2.35  75 2.35 143 2.35
  34  0.765  0.843  0.000-  10 2.30 159 2.35  76 2.35
  35  0.375  0.554  0.805- 133 2.82 210 2.82 200 2.82 251 2.82
  36  0.534  0.690  0.284-  68 2.35 181 2.35 150 2.35 149 2.35
  37  0.919  0.613  0.000-  22 2.28  40 2.35 151 2.35
  38  0.804  0.536  0.142-  70 2.35  41 2.35 152 2.35 151 2.35
  39  0.688  0.459  0.284- 229 2.35  71 2.35 153 2.35 152 2.35
  40  0.015  0.593  0.071-  37 2.35  11 2.35  82 2.35  83 2.35
  41  0.900  0.516  0.213-  83 2.35  38 2.35  12 2.35 235 2.35
  42  0.875  0.054  0.465- 220 2.28 256 2.82  96 2.82
  43  0.169  0.363  0.071-  14 2.35   4 2.35  86 2.35 264 2.35
  44  0.041  0.554  0.465- 169 2.30 190 2.82 259 2.82
  45  0.958  0.304  0.550-  84 2.82 164 2.82  48 2.82 218 2.82
  46  0.323  0.132  0.071-  17 2.35   7 2.35 207 2.35 255 2.35
  47  0.207  0.055  0.213-  18 2.35   8 2.35 255 2.35  90 2.35
  48  0.041  0.221  0.465- 184 2.82  45 2.82 175 2.90 262 2.92
  49  0.092  0.978  0.071-   8 2.35   1 2.35 222 2.35  92 2.35
  50  0.977  0.901  0.213-   9 2.35   2 2.35  92 2.35 196 2.35
  51  0.861  0.824  0.355-   3 2.35 196 2.35 128 2.93
  52  0.246  0.747  0.071-  23 2.35 189 2.35 249 2.35  95 2.35
  53  0.131  0.670  0.213-  24 2.35  95 2.35  11 2.35 202 2.35
  54  0.375  0.554  0.465-  69 2.28 199 2.82 241 2.82
  55  0.400  0.516  0.071-  26 2.35 261 2.35  13 2.35  98 2.35
  56  0.375  0.221  0.465- 102 2.82 244 2.82 223 2.91 141 2.93
  57  0.208  0.054  0.465- 238 2.82 184 2.82 163 3.43 223 3.44 175 3.45
  58  0.554  0.286  0.071-  29 2.35 258 2.35 100 2.35  16 2.35
  59  0.438  0.209  0.213-  30 2.35 193 2.35  17 2.35 258 2.35
  60  0.541  0.721  0.465- 250 2.82  93 2.82 181 2.90 150 2.92
  61  0.707  0.055  0.071-  32 2.35 104 2.35 103 2.35  19 2.35
  62  0.592  0.978  0.213-  33 2.35 105 2.35 104 2.35 201 2.35
  63  0.477  0.901  0.355-  21 2.35 105 2.35  66 2.91
  64  0.477  0.901  0.071- 201 2.35 192 2.35 243 2.35 107 2.35
  65  0.361  0.824  0.213-  21 2.35 107 2.35  23 2.35 108 2.35
  66  0.375  0.887  0.465-  93 2.82 238 2.82  63 2.91 132 2.93
  67  0.631  0.670  0.071- 180 2.35 109 2.35  25 2.35 110 2.35
  68  0.515  0.593  0.213-  36 2.35 110 2.35  26 2.35 111 2.35
  69  0.400  0.516  0.355-  54 2.28 111 2.35  27 2.35
  70  0.784  0.440  0.071-  38 2.35 240 2.35 113 2.35  28 2.35
  71  0.669  0.363  0.213-  39 2.35 114 2.35 113 2.35  29 2.35
  72  0.554  0.286  0.355- 114 2.35  30 2.35 226 2.90
  73  0.938  0.209  0.071-   5 2.35 198 2.35  80 2.35  31 2.35
  74  0.823  0.132  0.213-   6 2.35  80 2.35  32 2.35  81 2.35
  75  0.707  0.055  0.355-  81 2.35  33 2.35
  76  0.861  0.824  0.071-   2 2.35 115 2.35  34 2.35 116 2.35
  77  0.746  0.747  0.213-   3 2.35 116 2.35 180 2.35 117 2.35
  78  0.708  0.221  0.465- 156 2.29  96 2.82 253 2.82
  79  0.125  0.804  0.890- 189 2.28 127 2.82 225 2.82
  80  0.919  0.113  0.142- 145 2.35  74 2.35 119 2.35  73 2.35
  81  0.804  0.036  0.284-  75 2.35 146 2.35 220 2.35  74 2.35
  82  0.111  0.574  0.000-  40 2.35 162 2.35  20 2.93
  83  0.996  0.497  0.142- 154 2.35  41 2.35  40 2.35 125 2.35
  84  0.875  0.387  0.465-  45 2.82 208 2.82 126 2.91 229 2.93
  85  0.625  0.304  0.890- 100 2.28 237 2.82 165 2.82
  86  0.150  0.266  0.142- 195 2.35  43 2.35 232 2.35 160 2.35
  87  0.041  0.887  0.465- 131 2.82 256 2.82 135 2.90 163 2.93
  88  0.458  0.804  0.890- 177 2.82 234 2.82 249 3.43 192 3.44 243 3.45
  89  0.291  0.304  0.890- 264 2.30 183 2.82 228 2.82
  90  0.188  0.959  0.284- 134 2.35 132 2.35 163 2.35  47 2.35
  91  0.208  0.054  0.805- 239 2.82  94 2.82 194 2.82 118 2.82
  92  0.073  0.882  0.142- 121 2.35  50 2.35 134 2.35  49 2.35
  93  0.458  0.804  0.550-  66 2.82 176 2.82  60 2.82 224 2.82
  94  0.291  0.971  0.890-  91 2.82 177 2.82 243 2.90 222 2.92
  95  0.227  0.651  0.142- 162 2.35  53 2.35 137 2.35  52 2.35
  96  0.791  0.137  0.550- 164 2.82  78 2.82  42 2.82 230 2.82
  97  0.625  0.637  0.890- 234 2.82 124 2.82 109 2.91  25 2.93
  98  0.381  0.420  0.142- 168 2.35 172 2.35 140 2.35  55 2.35
  99  0.265  0.343  0.284- 232 2.35 211 2.35 141 2.35 172 2.35
 100  0.650  0.266  0.000-  85 2.28  58 2.35 142 2.35
 101  0.625  0.971  0.890- 231 2.82 148 2.82 192 2.91  19 2.93
 102  0.458  0.137  0.550-  56 2.82 182 2.82 120 2.82 221 2.82
 103  0.804  0.036  0.000-  61 2.35 145 2.35 186 2.90
 104  0.688  0.959  0.142- 159 2.35  61 2.35  62 2.35 146 2.35
 105  0.573  0.882  0.284- 149 2.35  62 2.35 147 2.35  63 2.35
 106  0.791  0.471  0.890- 219 2.82 124 2.82 240 2.90  28 2.92
 107  0.457  0.805  0.142- 136 2.35  65 2.35  64 2.35 149 2.35
 108  0.342  0.728  0.284- 137 2.35 166 2.35 150 2.35  65 2.35
 109  0.727  0.651  0.000-  67 2.35 151 2.35  97 2.91
 110  0.611  0.574  0.142- 139 2.35  68 2.35 152 2.35  67 2.35
 111  0.496  0.497  0.284- 140 2.35  69 2.35 153 2.35  68 2.35
 112  0.958  0.971  0.890-   1 2.29 213 2.82 127 2.82
 113  0.765  0.343  0.142- 155 2.35 142 2.35  70 2.35  71 2.35
 114  0.650  0.266  0.284- 156 2.35  71 2.35 143 2.35  72 2.35
 115  0.957  0.805  0.000- 121 2.35  76 2.35
 116  0.842  0.728  0.142- 151 2.35  77 2.35 122 2.35  76 2.35
 117  0.727  0.651  0.284- 152 2.35 123 2.35 181 2.35  77 2.35
 118  0.125  0.137  0.890- 174 2.82  91 2.82   7 2.91 198 2.93
 119  0.015  0.093  0.213- 157 2.35  80 2.35   8 2.35   9 2.35
 120  0.541  0.054  0.465- 144 2.30 247 2.82 102 2.82
 121  0.054  0.786  0.071-  92 2.35 115 2.35 189 2.35  11 2.35
 122  0.938  0.709  0.213- 196 2.35 116 2.35  11 2.35  12 2.35
 123  0.823  0.632  0.355- 117 2.35  12 2.35 128 2.91 178 3.44
 124  0.708  0.554  0.805- 209 2.82 106 2.82 260 2.82  97 2.82
 125  0.092  0.478  0.213- 202 2.35  14 2.35  83 2.35  15 2.35
 126  0.977  0.401  0.355- 235 2.35  15 2.35  84 2.91
 127  0.041  0.887  0.805-  79 2.82 188 2.82 239 2.82 112 2.82
 128  0.875  0.721  0.465- 259 2.82 205 2.82 123 2.91  51 2.93
 129  0.708  0.887  0.465- 147 2.28 205 2.82 247 2.82
 130  0.515  0.093  0.071- 258 2.35  19 2.35 207 2.35 201 2.35
 131  0.125  0.804  0.550-  87 2.82 167 2.82 214 2.82 215 2.82
 132  0.284  0.940  0.355-  21 2.35  90 2.35  66 2.93
 133  0.291  0.637  0.890- 225 2.82  35 2.82  13 2.90 249 2.93
 134  0.169  0.863  0.213-  90 2.35  23 2.35  24 2.35  92 2.35
 135  0.054  0.786  0.355-  24 2.35 196 2.35  87 2.90
 136  0.438  0.709  0.071- 107 2.35 249 2.35  25 2.35  26 2.35
 137  0.323  0.632  0.213- 108 2.35  95 2.35  26 2.35  27 2.35
 138  0.207  0.555  0.355- 202 2.35  27 2.35
 139  0.592  0.478  0.071- 110 2.35  28 2.35 261 2.35  29 2.35
 140  0.477  0.401  0.213- 111 2.35  29 2.35  98 2.35  30 2.35
 141  0.361  0.324  0.355-  30 2.35  99 2.35  56 2.93
 142  0.746  0.247  0.071-  31 2.35 113 2.35 100 2.35  32 2.35
 143  0.631  0.170  0.213- 258 2.35 114 2.35  32 2.35  33 2.35
 144  0.515  0.093  0.355- 120 2.30  33 2.35 193 2.35
 145  0.900  0.016  0.071-   1 2.35  80 2.35 103 2.35   2 2.35
 146  0.784  0.940  0.213-  81 2.35   2 2.35 104 2.35   3 2.35
 147  0.669  0.863  0.355- 129 2.28   3 2.35 105 2.35
 148  0.708  0.887  0.805- 206 2.82  10 2.82 257 2.82 101 2.82
 149  0.554  0.786  0.213- 105 2.35 180 2.35 107 2.35  36 2.35
 150  0.438  0.709  0.355- 108 2.35  36 2.35  60 2.92
 151  0.823  0.632  0.071- 116 2.35  37 2.35  38 2.35 109 2.35
 152  0.707  0.555  0.213- 117 2.35  38 2.35  39 2.35 110 2.35
 153  0.592  0.478  0.355- 111 2.35  39 2.35 226 2.93 178 3.43
 154  0.977  0.401  0.071-  83 2.35 240 2.35   4 2.35   5 2.35
 155  0.861  0.324  0.213- 235 2.35 113 2.35   5 2.35   6 2.35
 156  0.746  0.247  0.355-  78 2.29 114 2.35   6 2.35
 157  0.034  0.190  0.284- 119 2.35 175 2.35 160 2.35 262 2.35
 158  0.875  0.887  0.635- 205 2.82 188 2.82 256 2.82 257 2.82
 159  0.669  0.863  0.071- 104 2.35  34 2.35 192 2.35 180 2.35
 160  0.054  0.286  0.213-  15 2.35   5 2.35 157 2.35  86 2.35
 161  0.875  0.554  0.635- 208 2.82 259 2.82 191 2.82 260 2.82
 162  0.207  0.555  0.071-  95 2.35  82 2.35  13 2.35  14 2.35
 163  0.092  0.978  0.355-   9 2.35  90 2.35  87 2.93  57 3.43
 164  0.875  0.221  0.635-  96 2.82 185 2.82  45 2.82 263 2.82
 165  0.708  0.221  0.805- 203 2.82 186 2.82 263 2.82  85 2.82
 166  0.246  0.747  0.355- 214 2.29 108 2.35  24 2.35
 167  0.208  0.887  0.635- 131 2.82 197 2.82 239 2.82 238 2.82
 168  0.361  0.324  0.071-  98 2.35 264 2.35  16 2.35  17 2.35
 169  0.015  0.593  0.355-  44 2.30  12 2.35 202 2.35
 170  0.208  0.554  0.635- 242 2.82 190 2.82 200 2.82 241 2.82
 171  0.041  0.554  0.805-  20 2.82 191 2.82 242 2.82  22 2.82
 172  0.284  0.440  0.213-  27 2.35  98 2.35  14 2.35  99 2.35
 173  0.208  0.221  0.635- 184 2.82 194 2.82 245 2.82 244 2.82
 174  0.041  0.221  0.805- 118 2.82 185 2.82 245 2.82 246 2.82
 175  0.131  0.170  0.355- 157 2.35  18 2.35  48 2.90  57 3.45
 176  0.541  0.887  0.635- 248 2.82  93 2.82 206 2.82 247 2.82
 177  0.375  0.887  0.805-  88 2.82 197 2.82  94 2.82 248 2.82
 178  0.708  0.554  0.465- 250 2.82 208 2.82 229 3.41 153 3.43 123 3.44 181 3.45
 179  0.541  0.554  0.635- 251 2.82 199 2.82 250 2.82 209 2.82
 180  0.650  0.766  0.142-  67 2.35 149 2.35  77 2.35 159 2.35
 181  0.631  0.670  0.355- 117 2.35  36 2.35  60 2.90 178 3.45
 182  0.541  0.221  0.635- 102 2.82 254 2.82 203 2.82 253 2.82
 183  0.375  0.221  0.805- 204 2.82 194 2.82  89 2.82 254 2.82
 184  0.125  0.137  0.550-  48 2.82 173 2.82  57 2.82 212 2.82
 185  0.958  0.137  0.720- 174 2.82 164 2.82 212 2.82 213 2.82
 186  0.791  0.137  0.890- 165 2.82 213 2.82 103 2.90  31 2.93
 187  0.400  0.016  0.213- 193 2.35 201 2.35 255 2.35  21 2.35
 188  0.958  0.804  0.720- 127 2.82 158 2.82 215 2.82 216 2.82
 189  0.150  0.766  0.000-  79 2.28  52 2.35 121 2.35
 190  0.125  0.471  0.550- 217 2.82 218 2.82  44 2.82 170 2.82
 191  0.958  0.471  0.720- 218 2.82 219 2.82 171 2.82 161 2.82
 192  0.573  0.882  0.000-  64 2.35 159 2.35 101 2.91  88 3.44
 193  0.419  0.113  0.284- 187 2.35 144 2.35  59 2.35 223 2.35
 194  0.291  0.137  0.720- 173 2.82 183 2.82 221 2.82  91 2.82
 195  0.131  0.170  0.071-  86 2.35   7 2.35 198 2.35   8 2.35
 196  0.957  0.805  0.284- 122 2.35  51 2.35 135 2.35  50 2.35
 197  0.291  0.804  0.720- 167 2.82 177 2.82 224 2.82 225 2.82
 198  0.034  0.190  0.000-  73 2.35 195 2.35 118 2.93 246 3.41
 199  0.458  0.471  0.550- 226 2.82  54 2.82 227 2.82 179 2.82
 200  0.291  0.471  0.720- 227 2.82 228 2.82 170 2.82  35 2.82
 201  0.496  0.997  0.142-  64 2.35 187 2.35 130 2.35  62 2.35
 202  0.111  0.574  0.284- 125 2.35 138 2.35 169 2.35  53 2.35
 203  0.625  0.137  0.720- 165 2.82 182 2.82 230 2.82 231 2.82
 204  0.458  0.137  0.890- 207 2.28 183 2.82 231 2.82
 205  0.791  0.804  0.550- 158 2.82 129 2.82 128 2.82 233 2.82
 206  0.625  0.804  0.720- 148 2.82 176 2.82 233 2.82 234 2.82
 207  0.419  0.113  0.000- 204 2.28 130 2.35  46 2.35
 208  0.791  0.471  0.550-  84 2.82 236 2.82 161 2.82 178 2.82
 209  0.625  0.471  0.720- 124 2.82 236 2.82 237 2.82 179 2.82
 210  0.458  0.471  0.890- 261 2.29  35 2.82 237 2.82
 211  0.169  0.363  0.355- 217 2.28  99 2.35  15 2.35
 212  0.041  0.054  0.635- 239 2.82 256 2.82 185 2.82 184 2.82
 213  0.875  0.054  0.805- 112 2.82 257 2.82 185 2.82 186 2.82
 214  0.208  0.721  0.465- 166 2.29 241 2.82 131 2.82
 215  0.041  0.721  0.635- 242 2.82 259 2.82 188 2.82 131 2.82
 216  0.875  0.721  0.805-  22 2.82 260 2.82 188 2.82  10 2.82
 217  0.208  0.387  0.465- 211 2.28 190 2.82 244 2.82
 218  0.041  0.387  0.635- 191 2.82 245 2.82 190 2.82  45 2.82
 219  0.875  0.387  0.805- 246 2.82 191 2.82 106 2.82 263 2.82
 220  0.900  0.016  0.355-  42 2.28   9 2.35  81 2.35
 221  0.375  0.054  0.635- 238 2.82 248 2.82 194 2.82 102 2.82
 222  0.188  0.959  0.000- 252 2.35  49 2.35  94 2.92
 223  0.323  0.132  0.355-  18 2.35 193 2.35  56 2.91  57 3.44
 224  0.375  0.721  0.635- 241 2.82 251 2.82 197 2.82  93 2.82
 225  0.208  0.721  0.805- 242 2.82 133 2.82 197 2.82  79 2.82
 226  0.541  0.387  0.465- 199 2.82 253 2.82  72 2.90 153 2.93
 227  0.375  0.387  0.635- 200 2.82 244 2.82 199 2.82 254 2.82
 228  0.208  0.387  0.805- 245 2.82 200 2.82  20 2.82  89 2.82
 229  0.784  0.440  0.355-  39 2.35 235 2.35  84 2.93 178 3.41
 230  0.708  0.054  0.635- 257 2.82 247 2.82 203 2.82  96 2.82
 231  0.541  0.054  0.805- 101 2.82 248 2.82 203 2.82 204 2.82
 232  0.246  0.247  0.213-  99 2.35  17 2.35  86 2.35  18 2.35
 233  0.708  0.721  0.635- 260 2.82 250 2.82 206 2.82 205 2.82
 234  0.541  0.721  0.805-  97 2.82 251 2.82 206 2.82  88 2.82
 235  0.881  0.420  0.284- 155 2.35 229 2.35 126 2.35  41 2.35
 236  0.708  0.387  0.635- 263 2.82 209 2.82 208 2.82 253 2.82
 237  0.541  0.387  0.805-  85 2.82 209 2.82 254 2.82 210 2.82
 238  0.291  0.971  0.550-  57 2.82 221 2.82  66 2.82 167 2.82
 239  0.125  0.971  0.720- 212 2.82  91 2.82 167 2.82 127 2.82
 240  0.881  0.420  0.000-  70 2.35 154 2.35 106 2.90 246 3.45
 241  0.291  0.637  0.550- 214 2.82 224 2.82  54 2.82 170 2.82
 242  0.125  0.637  0.720- 215 2.82 225 2.82 170 2.82 171 2.82
 243  0.381  0.920  0.000- 252 2.35  64 2.35  94 2.90  88 3.45
 244  0.291  0.304  0.550- 217 2.82 227 2.82  56 2.82 173 2.82
 245  0.125  0.304  0.720- 218 2.82 173 2.82 228 2.82 174 2.82
 246  0.958  0.304  0.890- 219 2.82 174 2.82 198 3.41  31 3.43   4 3.44 240 3.45
 247  0.625  0.971  0.550- 120 2.82 230 2.82 129 2.82 176 2.82
 248  0.458  0.971  0.720- 176 2.82 231 2.82 221 2.82 177 2.82
 249  0.342  0.728  0.000- 136 2.35  52 2.35 133 2.93  88 3.43
 250  0.625  0.637  0.550-  60 2.82 233 2.82 178 2.82 179 2.82
 251  0.458  0.637  0.720- 179 2.82 234 2.82 224 2.82  35 2.82
 252  0.284  0.940  0.071- 255 2.35 243 2.35 222 2.35  23 2.35
 253  0.625  0.304  0.550-  78 2.82 226 2.82 236 2.82 182 2.82
 254  0.458  0.304  0.720- 182 2.82 237 2.82 227 2.82 183 2.82
 255  0.304  0.036  0.142- 252 2.35  46 2.35  47 2.35 187 2.35
 256  0.958  0.971  0.550-  42 2.82 212 2.82 158 2.82  87 2.82
 257  0.791  0.971  0.720- 230 2.82 213 2.82 148 2.82 158 2.82
 258  0.534  0.190  0.142- 130 2.35 143 2.35  58 2.35  59 2.35
 259  0.958  0.637  0.550- 128 2.82 215 2.82 161 2.82  44 2.82
 260  0.791  0.637  0.720- 233 2.82 216 2.82 124 2.82 161 2.82
 261  0.496  0.497  0.000- 210 2.29  55 2.35 139 2.35
 262  0.938  0.209  0.355-   6 2.35 157 2.35  48 2.92
 263  0.791  0.304  0.720- 236 2.82 165 2.82 164 2.82 219 2.82
 264  0.265  0.343  0.000-  89 2.30 168 2.35  43 2.35
 
  LATTYP: Found a simple tetragonal cell.
 ALAT       =    19.5817508700
 C/A-ratio  =     0.9754107470
  
  Lattice vectors:
  
 A1 = (  19.5817508700,   0.0000000000,   0.0000000000)
 A2 = (   0.0000000000,  19.5817489620,   0.0000000000)
 A3 = (   0.0000000000,   0.0000000000,  19.1002502440)


Analysis of symmetry for initial positions (statically):
=====================================================================
 Subroutine PRICEL returns:
 Original cell was already a primitive cell.
 

 Routine SETGRP: Setting up the symmetry group for a 
 simple tetragonal supercell.


 Subroutine GETGRP returns: Found  1 space group operations
 (whereof  1 operations were pure point group operations)
 out of a pool of 16 trial point group operations.


The static configuration has the point symmetry C_1 .


Analysis of symmetry for dynamics (positions and initial velocities):
=====================================================================
 Subroutine PRICEL returns:
 Original cell was already a primitive cell.
 

 Routine SETGRP: Setting up the symmetry group for a 
 simple tetragonal supercell.


 Subroutine GETGRP returns: Found  1 space group operations
 (whereof  1 operations were pure point group operations)
 out of a pool of 16 trial point group operations.


The dynamic configuration has the point symmetry C_1 .


Analysis of structural, dynamic, and magnetic symmetry:
=====================================================================
 Subroutine PRICEL returns:
 Original cell was already a primitive cell.
 

 Routine SETGRP: Setting up the symmetry group for a 
 simple tetragonal supercell.


 Subroutine GETGRP returns: Found  1 space group operations
 (whereof  1 operations were pure point group operations)
 out of a pool of 16 trial point group operations.


The overall configuration has the point symmetry C_1 .


 Subroutine INISYM returns: Found  1 space group operations
 (whereof  1 operations are pure point group operations),
 and found     1 'primitive' translations


----------------------------------------------------------------------------------------

                                     Primitive cell                                     

  volume of cell :    7323.8941

  direct lattice vectors                    reciprocal lattice vectors
    19.581750870  0.000000000  0.000000000     0.051067956  0.000000000  0.000000000
     0.000000000 19.581748962  0.000000000     0.000000000  0.051067961  0.000000000
     0.000000000  0.000000000 19.100250244     0.000000000  0.000000000  0.052355335

  length of vectors
    19.581750870 19.581748962 19.100250244     0.051067956  0.051067961  0.052355335

  position of ions in fractional coordinates (direct lattice)
     0.995893002  0.997262001  0.000000000
     0.880508363  0.920338869  0.142170906
     0.765123725  0.843415737  0.284341902
     0.072816126  0.381877452  0.000000000
     0.957431436  0.304954290  0.142170906
     0.842046797  0.228031158  0.284341902
     0.226662278  0.151108176  0.000000000
     0.111277618  0.074185051  0.142170906
     0.995892942  0.997261941  0.284341902
     0.791188896  0.803846240  0.890053868
     0.034354534  0.689569712  0.142170906
     0.918969870  0.612646580  0.284341902
     0.303585410  0.535723567  0.000000000
     0.188200727  0.458800435  0.142170906
     0.072816066  0.381877303  0.284341902
     0.457431555  0.304954350  0.000000000
     0.342046857  0.228031203  0.142170906
     0.226662204  0.151108071  0.284341902
     0.611277699  0.074185103  0.000000000
     0.124522224  0.470512807  0.890053868
     0.380508363  0.920338809  0.284341902
     0.957855582  0.637179554  0.890053868
     0.265123844  0.843415916  0.142170906
     0.149739176  0.766492724  0.284341902
     0.534354627  0.689569712  0.000000000
     0.418969929  0.612646580  0.142170906
     0.303585261  0.535723448  0.284341902
     0.688200712  0.458800495  0.000000000
     0.572816074  0.381877363  0.142170906
     0.457431376  0.304954231  0.284341902
     0.842046916  0.228031188  0.000000000
     0.726662278  0.151108041  0.142170906
     0.611277580  0.074184909  0.284341902
     0.765123904  0.843415856  0.000000000
     0.374522299  0.553846180  0.805117786
     0.534354568  0.689569592  0.284341902
     0.918970048  0.612646639  0.000000000
     0.803585410  0.535723507  0.142170906
     0.688200712  0.458800375  0.284341902
     0.015123837  0.593415856  0.071085475
     0.899739206  0.516492724  0.213256419
     0.874522388  0.053846121  0.465373576
     0.168969959  0.362646669  0.071085475
     0.041188955  0.553846180  0.465373576
     0.957855582  0.303846180  0.550309598
     0.322816133  0.131877407  0.071085475
     0.207431450  0.054954268  0.213256419
     0.041188955  0.220512822  0.465373576
     0.092046887  0.978031278  0.071085475
     0.976662219  0.901108146  0.213256419
     0.861277521  0.824185014  0.355427384
     0.245893061  0.747262061  0.071085475
     0.130508408  0.670338929  0.213256419
     0.374522299  0.553846180  0.465373576
     0.399739265  0.516492844  0.071085475
     0.374522299  0.220512822  0.465373576
     0.207855612  0.053846121  0.465373576
     0.553585410  0.285723537  0.071085475
     0.438200712  0.208800390  0.213256419
     0.541188955  0.720512807  0.465373576
     0.707431555  0.054954302  0.071085475
     0.592046857  0.978031158  0.213256419
     0.476662189  0.901108027  0.355427384
     0.476662397  0.901108205  0.071085475
     0.361277699  0.824185073  0.213256419
     0.374522299  0.887179494  0.465373576
     0.630508542  0.670338988  0.071085475
     0.515123844  0.593415797  0.213256419
     0.399739146  0.516492665  0.355427384
     0.784354687  0.439569712  0.071085475
     0.668969989  0.362646550  0.213256419
     0.553585291  0.285723418  0.355427384
     0.938200831  0.208800495  0.071085475
     0.822816133  0.131877348  0.213256419
     0.707431436  0.054954205  0.355427384
     0.861277878  0.824185133  0.071085475
     0.745893180  0.747262001  0.213256419
     0.707855642  0.220512822  0.465373576
     0.124522224  0.803846240  0.890053868
     0.918969929  0.112646602  0.142170906
     0.803585231  0.035723470  0.284341902
     0.111277662  0.574185073  0.000000000
     0.995893002  0.497262001  0.142170906
     0.874522388  0.387179494  0.465373576
     0.624522209  0.303846180  0.890053868
     0.149739191  0.266492784  0.142170906
     0.041188955  0.887179494  0.465373576
     0.457855642  0.803846240  0.890053868
     0.291188985  0.303846180  0.890053868
     0.188200638  0.958800316  0.284341902
     0.207855597  0.053846121  0.805117786
     0.072816059  0.881877303  0.142170906
     0.457855612  0.803846240  0.550309598
     0.291188985  0.970512867  0.890053868
     0.226662233  0.651108146  0.142170906
     0.791189015  0.137179613  0.550309598
     0.624522209  0.637179554  0.890053868
     0.380508423  0.420338869  0.142170906
     0.265123725  0.343415737  0.284341902
     0.649739265  0.266492784  0.000000000
     0.624522209  0.970512867  0.890053868
     0.457855612  0.137179613  0.550309598
     0.803585410  0.035723574  0.000000000
     0.688200712  0.958800435  0.142170906
     0.572816074  0.881877303  0.284341902
     0.791188896  0.470512807  0.890053868
     0.457431436  0.804954290  0.142170906
     0.342046797  0.728031099  0.284341902
     0.726662338  0.651108146  0.000000000
     0.611277640  0.574185014  0.142170906
     0.495892942  0.497261852  0.284341902
     0.957855582  0.970512867  0.890053868
     0.765123844  0.343415856  0.142170906
     0.649739146  0.266492724  0.284341902
     0.957431614  0.804954290  0.000000000
     0.842046916  0.728031158  0.142170906
     0.726662278  0.651108027  0.284341902
     0.124522224  0.137179613  0.890053868
     0.015123768  0.093415834  0.213256419
     0.541188955  0.053846121  0.465373576
     0.053585343  0.785723627  0.071085475
     0.938200712  0.708800435  0.213256419
     0.822816014  0.631877303  0.355427384
     0.707855582  0.553846180  0.805117786
     0.092046872  0.478031248  0.213256419
     0.976662159  0.401108086  0.355427384
     0.041188955  0.887179494  0.805117786
     0.874522388  0.720512807  0.465373576
     0.707855642  0.887179494  0.465373576
     0.515123844  0.093415849  0.071085475
     0.124522284  0.803846240  0.550309598
     0.284354508  0.939569533  0.355427384
     0.291188985  0.637179554  0.890053868
     0.168969989  0.862646639  0.213256419
     0.053585291  0.785723507  0.355427384
     0.438200772  0.708800614  0.071085475
     0.322816074  0.631877422  0.213256419
     0.207431406  0.554954290  0.355427384
     0.592046976  0.478031278  0.071085475
     0.476662278  0.401108146  0.213256419
     0.361277610  0.324185014  0.355427384
     0.745893121  0.247262001  0.071085475
     0.630508423  0.170338869  0.213256419
     0.515123785  0.093415722  0.355427384
     0.899739265  0.016492788  0.071085475
     0.784354568  0.939569652  0.213256419
     0.668969929  0.862646520  0.355427384
     0.707855582  0.887179494  0.805117786
     0.553585410  0.785723627  0.213256419
     0.438200712  0.708800495  0.355427384
     0.822816253  0.631877422  0.071085475
     0.707431555  0.554954290  0.213256419
     0.592046797  0.478031129  0.355427384
     0.976662278  0.401108235  0.071085475
     0.861277580  0.324185073  0.213256419
     0.745892882  0.247261927  0.355427384
     0.034354493  0.189569652  0.284341902
     0.874522269  0.887179494  0.635245681
     0.668970108  0.862646759  0.071085475
     0.053585295  0.285723537  0.213256419
     0.874522269  0.553846180  0.635245681
     0.207431525  0.554954410  0.071085475
     0.092046767  0.978031158  0.355427384
     0.874522269  0.220512822  0.635245681
     0.707855582  0.220512822  0.805117786
     0.245893002  0.747261941  0.355427384
     0.207855582  0.887179494  0.635245681
     0.361277699  0.324185133  0.071085475
     0.015123715  0.593415797  0.355427384
     0.207855582  0.553846180  0.635245681
     0.041188955  0.553846180  0.805117786
     0.284354597  0.439569682  0.213256419
     0.207855582  0.220512822  0.635245681
     0.041188955  0.220512822  0.805117786
     0.130508333  0.170338854  0.355427384
     0.541188955  0.887179494  0.635245681
     0.374522299  0.887179494  0.805117786
     0.707855642  0.553846180  0.465373576
     0.541188955  0.553846180  0.635245681
     0.649739265  0.766492724  0.142170906
     0.630508423  0.670338809  0.355427384
     0.541188955  0.220512822  0.635245681
     0.374522299  0.220512822  0.805117786
     0.124522284  0.137179613  0.550309598
     0.957855642  0.137179613  0.720181704
     0.791188896  0.137179613  0.890053868
     0.399739206  0.016492724  0.213256419
     0.957855642  0.803846240  0.720181704
     0.149739221  0.766492844  0.000000000
     0.124522284  0.470512807  0.550309598
     0.957855642  0.470512807  0.720181704
     0.572816133  0.881877363  0.000000000
     0.418969929  0.112646520  0.284341902
     0.291188955  0.137179613  0.720181704
     0.130508438  0.170338959  0.071085475
     0.957431376  0.804954231  0.284341902
     0.291188955  0.803846240  0.720181704
     0.034354586  0.189569741  0.000000000
     0.457855612  0.470512807  0.550309598
     0.291188955  0.470512807  0.720181704
     0.495893002  0.997261941  0.142170906
     0.111277573  0.574185014  0.284341902
     0.624522388  0.137179613  0.720181704
     0.457855642  0.137179613  0.890053868
     0.791189015  0.803846240  0.550309598
     0.624522388  0.803846240  0.720181704
     0.418969989  0.112646602  0.000000000
     0.791189015  0.470512807  0.550309598
     0.624522388  0.470512807  0.720181704
     0.457855642  0.470512807  0.890053868
     0.168969929  0.362646550  0.355427384
     0.041188955  0.053846121  0.635245681
     0.874522269  0.053846121  0.805117786
     0.207855612  0.720512807  0.465373576
     0.041188955  0.720512807  0.635245681
     0.874522269  0.720512807  0.805117786
     0.207855612  0.387179494  0.465373576
     0.041188955  0.387179494  0.635245681
     0.874522269  0.387179494  0.805117786
     0.899739087  0.016492693  0.355427384
     0.374522269  0.053846121  0.635245681
     0.188200757  0.958800435  0.000000000
     0.322816044  0.131877258  0.355427384
     0.374522269  0.720512807  0.635245681
     0.207855597  0.720512807  0.805117786
     0.541188955  0.387179494  0.465373576
     0.374522269  0.387179494  0.635245681
     0.207855597  0.387179494  0.805117786
     0.784354508  0.439569622  0.355427384
     0.707855701  0.053846121  0.635245681
     0.541189075  0.053846121  0.805117786
     0.245893031  0.247262001  0.213256419
     0.707855701  0.720512807  0.635245681
     0.541189075  0.720512807  0.805117786
     0.880508304  0.420338839  0.284341902
     0.707855701  0.387179494  0.635245681
     0.541189075  0.387179494  0.805117786
     0.291188955  0.970512867  0.550309598
     0.124522284  0.970512867  0.720181704
     0.880508482  0.420338988  0.000000000
     0.291188955  0.637179554  0.550309598
     0.124522284  0.637179554  0.720181704
     0.380508512  0.920339048  0.000000000
     0.291188955  0.303846180  0.550309598
     0.124522284  0.303846180  0.720181704
     0.957855582  0.303846180  0.890053868
     0.624522328  0.970512867  0.550309598
     0.457855701  0.970512867  0.720181704
     0.342046916  0.728031278  0.000000000
     0.624522328  0.637179554  0.550309598
     0.457855701  0.637179554  0.720181704
     0.284354657  0.939569831  0.071085475
     0.624522328  0.303846180  0.550309598
     0.457855701  0.303846180  0.720181704
     0.303585321  0.035723474  0.142170906
     0.957855582  0.970512867  0.550309598
     0.791188896  0.970512867  0.720181704
     0.534354627  0.189569652  0.142170906
     0.957855582  0.637179554  0.550309598
     0.791188896  0.637179554  0.720181704
     0.495893091  0.497262001  0.000000000
     0.938200593  0.208800375  0.355427384
     0.791188896  0.303846180  0.720181704
     0.265123844  0.343415916  0.000000000

  ion indices of the primitive-cell ions
   primitive index   ion index
                 1           1
                 2           2
                 3           3
                 4           4
                 5           5
                 6           6
                 7           7
                 8           8
                 9           9
                10          10
                11          11
                12          12
                13          13
                14          14
                15          15
                16          16
                17          17
                18          18
                19          19
                20          20
                21          21
                22          22
                23          23
                24          24
                25          25
                26          26
                27          27
                28          28
                29          29
                30          30
                31          31
                32          32
                33          33
                34          34
                35          35
                36          36
                37          37
                38          38
                39          39
                40          40
                41          41
                42          42
                43          43
                44          44
                45          45
                46          46
                47          47
                48          48
                49          49
                50          50
                51          51
                52          52
                53          53
                54          54
                55          55
                56          56
                57          57
                58          58
                59          59
                60          60
                61          61
                62          62
                63          63
                64          64
                65          65
                66          66
                67          67
                68          68
                69          69
                70          70
                71          71
                72          72
                73          73
                74          74
                75          75
                76          76
                77          77
                78          78
                79          79
                80          80
                81          81
                82          82
                83          83
                84          84
                85          85
                86          86
                87          87
                88          88
                89          89
                90          90
                91          91
                92          92
                93          93
                94          94
                95          95
                96          96
                97          97
                98          98
                99          99
               100         100
               101         101
               102         102
               103         103
               104         104
               105         105
               106         106
               107         107
               108         108
               109         109
               110         110
               111         111
               112         112
               113         113
               114         114
               115         115
               116         116
               117         117
               118         118
               119         119
               120         120
               121         121
               122         122
               123         123
               124         124
               125         125
               126         126
               127         127
               128         128
               129         129
               130         130
               131         131
               132         132
               133         133
               134         134
               135         135
               136         136
               137         137
               138         138
               139         139
               140         140
               141         141
               142         142
               143         143
               144         144
               145         145
               146         146
               147         147
               148         148
               149         149
               150         150
               151         151
               152         152
               153         153
               154         154
               155         155
               156         156
               157         157
               158         158
               159         159
               160         160
               161         161
               162         162
               163         163
               164         164
               165         165
               166         166
               167         167
               168         168
               169         169
               170         170
               171         171
               172         172
               173         173
               174         174
               175         175
               176         176
               177         177
               178         178
               179         179
               180         180
               181         181
               182         182
               183         183
               184         184
               185         185
               186         186
               187         187
               188         188
               189         189
               190         190
               191         191
               192         192
               193         193
               194         194
               195         195
               196         196
               197         197
               198         198
               199         199
               200         200
               201         201
               202         202
               203         203
               204         204
               205         205
               206         206
               207         207
               208         208
               209         209
               210         210
               211         211
               212         212
               213         213
               214         214
               215         215
               216         216
               217         217
               218         218
               219         219
               220         220
               221         221
               222         222
               223         223
               224         224
               225         225
               226         226
               227         227
               228         228
               229         229
               230         230
               231         231
               232         232
               233         233
               234         234
               235         235
               236         236
               237         237
               238         238
               239         239
               240         240
               241         241
               242         242
               243         243
               244         244
               245         245
               246         246
               247         247
               248         248
               249         249
               250         250
               251         251
               252         252
               253         253
               254         254
               255         255
               256         256
               257         257
               258         258
               259         259
               260         260
               261         261
               262         262
               263         263
               264         264

----------------------------------------------------------------------------------------

 
 
 KPOINTS: Automatic KPOINTS generated             

Automatic generation of k-mesh.
 Grid dimensions read from file:
 generate k-points for:    2    2    2

 Generating k-lattice:

  Cartesian coordinates                     Fractional coordinates (reciprocal lattice)
     0.025533978  0.000000000  0.000000000     0.500000000  0.000000000  0.000000000
     0.000000000  0.025533981  0.000000000     0.000000000  0.500000000  0.000000000
     0.000000000  0.000000000  0.026177667     0.000000000  0.000000000  0.500000000

  Length of vectors
     0.025533978  0.025533981  0.026177667

  Shift w.r.t. Gamma in fractional coordinates (k-lattice)
     0.000000000  0.000000000  0.000000000

 
 Subroutine IBZKPT returns following result:
 ===========================================
 
 Found      8 irreducible k-points:
 
 Following reciprocal coordinates:
            Coordinates               Weight
  0.000000  0.000000  0.000000      1.000000
  0.500000  0.000000  0.000000      1.000000
  0.000000  0.500000  0.000000      1.000000
  0.500000  0.500000  0.000000      1.000000
  0.000000  0.000000  0.500000      1.000000
  0.500000  0.000000  0.500000      1.000000
  0.000000  0.500000  0.500000      1.000000
  0.500000  0.500000  0.500000      1.000000
 
 Following cartesian coordinates:
            Coordinates               Weight
  0.000000  0.000000  0.000000      1.000000
  0.025534  0.000000  0.000000      1.000000
  0.000000  0.025534  0.000000      1.000000
  0.025534  0.025534  0.000000      1.000000
  0.000000  0.000000  0.026178      1.000000
  0.025534  0.000000  0.026178      1.000000
  0.000000  0.025534  0.026178      1.000000
  0.025534  0.025534  0.026178      1.000000
 
 -----------------------------------------------------------------------------
|                                                                             |
|           W    W    AA    RRRRR   N    N  II  N    N   GGGG   !!!           |
|           W    W   A  A   R    R  NN   N  II  NN   N  G    G  !!!           |
|           W    W  A    A  R    R  N N  N  II  N N  N  G       !!!           |
|           W WW W  AAAAAA  RRRRR   N  N N  II  N  N N  G  GGG   !            |
|           WW  WW  A    A  R   R   N   NN  II  N   NN  G    G                |
|           W    W  A    A  R    R  N    N  II  N    N   GGGG   !!!           |
|                                                                             |
|     The number of bands has been changed from the values supplied in        |
|     the INCAR file. This is a result of running the parallel version.       |
|     The orbitals not found in the WAVECAR file will be initialized with     |
|     random numbers, which is usually adequate. For correlated               |
|     calculations, however, you should redo the groundstate calculation.     |
|     I found NBANDS = 634. Now, NBANDS = 636.                                |
|                                                                             |
 -----------------------------------------------------------------------------



--------------------------------------------------------------------------------------------------------




 Dimension of arrays:
   k-points           NKPTS =      8   k-points in BZ     NKDIM =      8   number of bands    NBANDS=    636
   number of dos      NEDOS =    301   number of ions     NIONS =    264
   non local maximal  LDIM  =      5   non local SUM 2l+1 LMDIM =     13
   total plane-waves  NPLWV = ******
   max r-space proj   IRMAX =   4693   max aug-charges    IRDMAX= 217232
   dimension x,y,z NGX =   128 NGY =  128 NGZ =  126
   dimension x,y,z NGXF=   256 NGYF=  256 NGZF=  252
   support grid    NGXF=   512 NGYF=  512 NGZF=  504
   ions per type =             156 108
   NGX,Y,Z   is equivalent  to a cutoff of  10.87, 10.87, 10.97 a.u.
   NGXF,Y,Z  is equivalent  to a cutoff of  21.73, 21.73, 21.93 a.u.

 SYSTEM =  Si and Ge interface calculation         
 POSCAR =  Si+Sn                                   

 Startparameter for this run:
   NWRITE =      2    write-flag & timer
   PREC   = normal    normal or accurate (medium, high low for compatibility)
   ISTART =      0    job   : 0-new  1-cont  2-samecut
   ICHARG =      2    charge: 1-file 2-atom 10-const
   ISPIN  =      2    spin polarized calculation?
   LNONCOLLINEAR =      F non collinear calculations
   LSORBIT =      F    spin-orbit coupling
   INIWAV =      1    electr: 0-lowe 1-rand  2-diag
   LASPH  =      T    aspherical Exc in radial PAW
 Electronic Relaxation 1
   ENCUT  =  700.0 eV  51.45 Ry    7.17 a.u.  42.24 42.24 41.20*2*pi/ulx,y,z
   ENINI  =  700.0     initial cutoff
   ENAUG  =  900.0 eV  augmentation charge cutoff
   NELM   =    100;   NELMIN=  2; NELMDL= -5     # of ELM steps 
   EDIFF  = 0.1E-06   stopping-criterion for ELM
   LREAL  =      T    real-space projection
   NLSPLINE    = F    spline interpolate recip. space projectors
   LCOMPAT=      F    compatible to vasp.4.4
   GGA_COMPAT  = T    GGA compatible to vasp.4.4-vasp.4.6
   LMAXPAW     = -100 max onsite density
   LMAXMIX     =    6 max onsite mixed and CHGCAR
   VOSKOWN=      0    Vosko Wilk Nusair interpolation
   ROPT   =   -0.00050  -0.00050
 Ionic relaxation
   EDIFFG = 0.1E-05   stopping-criterion for IOM
   NSW    =      0    number of steps for IOM
   NBLOCK =      1;   KBLOCK =      1    inner block; outer block 
   IBRION =     -1    ionic relax: 0-MD 1-quasi-New 2-CG
   NFREE  =      0    steps in history (QN), initial steepest desc. (CG)
   ISIF   =      2    stress and relaxation
   IWAVPR =     10    prediction:  0-non 1-charg 2-wave 3-comb
   ISYM   =      2    0-nonsym 1-usesym 2-fastsym
   LCORR  =      T    Harris-Foulkes like correction to forces

   POTIM  = 0.5000    time-step for ionic-motion
   TEIN   =    0.0    initial temperature
   TEBEG  =    0.0;   TEEND  =   0.0 temperature during run
   SMASS  =  -3.00    Nose mass-parameter (am)
   estimated Nose-frequenzy (Omega)   =  0.10E-29 period in steps = 0.13E+47 mass=  -0.876E-26a.u.
   SCALEE = 1.0000    scale energy and forces
   NPACO  =    256;   APACO  = 10.0  distance and # of slots for P.C.
   PSTRESS=    0.0 pullay stress

  Mass of Ions in am
   POMASS =  28.09118.71
  Ionic Valenz
   ZVAL   =   4.00  4.00
  Atomic Wigner-Seitz radii
   RWIGS  =  -1.00 -1.00
  virtual crystal weights 
   VCA    =   1.00  1.00
   NELECT =    1056.0000    total number of electrons
   NUPDOWN=       1.0000    fix difference up-down

 DOS related values:
   EMIN   =  10.00;   EMAX   =-10.00  energy-range for DOS
   EFERMI =   0.00;   METHOD = LEGACY      
   ISMEAR =     0;   SIGMA  =   0.01  broadening in eV -4-tet -1-fermi 0-gaus

 Electronic relaxation 2 (details)
   IALGO  =     38    algorithm
   LDIAG  =      T    sub-space diagonalisation (order eigenvalues)
   LSUBROT=      F    optimize rotation matrix (better conditioning)
   TURBO    =      0    0=normal 1=particle mesh
   IRESTART =      0    0=no restart 2=restart with 2 vectors
   NREBOOT  =      0    no. of reboots
   NMIN     =      0    reboot dimension
   EREF     =   0.00    reference energy to select bands
   IMIX   =      4    mixing-type and parameters
     AMIX     =   0.60;   BMIX     =  1.00
     AMIX_MAG =   2.40;   BMIX_MAG =  1.00
     AMIN     =   0.10
     WC   =   100.;   INIMIX=   1;  MIXPRE=   1;  MAXMIX= -45

 Intra band minimization:
   WEIMIN = 0.0000     energy-eigenvalue tresh-hold
   EBREAK =  0.39E-10  absolut break condition
   DEPER  =   0.30     relativ break condition  

   TIME   =   0.40     timestep for ELM

  volume/ion in A,a.u.               =      27.74       187.21
  Fermi-wavevector in a.u.,A,eV,Ry     =   0.858451  1.622237 10.026649  0.736938
  Thomas-Fermi vector in A             =   1.975657
 
 Write flags
   LWAVE        =      F    write WAVECAR
   LDOWNSAMPLE  =      F    k-point downsampling of WAVECAR
   LCHARG       =      T    write CHGCAR
   LVTOT        =      F    write LOCPOT, total local potential
   LVHAR        =      T    write LOCPOT, Hartree potential only
   WRT_POTENTIAL=  hartree ionic  ! write potential to hdf5 file
   LELF         =      F    write electronic localiz. function (ELF)
   LORBIT       =      0    0 simple, 1 ext, 2 COOP (PROOUT), +10 PAW based schemes


 Dipole corrections
   LMONO      =      F    monopole corrections only (constant potential shift)
   LDIPOL     =      F    correct potential (dipole corrections)
   IDIPOL     =      0    1-x, 2-y, 3-z, 4-all directions 
   EPSILON    =  1.0000000 bulk dielectric constant
   LVACPOTAV  =      F  vacuum potentials using an averaging scheme for the charge density
   VACPOTFLAT =  0.1000000 required flatness to determine vacuum potential
 Exchange correlation treatment:
   GGA     = PE    functional components
   XC_C    = 1    coefficients multiplying the functional components
   LIBXC   =     F    Libxc                    
   VOSKOWN =     0    Vosko Wilk Nusair interpolation
   LHFCALC =     F    Hartree Fock is set to
   LHFONE  =     F    Hartree Fock one center treatment
   AEXX    =    0.0000 exact exchange contribution

 Parameters of functionals:
   PE:
     No parameter
 
 Van der Waals corrections
   IVDW    =     0    specifies the selected vdW correction

 Linear response parameters
   LEPSILON=     F    determine dielectric tensor
   LRPA    =     F    only Hartree local field effects (RPA)
   LNABLA  =     F    use nabla operator in PAW spheres
   LVEL    =     F    velocity operator in full k-point grid
   CSHIFT  =0.1000    complex shift for real part using Kramers Kronig
   OMEGAMAX=  -1.0    maximum frequency
   DEG_THRESHOLD= 0.2000000E-02 threshold for treating states as degnerate
   RTIME   =   -0.100 relaxation time in fs
  (WPLASMAI=    0.000 imaginary part of plasma frequency in eV, 0.658/RTIME)
   DFIELD  = 0.0000000 0.0000000 0.0000000 field for delta impulse in time
 
  Optional k-point grid parameters
   LKPOINTS_OPT  =     F    use optional k-point grid
   KPOINTS_OPT_MODE=     1    mode for optional k-point grid
 
 Orbital magnetization related:
   ORBITALMAG=     F  switch on orbital magnetization
   LCHIMAG   =     F  perturbation theory with respect to B field
   DQ        =  0.001000  dq finite difference perturbation B field
   LLRAUG    =     F  two centre corrections for induced B field
   LBONE     =     F  B-component reconstruction in AE one-centre
   LVGVCALC  =     T  calculate vGv susceptibility
   LVGVAPPL  =     F  apply vGv susceptibility instead of pGv for G=0

 Random number generation:
   RANDOM_GENERATOR = DEFAULT
   PCG_SEED         = not used


--------------------------------------------------------------------------------------------------------


 Static calculation
 charge density and potential will be updated during run
 spin polarized calculation
 Variant of blocked Davidson
 Davidson routine will perform the subspace rotation
 perform sub-space diagonalisation
    after iterative eigenvector-optimisation
 modified Broyden-mixing scheme, WC =      100.0
 initial mixing is a Kerker type mixing with AMIX =  0.6000 and BMIX =      1.0000
 Hartree-type preconditioning will be used
 using additional bands          108
 real space projection scheme for non local part
 use partial core corrections
 calculate Harris-corrections to forces 
   (improved forces if not selfconsistent)
 use gradient corrections 
 use of overlap-Matrix (Vanderbilt PP)
 Gauss-broadening in eV      SIGMA  =   0.01


--------------------------------------------------------------------------------------------------------


  energy-cutoff  :      700.00
  volume of cell :     7323.89
      direct lattice vectors                 reciprocal lattice vectors
    19.581750870  0.000000000  0.000000000     0.051067956  0.000000000  0.000000000
     0.000000000 19.581748962  0.000000000     0.000000000  0.051067961  0.000000000
     0.000000000  0.000000000 19.100250244     0.000000000  0.000000000  0.052355335

  length of vectors
    19.581750870 19.581748962 19.100250244     0.051067956  0.051067961  0.052355335


 
 k-points in units of 2pi/SCALE and weight: Automatic KPOINTS generated             
   0.00000000  0.00000000  0.00000000       0.125
   0.02553398  0.00000000  0.00000000       0.125
   0.00000000  0.02553398  0.00000000       0.125
   0.02553398  0.02553398  0.00000000       0.125
   0.00000000  0.00000000  0.02617767       0.125
   0.02553398  0.00000000  0.02617767       0.125
   0.00000000  0.02553398  0.02617767       0.125
   0.02553398  0.02553398  0.02617767       0.125
 
 k-points in reciprocal lattice and weights: Automatic KPOINTS generated             
   0.00000000  0.00000000  0.00000000       0.125
   0.50000000  0.00000000  0.00000000       0.125
   0.00000000  0.50000000  0.00000000       0.125
   0.50000000  0.50000000  0.00000000       0.125
   0.00000000  0.00000000  0.50000000       0.125
   0.50000000  0.00000000  0.50000000       0.125
   0.00000000  0.50000000  0.50000000       0.125
   0.50000000  0.50000000  0.50000000       0.125
 
 position of ions in fractional coordinates (direct lattice) 
   0.99589300  0.99726200  0.00000000
   0.88050836  0.92033887  0.14217091
   0.76512373  0.84341574  0.28434190
   0.07281613  0.38187745  0.00000000
   0.95743144  0.30495429  0.14217091
   0.84204680  0.22803116  0.28434190
   0.22666228  0.15110818  0.00000000
   0.11127762  0.07418505  0.14217091
   0.99589294  0.99726194  0.28434190
   0.79118890  0.80384624  0.89005387
   0.03435453  0.68956971  0.14217091
   0.91896987  0.61264658  0.28434190
   0.30358541  0.53572357  0.00000000
   0.18820073  0.45880044  0.14217091
   0.07281607  0.38187730  0.28434190
   0.45743155  0.30495435  0.00000000
   0.34204686  0.22803120  0.14217091
   0.22666220  0.15110807  0.28434190
   0.61127770  0.07418510  0.00000000
   0.12452222  0.47051281  0.89005387
   0.38050836  0.92033881  0.28434190
   0.95785558  0.63717955  0.89005387
   0.26512384  0.84341592  0.14217091
   0.14973918  0.76649272  0.28434190
   0.53435463  0.68956971  0.00000000
   0.41896993  0.61264658  0.14217091
   0.30358526  0.53572345  0.28434190
   0.68820071  0.45880049  0.00000000
   0.57281607  0.38187736  0.14217091
   0.45743138  0.30495423  0.28434190
   0.84204692  0.22803119  0.00000000
   0.72666228  0.15110804  0.14217091
   0.61127758  0.07418491  0.28434190
   0.76512390  0.84341586  0.00000000
   0.37452230  0.55384618  0.80511779
   0.53435457  0.68956959  0.28434190
   0.91897005  0.61264664  0.00000000
   0.80358541  0.53572351  0.14217091
   0.68820071  0.45880038  0.28434190
   0.01512384  0.59341586  0.07108547
   0.89973921  0.51649272  0.21325642
   0.87452239  0.05384612  0.46537358
   0.16896996  0.36264667  0.07108547
   0.04118896  0.55384618  0.46537358
   0.95785558  0.30384618  0.55030960
   0.32281613  0.13187741  0.07108547
   0.20743145  0.05495427  0.21325642
   0.04118896  0.22051282  0.46537358
   0.09204689  0.97803128  0.07108547
   0.97666222  0.90110815  0.21325642
   0.86127752  0.82418501  0.35542738
   0.24589306  0.74726206  0.07108547
   0.13050841  0.67033893  0.21325642
   0.37452230  0.55384618  0.46537358
   0.39973927  0.51649284  0.07108547
   0.37452230  0.22051282  0.46537358
   0.20785561  0.05384612  0.46537358
   0.55358541  0.28572354  0.07108547
   0.43820071  0.20880039  0.21325642
   0.54118896  0.72051281  0.46537358
   0.70743155  0.05495430  0.07108547
   0.59204686  0.97803116  0.21325642
   0.47666219  0.90110803  0.35542738
   0.47666240  0.90110820  0.07108547
   0.36127770  0.82418507  0.21325642
   0.37452230  0.88717949  0.46537358
   0.63050854  0.67033899  0.07108547
   0.51512384  0.59341580  0.21325642
   0.39973915  0.51649267  0.35542738
   0.78435469  0.43956971  0.07108547
   0.66896999  0.36264655  0.21325642
   0.55358529  0.28572342  0.35542738
   0.93820083  0.20880049  0.07108547
   0.82281613  0.13187735  0.21325642
   0.70743144  0.05495421  0.35542738
   0.86127788  0.82418513  0.07108547
   0.74589318  0.74726200  0.21325642
   0.70785564  0.22051282  0.46537358
   0.12452222  0.80384624  0.89005387
   0.91896993  0.11264660  0.14217091
   0.80358523  0.03572347  0.28434190
   0.11127766  0.57418507  0.00000000
   0.99589300  0.49726200  0.14217091
   0.87452239  0.38717949  0.46537358
   0.62452221  0.30384618  0.89005387
   0.14973919  0.26649278  0.14217091
   0.04118896  0.88717949  0.46537358
   0.45785564  0.80384624  0.89005387
   0.29118898  0.30384618  0.89005387
   0.18820064  0.95880032  0.28434190
   0.20785560  0.05384612  0.80511779
   0.07281606  0.88187730  0.14217091
   0.45785561  0.80384624  0.55030960
   0.29118898  0.97051287  0.89005387
   0.22666223  0.65110815  0.14217091
   0.79118902  0.13717961  0.55030960
   0.62452221  0.63717955  0.89005387
   0.38050842  0.42033887  0.14217091
   0.26512373  0.34341574  0.28434190
   0.64973927  0.26649278  0.00000000
   0.62452221  0.97051287  0.89005387
   0.45785561  0.13717961  0.55030960
   0.80358541  0.03572357  0.00000000
   0.68820071  0.95880044  0.14217091
   0.57281607  0.88187730  0.28434190
   0.79118890  0.47051281  0.89005387
   0.45743144  0.80495429  0.14217091
   0.34204680  0.72803110  0.28434190
   0.72666234  0.65110815  0.00000000
   0.61127764  0.57418501  0.14217091
   0.49589294  0.49726185  0.28434190
   0.95785558  0.97051287  0.89005387
   0.76512384  0.34341586  0.14217091
   0.64973915  0.26649272  0.28434190
   0.95743161  0.80495429  0.00000000
   0.84204692  0.72803116  0.14217091
   0.72666228  0.65110803  0.28434190
   0.12452222  0.13717961  0.89005387
   0.01512377  0.09341583  0.21325642
   0.54118896  0.05384612  0.46537358
   0.05358534  0.78572363  0.07108547
   0.93820071  0.70880044  0.21325642
   0.82281601  0.63187730  0.35542738
   0.70785558  0.55384618  0.80511779
   0.09204687  0.47803125  0.21325642
   0.97666216  0.40110809  0.35542738
   0.04118896  0.88717949  0.80511779
   0.87452239  0.72051281  0.46537358
   0.70785564  0.88717949  0.46537358
   0.51512384  0.09341585  0.07108547
   0.12452228  0.80384624  0.55030960
   0.28435451  0.93956953  0.35542738
   0.29118898  0.63717955  0.89005387
   0.16896999  0.86264664  0.21325642
   0.05358529  0.78572351  0.35542738
   0.43820077  0.70880061  0.07108547
   0.32281607  0.63187742  0.21325642
   0.20743141  0.55495429  0.35542738
   0.59204698  0.47803128  0.07108547
   0.47666228  0.40110815  0.21325642
   0.36127761  0.32418501  0.35542738
   0.74589312  0.24726200  0.07108547
   0.63050842  0.17033887  0.21325642
   0.51512379  0.09341572  0.35542738
   0.89973927  0.01649279  0.07108547
   0.78435457  0.93956965  0.21325642
   0.66896993  0.86264652  0.35542738
   0.70785558  0.88717949  0.80511779
   0.55358541  0.78572363  0.21325642
   0.43820071  0.70880049  0.35542738
   0.82281625  0.63187742  0.07108547
   0.70743155  0.55495429  0.21325642
   0.59204680  0.47803113  0.35542738
   0.97666228  0.40110824  0.07108547
   0.86127758  0.32418507  0.21325642
   0.74589288  0.24726193  0.35542738
   0.03435449  0.18956965  0.28434190
   0.87452227  0.88717949  0.63524568
   0.66897011  0.86264676  0.07108547
   0.05358529  0.28572354  0.21325642
   0.87452227  0.55384618  0.63524568
   0.20743152  0.55495441  0.07108547
   0.09204677  0.97803116  0.35542738
   0.87452227  0.22051282  0.63524568
   0.70785558  0.22051282  0.80511779
   0.24589300  0.74726194  0.35542738
   0.20785558  0.88717949  0.63524568
   0.36127770  0.32418513  0.07108547
   0.01512372  0.59341580  0.35542738
   0.20785558  0.55384618  0.63524568
   0.04118896  0.55384618  0.80511779
   0.28435460  0.43956968  0.21325642
   0.20785558  0.22051282  0.63524568
   0.04118896  0.22051282  0.80511779
   0.13050833  0.17033885  0.35542738
   0.54118896  0.88717949  0.63524568
   0.37452230  0.88717949  0.80511779
   0.70785564  0.55384618  0.46537358
   0.54118896  0.55384618  0.63524568
   0.64973927  0.76649272  0.14217091
   0.63050842  0.67033881  0.35542738
   0.54118896  0.22051282  0.63524568
   0.37452230  0.22051282  0.80511779
   0.12452228  0.13717961  0.55030960
   0.95785564  0.13717961  0.72018170
   0.79118890  0.13717961  0.89005387
   0.39973921  0.01649272  0.21325642
   0.95785564  0.80384624  0.72018170
   0.14973922  0.76649284  0.00000000
   0.12452228  0.47051281  0.55030960
   0.95785564  0.47051281  0.72018170
   0.57281613  0.88187736  0.00000000
   0.41896993  0.11264652  0.28434190
   0.29118896  0.13717961  0.72018170
   0.13050844  0.17033896  0.07108547
   0.95743138  0.80495423  0.28434190
   0.29118896  0.80384624  0.72018170
   0.03435459  0.18956974  0.00000000
   0.45785561  0.47051281  0.55030960
   0.29118896  0.47051281  0.72018170
   0.49589300  0.99726194  0.14217091
   0.11127757  0.57418501  0.28434190
   0.62452239  0.13717961  0.72018170
   0.45785564  0.13717961  0.89005387
   0.79118902  0.80384624  0.55030960
   0.62452239  0.80384624  0.72018170
   0.41896999  0.11264660  0.00000000
   0.79118902  0.47051281  0.55030960
   0.62452239  0.47051281  0.72018170
   0.45785564  0.47051281  0.89005387
   0.16896993  0.36264655  0.35542738
   0.04118896  0.05384612  0.63524568
   0.87452227  0.05384612  0.80511779
   0.20785561  0.72051281  0.46537358
   0.04118896  0.72051281  0.63524568
   0.87452227  0.72051281  0.80511779
   0.20785561  0.38717949  0.46537358
   0.04118896  0.38717949  0.63524568
   0.87452227  0.38717949  0.80511779
   0.89973909  0.01649269  0.35542738
   0.37452227  0.05384612  0.63524568
   0.18820076  0.95880044  0.00000000
   0.32281604  0.13187726  0.35542738
   0.37452227  0.72051281  0.63524568
   0.20785560  0.72051281  0.80511779
   0.54118896  0.38717949  0.46537358
   0.37452227  0.38717949  0.63524568
   0.20785560  0.38717949  0.80511779
   0.78435451  0.43956962  0.35542738
   0.70785570  0.05384612  0.63524568
   0.54118907  0.05384612  0.80511779
   0.24589303  0.24726200  0.21325642
   0.70785570  0.72051281  0.63524568
   0.54118907  0.72051281  0.80511779
   0.88050830  0.42033884  0.28434190
   0.70785570  0.38717949  0.63524568
   0.54118907  0.38717949  0.80511779
   0.29118896  0.97051287  0.55030960
   0.12452228  0.97051287  0.72018170
   0.88050848  0.42033899  0.00000000
   0.29118896  0.63717955  0.55030960
   0.12452228  0.63717955  0.72018170
   0.38050851  0.92033905  0.00000000
   0.29118896  0.30384618  0.55030960
   0.12452228  0.30384618  0.72018170
   0.95785558  0.30384618  0.89005387
   0.62452233  0.97051287  0.55030960
   0.45785570  0.97051287  0.72018170
   0.34204692  0.72803128  0.00000000
   0.62452233  0.63717955  0.55030960
   0.45785570  0.63717955  0.72018170
   0.28435466  0.93956983  0.07108547
   0.62452233  0.30384618  0.55030960
   0.45785570  0.30384618  0.72018170
   0.30358532  0.03572347  0.14217091
   0.95785558  0.97051287  0.55030960
   0.79118890  0.97051287  0.72018170
   0.53435463  0.18956965  0.14217091
   0.95785558  0.63717955  0.55030960
   0.79118890  0.63717955  0.72018170
   0.49589309  0.49726200  0.00000000
   0.93820059  0.20880038  0.35542738
   0.79118890  0.30384618  0.72018170
   0.26512384  0.34341592  0.00000000
 
 position of ions in cartesian coordinates  (Angst):
  19.50132866 19.52813415  0.00000000
  17.24189540 18.02184469  2.71549988
  14.98246217 16.51555523  5.43100148
   1.42586724  7.47782840  0.00000000
  18.74818385  5.97153835  2.71549988
  16.48875060  4.46524889  5.43100148
   4.43844426  2.95896237  0.00000000
   2.17901059  1.45267305  2.71549988
  19.50132748 19.52813298  5.43100148
  15.49286385 15.74071528 17.00025161
   0.67272193 13.50298099  2.71549988
  17.99503905 11.99669153  5.43100148
   5.94473387 10.49040440  0.00000000
   3.68529975  8.98411494  2.71549988
   1.42586606  7.47782548  5.43100148
   8.95731075  5.97153953  0.00000000
   6.69787634  4.46524977  2.71549988
   4.43844281  2.95896031  5.43100148
  11.96988761  1.45267406  0.00000000
   2.43836317  9.21346367 17.00025161
   7.45101997 18.02184352  5.43100148
  18.75648938 12.47709007 17.00025161
   5.19158906 16.51555874  2.71549988
   2.93215524 15.00926810  5.43100148
  10.46359918 13.50298099  0.00000000
   8.20416477 11.99669153  2.71549988
   5.94473095 10.49040207  5.43100148
  13.47617489  8.98411612  0.00000000
  11.21674166  7.47782666  2.71549988
   8.95730724  5.97153720  5.43100148
  16.48875293  4.46524948  0.00000000
  14.22931969  2.95895973  2.71549988
  11.96988528  1.45267026  5.43100148
  14.98246567 16.51555756  0.00000000
   7.33380235 10.84527686 15.37795119
  10.46359803 13.50297864  5.43100148
  17.99504254 11.99669269  0.00000000
  15.73560930 10.49040323  2.71549988
  13.47617489  8.98411377  5.43100148
   0.29615121 11.62012032  1.35775036
  17.61846898 10.11383086  4.07325097
  17.12467953  1.05440122  8.88875176
   3.30872764  7.10125603  1.35775036
   0.80655186 10.84527686  8.88875176
  18.75648938  5.94983962 10.51105103
   6.32130509  2.58239028  1.35775036
   4.06187098  1.07610068  4.07325097
   0.80655186  4.31802672  8.88875176
   1.80243921 19.15156296  1.35775036
  19.12475626 17.64527350  4.07325097
  16.86532185 16.13898404  6.78875198
   4.81501666 14.63269809  1.35775036
   2.55558313 13.12640863  4.07325097
   7.33380235 10.84527686  8.88875176
   7.82759470 10.11383321  1.35775036
   7.33380235  4.31802672  8.88875176
   4.07017681  1.05440122  8.88875176
  10.84017158  5.59496657  1.35775036
   8.58073717  4.08867682  4.07325097
  10.59742729 14.10890091  8.88875176
  13.85274847  1.07610135  1.35775036
  11.59331406 19.15156061  4.07325097
   9.33388023 17.64527117  6.78875198
   9.33388431 17.64527466  1.35775036
   7.07444990 16.13898520  4.07325097
   7.33380235 17.37252614  8.88875176
  12.34646119 13.12640978  1.35775036
  10.08702678 11.62011917  4.07325097
   7.82759237 10.11382971  6.78875198
  15.35903807  8.60754375  1.35775036
  13.09960366  7.10125370  4.07325097
  10.84016925  5.59496424  6.78875198
  18.37161494  4.08867888  1.35775036
  16.11218053  2.58238912  4.07325097
  13.85274614  1.07609945  6.78875198
  16.86532884 16.13898637  1.35775036
  14.60589443 14.63269691  4.07325097
  13.86105283  4.31802672  8.88875176
   2.43836317 15.74071528 17.00025161
  17.99504021  2.20581748  2.71549988
  15.73560580  0.69952802  5.43100148
   2.17901145 11.24354796  0.00000000
  19.50132866  9.73725967  2.71549988
  17.12467953  7.58165165  8.88875176
  12.22923831  5.94983962 17.00025161
   2.93215553  5.21839480  2.71549988
   0.80655186 17.37252614  8.88875176
   8.96561512 15.74071528 17.00025161
   5.70199016  5.94983962 17.00025161
   3.68529801 18.77498709  5.43100148
   4.07017652  1.05440122 15.37795119
   1.42586593 17.26869996  2.71549988
   8.96561453 15.74071528 10.51105103
   5.70199016 19.00433933 17.00025161
   4.43844338 12.74983626  2.71549988
  15.49286618  2.68621674 10.51105103
  12.22923831 12.47709007 17.00025161
   7.45102114  8.23097021  2.71549988
   5.19158673  6.72468075  5.43100148
[...]
      2.55558     13.12641      4.07325         0.386239      2.260054     -1.639500
      7.33380     10.84528      8.88875         0.486938     -0.209774      0.697766
      7.82759     10.11383      1.35775        -2.117061      0.931577      1.247655
      7.33380      4.31803      8.88875        -0.339733      0.105119     -0.371198
      4.07018      1.05440      8.88875         0.087197      0.015064     -0.444344
     10.84017      5.59497      1.35775         0.420100      2.475101     -1.878948
      8.58074      4.08868      4.07325        -1.717520      2.688560     -0.023975
     10.59743     14.10890      8.88875        -0.802867      0.337528      0.036047
     13.85275      1.07610      1.35775        -0.009781      0.051208     -0.126458
     11.59331     19.15156      4.07325         2.284883     -0.448405      1.500794
      9.33388     17.64527      6.78875        -1.192991     -0.093561      0.965563
      9.33388     17.64527      1.35775        -0.315903     -1.858161      0.903049
      7.07445     16.13899      4.07325        -0.050476      0.005239      0.011910
      7.33380     17.37253      8.88875         0.597805     -0.305621     -0.297477
     12.34646     13.12641      1.35775        -0.409069     -2.154412     -1.565762
     10.08703     11.62012      4.07325        -0.103587      0.082902     -0.075964
      7.82759     10.11383      6.78875        -0.692644     -0.056780     -0.254209
     15.35904      8.60754      1.35775        -2.424762      0.239382      1.601718
     13.09960      7.10125      4.07325         0.033188     -0.024866     -0.134203
     10.84017      5.59496      6.78875        -0.670849      0.041422      0.554771
     18.37161      4.08868      1.35775        -2.450921     -0.010929      1.134354
     16.11218      2.58239      4.07325        -0.021062     -0.059582     -0.131502
     13.85275      1.07610      6.78875        -0.042944      0.004902      0.793212
     16.86533     16.13899      1.35775         0.098153     -0.150322     -0.205673
     14.60589     14.63270      4.07325         2.216036     -0.487381      1.503341
     13.86105      4.31803      8.88875         0.646046     -0.927341      0.874862
      2.43836     15.74072     17.00025        -0.629196      1.260284     -4.210674
     17.99504      2.20582      2.71550         0.022989     -0.055029      0.108142
     15.73561      0.69953      5.43100        -2.347632      0.595683     -1.532963
      2.17901     11.24355      0.00000        -1.655426      0.098997     -2.534689
     19.50133      9.73726      2.71550        -0.015029      0.043098      0.089769
     17.12468      7.58165      8.88875         0.809715     -0.354970      0.125981
     12.22924      5.94984     17.00025         0.478358     -0.212038     -0.705652
      2.93216      5.21839      2.71550         0.510236      2.274678     -1.525061
      0.80655     17.37253      8.88875         1.128778     -0.937397     -0.476402
      8.96562     15.74072     17.00025         0.122702     -0.005873      0.450120
      5.70199      5.94984     17.00025         0.127514     -0.737500     -3.532741
      3.68530     18.77499      5.43100         2.196866     -0.929058     -1.277895
      4.07018      1.05440     15.37795         0.063170      0.024201      0.528146
      1.42587     17.26870      2.71550         0.008094     -0.015755      0.100117
      8.96561     15.74072     10.51105         0.018445      0.067743     -0.568163
      5.70199     19.00434     17.00025        -0.612474      0.378200     -0.500904
      4.43844     12.74984      2.71550         0.424368      2.268736      1.703220
     15.49287      2.68622     10.51105        -0.115535      0.220350     -0.964101
     12.22924     12.47709     17.00025         0.597948     -0.279286      0.309500
      7.45102      8.23097      2.71550         2.676023      1.779489      0.034228
      5.19159      6.72468      5.43100         2.194018     -0.868927      1.889777
     12.72303      5.21839      0.00000        -0.696225     -0.052791      0.264222
     12.22924     19.00434     17.00025        -0.351330      0.092941      0.371714
      8.96561      2.68622     10.51105         0.173389     -0.238383     -0.810255
     15.73561      0.69953      0.00000        -0.674201      0.069268     -0.562917
     13.47617     18.77499      2.71550         0.584338      2.298393      1.654098
     11.21674     17.26870      5.43100        -0.031630      0.253592      0.605488
     15.49286      9.21346     17.00025        -0.798357      0.355063     -0.023877
      8.95731     15.76241      2.71550        -0.047363     -0.043366      0.020141
      6.69788     14.25612      5.43100         2.077842     -0.647892     -0.959217
     14.22932     12.74984      0.00000        -1.216955     -0.075080     -0.942429
     11.96989     11.24355      2.71550        -0.045808      0.054110     -0.009081
      9.71045      9.73726      5.43100         0.202948      0.072174      0.529380
     18.75649     19.00434     17.00025         0.637277     -0.928848     -0.886492
     14.98246      6.72468      2.71550        -0.125734      0.058659      0.049895
     12.72303      5.21839      5.43100         0.092904      0.338645      0.431973
     18.74819     15.76241      0.00000        -0.032918      0.004621     -0.778935
     16.48875     14.25612      2.71550        -0.003468      0.001871      0.080794
     14.22932     12.74983      5.43100         2.448447      0.036011     -1.171310
      2.43836      2.68622     17.00025         0.818159     -0.356580     -0.115828
      0.29615      1.82925      4.07325        -0.529466     -2.215791     -1.724299
     10.59743      1.05440      8.88875        -0.904463      0.652762      0.908601
      1.04929     15.38584      1.35775        -2.388647      0.605856      1.524189
     18.37161     13.87955      4.07325        -0.427237     -2.236855     -1.689315
     16.11218     12.37326      6.78875        -0.117593      0.300628      1.322515
     13.86105     10.84528     15.37795         0.002885      0.055741      0.586053
      1.80244      9.36069      4.07325        -0.480441     -2.230185     -1.737808
     19.12476      7.85440      6.78875         1.166918     -0.647131      2.486254
      0.80655     17.37253     15.37795        -0.119231      0.238746      0.967247
     17.12468     14.10890      8.88875        -0.897714      0.294216     -1.200783
     13.86105     17.37253      8.88875        -0.248871      0.500540      0.516249
     10.08703      1.82925      1.35775         2.198282     -0.883973     -1.891397
      2.43836     15.74072     10.51105        -0.336386      0.593755     -0.460945
      5.56816     18.39841      6.78875         0.721129     -0.003484      0.758874
      5.70199     12.47709     17.00025         1.138721     -0.911411      0.473487
      3.30873     16.89213      4.07325        -0.031397     -0.023102     -0.138781
      1.04929     15.38584      6.78875         1.595441     -0.136530      2.517554
      8.58074     13.87956      1.35775         2.199748     -0.953371      1.291822
      6.32130     12.37327      4.07325         0.109140      0.005013     -0.040526
      4.06187     10.86698      6.78875         2.422569     -0.437476      2.343324
     11.59332      9.36069      1.35775         2.069851     -0.645946      0.987541
      9.33388      7.85440      4.07325        -0.014788      0.015368     -0.043747
      7.07445      6.34811      6.78875         0.717469     -0.300597      0.938141
     14.60589      4.84182      1.35775         0.178504      0.079548     -0.505383
     12.34646      3.33553      4.07325         2.188644     -0.464597      1.646707
     10.08703      1.82924      6.78875         3.025758     -0.392593      1.518533
     17.61847      0.32296      1.35775         0.036695      0.343644     -0.427193
     15.35904     18.39842      4.07325         0.090126      0.085527      0.002237
     13.09960     16.89213      6.78875         0.314924     -0.243683     -0.074517
     13.86105     17.37253     15.37795         0.169003     -0.238178      0.816394
     10.84017     15.38584      4.07325        -2.163072      0.370632      1.588253
      8.58074     13.87955      6.78875         1.199443      0.086381      0.867371
     16.11218     12.37327      1.35775        -0.039194      0.257476     -0.575892
     13.85275     10.86698      4.07325        -0.003304     -0.001828      0.015706
     11.59331      9.36069      6.78875         0.234906     -0.045633      0.945375
     19.12476      7.85440      1.35775         2.342216      0.045426      1.178213
     16.86532      6.34811      4.07325        -0.618448     -2.166222     -1.726869
     14.60589      4.84182      6.78875        -0.358666      0.277742     -0.061202
      0.67272      3.71211      5.43100        -0.682992     -3.252663     -2.264991
     17.12468     17.37253     12.13335         0.024750      0.070241     -0.023820
     13.09961     16.89213      1.35775         3.541211      2.307504     -0.648849
      1.04929      5.59497      4.07325         0.557127      3.061442     -2.266579
     17.12468     10.84528     12.13335        -0.127411      0.096601      0.147191
      4.06187     10.86698      1.35775        -0.062715      0.014235     -0.295406
      1.80244     19.15156      6.78875         0.420504     -0.174561      4.179195
     17.12468      4.31803     12.13335         0.101576     -0.015645     -1.126826
     13.86105      4.31803     15.37795        -0.773339      0.811618      0.662265
      4.81502     14.63270      6.78875         2.412676      1.831056     -3.978421
      4.07018     17.37253     12.13335        -0.511523     -0.743294     -0.487201
      7.07445      6.34811      1.35775         3.212828     -0.728721      1.996309
      0.29615     11.62012      6.78875        -3.249014      1.641217      2.417990
      4.07018     10.84528     12.13335         0.000881     -0.012358     -0.006882
      0.80655     10.84528     15.37795        -0.026890     -0.340996      1.265558
      5.56816      8.60754      4.07325         0.125974      0.075237      0.147382
      4.07018      4.31803     12.13335        -0.081843      0.074817      0.089719
      0.80655      4.31803     15.37795         0.733495     -0.505991      0.242882
      2.55558      3.33553      6.78875         2.675437     -0.719647      5.641063
     10.59743     17.37253     12.13335        -0.719142     -0.593060     -0.492952
      7.33380     17.37253     15.37795        -0.122845     -0.118706      0.852838
     13.86105     10.84528      8.88875         0.051009      0.003918     -1.419142
     10.59743     10.84528     12.13335         0.102635     -0.080240      0.146668
     12.72303     15.00927      2.71550        -0.447965     -3.132743      2.206550
     12.34646     13.12641      6.78875        -0.421138      0.123943      3.329305
     10.59743      4.31803     12.13335        -0.614158     -0.704528     -0.635605
      7.33380      4.31803     15.37795        -0.420167      0.363747      0.735864
      2.43836      2.68622     10.51105        -0.114286     -0.153681     -0.864709
     18.75649      2.68622     13.75565         0.109905     -0.161276     -0.137009
     15.49286      2.68622     17.00025         0.608732     -0.212038      1.705399
      7.82759      0.32296      4.07325        -0.453628     -3.037345      2.177751
     18.75649     15.74072     13.75565         0.596438      0.624588      0.623296
      2.93216     15.00927      0.00000         0.158751     -1.151592      0.120946
      2.43836      9.21346     10.51105        -0.430807      0.367150     -0.731945
     18.75649      9.21346     13.75565        -0.115478      0.082221     -0.104413
     11.21674     17.26870      0.00000        -3.288135      0.665778     -6.421253
      8.20416      2.20582      5.43100         3.514694      2.304254      0.812493
      5.70199      2.68622     13.75565        -0.758487     -0.546083      0.488278
      2.55558      3.33553      1.35775         3.179244     -0.391397      2.081852
     18.74818     15.76241      5.43100        -0.000041      0.012135      0.210901
      5.70199     15.74072     13.75565         0.097781     -0.051641     -0.139539
      0.67272      3.71211      0.00000        -2.742875      0.522183     -5.520170
      8.96561      9.21346     10.51105        -0.768089      0.814656     -0.666566
      5.70199      9.21346     13.75565         0.582074      0.585212      0.641683
      9.71045     19.52813      2.71550         3.146227     -0.726121     -1.931649
      2.17901     11.24355      5.43100         3.121009     -0.714558     -2.093918
     12.22924      2.68622     13.75565         0.005050      0.027119      0.015315
      8.96562      2.68622     17.00025         2.340105      1.983272     -6.652700
     15.49287     15.74072     10.51105        -0.016330     -0.348173     -1.270980
     12.22924     15.74072     13.75565         0.500168      0.647204      0.460968
      8.20417      2.20582      0.00000        -2.455961     -1.641507      3.935118
     15.49287      9.21346     10.51105         0.747305     -0.522832     -0.246700
     12.22924      9.21346     13.75565         0.725105      0.545035      0.515722
      8.96562      9.21346     17.00025        -2.861502     -1.509686     -7.096000
      3.30873      7.10125      6.78875        -2.453055     -1.628987     -3.956226
      0.80655      1.05440     12.13335         0.107756     -0.037528      0.140002
     17.12468      1.05440     15.37795         0.642155     -0.289095      0.619902
      4.07018     14.10890      8.88875        -2.867645     -1.498075      7.116537
      0.80655     14.10890     12.13335         0.586268      0.600923     -0.622151
     17.12468     14.10890     15.37795         0.142165     -0.245587      1.375824
      4.07018      7.58165      8.88875         2.324209      1.973215      6.643354
      0.80655      7.58165     12.13335        -0.729876     -0.565753     -0.496722
     17.12468      7.58165     15.37795        -0.764018      0.513382      0.240185
     17.61847      0.32296      6.78875         0.148484     -1.147812     -0.136709
      7.33380      1.05440     12.13335         0.518323      0.636130     -0.471444
      3.68530     18.77499      0.00000        -2.369900      0.744554     -5.935186
      6.32130      2.58239      6.78875        -3.277310      0.653018      6.426231
      7.33380     14.10890     12.13335         0.725511      0.561880     -0.508148
      4.07018     14.10890     15.37795        -0.183883      0.247466      1.115086
     10.59743      7.58165      8.88875         0.608093     -0.192928     -1.702655
      7.33380      7.58165     12.13335         0.034137      0.026786     -0.024269
      4.07018      7.58165     15.37795         0.200671     -0.305880      1.179569
     15.35903      8.60754      6.78875        -2.712664      0.504026      5.523073
     13.86105      1.05440     12.13335         0.590448      0.636346     -0.617871
     10.59743      1.05440     15.37795         0.557749     -0.756352      0.676591
      4.81502      4.84182      4.07325         0.112575     -0.007918     -0.153644
     13.86105     14.10890     12.13335        -0.111716      0.109154      0.123050
     10.59743     14.10890     15.37795         0.053450      0.136533      0.986676
     17.24189      8.23097      5.43100         3.196505     -0.376446     -2.191190
     13.86105      7.58165     12.13335         0.099191     -0.097154      0.104493
     10.59743      7.58165     15.37795         0.378819     -0.333537      0.701508
      5.70199     19.00434     10.51105         0.054970      0.146683     -0.992680
      2.43836     19.00434     13.75565         0.106213     -0.004131      1.109691
     17.24190      8.23097      0.00000        -0.409248      0.132976     -3.353518
      5.70199     12.47709     10.51105         0.365795     -0.314121     -0.700355
      2.43836     12.47709     13.75565         0.054622      0.076642      0.027627
      7.45102     18.02185      0.00000         2.661549     -0.719891     -5.631258
      5.70199      5.94984     10.51105         0.532050     -0.739533     -0.679511
      2.43836      5.94984     13.75565        -0.126005      0.089810     -0.151030
     18.75649      5.94984     17.00025         0.010541      0.016799      1.410111
     12.22924     19.00434     10.51105         0.129715     -0.274437     -1.385333
      8.96562     19.00434     13.75565        -0.085889      0.098385     -0.108645
      6.69788     14.25613      0.00000         0.406831     -0.170685     -4.179003
     12.22924     12.47709     10.51105        -0.757808      0.505394     -0.256799
      8.96562     12.47709     13.75565        -0.502897     -0.692055      0.504328
      5.56816     18.39842      1.35775        -0.751724     -3.241715      2.180626
     12.22924      5.94984     10.51105         0.643718     -0.286694     -0.618570
      8.96562      5.94984     13.75565        -0.017063      0.013199      0.014112
      5.94473      0.69953      2.71550        -2.499001      3.559051      0.125341
     18.75649     19.00434     10.51105        -0.200517      0.258550     -1.113473
     15.49286     19.00434     13.75565        -0.567798     -0.712953      0.616721
     10.46360      3.71211      2.71550         0.178940      0.136221     -0.089067
     18.75649     12.47709     10.51105         0.178679     -0.304031     -1.161661
     15.49286     12.47709     13.75565        -0.707365     -0.610707      0.504728
      9.71045      9.73726      0.00000         2.391303      1.831449      3.965532
     18.37161      4.08868      6.78875        -2.397720      0.735147      5.943029
     15.49286      5.94984     13.75565         0.123230     -0.055747     -0.131184
      5.19159      6.72468      0.00000        -3.247062      1.623758     -2.442257
 -----------------------------------------------------------------------------------
    total drift:                                0.050509      0.074366     -0.272736


--------------------------------------------------------------------------------------------------------



  FREE ENERGIE OF THE ION-ELECTRON SYSTEM (eV)
  ---------------------------------------------------
  free  energy   TOTEN  =     -1093.53714237 eV

  energy  without entropy=    -1093.53162326  energy(sigma->0) =    -1093.53438281
 


--------------------------------------------------------------------------------------------------------


    POTLOK:  cpu time      3.2324: real time      3.2518


--------------------------------------------------------------------------------------------------------


     LOOP+:  cpu time   6468.1479: real time   6527.7583
    4ORBIT:  cpu time      0.0000: real time      0.0000

 total amount of memory used by VASP MPI-rank0   919034. kBytes
=======================================================================

   base      :      30000. kBytes
   nonlr-proj:      25784. kBytes
   fftplans  :      41700. kBytes
   grid      :      31129. kBytes
   one-center:        275. kBytes
   wavefun   :     790146. kBytes
 
  
  
 General timing and accounting informations for this job:
 ========================================================
  
                  Total CPU time used (sec):     6792.981
                            User time (sec):     6485.943
                          System time (sec):      307.038
                         Elapsed time (sec):     6859.386
  
                   Maximum memory used (kb):     1225240.
                   Average memory used (kb):          N/A
  
                          Minor page faults:      1205730
                          Major page faults:         1174
                 Voluntary context switches:         3490
