 120 120   0   0
  0.1738714E+02  0.7680595E-09  0.1629300E-08  0.1667299E-08  0.5000000E-15
  1.000000000000000E-004
  CAR 
 Si and Ge interface calculation         
     10.01553669    -10.89778078  301      6.80883406      1.00000000
    -10.898  0.0000E+00  0.0000E+00  0.0000E+00  0.0000E+00
    -10.828  0.0000E+00  0.0000E+00  0.0000E+00  0.0000E+00
    -10.758  0.0000E+00  0.0000E+00  0.0000E+00  0.0000E+00
    -10.689  0.0000E+00  0.0000E+00  0.0000E+00  0.0000E+00
    -10.619  0.0000E+00  0.0000E+00  0.0000E+00  0.0000E+00
    -10.549  0.0000E+00  0.0000E+00  0.0000E+00  0.0000E+00
    -10.480  0.0000E+00  0.0000E+00  0.0000E+00  0.0000E+00
    -10.410  0.0000E+00  0.0000E+00  0.0000E+00  0.0000E+00
    -10.340  0.0000E+00  0.0000E+00  0.0000E+00  0.0000E+00
    -10.270  0.0000E+00  0.0000E+00  0.0000E+00  0.0000E+00
    -10.201  0.0000E+00  0.0000E+00  0.0000E+00  0.0000E+00
    -10.131  0.0000E+00  0.0000E+00  0.0000E+00  0.0000E+00
    -10.061  0.0000E+00  0.0000E+00  0.0000E+00  0.0000E+00
     -9.992  0.1140E-09  0.1524E-08  0.7950E-11  0.1062E-09
     -9.922  0.1433E+02  0.1434E+02  0.9990E+00  0.9998E+00
     -9.852  0.2201E+00  0.6054E+00  0.1015E+01  0.1042E+01
     -9.782  0.2847E+02  0.2808E+02  0.3000E+01  0.3000E+01
     -9.713  0.4948E-12  0.1032E-10  0.3000E+01  0.3000E+01
     -9.643  0.1422E+02  0.1431E+02  0.3991E+01  0.3997E+01
     -9.573  0.0000E+00  0.0000E+00  0.4000E+01  0.4000E+01
     -9.504  0.0000E+00  0.0000E+00  0.4000E+01  0.4000E+01
     -9.434  0.0000E+00  0.0000E+00  0.4000E+01  0.4000E+01
     -9.364  0.0000E+00  0.0000E+00  0.4000E+01  0.4000E+01
     -9.294  0.0000E+00  0.0000E+00  0.4000E+01  0.4000E+01
     -9.225  0.0000E+00  0.0000E+00  0.4000E+01  0.4000E+01
     -9.155  0.0000E+00  0.0000E+00  0.4000E+01  0.4000E+01
     -9.085  0.0000E+00  0.0000E+00  0.4000E+01  0.4000E+01
     -9.016  0.6174E+01  0.8066E+01  0.4430E+01  0.4562E+01
     -8.946  0.8171E+01  0.6279E+01  0.5000E+01  0.5000E+01
     -8.876  0.4531E+01  0.5617E+01  0.5316E+01  0.5392E+01
     -8.806  0.9814E+01  0.8728E+01  0.6000E+01  0.6000E+01
     -8.737  0.2741E+02  0.2790E+02  0.7911E+01  0.7945E+01
     -8.667  0.1329E-09  0.1448E-08  0.8000E+01  0.8000E+01
     -8.597  0.2865E+02  0.2868E+02  0.9997E+01  0.9999E+01
     -8.528  0.0000E+00  0.0000E+00  0.1000E+02  0.1000E+02
     -8.458  0.1209E+00  0.2607E+00  0.1001E+02  0.1002E+02
     -8.388  0.1422E+02  0.1408E+02  0.1100E+02  0.1100E+02
     -8.318  0.1434E+02  0.1434E+02  0.1200E+02  0.1200E+02
     -8.249  0.0000E+00  0.0000E+00  0.1200E+02  0.1200E+02
     -8.179  0.4954E-05  0.3070E-04  0.1200E+02  0.1200E+02
     -8.109  0.1434E+02  0.1434E+02  0.1300E+02  0.1300E+02
     -8.040  0.0000E+00  0.0000E+00  0.1300E+02  0.1300E+02
     -7.970  0.3101E+00  0.4084E+00  0.1302E+02  0.1303E+02
     -7.900  0.4272E+02  0.4263E+02  0.1600E+02  0.1600E+02
     -7.830  0.3044E-03  0.7860E-03  0.1600E+02  0.1600E+02
     -7.761  0.2869E+02  0.2869E+02  0.1800E+02  0.1800E+02
     -7.691  0.0000E+00  0.0000E+00  0.1800E+02  0.1800E+02
     -7.621  0.3178E+01  0.5281E+01  0.1822E+02  0.1837E+02
     -7.552  0.2546E+02  0.2338E+02  0.2000E+02  0.2000E+02
     -7.482  0.0000E+00  0.0000E+00  0.2000E+02  0.2000E+02
     -7.412  0.3982E-15  0.7963E-15  0.2000E+02  0.2000E+02
     -7.343  0.1140E+02  0.1174E+02  0.2079E+02  0.2082E+02
     -7.273  0.2764E+01  0.2456E+01  0.2100E+02  0.2100E+02
     -7.203  0.0000E+00  0.0000E+00  0.2100E+02  0.2100E+02
     -7.133  0.0000E+00  0.0000E+00  0.2100E+02  0.2100E+02
     -7.064  0.0000E+00  0.0000E+00  0.2100E+02  0.2100E+02
     -6.994  0.1157E+02  0.1266E+02  0.2181E+02  0.2188E+02
     -6.924  0.3147E+02  0.3037E+02  0.2400E+02  0.2400E+02
     -6.855  0.0000E+00  0.0000E+00  0.2400E+02  0.2400E+02
     -6.785  0.0000E+00  0.0000E+00  0.2400E+02  0.2400E+02
     -6.715  0.1368E-08  0.1403E-08  0.2400E+02  0.2400E+02
     -6.645  0.1434E+02  0.1434E+02  0.2500E+02  0.2500E+02
     -6.576  0.0000E+00  0.0000E+00  0.2500E+02  0.2500E+02
     -6.506  0.0000E+00  0.0000E+00  0.2500E+02  0.2500E+02
     -6.436  0.0000E+00  0.0000E+00  0.2500E+02  0.2500E+02
     -6.367  0.1115E-07  0.9118E-13  0.2500E+02  0.2500E+02
     -6.297  0.3544E+02  0.3146E+02  0.2747E+02  0.2719E+02
     -6.227  0.1892E+02  0.1198E+02  0.2880E+02  0.2805E+02
     -6.157  0.1719E+02  0.2800E+02  0.3000E+02  0.3000E+02
     -6.088  0.1537E-09  0.0000E+00  0.3000E+02  0.3000E+02
     -6.018  0.1821E+02  0.6074E+01  0.3127E+02  0.3042E+02
     -5.948  0.1043E+02  0.2262E+02  0.3200E+02  0.3200E+02
     -5.879  0.0000E+00  0.0000E+00  0.3200E+02  0.3200E+02
     -5.809  0.6015E+00  0.1116E-02  0.3204E+02  0.3200E+02
     -5.739  0.2809E+02  0.2869E+02  0.3400E+02  0.3400E+02
     -5.669  0.1613E+02  0.1483E+02  0.3512E+02  0.3503E+02
     -5.600  0.3874E+01  0.4917E+01  0.3540E+02  0.3539E+02
     -5.530  0.1047E+02  0.1051E+02  0.3613E+02  0.3613E+02
     -5.460  0.2051E+02  0.2010E+02  0.3755E+02  0.3753E+02
     -5.391  0.9372E+01  0.9967E+01  0.3822E+02  0.3824E+02
     -5.321  0.1124E+02  0.1108E+02  0.3901E+02  0.3901E+02
     -5.251  0.1397E+02  0.1401E+02  0.3998E+02  0.3999E+02
     -5.181  0.4495E+01  0.3750E+01  0.4029E+02  0.4025E+02
     -5.112  0.3120E+01  0.3774E+01  0.4051E+02  0.4051E+02
     -5.042  0.2192E+02  0.2154E+02  0.4204E+02  0.4201E+02
     -4.972  0.1308E+02  0.1341E+02  0.4297E+02  0.4295E+02
     -4.903  0.1551E+02  0.1582E+02  0.4406E+02  0.4405E+02
     -4.833  0.1373E+02  0.1321E+02  0.4503E+02  0.4500E+02
     -4.763  0.4369E+02  0.4360E+02  0.4807E+02  0.4804E+02
     -4.693  0.1683E+02  0.1721E+02  0.4925E+02  0.4924E+02
     -4.624  0.1502E+02  0.1259E+02  0.5030E+02  0.5013E+02
     -4.554  0.1174E+02  0.1349E+02  0.5112E+02  0.5107E+02
     -4.484  0.2716E+02  0.2577E+02  0.5301E+02  0.5286E+02
     -4.415  0.1769E+02  0.1953E+02  0.5424E+02  0.5423E+02
     -4.345  0.2656E+02  0.2538E+02  0.5610E+02  0.5600E+02
     -4.275  0.1716E+02  0.1819E+02  0.5732E+02  0.5731E+02
     -4.206  0.2637E+02  0.2572E+02  0.5916E+02  0.5910E+02
     -4.136  0.2773E+02  0.2459E+02  0.6110E+02  0.6082E+02
     -4.066  0.2921E+02  0.3227E+02  0.6314E+02  0.6307E+02
     -3.996  0.1380E+02  0.1458E+02  0.6410E+02  0.6409E+02
     -3.927  0.4855E+02  0.4669E+02  0.6749E+02  0.6734E+02
     -3.857  0.2797E+02  0.2975E+02  0.6945E+02  0.6944E+02
     -3.787  0.1859E+02  0.1851E+02  0.7075E+02  0.7073E+02
     -3.718  0.2343E+02  0.2307E+02  0.7239E+02  0.7235E+02
     -3.648  0.3343E+02  0.3412E+02  0.7472E+02  0.7473E+02
     -3.578  0.1841E+02  0.1612E+02  0.7603E+02  0.7588E+02
     -3.508  0.1146E+02  0.1298E+02  0.7684E+02  0.7683E+02
     -3.439  0.7203E+02  0.7094E+02  0.8187E+02  0.8177E+02
     -3.369  0.4364E+02  0.4427E+02  0.8493E+02  0.8489E+02
     -3.299  0.3629E+02  0.3623E+02  0.8747E+02  0.8743E+02
     -3.230  0.9116E+01  0.9810E+01  0.8813E+02  0.8813E+02
     -3.160  0.1431E+02  0.1315E+02  0.8912E+02  0.8904E+02
     -3.090  0.5378E+02  0.5314E+02  0.9288E+02  0.9275E+02
     -3.020  0.3975E+02  0.3956E+02  0.9565E+02  0.9552E+02
     -2.951  0.3831E+02  0.3979E+02  0.9834E+02  0.9832E+02
     -2.881  0.3478E+02  0.3439E+02  0.1008E+03  0.1007E+03
     -2.811  0.1600E+02  0.1662E+02  0.1019E+03  0.1019E+03
     -2.742  0.2812E+02  0.2625E+02  0.1039E+03  0.1037E+03
     -2.672  0.3293E+02  0.3268E+02  0.1062E+03  0.1060E+03
     -2.602  0.3092E+02  0.3230E+02  0.1084E+03  0.1083E+03
     -2.532  0.1744E+02  0.1852E+02  0.1096E+03  0.1096E+03
     -2.463  0.3596E+02  0.3480E+02  0.1121E+03  0.1120E+03
     -2.393  0.1939E+02  0.2021E+02  0.1135E+03  0.1134E+03
     -2.323  0.2387E+02  0.2436E+02  0.1151E+03  0.1151E+03
     -2.254  0.3518E+02  0.3435E+02  0.1176E+03  0.1175E+03
     -2.184  0.2788E+02  0.2643E+02  0.1195E+03  0.1194E+03
     -2.114  0.2891E+02  0.3077E+02  0.1216E+03  0.1215E+03
     -2.044  0.2500E+02  0.2442E+02  0.1233E+03  0.1232E+03
     -1.975  0.3535E+02  0.3478E+02  0.1258E+03  0.1257E+03
     -1.905  0.3211E+02  0.3015E+02  0.1280E+03  0.1278E+03
     -1.835  0.1252E+02  0.1544E+02  0.1289E+03  0.1289E+03
     -1.766  0.1582E+02  0.1436E+02  0.1300E+03  0.1299E+03
     -1.696  0.3007E+02  0.3069E+02  0.1321E+03  0.1320E+03
     -1.626  0.2084E+02  0.2188E+02  0.1336E+03  0.1335E+03
     -1.556  0.5478E+01  0.5209E+01  0.1339E+03  0.1339E+03
     -1.487  0.1523E+02  0.1216E+02  0.1350E+03  0.1348E+03
     -1.417  0.4696E+02  0.4855E+02  0.1383E+03  0.1381E+03
     -1.347  0.3159E+02  0.3332E+02  0.1405E+03  0.1405E+03
     -1.278  0.3043E+02  0.2511E+02  0.1426E+03  0.1422E+03
     -1.208  0.2426E+02  0.2908E+02  0.1443E+03  0.1443E+03
     -1.138  0.4002E+02  0.3675E+02  0.1471E+03  0.1468E+03
     -1.069  0.9023E+01  0.1272E+02  0.1478E+03  0.1477E+03
     -0.999  0.1319E+02  0.1341E+02  0.1487E+03  0.1487E+03
     -0.929  0.3068E+02  0.2903E+02  0.1509E+03  0.1507E+03
     -0.859  0.4132E+02  0.3927E+02  0.1537E+03  0.1534E+03
     -0.790  0.3109E+02  0.2611E+02  0.1559E+03  0.1553E+03
     -0.720  0.2076E+02  0.2681E+02  0.1574E+03  0.1572E+03
     -0.650  0.4032E+02  0.3338E+02  0.1602E+03  0.1595E+03
     -0.581  0.3471E+02  0.4327E+02  0.1626E+03  0.1625E+03
     -0.511  0.5969E+02  0.5232E+02  0.1668E+03  0.1662E+03
     -0.441  0.3126E+02  0.3952E+02  0.1690E+03  0.1689E+03
     -0.371  0.3082E+02  0.2924E+02  0.1712E+03  0.1710E+03
     -0.302  0.3504E+02  0.3067E+02  0.1736E+03  0.1731E+03
     -0.232  0.3992E+02  0.3904E+02  0.1764E+03  0.1758E+03
     -0.162  0.3734E+02  0.3286E+02  0.1790E+03  0.1781E+03
     -0.093  0.5244E+02  0.6140E+02  0.1827E+03  0.1824E+03
     -0.023  0.2556E+02  0.2624E+02  0.1845E+03  0.1842E+03
      0.047  0.2545E+02  0.2828E+02  0.1862E+03  0.1862E+03
      0.117  0.2644E+02  0.2401E+02  0.1881E+03  0.1879E+03
      0.186  0.2810E+02  0.2676E+02  0.1900E+03  0.1898E+03
      0.256  0.4338E+02  0.4018E+02  0.1931E+03  0.1926E+03
      0.326  0.3305E+02  0.3313E+02  0.1954E+03  0.1949E+03
      0.395  0.3056E+02  0.3150E+02  0.1975E+03  0.1971E+03
      0.465  0.3757E+02  0.3874E+02  0.2001E+03  0.1998E+03
      0.535  0.2198E+02  0.2470E+02  0.2017E+03  0.2015E+03
      0.605  0.4533E+02  0.4482E+02  0.2048E+03  0.2047E+03
      0.674  0.1684E+02  0.1833E+02  0.2060E+03  0.2060E+03
      0.744  0.4273E+02  0.3851E+02  0.2090E+03  0.2086E+03
      0.814  0.2773E+02  0.3116E+02  0.2110E+03  0.2108E+03
      0.883  0.3361E+02  0.3215E+02  0.2133E+03  0.2131E+03
      0.953  0.2239E+02  0.2247E+02  0.2149E+03  0.2146E+03
      1.023  0.2981E+02  0.2448E+02  0.2170E+03  0.2163E+03
      1.093  0.3729E+02  0.4219E+02  0.2196E+03  0.2193E+03
      1.162  0.7475E+02  0.7234E+02  0.2248E+03  0.2243E+03
      1.232  0.1700E+02  0.1634E+02  0.2260E+03  0.2255E+03
      1.302  0.4135E+02  0.4662E+02  0.2289E+03  0.2287E+03
      1.371  0.2766E+02  0.2678E+02  0.2308E+03  0.2306E+03
      1.441  0.4256E+02  0.3857E+02  0.2338E+03  0.2333E+03
      1.511  0.3732E+02  0.4010E+02  0.2364E+03  0.2361E+03
      1.580  0.4507E+02  0.3026E+02  0.2395E+03  0.2382E+03
      1.650  0.3859E+02  0.5595E+02  0.2423E+03  0.2421E+03
      1.720  0.3496E+02  0.3027E+02  0.2447E+03  0.2443E+03
      1.790  0.1982E+02  0.2299E+02  0.2461E+03  0.2459E+03
      1.859  0.3258E+02  0.2550E+02  0.2484E+03  0.2477E+03
      1.929  0.4253E+02  0.4952E+02  0.2513E+03  0.2511E+03
      1.999  0.3151E+02  0.2944E+02  0.2536E+03  0.2532E+03
      2.068  0.2928E+02  0.2931E+02  0.2556E+03  0.2552E+03
      2.138  0.5533E+02  0.5258E+02  0.2595E+03  0.2589E+03
      2.208  0.5088E+02  0.4812E+02  0.2630E+03  0.2623E+03
      2.278  0.2139E+02  0.2946E+02  0.2645E+03  0.2643E+03
      2.347  0.2606E+02  0.2708E+02  0.2663E+03  0.2662E+03
      2.417  0.5110E+02  0.4424E+02  0.2699E+03  0.2693E+03
      2.487  0.5328E+02  0.5770E+02  0.2736E+03  0.2733E+03
      2.556  0.4830E+02  0.4601E+02  0.2770E+03  0.2765E+03
      2.626  0.3834E+02  0.4295E+02  0.2797E+03  0.2795E+03
      2.696  0.3785E+02  0.2917E+02  0.2824E+03  0.2816E+03
      2.766  0.6467E+02  0.6373E+02  0.2869E+03  0.2861E+03
      2.835  0.6032E+02  0.6886E+02  0.2911E+03  0.2909E+03
      2.905  0.2867E+02  0.2612E+02  0.2931E+03  0.2927E+03
      2.975  0.5593E+02  0.5538E+02  0.2970E+03  0.2966E+03
      3.044  0.5925E+02  0.5921E+02  0.3011E+03  0.3007E+03
      3.114  0.5131E+02  0.5121E+02  0.3047E+03  0.3043E+03
      3.184  0.3996E+02  0.3924E+02  0.3076E+03  0.3070E+03
      3.254  0.6754E+02  0.6856E+02  0.3123E+03  0.3118E+03
      3.323  0.5700E+02  0.6007E+02  0.3162E+03  0.3160E+03
      3.393  0.5758E+02  0.5733E+02  0.3203E+03  0.3200E+03
      3.463  0.7118E+02  0.6415E+02  0.3252E+03  0.3245E+03
      3.532  0.3207E+02  0.3720E+02  0.3275E+03  0.3272E+03
      3.602  0.5879E+02  0.5713E+02  0.3316E+03  0.3311E+03
      3.672  0.4525E+02  0.4413E+02  0.3348E+03  0.3342E+03
      3.742  0.5977E+02  0.6131E+02  0.3389E+03  0.3385E+03
      3.811  0.6186E+02  0.5795E+02  0.3433E+03  0.3426E+03
      3.881  0.7247E+02  0.7868E+02  0.3483E+03  0.3481E+03
      3.951  0.5975E+02  0.5770E+02  0.3525E+03  0.3521E+03
      4.020  0.7055E+02  0.7139E+02  0.3574E+03  0.3571E+03
      4.090  0.4389E+02  0.4502E+02  0.3605E+03  0.3603E+03
      4.160  0.3570E+02  0.3141E+02  0.3630E+03  0.3625E+03
      4.230  0.6685E+02  0.7023E+02  0.3677E+03  0.3674E+03
      4.299  0.6941E+02  0.6991E+02  0.3725E+03  0.3723E+03
      4.369  0.3521E+02  0.3400E+02  0.3750E+03  0.3747E+03
      4.439  0.7444E+02  0.7452E+02  0.3802E+03  0.3799E+03
      4.508  0.5470E+02  0.5425E+02  0.3840E+03  0.3837E+03
      4.578  0.4130E+02  0.4354E+02  0.3869E+03  0.3867E+03
      4.648  0.3651E+02  0.3589E+02  0.3895E+03  0.3892E+03
      4.717  0.5880E+02  0.5690E+02  0.3936E+03  0.3932E+03
      4.787  0.5027E+02  0.5386E+02  0.3971E+03  0.3970E+03
      4.857  0.4172E+02  0.3755E+02  0.4000E+03  0.3996E+03
      4.927  0.4270E+02  0.4005E+02  0.4030E+03  0.4024E+03
      4.996  0.3432E+02  0.4109E+02  0.4054E+03  0.4053E+03
      5.066  0.2335E+02  0.2260E+02  0.4071E+03  0.4069E+03
      5.136  0.5795E+02  0.5583E+02  0.4111E+03  0.4107E+03
      5.205  0.4415E+02  0.4489E+02  0.4142E+03  0.4139E+03
      5.275  0.5560E+02  0.4867E+02  0.4181E+03  0.4173E+03
      5.345  0.5068E+02  0.5542E+02  0.4216E+03  0.4212E+03
      5.415  0.2676E+02  0.2392E+02  0.4235E+03  0.4229E+03
      5.484  0.4123E+02  0.3257E+02  0.4264E+03  0.4251E+03
      5.554  0.3859E+02  0.4155E+02  0.4291E+03  0.4280E+03
      5.624  0.3538E+02  0.4166E+02  0.4316E+03  0.4310E+03
      5.693  0.4198E+02  0.3760E+02  0.4345E+03  0.4336E+03
      5.763  0.3542E+02  0.3677E+02  0.4370E+03  0.4361E+03
      5.833  0.5392E+02  0.4104E+02  0.4408E+03  0.4390E+03
      5.903  0.5351E+02  0.6594E+02  0.4445E+03  0.4436E+03
      5.972  0.4667E+02  0.4895E+02  0.4477E+03  0.4471E+03
      6.042  0.2925E+02  0.2778E+02  0.4498E+03  0.4490E+03
      6.112  0.2466E+02  0.3157E+02  0.4515E+03  0.4512E+03
      6.181  0.5998E+02  0.4891E+02  0.4557E+03  0.4546E+03
      6.251  0.3862E+02  0.3883E+02  0.4584E+03  0.4574E+03
      6.321  0.2126E+02  0.2670E+02  0.4599E+03  0.4592E+03
      6.391  0.4820E+02  0.2953E+02  0.4633E+03  0.4613E+03
      6.460  0.4805E+02  0.5392E+02  0.4666E+03  0.4651E+03
      6.530  0.3432E+02  0.4430E+02  0.4690E+03  0.4682E+03
      6.600  0.5567E+02  0.1888E+02  0.4729E+03  0.4695E+03
      6.669  0.4296E+02  0.6350E+02  0.4759E+03  0.4739E+03
      6.739  0.2437E+02  0.3992E+02  0.4776E+03  0.4767E+03
      6.809  0.5594E+02  0.3251E+02  0.4815E+03  0.4790E+03
      6.879  0.5764E+02  0.4282E+02  0.4856E+03  0.4820E+03
      6.948  0.3558E+02  0.5451E+02  0.4881E+03  0.4858E+03
      7.018  0.4583E+02  0.4953E+02  0.4913E+03  0.4893E+03
      7.088  0.5811E+02  0.4526E+02  0.4953E+03  0.4924E+03
      7.157  0.6775E+02  0.7215E+02  0.5001E+03  0.4975E+03
      7.227  0.2067E+02  0.4666E+02  0.5015E+03  0.5007E+03
      7.297  0.2795E+02  0.3261E+02  0.5035E+03  0.5030E+03
      7.367  0.2976E+02  0.2290E+02  0.5056E+03  0.5046E+03
      7.436  0.4123E+02  0.4004E+02  0.5084E+03  0.5074E+03
      7.506  0.2547E+02  0.3084E+02  0.5102E+03  0.5096E+03
      7.576  0.6114E+02  0.4836E+02  0.5145E+03  0.5130E+03
      7.645  0.3408E+02  0.4985E+02  0.5169E+03  0.5165E+03
      7.715  0.4951E+02  0.4327E+02  0.5203E+03  0.5195E+03
      7.785  0.4543E+02  0.4577E+02  0.5235E+03  0.5227E+03
      7.854  0.3871E+02  0.4548E+02  0.5263E+03  0.5258E+03
      7.924  0.2646E+02  0.1980E+02  0.5281E+03  0.5272E+03
      7.994  0.4020E+02  0.4994E+02  0.5309E+03  0.5307E+03
      8.064  0.3739E+02  0.3239E+02  0.5335E+03  0.5330E+03
      8.133  0.4627E+02  0.5195E+02  0.5368E+03  0.5366E+03
      8.203  0.5571E+02  0.5287E+02  0.5407E+03  0.5403E+03
      8.273  0.5541E+02  0.5563E+02  0.5445E+03  0.5442E+03
      8.342  0.4416E+02  0.3913E+02  0.5476E+03  0.5469E+03
      8.412  0.4866E+02  0.5190E+02  0.5510E+03  0.5506E+03
      8.482  0.5738E+02  0.5908E+02  0.5550E+03  0.5547E+03
      8.552  0.5744E+02  0.5633E+02  0.5590E+03  0.5586E+03
      8.621  0.3631E+02  0.3712E+02  0.5616E+03  0.5612E+03
      8.691  0.6954E+02  0.6879E+02  0.5664E+03  0.5660E+03
      8.761  0.3613E+02  0.4020E+02  0.5689E+03  0.5688E+03
      8.830  0.4653E+02  0.4189E+02  0.5722E+03  0.5718E+03
      8.900  0.2623E+02  0.2761E+02  0.5740E+03  0.5737E+03
      8.970  0.1733E+02  0.2221E+02  0.5752E+03  0.5752E+03
      9.040  0.6831E+01  0.5609E+01  0.5757E+03  0.5756E+03
      9.109  0.3927E+01  0.5149E+01  0.5760E+03  0.5760E+03
      9.179  0.0000E+00  0.0000E+00  0.5760E+03  0.5760E+03
      9.249  0.0000E+00  0.0000E+00  0.5760E+03  0.5760E+03
      9.318  0.0000E+00  0.0000E+00  0.5760E+03  0.5760E+03
      9.388  0.0000E+00  0.0000E+00  0.5760E+03  0.5760E+03
      9.458  0.0000E+00  0.0000E+00  0.5760E+03  0.5760E+03
      9.528  0.0000E+00  0.0000E+00  0.5760E+03  0.5760E+03
      9.597  0.0000E+00  0.0000E+00  0.5760E+03  0.5760E+03
      9.667  0.0000E+00  0.0000E+00  0.5760E+03  0.5760E+03
      9.737  0.0000E+00  0.0000E+00  0.5760E+03  0.5760E+03
      9.806  0.0000E+00  0.0000E+00  0.5760E+03  0.5760E+03
      9.876  0.0000E+00  0.0000E+00  0.5760E+03  0.5760E+03
      9.946  0.0000E+00  0.0000E+00  0.5760E+03  0.5760E+03
     10.016  0.0000E+00  0.0000E+00  0.5760E+03  0.5760E+03
