  48  48   0   0
  0.1886565E+02  0.8001338E-09  0.1265123E-08  0.9429669E-09  0.5000000E-15
  1.000000000000000E-004
  CAR 
 Si and Ge interface calculation         
      8.55124890    -13.41326098  301      5.46970485      1.00000000
    -13.413  0.0000E+00  0.0000E+00  0.0000E+00  0.0000E+00
    -13.340  0.0000E+00  0.0000E+00  0.0000E+00  0.0000E+00
    -13.267  0.0000E+00  0.0000E+00  0.0000E+00  0.0000E+00
    -13.194  0.0000E+00  0.0000E+00  0.0000E+00  0.0000E+00
    -13.120  0.0000E+00  0.0000E+00  0.0000E+00  0.0000E+00
    -13.047  0.0000E+00  0.0000E+00  0.0000E+00  0.0000E+00
    -12.974  0.0000E+00  0.0000E+00  0.0000E+00  0.0000E+00
    -12.901  0.0000E+00  0.0000E+00  0.0000E+00  0.0000E+00
    -12.828  0.0000E+00  0.0000E+00  0.0000E+00  0.0000E+00
    -12.754  0.0000E+00  0.0000E+00  0.0000E+00  0.0000E+00
    -12.681  0.0000E+00  0.0000E+00  0.0000E+00  0.0000E+00
    -12.608  0.0000E+00  0.0000E+00  0.0000E+00  0.0000E+00
    -12.535  0.0000E+00  0.0000E+00  0.0000E+00  0.0000E+00
    -12.461  0.3706E-10  0.0000E+00  0.2713E-11  0.0000E+00
    -12.388  0.6827E+01  0.4922E+01  0.4999E+00  0.3603E+00
    -12.315  0.1366E+02  0.1438E+02  0.1500E+01  0.1413E+01
    -12.242  0.0000E+00  0.0000E+00  0.1500E+01  0.1500E+01
    -12.169  0.7532E+01  0.4560E-01  0.2051E+01  0.1503E+01
    -12.095  0.6126E+01  0.1361E+02  0.2500E+01  0.2500E+01
    -12.022  0.2818E-10  0.0000E+00  0.2500E+01  0.2500E+01
    -11.949  0.1365E+02  0.9882E+01  0.3500E+01  0.3224E+01
    -11.876  0.6001E+01  0.4138E+01  0.3939E+01  0.3526E+01
    -11.803  0.0000E+00  0.6468E+01  0.4000E+01  0.4000E+01
    -11.729  0.0000E+00  0.0000E+00  0.4000E+01  0.4000E+01
    -11.656  0.0000E+00  0.0000E+00  0.4000E+01  0.4000E+01
    -11.583  0.0000E+00  0.0000E+00  0.4000E+01  0.4000E+01
    -11.510  0.0000E+00  0.0000E+00  0.4000E+01  0.4000E+01
    -11.436  0.0000E+00  0.0000E+00  0.4000E+01  0.4000E+01
    -11.363  0.0000E+00  0.0000E+00  0.4000E+01  0.4000E+01
    -11.290  0.0000E+00  0.0000E+00  0.4000E+01  0.4000E+01
    -11.217  0.0000E+00  0.0000E+00  0.4000E+01  0.4000E+01
    -11.144  0.0000E+00  0.0000E+00  0.4000E+01  0.4000E+01
    -11.070  0.2540E+01  0.1230E-01  0.4186E+01  0.4001E+01
    -10.997  0.4289E+01  0.6817E+01  0.4500E+01  0.4500E+01
    -10.924  0.1366E+02  0.1126E+02  0.5500E+01  0.5325E+01
    -10.851  0.0000E+00  0.1770E+01  0.5500E+01  0.5500E+01
    -10.778  0.0000E+00  0.0000E+00  0.5500E+01  0.5500E+01
    -10.704  0.4686E-08  0.0000E+00  0.5500E+01  0.5500E+01
    -10.631  0.1309E+02  0.6515E+01  0.6459E+01  0.5977E+01
    -10.558  0.0000E+00  0.6791E+01  0.6500E+01  0.6500E+01
    -10.485  0.0000E+00  0.0000E+00  0.6500E+01  0.6500E+01
    -10.411  0.0000E+00  0.0000E+00  0.6500E+01  0.6500E+01
    -10.338  0.6536E-09  0.0000E+00  0.6500E+01  0.6500E+01
    -10.265  0.4469E+01  0.2108E+01  0.6827E+01  0.6654E+01
    -10.192  0.1822E+02  0.1822E+02  0.8161E+01  0.8001E+01
    -10.119  0.1146E+02  0.1347E+02  0.9000E+01  0.8987E+01
    -10.045  0.1226E+01  0.1039E-01  0.9090E+01  0.9001E+01
     -9.972  0.5603E+01  0.6819E+01  0.9500E+01  0.9500E+01
     -9.899  0.9423E+01  0.5234E+01  0.1019E+02  0.9883E+01
     -9.826  0.4012E+01  0.8323E+01  0.1050E+02  0.1050E+02
     -9.753  0.0000E+00  0.0000E+00  0.1050E+02  0.1050E+02
     -9.679  0.0000E+00  0.0000E+00  0.1050E+02  0.1050E+02
     -9.606  0.3626E+01  0.1813E+00  0.1077E+02  0.1051E+02
     -9.533  0.1003E+02  0.1347E+02  0.1150E+02  0.1150E+02
     -9.460  0.9739E-02  0.1604E-06  0.1150E+02  0.1150E+02
     -9.386  0.6799E+01  0.5557E+01  0.1200E+02  0.1191E+02
     -9.313  0.0000E+00  0.1272E+01  0.1200E+02  0.1200E+02
     -9.240  0.0000E+00  0.0000E+00  0.1200E+02  0.1200E+02
     -9.167  0.0000E+00  0.0000E+00  0.1200E+02  0.1200E+02
     -9.094  0.0000E+00  0.0000E+00  0.1200E+02  0.1200E+02
     -9.020  0.0000E+00  0.0000E+00  0.1200E+02  0.1200E+02
     -8.947  0.0000E+00  0.0000E+00  0.1200E+02  0.1200E+02
     -8.874  0.0000E+00  0.0000E+00  0.1200E+02  0.1200E+02
     -8.801  0.0000E+00  0.0000E+00  0.1200E+02  0.1200E+02
     -8.727  0.0000E+00  0.0000E+00  0.1200E+02  0.1200E+02
     -8.654  0.0000E+00  0.0000E+00  0.1200E+02  0.1200E+02
     -8.581  0.0000E+00  0.0000E+00  0.1200E+02  0.1200E+02
     -8.508  0.0000E+00  0.0000E+00  0.1200E+02  0.1200E+02
     -8.435  0.0000E+00  0.0000E+00  0.1200E+02  0.1200E+02
     -8.361  0.0000E+00  0.0000E+00  0.1200E+02  0.1200E+02
     -8.288  0.0000E+00  0.0000E+00  0.1200E+02  0.1200E+02
     -8.215  0.0000E+00  0.0000E+00  0.1200E+02  0.1200E+02
     -8.142  0.1932E-04  0.1614E-11  0.1200E+02  0.1200E+02
     -8.069  0.4727E+01  0.4452E+01  0.1235E+02  0.1233E+02
     -7.995  0.5514E+01  0.4569E+01  0.1275E+02  0.1267E+02
     -7.922  0.1013E+02  0.8691E+01  0.1349E+02  0.1330E+02
     -7.849  0.1876E+00  0.2675E+01  0.1351E+02  0.1350E+02
     -7.776  0.7418E+01  0.4616E+01  0.1406E+02  0.1384E+02
     -7.702  0.5892E+01  0.5720E+01  0.1449E+02  0.1426E+02
     -7.629  0.0000E+00  0.3323E+01  0.1450E+02  0.1450E+02
     -7.556  0.3501E+01  0.1227E+00  0.1476E+02  0.1451E+02
     -7.483  0.5354E+01  0.8983E+01  0.1517E+02  0.1517E+02
     -7.410  0.7249E+01  0.6827E+01  0.1570E+02  0.1567E+02
     -7.336  0.6785E+01  0.6082E+01  0.1619E+02  0.1611E+02
     -7.263  0.6901E+01  0.5370E+01  0.1670E+02  0.1651E+02
     -7.190  0.3224E+01  0.3742E+01  0.1694E+02  0.1679E+02
     -7.117  0.6763E+00  0.2923E+01  0.1700E+02  0.1700E+02
     -7.044  0.2271E+01  0.2276E+01  0.1717E+02  0.1717E+02
     -6.970  0.9566E+01  0.5591E+01  0.1787E+02  0.1758E+02
     -6.897  0.1501E+02  0.1535E+02  0.1898E+02  0.1871E+02
     -6.824  0.1240E+02  0.1244E+02  0.1989E+02  0.1962E+02
     -6.751  0.1225E+02  0.1152E+02  0.2079E+02  0.2047E+02
     -6.677  0.1262E+02  0.1204E+02  0.2172E+02  0.2139E+02
     -6.604  0.6042E+01  0.9852E+01  0.2217E+02  0.2211E+02
     -6.531  0.6628E+01  0.5966E+01  0.2266E+02  0.2255E+02
     -6.458  0.6434E+01  0.3671E+01  0.2314E+02  0.2283E+02
     -6.385  0.8131E+01  0.1077E+02  0.2374E+02  0.2362E+02
     -6.311  0.9627E+01  0.7207E+01  0.2445E+02  0.2416E+02
     -6.238  0.1200E+02  0.1393E+02  0.2533E+02  0.2518E+02
     -6.165  0.6981E+01  0.6733E+01  0.2585E+02  0.2568E+02
     -6.092  0.1197E+02  0.9630E+01  0.2673E+02  0.2638E+02
     -6.019  0.2003E+02  0.1806E+02  0.2822E+02  0.2771E+02
     -5.945  0.9108E+01  0.1115E+02  0.2890E+02  0.2854E+02
     -5.872  0.1957E+02  0.2152E+02  0.3034E+02  0.3012E+02
     -5.799  0.1045E+02  0.1138E+02  0.3112E+02  0.3097E+02
     -5.726  0.1531E+02  0.1027E+02  0.3224E+02  0.3173E+02
     -5.652  0.1647E+02  0.1828E+02  0.3348E+02  0.3309E+02
     -5.579  0.7404E+01  0.1038E+02  0.3404E+02  0.3385E+02
     -5.506  0.1067E+02  0.1193E+02  0.3483E+02  0.3473E+02
     -5.433  0.1642E+02  0.1216E+02  0.3603E+02  0.3562E+02
     -5.360  0.1032E+02  0.1263E+02  0.3680E+02  0.3656E+02
     -5.286  0.1241E+02  0.1407E+02  0.3772E+02  0.3761E+02
     -5.213  0.8767E+01  0.7580E+01  0.3836E+02  0.3816E+02
     -5.140  0.1525E+02  0.1252E+02  0.3948E+02  0.3909E+02
     -5.067  0.1359E+02  0.1746E+02  0.4048E+02  0.4037E+02
     -4.994  0.1484E+02  0.1171E+02  0.4157E+02  0.4123E+02
     -4.920  0.1129E+02  0.1024E+02  0.4241E+02  0.4198E+02
     -4.847  0.1130E+02  0.1537E+02  0.4326E+02  0.4311E+02
     -4.774  0.1042E+02  0.6509E+01  0.4402E+02  0.4359E+02
     -4.701  0.1261E+02  0.1519E+02  0.4495E+02  0.4471E+02
     -4.627  0.1806E+02  0.1547E+02  0.4628E+02  0.4585E+02
     -4.554  0.1017E+02  0.1550E+02  0.4703E+02  0.4700E+02
     -4.481  0.7163E+01  0.6949E+01  0.4756E+02  0.4751E+02
     -4.408  0.1039E+02  0.7616E+01  0.4832E+02  0.4807E+02
     -4.335  0.9913E+01  0.1123E+02  0.4906E+02  0.4889E+02
     -4.261  0.1410E+02  0.1493E+02  0.5009E+02  0.4998E+02
     -4.188  0.1105E+02  0.9581E+01  0.5090E+02  0.5071E+02
     -4.115  0.1632E+02  0.1710E+02  0.5210E+02  0.5197E+02
     -4.042  0.1025E+02  0.8818E+01  0.5285E+02  0.5263E+02
     -3.969  0.1107E+02  0.1088E+02  0.5367E+02  0.5342E+02
     -3.895  0.9706E+01  0.1078E+02  0.5439E+02  0.5424E+02
     -3.822  0.7841E+01  0.7258E+01  0.5496E+02  0.5478E+02
     -3.749  0.1025E+02  0.7230E+01  0.5572E+02  0.5533E+02
     -3.676  0.1085E+02  0.1339E+02  0.5653E+02  0.5633E+02
     -3.602  0.1455E+02  0.1329E+02  0.5760E+02  0.5733E+02
     -3.529  0.1106E+02  0.1323E+02  0.5841E+02  0.5831E+02
     -3.456  0.6600E+01  0.6870E+01  0.5890E+02  0.5881E+02
     -3.383  0.1784E+02  0.1531E+02  0.6020E+02  0.5996E+02
     -3.310  0.9026E+01  0.1004E+02  0.6088E+02  0.6075E+02
     -3.236  0.1236E+02  0.1055E+02  0.6180E+02  0.6152E+02
     -3.163  0.7393E+01  0.8635E+01  0.6235E+02  0.6217E+02
     -3.090  0.1613E+02  0.1591E+02  0.6353E+02  0.6333E+02
     -3.017  0.2799E+01  0.4425E+01  0.6376E+02  0.6366E+02
     -2.944  0.1102E+02  0.6368E+01  0.6458E+02  0.6414E+02
     -2.870  0.1381E+02  0.1551E+02  0.6562E+02  0.6527E+02
     -2.797  0.1003E+02  0.1080E+02  0.6636E+02  0.6608E+02
     -2.724  0.6982E+01  0.8527E+01  0.6688E+02  0.6670E+02
     -2.651  0.5612E+01  0.6218E+01  0.6730E+02  0.6717E+02
     -2.577  0.8246E+01  0.6800E+01  0.6791E+02  0.6767E+02
     -2.504  0.1013E+02  0.1230E+02  0.6867E+02  0.6857E+02
     -2.431  0.1062E+02  0.1022E+02  0.6944E+02  0.6933E+02
     -2.358  0.1831E+02  0.1263E+02  0.7078E+02  0.7026E+02
     -2.285  0.2676E+01  0.9456E+01  0.7100E+02  0.7097E+02
     -2.211  0.9563E+01  0.7592E+01  0.7170E+02  0.7152E+02
     -2.138  0.9282E+01  0.9620E+01  0.7239E+02  0.7223E+02
     -2.065  0.1613E+02  0.1226E+02  0.7358E+02  0.7313E+02
     -1.992  0.9262E+01  0.1566E+02  0.7428E+02  0.7428E+02
     -1.919  0.1026E+02  0.7710E+01  0.7503E+02  0.7484E+02
     -1.845  0.1286E+02  0.1073E+02  0.7597E+02  0.7564E+02
     -1.772  0.5596E+01  0.6748E+01  0.7639E+02  0.7614E+02
     -1.699  0.8364E+01  0.9910E+01  0.7702E+02  0.7686E+02
     -1.626  0.1990E+02  0.1515E+02  0.7848E+02  0.7797E+02
     -1.552  0.1927E+02  0.2272E+02  0.7991E+02  0.7965E+02
     -1.479  0.1074E+02  0.1211E+02  0.8070E+02  0.8058E+02
     -1.406  0.1203E+02  0.8778E+01  0.8158E+02  0.8124E+02
     -1.333  0.2411E+02  0.2183E+02  0.8335E+02  0.8283E+02
     -1.260  0.1948E+02  0.2079E+02  0.8480E+02  0.8438E+02
     -1.186  0.1062E+02  0.1260E+02  0.8558E+02  0.8532E+02
     -1.113  0.1697E+02  0.1298E+02  0.8683E+02  0.8628E+02
     -1.040  0.1348E+02  0.1274E+02  0.8782E+02  0.8721E+02
     -0.967  0.1080E+02  0.1701E+02  0.8864E+02  0.8846E+02
     -0.893  0.7167E+01  0.5317E+01  0.8917E+02  0.8886E+02
     -0.820  0.1382E+02  0.1439E+02  0.9019E+02  0.8991E+02
     -0.747  0.1406E+02  0.1480E+02  0.9124E+02  0.9100E+02
     -0.674  0.1520E+02  0.1214E+02  0.9235E+02  0.9190E+02
     -0.601  0.9634E+01  0.1232E+02  0.9308E+02  0.9282E+02
     -0.527  0.1289E+02  0.1345E+02  0.9404E+02  0.9380E+02
     -0.454  0.1377E+02  0.1370E+02  0.9505E+02  0.9482E+02
     -0.381  0.1534E+02  0.1416E+02  0.9618E+02  0.9589E+02
     -0.308  0.1445E+02  0.1298E+02  0.9724E+02  0.9684E+02
     -0.235  0.1302E+02  0.1525E+02  0.9820E+02  0.9796E+02
     -0.161  0.1431E+02  0.1240E+02  0.9925E+02  0.9887E+02
     -0.088  0.1112E+02  0.1552E+02  0.1001E+03  0.1000E+03
     -0.015  0.1899E+02  0.1451E+02  0.1015E+03  0.1011E+03
      0.058  0.8993E+01  0.9888E+01  0.1022E+03  0.1018E+03
      0.132  0.8411E+01  0.1190E+02  0.1028E+03  0.1027E+03
      0.205  0.1048E+02  0.8902E+01  0.1036E+03  0.1034E+03
      0.278  0.1102E+02  0.1255E+02  0.1044E+03  0.1043E+03
      0.351  0.1302E+02  0.7087E+01  0.1053E+03  0.1048E+03
      0.424  0.1462E+02  0.1846E+02  0.1064E+03  0.1062E+03
      0.498  0.1938E+02  0.1611E+02  0.1079E+03  0.1074E+03
      0.571  0.1220E+02  0.1548E+02  0.1088E+03  0.1085E+03
      0.644  0.1599E+02  0.1441E+02  0.1100E+03  0.1096E+03
      0.717  0.1208E+02  0.1417E+02  0.1109E+03  0.1106E+03
      0.790  0.1583E+02  0.1246E+02  0.1120E+03  0.1115E+03
      0.864  0.1187E+02  0.1515E+02  0.1129E+03  0.1127E+03
      0.937  0.1264E+02  0.1415E+02  0.1139E+03  0.1137E+03
      1.010  0.1620E+02  0.1652E+02  0.1151E+03  0.1149E+03
      1.083  0.5935E+01  0.4033E+01  0.1155E+03  0.1152E+03
      1.157  0.2005E+02  0.1816E+02  0.1170E+03  0.1165E+03
      1.230  0.1822E+02  0.1897E+02  0.1183E+03  0.1179E+03
      1.303  0.1371E+02  0.1399E+02  0.1194E+03  0.1190E+03
      1.376  0.1310E+02  0.1657E+02  0.1203E+03  0.1202E+03
      1.449  0.1256E+02  0.1058E+02  0.1212E+03  0.1210E+03
      1.523  0.1540E+02  0.1371E+02  0.1224E+03  0.1220E+03
      1.596  0.1781E+02  0.1766E+02  0.1237E+03  0.1233E+03
      1.669  0.1544E+02  0.1670E+02  0.1249E+03  0.1245E+03
      1.742  0.2107E+02  0.2428E+02  0.1264E+03  0.1263E+03
      1.815  0.2251E+02  0.1886E+02  0.1281E+03  0.1277E+03
      1.889  0.1733E+02  0.1991E+02  0.1294E+03  0.1292E+03
      1.962  0.1848E+02  0.1443E+02  0.1307E+03  0.1303E+03
      2.035  0.2402E+02  0.2300E+02  0.1325E+03  0.1319E+03
      2.108  0.1704E+02  0.2255E+02  0.1338E+03  0.1336E+03
      2.182  0.2283E+02  0.1989E+02  0.1354E+03  0.1350E+03
      2.255  0.2821E+02  0.2858E+02  0.1375E+03  0.1372E+03
      2.328  0.1743E+02  0.1646E+02  0.1388E+03  0.1384E+03
      2.401  0.2049E+02  0.2006E+02  0.1403E+03  0.1399E+03
      2.474  0.2008E+02  0.2131E+02  0.1418E+03  0.1415E+03
      2.548  0.2103E+02  0.1871E+02  0.1433E+03  0.1429E+03
      2.621  0.2048E+02  0.2104E+02  0.1449E+03  0.1444E+03
      2.694  0.1719E+02  0.2040E+02  0.1462E+03  0.1459E+03
      2.767  0.2252E+02  0.2113E+02  0.1478E+03  0.1475E+03
      2.840  0.2532E+02  0.2331E+02  0.1497E+03  0.1492E+03
      2.914  0.2891E+02  0.2943E+02  0.1518E+03  0.1514E+03
      2.987  0.1961E+02  0.1631E+02  0.1533E+03  0.1526E+03
      3.060  0.1956E+02  0.2514E+02  0.1547E+03  0.1544E+03
      3.133  0.1971E+02  0.2015E+02  0.1562E+03  0.1559E+03
      3.207  0.1904E+02  0.1803E+02  0.1576E+03  0.1572E+03
      3.280  0.3253E+02  0.2849E+02  0.1600E+03  0.1593E+03
      3.353  0.1534E+02  0.2173E+02  0.1611E+03  0.1610E+03
      3.426  0.1683E+02  0.1224E+02  0.1623E+03  0.1619E+03
      3.499  0.1920E+02  0.2206E+02  0.1638E+03  0.1635E+03
      3.573  0.1691E+02  0.1753E+02  0.1650E+03  0.1648E+03
      3.646  0.1410E+02  0.9834E+01  0.1660E+03  0.1656E+03
      3.719  0.2194E+02  0.2416E+02  0.1676E+03  0.1673E+03
      3.792  0.1904E+02  0.1950E+02  0.1691E+03  0.1688E+03
      3.865  0.9870E+01  0.1127E+02  0.1698E+03  0.1696E+03
      3.939  0.1485E+02  0.1257E+02  0.1709E+03  0.1705E+03
      4.012  0.1942E+02  0.1842E+02  0.1723E+03  0.1719E+03
      4.085  0.1564E+02  0.1489E+02  0.1735E+03  0.1730E+03
      4.158  0.8653E+01  0.1019E+02  0.1741E+03  0.1738E+03
      4.232  0.1536E+02  0.1685E+02  0.1752E+03  0.1750E+03
      4.305  0.1484E+02  0.1458E+02  0.1763E+03  0.1761E+03
      4.378  0.7138E+01  0.6787E+01  0.1769E+03  0.1766E+03
      4.451  0.1474E+02  0.1340E+02  0.1779E+03  0.1776E+03
      4.524  0.1023E+02  0.1326E+02  0.1787E+03  0.1786E+03
      4.598  0.1010E+02  0.1008E+02  0.1794E+03  0.1793E+03
      4.671  0.1848E+02  0.1572E+02  0.1808E+03  0.1805E+03
      4.744  0.1605E+02  0.1288E+02  0.1820E+03  0.1814E+03
      4.817  0.4441E+01  0.1007E+02  0.1823E+03  0.1822E+03
      4.890  0.6074E+01  0.5823E+01  0.1828E+03  0.1826E+03
      4.964  0.1647E+02  0.1347E+02  0.1840E+03  0.1836E+03
      5.037  0.8965E+01  0.1119E+02  0.1846E+03  0.1844E+03
      5.110  0.1189E+02  0.1175E+02  0.1855E+03  0.1853E+03
      5.183  0.1546E+02  0.1219E+02  0.1866E+03  0.1862E+03
      5.257  0.1948E+02  0.2041E+02  0.1881E+03  0.1877E+03
      5.330  0.1138E+02  0.1074E+02  0.1889E+03  0.1885E+03
      5.403  0.1778E+02  0.1572E+02  0.1902E+03  0.1897E+03
      5.476  0.1495E+02  0.1869E+02  0.1914E+03  0.1910E+03
      5.549  0.1150E+02  0.1163E+02  0.1922E+03  0.1919E+03
      5.623  0.1789E+02  0.1043E+02  0.1935E+03  0.1927E+03
      5.696  0.1764E+02  0.2307E+02  0.1948E+03  0.1944E+03
      5.769  0.2200E+02  0.2148E+02  0.1964E+03  0.1960E+03
      5.842  0.9808E+01  0.1338E+02  0.1972E+03  0.1970E+03
      5.916  0.1678E+02  0.1210E+02  0.1984E+03  0.1978E+03
      5.989  0.2131E+02  0.2373E+02  0.2000E+03  0.1996E+03
      6.062  0.2108E+02  0.2048E+02  0.2015E+03  0.2011E+03
      6.135  0.3089E+02  0.3032E+02  0.2038E+03  0.2033E+03
      6.208  0.2110E+02  0.2329E+02  0.2054E+03  0.2051E+03
      6.282  0.1789E+02  0.1634E+02  0.2067E+03  0.2063E+03
      6.355  0.1883E+02  0.1850E+02  0.2081E+03  0.2076E+03
      6.428  0.1662E+02  0.1810E+02  0.2093E+03  0.2090E+03
      6.501  0.1503E+02  0.1295E+02  0.2104E+03  0.2099E+03
      6.574  0.2678E+02  0.2925E+02  0.2124E+03  0.2121E+03
      6.648  0.2108E+02  0.1690E+02  0.2140E+03  0.2133E+03
      6.721  0.2546E+02  0.2817E+02  0.2158E+03  0.2154E+03
      6.794  0.1367E+02  0.1813E+02  0.2168E+03  0.2167E+03
      6.867  0.2175E+02  0.1755E+02  0.2184E+03  0.2180E+03
      6.941  0.2624E+02  0.2290E+02  0.2204E+03  0.2197E+03
      7.014  0.2112E+02  0.2262E+02  0.2219E+03  0.2214E+03
      7.087  0.2004E+02  0.1636E+02  0.2235E+03  0.2226E+03
      7.160  0.1608E+02  0.2138E+02  0.2246E+03  0.2242E+03
      7.233  0.2680E+02  0.2574E+02  0.2266E+03  0.2261E+03
      7.307  0.2251E+02  0.2414E+02  0.2283E+03  0.2279E+03
      7.380  0.1883E+02  0.1944E+02  0.2297E+03  0.2293E+03
      7.453  0.1956E+02  0.1867E+02  0.2311E+03  0.2307E+03
      7.526  0.9534E+01  0.1186E+02  0.2318E+03  0.2316E+03
      7.599  0.2456E+01  0.5778E+01  0.2320E+03  0.2320E+03
      7.673  0.0000E+00  0.0000E+00  0.2320E+03  0.2320E+03
      7.746  0.0000E+00  0.0000E+00  0.2320E+03  0.2320E+03
      7.819  0.0000E+00  0.0000E+00  0.2320E+03  0.2320E+03
      7.892  0.0000E+00  0.0000E+00  0.2320E+03  0.2320E+03
      7.966  0.0000E+00  0.0000E+00  0.2320E+03  0.2320E+03
      8.039  0.0000E+00  0.0000E+00  0.2320E+03  0.2320E+03
      8.112  0.0000E+00  0.0000E+00  0.2320E+03  0.2320E+03
      8.185  0.0000E+00  0.0000E+00  0.2320E+03  0.2320E+03
      8.258  0.0000E+00  0.0000E+00  0.2320E+03  0.2320E+03
      8.332  0.0000E+00  0.0000E+00  0.2320E+03  0.2320E+03
      8.405  0.0000E+00  0.0000E+00  0.2320E+03  0.2320E+03
      8.478  0.0000E+00  0.0000E+00  0.2320E+03  0.2320E+03
      8.551  0.0000E+00  0.0000E+00  0.2320E+03  0.2320E+03
