Si and Ge interface calculation         
           1
     8.001338    0.000000    0.000000
    -4.000669   12.002007    0.000000
     0.000000    0.000000    9.429668
   Ge
    48
Direct configuration=     1
   0.00569449  0.99430549  0.00000000
   0.17236120  0.82763886  0.29999992
   0.33902791  0.66097212  0.59999990
   0.67236108  0.32763880  0.00000000
   0.83902776  0.16097212  0.29999992
   0.00569451  0.99430543  0.59999990
   0.33902776  0.66097212  0.00000000
   0.50569445  0.49430540  0.29999992
   0.67236120  0.32763875  0.59999990
   0.08902784  0.16097215  0.14999996
   0.25569457  0.99430543  0.44999990
   0.42236128  0.82763875  0.74999994
   0.75569439  0.49430546  0.14999996
   0.92236120  0.32763880  0.44999990
   0.08902788  0.16097209  0.74999994
   0.42236105  0.82763880  0.14999996
   0.58902782  0.66097218  0.44999990
   0.75569451  0.49430546  0.74999994
   0.50569445  0.99430549  0.00000000
   0.67236114  0.82763886  0.29999992
   0.83902788  0.66097212  0.59999990
   0.17236112  0.32763880  0.00000000
   0.33902785  0.16097213  0.29999992
   0.50569457  0.99430543  0.59999990
   0.83902776  0.66097212  0.00000000
   0.00569451  0.49430543  0.29999992
   0.17236114  0.32763875  0.59999990
   0.58902782  0.16097215  0.14999996
   0.75569457  0.99430549  0.44999990
   0.92236131  0.82763880  0.74999994
   0.25569448  0.49430549  0.14999996
   0.42236125  0.32763884  0.44999990
   0.58902800  0.16097212  0.74999994
   0.92236108  0.82763886  0.14999996
   0.08902776  0.66097212  0.44999990
   0.25569451  0.49430543  0.74999994
   0.96284664  0.97346187  0.74999988
   0.57395768  0.69568408  0.84999990
   0.18506879  0.41790623  0.94999993
   0.46284661  0.97346187  0.74999988
   0.07395769  0.69568408  0.84999990
   0.68506873  0.41790623  0.94999993
   0.76840216  0.08457293  0.79999983
   0.37951320  0.80679512  0.89999998
   0.99062419  0.52901721  0.00000000
   0.26840210  0.08457293  0.79999983
   0.87951320  0.80679512  0.89999998
   0.49062419  0.52901721  0.00000000
