 120 120   0   0
  0.2648796E+02  0.9406768E-09  0.1330318E-08  0.2540001E-08  0.5000000E-15
  1.000000000000000E-004
  CAR 
 Si and Ge interface calculation         
      7.21241043     -8.41549994  301      4.32570191      1.00000000
     -8.415  0.0000E+00  0.0000E+00  0.0000E+00  0.0000E+00
     -8.363  0.0000E+00  0.0000E+00  0.0000E+00  0.0000E+00
     -8.311  0.0000E+00  0.0000E+00  0.0000E+00  0.0000E+00
     -8.259  0.0000E+00  0.0000E+00  0.0000E+00  0.0000E+00
     -8.207  0.0000E+00  0.0000E+00  0.0000E+00  0.0000E+00
     -8.155  0.0000E+00  0.0000E+00  0.0000E+00  0.0000E+00
     -8.103  0.0000E+00  0.0000E+00  0.0000E+00  0.0000E+00
     -8.051  0.0000E+00  0.0000E+00  0.0000E+00  0.0000E+00
     -7.999  0.0000E+00  0.0000E+00  0.0000E+00  0.0000E+00
     -7.947  0.0000E+00  0.0000E+00  0.0000E+00  0.0000E+00
     -7.895  0.0000E+00  0.0000E+00  0.0000E+00  0.0000E+00
     -7.842  0.0000E+00  0.0000E+00  0.0000E+00  0.0000E+00
     -7.790  0.0000E+00  0.0000E+00  0.0000E+00  0.0000E+00
     -7.738  0.8821E-05  0.2781E-06  0.4595E-06  0.1448E-07
     -7.686  0.6375E+01  0.6258E+01  0.3321E+00  0.3260E+00
     -7.634  0.2363E-01  0.1405E+00  0.3333E+00  0.3333E+00
     -7.582  0.1444E+00  0.2255E-01  0.3409E+00  0.3345E+00
     -7.530  0.2544E+02  0.2551E+02  0.1666E+01  0.1664E+01
     -7.478  0.7330E-02  0.5797E-01  0.1667E+01  0.1667E+01
     -7.426  0.2319E+02  0.1981E+02  0.2875E+01  0.2699E+01
     -7.374  0.8807E+01  0.1218E+02  0.3333E+01  0.3333E+01
     -7.322  0.2621E+02  0.2479E+02  0.4699E+01  0.4625E+01
     -7.269  0.7236E+01  0.7621E+01  0.5076E+01  0.5022E+01
     -7.217  0.3687E+02  0.3721E+02  0.6997E+01  0.6960E+01
     -7.165  0.1173E+00  0.7716E+00  0.7003E+01  0.7000E+01
     -7.113  0.6347E+01  0.6397E+01  0.7333E+01  0.7333E+01
     -7.061  0.1987E+02  0.1463E+02  0.8368E+01  0.8096E+01
     -7.009  0.1210E+02  0.1714E+02  0.8999E+01  0.8988E+01
     -6.957  0.1740E+02  0.1427E+02  0.9905E+01  0.9731E+01
     -6.905  0.2102E+02  0.2435E+02  0.1100E+02  0.1100E+02
     -6.853  0.2172E-01  0.1125E-02  0.1100E+02  0.1100E+02
     -6.801  0.1475E+02  0.1337E+02  0.1177E+02  0.1170E+02
     -6.749  0.9647E+01  0.9581E+01  0.1227E+02  0.1220E+02
     -6.696  0.2063E+02  0.1766E+02  0.1335E+02  0.1312E+02
     -6.644  0.3169E+02  0.3560E+02  0.1500E+02  0.1497E+02
     -6.592  0.1314E+02  0.1338E+02  0.1568E+02  0.1567E+02
     -6.540  0.1250E+02  0.1279E+02  0.1633E+02  0.1633E+02
     -6.488  0.3620E+01  0.8053E+00  0.1652E+02  0.1638E+02
     -6.436  0.9177E+01  0.1199E+02  0.1700E+02  0.1700E+02
     -6.384  0.5988E+01  0.1736E+01  0.1731E+02  0.1709E+02
     -6.332  0.2601E+02  0.3025E+02  0.1867E+02  0.1867E+02
     -6.280  0.6416E+01  0.6226E+01  0.1900E+02  0.1899E+02
     -6.228  0.2327E+02  0.1949E+02  0.2021E+02  0.2001E+02
     -6.175  0.2474E+01  0.6294E+01  0.2034E+02  0.2033E+02
     -6.123  0.5555E+02  0.5106E+02  0.2324E+02  0.2299E+02
     -6.071  0.1689E+02  0.2001E+02  0.2412E+02  0.2404E+02
     -6.019  0.3674E+02  0.3508E+02  0.2603E+02  0.2586E+02
     -5.967  0.3393E+02  0.3486E+02  0.2780E+02  0.2768E+02
     -5.915  0.2054E+02  0.1918E+02  0.2887E+02  0.2868E+02
     -5.863  0.1628E+02  0.1882E+02  0.2972E+02  0.2966E+02
     -5.811  0.1291E+02  0.1326E+02  0.3039E+02  0.3035E+02
     -5.759  0.3749E+02  0.3588E+02  0.3234E+02  0.3222E+02
     -5.707  0.2537E+02  0.2726E+02  0.3366E+02  0.3364E+02
     -5.655  0.1903E+01  0.1017E+01  0.3376E+02  0.3369E+02
     -5.602  0.4178E+02  0.3763E+02  0.3594E+02  0.3565E+02
     -5.550  0.4704E+02  0.4977E+02  0.3839E+02  0.3824E+02
     -5.498  0.2061E+02  0.2133E+02  0.3946E+02  0.3936E+02
     -5.446  0.6947E+02  0.6103E+02  0.4308E+02  0.4254E+02
     -5.394  0.3685E+02  0.4732E+02  0.4500E+02  0.4500E+02
     -5.342  0.2281E+02  0.1837E+02  0.4619E+02  0.4596E+02
     -5.290  0.3004E+02  0.2854E+02  0.4775E+02  0.4744E+02
     -5.238  0.3886E+02  0.4284E+02  0.4978E+02  0.4968E+02
     -5.186  0.3294E+02  0.3072E+02  0.5149E+02  0.5128E+02
     -5.134  0.5698E+02  0.4844E+02  0.5446E+02  0.5380E+02
     -5.082  0.1006E+02  0.2091E+02  0.5499E+02  0.5489E+02
     -5.029  0.3458E+02  0.3105E+02  0.5679E+02  0.5651E+02
     -4.977  0.4833E+02  0.5126E+02  0.5931E+02  0.5918E+02
     -4.925  0.5328E+02  0.4500E+02  0.6208E+02  0.6152E+02
     -4.873  0.3652E+02  0.4399E+02  0.6398E+02  0.6381E+02
     -4.821  0.4288E+02  0.4286E+02  0.6622E+02  0.6604E+02
     -4.769  0.4322E+02  0.4198E+02  0.6847E+02  0.6823E+02
     -4.717  0.5401E+02  0.5662E+02  0.7128E+02  0.7118E+02
     -4.665  0.3020E+02  0.2707E+02  0.7286E+02  0.7259E+02
     -4.613  0.4659E+02  0.4626E+02  0.7528E+02  0.7500E+02
     -4.561  0.3102E+02  0.3032E+02  0.7690E+02  0.7658E+02
     -4.509  0.3533E+02  0.3860E+02  0.7874E+02  0.7859E+02
     -4.456  0.3698E+02  0.3932E+02  0.8066E+02  0.8064E+02
     -4.404  0.2489E+02  0.2217E+02  0.8196E+02  0.8179E+02
     -4.352  0.5043E+02  0.4550E+02  0.8459E+02  0.8416E+02
     -4.300  0.2676E+02  0.3024E+02  0.8598E+02  0.8574E+02
     -4.248  0.4769E+02  0.4514E+02  0.8847E+02  0.8809E+02
     -4.196  0.4330E+02  0.4785E+02  0.9072E+02  0.9058E+02
     -4.144  0.3731E+02  0.3791E+02  0.9267E+02  0.9256E+02
     -4.092  0.5045E+02  0.4850E+02  0.9529E+02  0.9509E+02
     -4.040  0.3164E+02  0.2815E+02  0.9694E+02  0.9655E+02
     -3.988  0.4381E+02  0.4609E+02  0.9922E+02  0.9895E+02
     -3.935  0.2938E+02  0.3310E+02  0.1008E+03  0.1007E+03
     -3.883  0.4637E+02  0.4522E+02  0.1032E+03  0.1030E+03
     -3.831  0.3915E+02  0.3836E+02  0.1052E+03  0.1050E+03
     -3.779  0.3295E+02  0.3226E+02  0.1069E+03  0.1067E+03
     -3.727  0.2810E+02  0.2223E+02  0.1084E+03  0.1079E+03
     -3.675  0.3861E+02  0.3796E+02  0.1104E+03  0.1098E+03
     -3.623  0.2316E+02  0.2938E+02  0.1116E+03  0.1114E+03
     -3.571  0.1951E+02  0.1762E+02  0.1126E+03  0.1123E+03
     -3.519  0.1990E+02  0.2507E+02  0.1137E+03  0.1136E+03
     -3.467  0.4317E+02  0.2849E+02  0.1159E+03  0.1151E+03
     -3.415  0.2088E+02  0.3640E+02  0.1170E+03  0.1170E+03
     -3.362  0.2254E+02  0.1189E+02  0.1182E+03  0.1176E+03
     -3.310  0.3023E+02  0.3995E+02  0.1197E+03  0.1197E+03
     -3.258  0.3123E+02  0.3145E+02  0.1214E+03  0.1213E+03
     -3.206  0.3679E+02  0.3089E+02  0.1233E+03  0.1229E+03
     -3.154  0.8395E+01  0.1430E+02  0.1237E+03  0.1237E+03
     -3.102  0.3029E+02  0.2944E+02  0.1253E+03  0.1252E+03
     -3.050  0.5783E+00  0.2409E+01  0.1253E+03  0.1253E+03
     -2.998  0.2745E+02  0.2606E+02  0.1268E+03  0.1267E+03
     -2.946  0.4327E+02  0.3743E+02  0.1290E+03  0.1286E+03
     -2.894  0.3877E+02  0.4185E+02  0.1310E+03  0.1308E+03
     -2.842  0.3077E+02  0.3243E+02  0.1326E+03  0.1325E+03
     -2.789  0.2923E+02  0.2744E+02  0.1342E+03  0.1339E+03
     -2.737  0.4320E+02  0.4283E+02  0.1364E+03  0.1362E+03
     -2.685  0.2485E+02  0.2900E+02  0.1377E+03  0.1377E+03
     -2.633  0.4154E+02  0.3927E+02  0.1399E+03  0.1397E+03
     -2.581  0.3708E+02  0.3019E+02  0.1418E+03  0.1413E+03
     -2.529  0.4168E+02  0.4338E+02  0.1440E+03  0.1436E+03
     -2.477  0.5038E+02  0.4606E+02  0.1466E+03  0.1460E+03
     -2.425  0.6093E+02  0.6803E+02  0.1498E+03  0.1495E+03
     -2.373  0.5369E+02  0.4575E+02  0.1526E+03  0.1519E+03
     -2.321  0.6199E+02  0.6668E+02  0.1558E+03  0.1554E+03
     -2.269  0.3479E+02  0.4111E+02  0.1576E+03  0.1575E+03
     -2.216  0.2791E+02  0.2570E+02  0.1591E+03  0.1588E+03
     -2.164  0.2780E+02  0.2726E+02  0.1605E+03  0.1603E+03
     -2.112  0.3776E+02  0.4104E+02  0.1625E+03  0.1624E+03
     -2.060  0.4515E+02  0.3818E+02  0.1648E+03  0.1644E+03
     -2.008  0.5331E+02  0.5791E+02  0.1676E+03  0.1674E+03
     -1.956  0.5327E+02  0.5376E+02  0.1704E+03  0.1702E+03
     -1.904  0.3434E+02  0.3047E+02  0.1722E+03  0.1718E+03
     -1.852  0.4685E+02  0.4372E+02  0.1746E+03  0.1741E+03
     -1.800  0.6339E+02  0.6681E+02  0.1779E+03  0.1775E+03
     -1.748  0.3833E+02  0.3923E+02  0.1799E+03  0.1796E+03
     -1.695  0.2586E+02  0.2878E+02  0.1813E+03  0.1811E+03
     -1.643  0.3344E+02  0.3662E+02  0.1830E+03  0.1830E+03
     -1.591  0.5760E+02  0.5169E+02  0.1860E+03  0.1857E+03
     -1.539  0.5001E+02  0.5139E+02  0.1886E+03  0.1884E+03
     -1.487  0.1469E+02  0.1857E+02  0.1894E+03  0.1893E+03
     -1.435  0.3087E+02  0.2929E+02  0.1910E+03  0.1909E+03
     -1.383  0.2024E+02  0.1436E+02  0.1920E+03  0.1916E+03
     -1.331  0.3932E+02  0.4629E+02  0.1941E+03  0.1940E+03
     -1.279  0.2944E+02  0.2712E+02  0.1956E+03  0.1954E+03
     -1.227  0.3815E+02  0.3740E+02  0.1976E+03  0.1974E+03
     -1.175  0.3273E+02  0.3207E+02  0.1993E+03  0.1991E+03
     -1.122  0.3207E+02  0.3565E+02  0.2010E+03  0.2009E+03
     -1.070  0.2910E+02  0.2332E+02  0.2025E+03  0.2021E+03
     -1.018  0.5388E+02  0.5132E+02  0.2053E+03  0.2048E+03
     -0.966  0.1779E+02  0.2422E+02  0.2062E+03  0.2061E+03
     -0.914  0.2111E+02  0.2378E+02  0.2073E+03  0.2073E+03
     -0.862  0.1658E+02  0.1235E+02  0.2082E+03  0.2079E+03
     -0.810  0.2823E+02  0.3307E+02  0.2097E+03  0.2097E+03
     -0.758  0.8585E+01  0.2779E+01  0.2101E+03  0.2098E+03
     -0.706  0.4236E+02  0.4666E+02  0.2123E+03  0.2122E+03
     -0.654  0.2461E+02  0.2202E+02  0.2136E+03  0.2134E+03
     -0.602  0.1485E+02  0.1815E+02  0.2144E+03  0.2143E+03
     -0.549  0.4980E+02  0.4705E+02  0.2170E+03  0.2168E+03
     -0.497  0.1367E+01  0.4196E+01  0.2170E+03  0.2170E+03
     -0.445  0.5034E+02  0.5044E+02  0.2197E+03  0.2196E+03
     -0.393  0.7842E-01  0.6697E+00  0.2197E+03  0.2197E+03
     -0.341  0.1855E+02  0.1581E+02  0.2206E+03  0.2205E+03
     -0.289  0.7952E+00  0.3385E+01  0.2207E+03  0.2207E+03
     -0.237  0.1263E+02  0.1279E+02  0.2213E+03  0.2213E+03
     -0.185  0.1470E+02  0.5690E+01  0.2221E+03  0.2216E+03
     -0.133  0.3649E+02  0.4546E+02  0.2240E+03  0.2240E+03
     -0.081  0.1280E+02  0.1279E+02  0.2247E+03  0.2247E+03
     -0.029  0.1776E+02  0.1266E+02  0.2256E+03  0.2253E+03
      0.024  0.1577E+02  0.1979E+02  0.2264E+03  0.2264E+03
      0.076  0.6877E+02  0.6861E+02  0.2300E+03  0.2299E+03
      0.128  0.1091E+02  0.1007E+02  0.2306E+03  0.2305E+03
      0.180  0.1632E+02  0.1707E+02  0.2314E+03  0.2313E+03
      0.232  0.4824E+02  0.4185E+02  0.2339E+03  0.2335E+03
      0.284  0.7197E+02  0.6860E+02  0.2377E+03  0.2371E+03
      0.336  0.6391E+02  0.6357E+02  0.2410E+03  0.2404E+03
      0.388  0.2862E+02  0.3634E+02  0.2425E+03  0.2423E+03
      0.440  0.5068E+02  0.4833E+02  0.2451E+03  0.2448E+03
      0.492  0.5922E+02  0.5553E+02  0.2482E+03  0.2477E+03
      0.545  0.5241E+02  0.5493E+02  0.2510E+03  0.2506E+03
      0.597  0.6044E+02  0.5555E+02  0.2541E+03  0.2535E+03
      0.649  0.6137E+02  0.6307E+02  0.2573E+03  0.2568E+03
      0.701  0.5782E+02  0.6565E+02  0.2603E+03  0.2602E+03
      0.753  0.3820E+02  0.3627E+02  0.2623E+03  0.2621E+03
      0.805  0.4672E+02  0.4914E+02  0.2647E+03  0.2646E+03
      0.857  0.5637E+02  0.5703E+02  0.2677E+03  0.2676E+03
      0.909  0.5375E+02  0.5292E+02  0.2705E+03  0.2703E+03
      0.961  0.5175E+02  0.4964E+02  0.2732E+03  0.2729E+03
      1.013  0.3235E+02  0.2898E+02  0.2749E+03  0.2744E+03
      1.065  0.4887E+02  0.4824E+02  0.2774E+03  0.2770E+03
      1.118  0.6081E+02  0.6017E+02  0.2806E+03  0.2801E+03
      1.170  0.5779E+02  0.5989E+02  0.2836E+03  0.2832E+03
      1.222  0.7607E+02  0.7343E+02  0.2875E+03  0.2870E+03
      1.274  0.8875E+02  0.8629E+02  0.2922E+03  0.2915E+03
      1.326  0.6206E+02  0.7297E+02  0.2954E+03  0.2953E+03
      1.378  0.6893E+02  0.5854E+02  0.2990E+03  0.2984E+03
      1.430  0.5605E+02  0.5375E+02  0.3019E+03  0.3012E+03
      1.482  0.1106E+03  0.1087E+03  0.3077E+03  0.3068E+03
      1.534  0.9602E+02  0.9693E+02  0.3127E+03  0.3119E+03
      1.586  0.7225E+02  0.7593E+02  0.3164E+03  0.3158E+03
      1.638  0.8082E+02  0.7480E+02  0.3206E+03  0.3197E+03
      1.691  0.9920E+02  0.1034E+03  0.3258E+03  0.3251E+03
      1.743  0.9398E+02  0.8962E+02  0.3307E+03  0.3298E+03
      1.795  0.7301E+02  0.8056E+02  0.3345E+03  0.3340E+03
      1.847  0.8772E+02  0.8024E+02  0.3391E+03  0.3382E+03
      1.899  0.9352E+02  0.9811E+02  0.3439E+03  0.3433E+03
      1.951  0.7850E+02  0.8245E+02  0.3480E+03  0.3476E+03
      2.003  0.8663E+02  0.8304E+02  0.3526E+03  0.3519E+03
      2.055  0.7312E+02  0.7390E+02  0.3564E+03  0.3558E+03
      2.107  0.1109E+03  0.1094E+03  0.3621E+03  0.3615E+03
      2.159  0.7167E+02  0.7618E+02  0.3659E+03  0.3654E+03
      2.211  0.7161E+02  0.6565E+02  0.3696E+03  0.3688E+03
      2.264  0.9407E+02  0.8853E+02  0.3745E+03  0.3735E+03
      2.316  0.7218E+02  0.8477E+02  0.3783E+03  0.3779E+03
      2.368  0.9316E+02  0.8680E+02  0.3831E+03  0.3824E+03
      2.420  0.6923E+02  0.7628E+02  0.3867E+03  0.3864E+03
      2.472  0.8518E+02  0.8316E+02  0.3912E+03  0.3907E+03
      2.524  0.7201E+02  0.7283E+02  0.3949E+03  0.3945E+03
      2.576  0.8194E+02  0.7580E+02  0.3992E+03  0.3984E+03
      2.628  0.3477E+02  0.4343E+02  0.4010E+03  0.4007E+03
      2.680  0.7704E+02  0.7336E+02  0.4050E+03  0.4045E+03
      2.732  0.6241E+02  0.5408E+02  0.4083E+03  0.4073E+03
      2.785  0.9816E+02  0.1007E+03  0.4134E+03  0.4126E+03
      2.837  0.8847E+02  0.9915E+02  0.4180E+03  0.4178E+03
      2.889  0.7026E+02  0.6439E+02  0.4216E+03  0.4211E+03
      2.941  0.4374E+02  0.5151E+02  0.4239E+03  0.4238E+03
      2.993  0.7794E+02  0.6055E+02  0.4280E+03  0.4269E+03
      3.045  0.3983E+02  0.5415E+02  0.4300E+03  0.4298E+03
      3.097  0.7327E+02  0.7250E+02  0.4339E+03  0.4335E+03
      3.149  0.3783E+02  0.3235E+02  0.4358E+03  0.4352E+03
      3.201  0.5488E+02  0.6041E+02  0.4387E+03  0.4384E+03
      3.253  0.5895E+02  0.6292E+02  0.4418E+03  0.4417E+03
      3.305  0.3547E+02  0.2878E+02  0.4436E+03  0.4432E+03
      3.358  0.3347E+02  0.4003E+02  0.4454E+03  0.4452E+03
      3.410  0.6994E+01  0.8319E+01  0.4457E+03  0.4457E+03
      3.462  0.3568E+02  0.2814E+02  0.4476E+03  0.4471E+03
      3.514  0.3030E+02  0.3081E+02  0.4492E+03  0.4487E+03
      3.566  0.5078E+02  0.4429E+02  0.4518E+03  0.4511E+03
      3.618  0.4347E+02  0.5257E+02  0.4541E+03  0.4538E+03
      3.670  0.3086E+02  0.3527E+02  0.4557E+03  0.4556E+03
      3.722  0.5254E+02  0.4716E+02  0.4584E+03  0.4581E+03
      3.774  0.4824E+02  0.4891E+02  0.4609E+03  0.4606E+03
      3.826  0.3457E+02  0.2634E+02  0.4627E+03  0.4620E+03
      3.878  0.4366E+02  0.5728E+02  0.4650E+03  0.4650E+03
      3.931  0.2517E+02  0.1245E+02  0.4663E+03  0.4656E+03
      3.983  0.2600E+02  0.2417E+02  0.4677E+03  0.4669E+03
      4.035  0.2670E+02  0.2747E+02  0.4691E+03  0.4683E+03
      4.087  0.4910E+02  0.4074E+02  0.4716E+03  0.4704E+03
      4.139  0.3900E+02  0.4903E+02  0.4736E+03  0.4730E+03
      4.191  0.1528E+02  0.1392E+02  0.4744E+03  0.4737E+03
      4.243  0.4520E+02  0.4229E+02  0.4768E+03  0.4759E+03
      4.295  0.3977E+02  0.2549E+02  0.4789E+03  0.4773E+03
      4.347  0.3749E+02  0.5476E+02  0.4808E+03  0.4801E+03
      4.399  0.1348E+02  0.1986E+02  0.4815E+03  0.4811E+03
      4.451  0.5313E+01  0.1020E+02  0.4818E+03  0.4817E+03
      4.504  0.2982E+02  0.9780E+01  0.4834E+03  0.4822E+03
      4.556  0.3172E+02  0.4853E+02  0.4850E+03  0.4847E+03
      4.608  0.2868E+02  0.1473E+02  0.4865E+03  0.4855E+03
      4.660  0.5530E+02  0.6362E+02  0.4894E+03  0.4888E+03
      4.712  0.3379E+02  0.2989E+02  0.4911E+03  0.4904E+03
      4.764  0.2356E+02  0.3028E+02  0.4924E+03  0.4919E+03
      4.816  0.3079E+02  0.3430E+02  0.4940E+03  0.4937E+03
      4.868  0.9772E+01  0.1218E+02  0.4945E+03  0.4944E+03
      4.920  0.3638E+02  0.3793E+02  0.4964E+03  0.4963E+03
      4.972  0.3795E+02  0.2804E+02  0.4984E+03  0.4978E+03
      5.025  0.4131E+02  0.4463E+02  0.5005E+03  0.5001E+03
      5.077  0.2916E+02  0.3253E+02  0.5020E+03  0.5018E+03
      5.129  0.2222E+02  0.2364E+02  0.5032E+03  0.5030E+03
      5.181  0.3557E+02  0.3681E+02  0.5050E+03  0.5050E+03
      5.233  0.3434E+02  0.3323E+02  0.5068E+03  0.5067E+03
      5.285  0.3207E+02  0.3225E+02  0.5085E+03  0.5084E+03
      5.337  0.2761E+02  0.2608E+02  0.5099E+03  0.5097E+03
      5.389  0.2310E+02  0.1988E+02  0.5111E+03  0.5108E+03
      5.441  0.6708E+02  0.6015E+02  0.5146E+03  0.5139E+03
      5.493  0.3415E+02  0.4695E+02  0.5164E+03  0.5163E+03
      5.545  0.6447E+02  0.5992E+02  0.5198E+03  0.5195E+03
      5.598  0.5364E+02  0.5218E+02  0.5226E+03  0.5222E+03
      5.650  0.5977E+02  0.6688E+02  0.5257E+03  0.5257E+03
      5.702  0.6072E+02  0.5364E+02  0.5288E+03  0.5285E+03
      5.754  0.3475E+02  0.3962E+02  0.5306E+03  0.5305E+03
      5.806  0.4446E+02  0.4065E+02  0.5330E+03  0.5326E+03
      5.858  0.8503E+02  0.9003E+02  0.5374E+03  0.5373E+03
      5.910  0.6981E+02  0.6452E+02  0.5410E+03  0.5407E+03
      5.962  0.6803E+02  0.6606E+02  0.5446E+03  0.5441E+03
      6.014  0.3942E+02  0.4058E+02  0.5466E+03  0.5462E+03
      6.066  0.8750E+02  0.8632E+02  0.5512E+03  0.5507E+03
      6.118  0.7085E+02  0.6942E+02  0.5549E+03  0.5544E+03
      6.171  0.5970E+02  0.5893E+02  0.5580E+03  0.5574E+03
      6.223  0.5926E+02  0.6030E+02  0.5611E+03  0.5606E+03
      6.275  0.5695E+02  0.5520E+02  0.5640E+03  0.5634E+03
      6.327  0.7686E+02  0.7748E+02  0.5680E+03  0.5675E+03
      6.379  0.6678E+02  0.6558E+02  0.5715E+03  0.5709E+03
      6.431  0.2910E+02  0.4105E+02  0.5730E+03  0.5730E+03
      6.483  0.5588E+02  0.4400E+02  0.5760E+03  0.5753E+03
      6.535  0.9409E+00  0.1287E+02  0.5760E+03  0.5760E+03
      6.587  0.0000E+00  0.0000E+00  0.5760E+03  0.5760E+03
      6.639  0.0000E+00  0.0000E+00  0.5760E+03  0.5760E+03
      6.691  0.0000E+00  0.0000E+00  0.5760E+03  0.5760E+03
      6.744  0.0000E+00  0.0000E+00  0.5760E+03  0.5760E+03
      6.796  0.0000E+00  0.0000E+00  0.5760E+03  0.5760E+03
      6.848  0.0000E+00  0.0000E+00  0.5760E+03  0.5760E+03
      6.900  0.0000E+00  0.0000E+00  0.5760E+03  0.5760E+03
      6.952  0.0000E+00  0.0000E+00  0.5760E+03  0.5760E+03
      7.004  0.0000E+00  0.0000E+00  0.5760E+03  0.5760E+03
      7.056  0.0000E+00  0.0000E+00  0.5760E+03  0.5760E+03
      7.108  0.0000E+00  0.0000E+00  0.5760E+03  0.5760E+03
      7.160  0.0000E+00  0.0000E+00  0.5760E+03  0.5760E+03
      7.212  0.0000E+00  0.0000E+00  0.5760E+03  0.5760E+03
