 vasp.6.4.3 19Mar24 (build Oct 22 2024 11:23:12) complex                        
  
 executed on             LinuxIFC date 2025.04.30  08:56:52
 running   16 mpi-ranks, on    1 nodes
 distrk:  each k-point on   16 cores,    1 groups
 distr:  one band on NCORE=  16 cores,    1 groups


--------------------------------------------------------------------------------------------------------


 INCAR:
   SYSTEM = Si001 and Ge011 interface calculation
   ISTART = 0
   ICHARG = 2
   LWAVE = .FALSE.
   LREAL = AUTO
   ENCUT = 700
   ENAUG = 900
   ADDGRID = .TRUE.
   LMAXMIX = 6
   LASPH = .TRUE.
   LMIXTAU = .TRUE.
   NCORE = 16
   NELM = 100
   NBANDS = 274
   EDIFF = 1d-7
   AMIX = 0.6
   ISMEAR = 0
   SIGMA = 0.01
   NELECT = 456
   ISPIN = 2
   NUPDOWN = 1
   LVTOT = .FALSE.
   LVHAR = .TRUE.

 POTCAR:    PAW_PBE Si 05Jan2001                  
 POTCAR:    PAW_PBE Ge 05Jan2001                  
 -----------------------------------------------------------------------------
|                                                                             |
|           W    W    AA    RRRRR   N    N  II  N    N   GGGG   !!!           |
|           W    W   A  A   R    R  NN   N  II  NN   N  G    G  !!!           |
|           W    W  A    A  R    R  N N  N  II  N N  N  G       !!!           |
|           W WW W  AAAAAA  RRRRR   N  N N  II  N  N N  G  GGG   !            |
|           WW  WW  A    A  R   R   N   NN  II  N   NN  G    G                |
|           W    W  A    A  R    R  N    N  II  N    N   GGGG   !!!           |
|                                                                             |
|     You use a magnetic or noncollinear calculation, but did not specify     |
|     the initial magnetic moment with the MAGMOM tag. Note that a            |
|     default of 8.772e-3 will be used for all atoms. This ferromagnetic      |
|     setup may break the symmetry of the crystal, in particular it may       |
|     rule out finding an antiferromagnetic solution. Thence, we              |
|     recommend setting the initial magnetic moment manually or verifying     |
|     carefully that this magnetic setup is desired.                          |
|                                                                             |
 -----------------------------------------------------------------------------

 -----------------------------------------------------------------------------
|                                                                             |
|           W    W    AA    RRRRR   N    N  II  N    N   GGGG   !!!           |
|           W    W   A  A   R    R  NN   N  II  NN   N  G    G  !!!           |
|           W    W  A    A  R    R  N N  N  II  N N  N  G       !!!           |
|           W WW W  AAAAAA  RRRRR   N  N N  II  N  N N  G  GGG   !            |
|           WW  WW  A    A  R   R   N   NN  II  N   NN  G    G                |
|           W    W  A    A  R    R  N    N  II  N    N   GGGG   !!!           |
|                                                                             |
|     For optimal performance we recommend to set                             |
|       NCORE = 2 up to number-of-cores-per-socket                            |
|     NCORE specifies how many cores store one orbital (NPAR=cpu/NCORE).      |
|     This setting can greatly improve the performance of VASP for DFT.       |
|     The default, NCORE=1 might be grossly inefficient on modern             |
|     multi-core architectures or massively parallel machines. Do your        |
|     own testing! More info at https://www.vasp.at/wiki/index.php/NCORE      |
|     Unfortunately you need to use the default for GW and RPA                |
|     calculations (for HF NCORE is supported but not extensively tested      |
|     yet).                                                                   |
|                                                                             |
 -----------------------------------------------------------------------------

 POTCAR:    PAW_PBE Si 05Jan2001                  
   VRHFIN =Si: s2p2                                                                                 
   LEXCH  = PE                                                                                      
   EATOM  =   103.0669 eV,    7.5752 Ry                                                             
                                                                                                    
   TITEL  = PAW_PBE Si 05Jan2001                                                                    
   LULTRA =        F    use ultrasoft PP ?                                                          
   IUNSCR =        1    unscreen: 0-lin 1-nonlin 2-no                                               
   RPACOR =    1.500    partial core radius                                                         
   POMASS =   28.085; ZVAL   =    4.000    mass and valenz                                          
   RCORE  =    1.900    outmost cutoff radius                                                       
   RWIGS  =    2.480; RWIGS  =    1.312    wigner-seitz radius (au A)                               
   ENMAX  =  245.345; ENMIN  =  184.009 eV                                                          
   ICORE  =        2    local potential                                                             
   LCOR   =        T    correct aug charges                                                         
   LPAW   =        T    paw PP                                                                      
   EAUG   =  322.069                                                                                
   DEXC   =    0.000                                                                                
   RMAX   =    1.950    core radius for proj-oper                                                   
   RAUG   =    1.300    factor for augmentation sphere                                              
   RDEP   =    1.993    radius for radial grids                                                     
   RDEPT  =    1.837    core radius for aug-charge                                                  
                                                                                                    
   Atomic configuration                                                                             
    6 entries                                                                                       
     n  l   j            E        occ.                                                              
     1  0  0.50     -1785.8828   2.0000                                                             
     2  0  0.50      -139.4969   2.0000                                                             
     2  1  1.50       -95.5546   6.0000                                                             
     3  0  0.50       -10.8127   2.0000                                                             
     3  1  0.50        -4.0811   2.0000                                                             
     3  2  1.50        -4.0817   0.0000                                                             
   Description                                                                                      
     l       E           TYP  RCUT    TYP  RCUT                                                     
     0    -10.8127223     23  1.900                                                                 
     0     -7.6451159     23  1.900                                                                 
     1     -4.0811372     23  1.900                                                                 
     1      2.4879257     23  1.900                                                                 
     2     -4.0817478      7  1.900                                                                 
  local pseudopotential read in
  partial core-charges read in
  partial kinetic energy density read in
  atomic valenz-charges read in
  non local Contribution for L=           0  read in
    real space projection operators read in
  non local Contribution for L=           0  read in
    real space projection operators read in
  non local Contribution for L=           1  read in
    real space projection operators read in
  non local Contribution for L=           1  read in
    real space projection operators read in
    PAW grid and wavefunctions read in
 
   number of l-projection  operators is LMAX  =           4
   number of lm-projection operators is LMMAX =           8
 
 POTCAR:    PAW_PBE Ge 05Jan2001                  
   VRHFIN =Ge: s2p2                                                                                 
   LEXCH  = PE                                                                                      
   EATOM  =   104.9960 eV,    7.7170 Ry                                                             
                                                                                                    
   TITEL  = PAW_PBE Ge 05Jan2001                                                                    
   LULTRA =        F    use ultrasoft PP ?                                                          
   IUNSCR =        1    unscreen: 0-lin 1-nonlin 2-no                                               
   RPACOR =    2.170    partial core radius                                                         
   POMASS =   72.610; ZVAL   =    4.000    mass and valenz                                          
   RCORE  =    2.300    outmost cutoff radius                                                       
   RWIGS  =    2.300; RWIGS  =    1.217    wigner-seitz radius (au A)                               
   ENMAX  =  173.807; ENMIN  =  130.355 eV                                                          
   ICORE  =        3    local potential                                                             
   LCOR   =        T    correct aug charges                                                         
   LPAW   =        T    paw PP                                                                      
   EAUG   =  385.843                                                                                
   DEXC   =    0.000                                                                                
   RMAX   =    2.342    core radius for proj-oper                                                   
   RAUG   =    1.300    factor for augmentation sphere                                              
   RDEP   =    2.318    radius for radial grids                                                     
   RDEPT  =    2.103    core radius for aug-charge                                                  
                                                                                                    
   Atomic configuration                                                                             
   10 entries                                                                                       
     n  l   j            E        occ.                                                              
     1  0  0.50    -10959.8463   2.0000                                                             
     2  0  0.50     -1371.6056   2.0000                                                             
     2  1  1.50     -1198.4791   6.0000                                                             
     3  0  0.50      -168.4733   2.0000                                                             
     3  1  1.50      -115.6019   6.0000                                                             
     3  2  2.50       -29.3106  10.0000                                                             
     4  0  0.50       -11.7309   2.0000                                                             
     4  1  0.50        -3.8952   2.0000                                                             
     4  2  1.50        -4.0817   0.0000                                                             
     4  3  2.50        -4.0817   0.0000                                                             
   Description                                                                                      
     l       E           TYP  RCUT    TYP  RCUT                                                     
     0    -11.7309493     23  2.300                                                                 
     0     -7.4578696     23  2.300                                                                 
     1     -3.8952261     23  2.300                                                                 
     1      6.1178114     23  2.300                                                                 
     2     -4.0817478     23  2.300                                                                 
     3     -1.3605826      7  2.300                                                                 
  local pseudopotential read in
  partial core-charges read in
  partial kinetic energy density read in
  atomic valenz-charges read in
  non local Contribution for L=           0  read in
    real space projection operators read in
  non local Contribution for L=           0  read in
    real space projection operators read in
  non local Contribution for L=           1  read in
    real space projection operators read in
  non local Contribution for L=           1  read in
    real space projection operators read in
  non local Contribution for L=           2  read in
    real space projection operators read in
    PAW grid and wavefunctions read in
 
   number of l-projection  operators is LMAX  =           5
   number of lm-projection operators is LMMAX =          13
 
 Optimization of the real space projectors (new method)

 maximal supplied QI-value         = 19.84
 optimisation between [QCUT,QGAM] = [ 13.49, 26.99] = [ 50.98,203.92] Ry 
 Optimized for a Real-space Cutoff    1.07 Angstroem

   l    n(q)    QCUT    max X(q) W(low)/X(q) W(high)/X(q)  e(spline) 
   0      9    13.493   159.560    0.22E-03    0.15E-03    0.72E-07
   0      9    13.493   115.863    0.21E-03    0.15E-03    0.71E-07
   1      8    13.493    88.339    0.15E-03    0.11E-03    0.13E-06
   1      8    13.493    48.592    0.15E-03    0.10E-03    0.13E-06
 Optimization of the real space projectors (new method)

 maximal supplied QI-value         = 16.25
 optimisation between [QCUT,QGAM] = [ 13.49, 26.98] = [ 50.95,203.80] Ry 
 Optimized for a Real-space Cutoff    1.25 Angstroem

   l    n(q)    QCUT    max X(q) W(low)/X(q) W(high)/X(q)  e(spline) 
   0     10    13.489    65.336    0.91E-04    0.11E-03    0.34E-06
   0     10    13.489    52.220    0.89E-04    0.11E-03    0.34E-06
   1     10    13.489    36.409    0.22E-03    0.27E-03    0.14E-06
   1     10    13.489    21.334    0.21E-03    0.27E-03    0.14E-06
   2      9    13.489     4.673    0.11E-03    0.12E-03    0.19E-06
  PAW_PBE Si 05Jan2001                  :
 energy of atom  1       EATOM= -103.0669
 kinetic energy error for atom=    0.0003 (will be added to EATOM!!)
  PAW_PBE Ge 05Jan2001                  :
 energy of atom  2       EATOM= -104.9960
 kinetic energy error for atom=    0.0001 (will be added to EATOM!!)
 
 
 POSCAR: fcc Si+fcc Ge
  positions in direct lattice
  No initial velocities read in


 exchange-correlation table for PE
   RHO(1)=    0.500       N(1)  =     2000
   RHO(2)=  100.500       N(2)  =     4000
 


--------------------------------------------------------------------------------------------------------


 ion  position               nearest neighbor table
   1  0.250  0.000  0.049-  32 2.37  62 2.37  61 2.37  31 2.37
   2  0.750  0.000  0.148-  32 2.37  62 2.37  33 2.37  63 2.37
   3  0.250  0.000  0.247-  33 2.37  63 2.37  34 2.37  64 2.37
   4  0.750  0.000  0.346-  34 2.37  64 2.37  35 2.37  65 2.37
   5  0.250  0.000  0.445-  36 2.37  66 2.37  65 2.37  35 2.37
   6  0.250  0.333  0.049-  50 2.37  38 2.37  49 2.37  37 2.37
   7  0.750  0.333  0.148-  50 2.37  51 2.37  38 2.37  39 2.37
   8  0.250  0.333  0.247-  51 2.37  39 2.37  52 2.37  40 2.37
   9  0.750  0.333  0.346-  52 2.37  40 2.37  53 2.37  41 2.37
  10  0.250  0.333  0.445-  54 2.37  42 2.37  53 2.37  41 2.37
  11  0.250  0.667  0.049-  44 2.37  56 2.37  43 2.37  55 2.37
  12  0.750  0.667  0.148-  44 2.37  45 2.37  56 2.37  57 2.37
  13  0.250  0.667  0.247-  45 2.37  57 2.37  46 2.37  58 2.37
  14  0.750  0.667  0.346-  46 2.37  58 2.37  47 2.37  59 2.37
  15  0.250  0.667  0.445-  48 2.37  60 2.37  47 2.37  59 2.37
  16  0.750  0.167  0.049-  50 2.37  32 2.37  49 2.37  31 2.37
  17  0.250  0.167  0.148-  50 2.37  51 2.37  32 2.37  33 2.37
  18  0.750  0.167  0.247-  51 2.37  33 2.37  52 2.37  34 2.37
  19  0.250  0.167  0.346-  52 2.37  34 2.37  53 2.37  35 2.37
  20  0.750  0.167  0.445-  54 2.37  36 2.37  53 2.37  35 2.37
  21  0.750  0.500  0.049-  38 2.37  56 2.37  55 2.37  37 2.37
  22  0.250  0.500  0.148-  38 2.37  56 2.37  39 2.37  57 2.37
  23  0.750  0.500  0.247-  39 2.37  57 2.37  40 2.37  58 2.37
  24  0.250  0.500  0.346-  40 2.37  58 2.37  41 2.37  59 2.37
  25  0.750  0.500  0.445-  42 2.37  60 2.37  59 2.37  41 2.37
  26  0.750  0.833  0.049-  44 2.37  62 2.37  43 2.37  61 2.37
  27  0.250  0.833  0.148-  44 2.37  45 2.37  62 2.37  63 2.37
  28  0.750  0.833  0.247-  45 2.37  63 2.37  46 2.37  64 2.37
  29  0.250  0.833  0.346-  46 2.37  64 2.37  47 2.37  65 2.37
  30  0.750  0.833  0.445-  48 2.37  66 2.37  47 2.37  65 2.37
  31  0.000  0.083  0.000-   1 2.37  16 2.37 114 2.82
  32  0.500  0.083  0.099-   1 2.37  16 2.37   2 2.37  17 2.37
  33  0.000  0.083  0.198-   3 2.37  18 2.37   2 2.37  17 2.37
  34  0.500  0.083  0.297-   4 2.37  19 2.37   3 2.37  18 2.37
  35  0.000  0.083  0.396-   5 2.37   4 2.37  20 2.37  19 2.37
  36  0.500  0.083  0.494-   5 2.37  20 2.37  97 2.58
  37  0.000  0.417  0.000-  21 2.37   6 2.37 108 2.85
  38  0.500  0.417  0.099-  21 2.37   6 2.37  22 2.37   7 2.37
  39  0.000  0.417  0.198-  23 2.37   8 2.37  22 2.37   7 2.37
  40  0.500  0.417  0.297-  24 2.37   9 2.37  23 2.37   8 2.37
  41  0.000  0.417  0.396-  25 2.37  24 2.37  10 2.37   9 2.37
  42  0.500  0.417  0.494-  25 2.37  10 2.37 103 2.57
  43  0.000  0.750  0.000-  11 2.37  26 2.37  96 2.48
  44  0.500  0.750  0.099-  11 2.37  26 2.37  12 2.37  27 2.37
  45  0.000  0.750  0.198-  13 2.37  28 2.37  27 2.37  12 2.37
  46  0.500  0.750  0.297-  14 2.37  29 2.37  28 2.37  13 2.37
  47  0.000  0.750  0.396-  15 2.37  30 2.37  29 2.37  14 2.37
  48  0.500  0.750  0.494-  15 2.37  30 2.37
  49  0.500  0.250  0.000- 102 2.37  16 2.37   6 2.37  90 2.85  72 2.89
  50  0.000  0.250  0.099-   6 2.37  16 2.37   7 2.37  17 2.37
  51  0.500  0.250  0.198-   8 2.37  18 2.37  17 2.37   7 2.37
  52  0.000  0.250  0.297-   9 2.37  19 2.37  18 2.37   8 2.37
  53  0.500  0.250  0.396-  10 2.37  20 2.37  19 2.37   9 2.37
  54  0.000  0.250  0.494-  67 2.00  20 2.37  10 2.37
  55  0.500  0.583  0.000-  84 2.12  21 2.37  11 2.37 108 2.72
  56  0.000  0.583  0.099-  21 2.37  11 2.37  22 2.37  12 2.37
  57  0.500  0.583  0.198-  23 2.37  13 2.37  22 2.37  12 2.37
  58  0.000  0.583  0.297-  24 2.37  14 2.37  23 2.37  13 2.37
  59  0.500  0.583  0.396-  25 2.37  24 2.37  15 2.37  14 2.37
  60  0.000  0.583  0.494-  25 2.37  15 2.37  79 2.41  91 2.47
  61  0.500  0.917  0.000-  78 2.11   1 2.37  26 2.37 114 2.75
  62  0.000  0.917  0.099-   1 2.37  26 2.37   2 2.37  27 2.37
  63  0.500  0.917  0.198-   3 2.37  28 2.37   2 2.37  27 2.37
  64  0.000  0.917  0.297-   4 2.37  29 2.37   3 2.37  28 2.37
  65  0.500  0.917  0.396-   5 2.37   4 2.37  30 2.37  29 2.37
  66  0.000  0.917  0.494-   5 2.37  30 2.37  85 2.44 109 2.46
  67  0.019  0.252  0.567-  54 2.00  92 2.43  97 2.47 103 2.47
  68  0.519  0.877  0.639- 109 2.43  93 2.43 104 2.47  98 2.47
  69  0.019  0.502  0.711-  94 2.43 110 2.43 105 2.47  99 2.47
  70  0.519  0.127  0.783- 111 2.43  95 2.43 106 2.47 100 2.47
  71  0.019  0.752  0.856-  96 2.43 112 2.43 107 2.47 101 2.47
  72  0.519  0.377  0.928- 113 2.43 108 2.47 102 2.47  49 2.89
  73  0.019  0.752  0.567-  98 2.43  91 2.47 109 2.47
  74  0.519  0.377  0.639- 103 2.43  99 2.43  92 2.47 110 2.47
  75  0.019  0.002  0.711- 100 2.43 104 2.43  93 2.47 111 2.47
  76  0.519  0.627  0.783- 105 2.43 101 2.43  94 2.47 112 2.47
  77  0.019  0.252  0.856- 102 2.43 106 2.43  95 2.47 113 2.47
  78  0.519  0.877  0.928-  61 2.11 107 2.43  96 2.47 114 2.47
  79  0.019  0.502  0.567-  60 2.41 110 2.43 103 2.47  91 2.47
  80  0.519  0.127  0.639-  97 2.43 111 2.43 104 2.47  92 2.47
  81  0.019  0.752  0.711- 112 2.43  98 2.43 105 2.47  93 2.47
  82  0.519  0.377  0.783-  99 2.43 113 2.43 106 2.47  94 2.47
  83  0.019  0.002  0.856- 114 2.43 100 2.43 107 2.47  95 2.47
  84  0.519  0.627  0.928-  55 2.12 101 2.43  96 2.47 108 2.47
  85  0.019  0.002  0.567- 104 2.43  66 2.44  97 2.47 109 2.47
  86  0.519  0.627  0.639-  91 2.43 105 2.43  98 2.47 110 2.47
  87  0.019  0.252  0.711- 106 2.43  92 2.43  99 2.47 111 2.47
  88  0.519  0.877  0.783-  93 2.43 107 2.43 100 2.47 112 2.47
  89  0.019  0.502  0.856- 108 2.43  94 2.43 101 2.47 113 2.47
  90  0.519  0.127  0.928-  95 2.43 102 2.47 114 2.47  49 2.85
  91  0.769  0.627  0.567-  86 2.43  79 2.47  73 2.47  60 2.47
  92  0.269  0.252  0.639-  67 2.43  87 2.43  80 2.47  74 2.47
  93  0.769  0.877  0.711-  88 2.43  68 2.43  81 2.47  75 2.47
  94  0.269  0.502  0.783-  69 2.43  89 2.43  82 2.47  76 2.47
  95  0.769  0.127  0.856-  90 2.43  70 2.43  83 2.47  77 2.47
  96  0.269  0.752  0.928-  71 2.43  78 2.47  84 2.47  43 2.48
  97  0.769  0.127  0.567-  80 2.43  67 2.47  85 2.47  36 2.58
  98  0.269  0.752  0.639-  73 2.43  81 2.43  68 2.47  86 2.47
  99  0.769  0.377  0.711-  82 2.43  74 2.43  69 2.47  87 2.47
 100  0.269  0.002  0.783-  75 2.43  83 2.43  70 2.47  88 2.47
 101  0.769  0.627  0.856-  84 2.43  76 2.43  71 2.47  89 2.47
 102  0.269  0.252  0.928-  49 2.37  77 2.43  72 2.47  90 2.47
 103  0.769  0.377  0.567-  74 2.43  67 2.47  79 2.47  42 2.57
 104  0.269  0.002  0.639-  85 2.43  75 2.43  80 2.47  68 2.47
 105  0.769  0.627  0.711-  76 2.43  86 2.43  81 2.47  69 2.47
 106  0.269  0.252  0.783-  87 2.43  77 2.43  82 2.47  70 2.47
 107  0.769  0.877  0.856-  78 2.43  88 2.43  83 2.47  71 2.47
 108  0.269  0.502  0.928-  89 2.43  84 2.47  72 2.47  55 2.72  37 2.85
 109  0.769  0.877  0.567-  68 2.43  66 2.46  73 2.47  85 2.47
 110  0.269  0.502  0.639-  79 2.43  69 2.43  74 2.47  86 2.47
 111  0.769  0.127  0.711-  70 2.43  80 2.43  75 2.47  87 2.47
 112  0.269  0.752  0.783-  81 2.43  71 2.43  76 2.47  88 2.47
 113  0.769  0.377  0.856-  72 2.43  82 2.43  77 2.47  89 2.47
 114  0.269  0.002  0.928-  83 2.43  78 2.47  90 2.47  61 2.75  31 2.82
 
  LATTYP: Found a simple orthorhombic cell.
 ALAT       =     5.4800000000
 B/A-ratio  =     3.0000000000
 C/A-ratio  =     5.0557592982
  
  Lattice vectors:
  
 A1 = (   5.4800000000,   0.0000000000,   0.0000000000)
 A2 = (   0.0000000000,  16.4400000000,   0.0000000000)
 A3 = (   0.0000000000,   0.0000000000,  27.7055609540)


Analysis of symmetry for initial positions (statically):
=====================================================================
 Subroutine PRICEL returns:
 Original cell was already a primitive cell.
 

 Routine SETGRP: Setting up the symmetry group for a 
 simple orthorhombic supercell.


 Subroutine GETGRP returns: Found  1 space group operations
 (whereof  1 operations were pure point group operations)
 out of a pool of  8 trial point group operations.


The static configuration has the point symmetry C_1 .


Analysis of symmetry for dynamics (positions and initial velocities):
=====================================================================
 Subroutine PRICEL returns:
 Original cell was already a primitive cell.
 

 Routine SETGRP: Setting up the symmetry group for a 
 simple orthorhombic supercell.


 Subroutine GETGRP returns: Found  1 space group operations
 (whereof  1 operations were pure point group operations)
 out of a pool of  8 trial point group operations.


The dynamic configuration has the point symmetry C_1 .


Analysis of structural, dynamic, and magnetic symmetry:
=====================================================================
 Subroutine PRICEL returns:
 Original cell was already a primitive cell.
 

 Routine SETGRP: Setting up the symmetry group for a 
 simple orthorhombic supercell.


 Subroutine GETGRP returns: Found  1 space group operations
 (whereof  1 operations were pure point group operations)
 out of a pool of  8 trial point group operations.


The overall configuration has the point symmetry C_1 .


 Subroutine INISYM returns: Found  1 space group operations
 (whereof  1 operations are pure point group operations),
 and found     1 'primitive' translations


----------------------------------------------------------------------------------------

                                     Primitive cell                                     

  volume of cell :    2496.0272

  direct lattice vectors                    reciprocal lattice vectors
     5.480000000  0.000000000  0.000000000     0.182481752  0.000000000  0.000000000
     0.000000000 16.440000000  0.000000000     0.000000000  0.060827251  0.000000000
     0.000000000  0.000000000 27.705560954     0.000000000  0.000000000  0.036093837

  length of vectors
     5.480000000 16.440000000 27.705560954     0.182481752  0.060827251  0.036093837

  position of ions in fractional coordinates (direct lattice)
     0.250000000  0.000000000  0.049448557
     0.750000000  0.000000000  0.148345670
     0.250000000  0.000000000  0.247242783
     0.750000000  0.000000000  0.346139896
     0.250000000  0.000000000  0.445037010
     0.250000000  0.333333333  0.049448557
     0.750000000  0.333333333  0.148345670
     0.250000000  0.333333333  0.247242783
     0.750000000  0.333333333  0.346139896
     0.250000000  0.333333333  0.445037010
     0.250000000  0.666666667  0.049448557
     0.750000000  0.666666667  0.148345670
     0.250000000  0.666666667  0.247242783
     0.750000000  0.666666667  0.346139896
     0.250000000  0.666666667  0.445037010
     0.750000000  0.166666667  0.049448557
     0.250000000  0.166666667  0.148345670
     0.750000000  0.166666667  0.247242783
     0.250000000  0.166666667  0.346139896
     0.750000000  0.166666667  0.445037010
     0.750000000  0.500000000  0.049448557
     0.250000000  0.500000000  0.148345670
     0.750000000  0.500000000  0.247242783
     0.250000000  0.500000000  0.346139896
     0.750000000  0.500000000  0.445037010
     0.750000000  0.833333333  0.049448557
     0.250000000  0.833333333  0.148345670
     0.750000000  0.833333333  0.247242783
     0.250000000  0.833333333  0.346139896
     0.750000000  0.833333333  0.445037010
     0.000000000  0.083333333  0.000000000
     0.500000000  0.083333333  0.098897113
     0.000000000  0.083333333  0.197794227
     0.500000000  0.083333333  0.296691340
     0.000000000  0.083333333  0.395588453
     0.500000000  0.083333333  0.494485566
     0.000000000  0.416666667  0.000000000
     0.500000000  0.416666667  0.098897113
     0.000000000  0.416666667  0.197794227
     0.500000000  0.416666667  0.296691340
     0.000000000  0.416666667  0.395588453
     0.500000000  0.416666667  0.494485566
     0.000000000  0.750000000  0.000000000
     0.500000000  0.750000000  0.098897113
     0.000000000  0.750000000  0.197794227
     0.500000000  0.750000000  0.296691340
     0.000000000  0.750000000  0.395588453
     0.500000000  0.750000000  0.494485566
     0.500000000  0.250000000  0.000000000
     0.000000000  0.250000000  0.098897113
     0.500000000  0.250000000  0.197794227
     0.000000000  0.250000000  0.296691340
     0.500000000  0.250000000  0.395588453
     0.000000000  0.250000000  0.494485566
     0.500000000  0.583333333  0.000000000
     0.000000000  0.583333333  0.098897113
     0.500000000  0.583333333  0.197794227
     0.000000000  0.583333333  0.296691340
     0.500000000  0.583333333  0.395588453
     0.000000000  0.583333333  0.494485566
     0.500000000  0.916666667  0.000000000
     0.000000000  0.916666667  0.098897113
     0.500000000  0.916666667  0.197794227
     0.000000000  0.916666667  0.296691340
     0.500000000  0.916666667  0.395588453
     0.000000000  0.916666667  0.494485566
     0.018518519  0.251533742  0.566673240
     0.518518519  0.876533742  0.638901057
     0.018518519  0.501533742  0.711128875
     0.518518519  0.126533742  0.783356692
     0.018518519  0.751533742  0.855584509
     0.518518519  0.376533742  0.927812326
     0.018518519  0.751533742  0.566673240
     0.518518519  0.376533742  0.638901057
     0.018518519  0.001533742  0.711128875
     0.518518519  0.626533742  0.783356692
     0.018518519  0.251533742  0.855584509
     0.518518519  0.876533742  0.927812326
     0.018518519  0.501533742  0.566673240
     0.518518519  0.126533742  0.638901057
     0.018518519  0.751533742  0.711128875
     0.518518519  0.376533742  0.783356692
     0.018518519  0.001533742  0.855584509
     0.518518519  0.626533742  0.927812326
     0.018518519  0.001533742  0.566673240
     0.518518519  0.626533742  0.638901057
     0.018518519  0.251533742  0.711128875
     0.518518519  0.876533742  0.783356692
     0.018518519  0.501533742  0.855584509
     0.518518519  0.126533742  0.927812326
     0.768518519  0.626533742  0.566673240
     0.268518519  0.251533742  0.638901057
     0.768518519  0.876533742  0.711128875
     0.268518519  0.501533742  0.783356692
     0.768518519  0.126533742  0.855584509
     0.268518519  0.751533742  0.927812326
     0.768518519  0.126533742  0.566673240
     0.268518519  0.751533742  0.638901057
     0.768518519  0.376533742  0.711128875
     0.268518519  0.001533742  0.783356692
     0.768518519  0.626533742  0.855584509
     0.268518519  0.251533742  0.927812326
     0.768518519  0.376533742  0.566673240
     0.268518519  0.001533742  0.638901057
     0.768518519  0.626533742  0.711128875
     0.268518519  0.251533742  0.783356692
     0.768518519  0.876533742  0.855584509
     0.268518519  0.501533742  0.927812326
     0.768518519  0.876533742  0.566673240
     0.268518519  0.501533742  0.638901057
     0.768518519  0.126533742  0.711128875
     0.268518519  0.751533742  0.783356692
     0.768518519  0.376533742  0.855584509
     0.268518519  0.001533742  0.927812326

  ion indices of the primitive-cell ions
   primitive index   ion index
                 1           1
                 2           2
                 3           3
                 4           4
                 5           5
                 6           6
                 7           7
                 8           8
                 9           9
                10          10
                11          11
                12          12
                13          13
                14          14
                15          15
                16          16
                17          17
                18          18
                19          19
                20          20
                21          21
                22          22
                23          23
                24          24
                25          25
                26          26
                27          27
                28          28
                29          29
                30          30
                31          31
                32          32
                33          33
                34          34
                35          35
                36          36
                37          37
                38          38
                39          39
                40          40
                41          41
                42          42
                43          43
                44          44
                45          45
                46          46
                47          47
                48          48
                49          49
                50          50
                51          51
                52          52
                53          53
                54          54
                55          55
                56          56
                57          57
                58          58
                59          59
                60          60
                61          61
                62          62
                63          63
                64          64
                65          65
                66          66
                67          67
                68          68
                69          69
                70          70
                71          71
                72          72
                73          73
                74          74
                75          75
                76          76
                77          77
                78          78
                79          79
                80          80
                81          81
                82          82
                83          83
                84          84
                85          85
                86          86
                87          87
                88          88
                89          89
                90          90
                91          91
                92          92
                93          93
                94          94
                95          95
                96          96
                97          97
                98          98
                99          99
               100         100
               101         101
               102         102
               103         103
               104         104
               105         105
               106         106
               107         107
               108         108
               109         109
               110         110
               111         111
               112         112
               113         113
               114         114

----------------------------------------------------------------------------------------

 
 
 KPOINTS: Automatic KPOINTS generated             

Automatic generation of k-mesh.
 Grid dimensions read from file:
 generate k-points for:    6    2    1

 Generating k-lattice:

  Cartesian coordinates                     Fractional coordinates (reciprocal lattice)
     0.030413625  0.000000000  0.000000000     0.166666667  0.000000000  0.000000000
     0.000000000  0.030413625  0.000000000     0.000000000  0.500000000  0.000000000
     0.000000000  0.000000000  0.036093837     0.000000000  0.000000000  1.000000000

  Length of vectors
     0.030413625  0.030413625  0.036093837

  Shift w.r.t. Gamma in fractional coordinates (k-lattice)
     0.000000000  0.000000000  0.000000000

 
 Subroutine IBZKPT returns following result:
 ===========================================
 
 Found      8 irreducible k-points:
 
 Following reciprocal coordinates:
            Coordinates               Weight
  0.000000  0.000000  0.000000      1.000000
  0.166667  0.000000  0.000000      2.000000
  0.333333  0.000000  0.000000      2.000000
  0.500000  0.000000  0.000000      1.000000
  0.000000  0.500000  0.000000      1.000000
  0.166667  0.500000  0.000000      2.000000
  0.333333  0.500000  0.000000      2.000000
  0.500000  0.500000  0.000000      1.000000
 
 Following cartesian coordinates:
            Coordinates               Weight
  0.000000  0.000000  0.000000      1.000000
  0.030414  0.000000  0.000000      2.000000
  0.060827  0.000000  0.000000      2.000000
  0.091241  0.000000  0.000000      1.000000
  0.000000  0.030414  0.000000      1.000000
  0.030414  0.030414  0.000000      2.000000
  0.060827  0.030414  0.000000      2.000000
  0.091241  0.030414  0.000000      1.000000
 


--------------------------------------------------------------------------------------------------------




 Dimension of arrays:
   k-points           NKPTS =      8   k-points in BZ     NKDIM =      8   number of bands    NBANDS=    274
   number of dos      NEDOS =    301   number of ions     NIONS =    114
   non local maximal  LDIM  =      5   non local SUM 2l+1 LMDIM =     13
   total plane-waves  NPLWV = 699840
   max r-space proj   IRMAX =   2322   max aug-charges    IRDMAX= 122096
   dimension x,y,z NGX =    36 NGY =  108 NGZ =  180
   dimension x,y,z NGXF=    72 NGYF=  216 NGZF=  360
   support grid    NGXF=   144 NGYF=  432 NGZF=  720
   ions per type =              66  48
   NGX,Y,Z   is equivalent  to a cutoff of  10.92, 10.92, 10.80 a.u.
   NGXF,Y,Z  is equivalent  to a cutoff of  21.84, 21.84, 21.60 a.u.

 SYSTEM =  Si001 and Ge011 interface calculation   
 POSCAR =  fcc Si+fcc Ge                           

 Startparameter for this run:
   NWRITE =      2    write-flag & timer
   PREC   = normal    normal or accurate (medium, high low for compatibility)
   ISTART =      0    job   : 0-new  1-cont  2-samecut
   ICHARG =      2    charge: 1-file 2-atom 10-const
   ISPIN  =      2    spin polarized calculation?
   LNONCOLLINEAR =      F non collinear calculations
   LSORBIT =      F    spin-orbit coupling
   INIWAV =      1    electr: 0-lowe 1-rand  2-diag
   LASPH  =      T    aspherical Exc in radial PAW
 Electronic Relaxation 1
   ENCUT  =  700.0 eV  51.45 Ry    7.17 a.u.  11.82 35.47 59.77*2*pi/ulx,y,z
   ENINI  =  700.0     initial cutoff
   ENAUG  =  900.0 eV  augmentation charge cutoff
   NELM   =    100;   NELMIN=  2; NELMDL= -5     # of ELM steps 
   EDIFF  = 0.1E-06   stopping-criterion for ELM
   LREAL  =      T    real-space projection
   NLSPLINE    = F    spline interpolate recip. space projectors
   LCOMPAT=      F    compatible to vasp.4.4
   GGA_COMPAT  = T    GGA compatible to vasp.4.4-vasp.4.6
   LMAXPAW     = -100 max onsite density
   LMAXMIX     =    6 max onsite mixed and CHGCAR
   VOSKOWN=      0    Vosko Wilk Nusair interpolation
   ROPT   =   -0.00050  -0.00050
 Ionic relaxation
   EDIFFG = 0.1E-05   stopping-criterion for IOM
   NSW    =      0    number of steps for IOM
   NBLOCK =      1;   KBLOCK =      1    inner block; outer block 
   IBRION =     -1    ionic relax: 0-MD 1-quasi-New 2-CG
   NFREE  =      0    steps in history (QN), initial steepest desc. (CG)
   ISIF   =      2    stress and relaxation
   IWAVPR =     10    prediction:  0-non 1-charg 2-wave 3-comb
   ISYM   =      2    0-nonsym 1-usesym 2-fastsym
   LCORR  =      T    Harris-Foulkes like correction to forces

   POTIM  = 0.5000    time-step for ionic-motion
   TEIN   =    0.0    initial temperature
   TEBEG  =    0.0;   TEEND  =   0.0 temperature during run
   SMASS  =  -3.00    Nose mass-parameter (am)
   estimated Nose-frequenzy (Omega)   =  0.10E-29 period in steps = 0.13E+47 mass=  -0.686E-27a.u.
   SCALEE = 1.0000    scale energy and forces
   NPACO  =    256;   APACO  = 10.0  distance and # of slots for P.C.
   PSTRESS=    0.0 pullay stress

  Mass of Ions in am
   POMASS =  28.09 72.61
  Ionic Valenz
   ZVAL   =   4.00  4.00
  Atomic Wigner-Seitz radii
   RWIGS  =  -1.00 -1.00
  virtual crystal weights 
   VCA    =   1.00  1.00
   NELECT =     456.0000    total number of electrons
   NUPDOWN=       1.0000    fix difference up-down

 DOS related values:
   EMIN   =  10.00;   EMAX   =-10.00  energy-range for DOS
   EFERMI =   0.00;   METHOD = LEGACY      
   ISMEAR =     0;   SIGMA  =   0.01  broadening in eV -4-tet -1-fermi 0-gaus

 Electronic relaxation 2 (details)
   IALGO  =     38    algorithm
   LDIAG  =      T    sub-space diagonalisation (order eigenvalues)
   LSUBROT=      F    optimize rotation matrix (better conditioning)
   TURBO    =      0    0=normal 1=particle mesh
   IRESTART =      0    0=no restart 2=restart with 2 vectors
   NREBOOT  =      0    no. of reboots
   NMIN     =      0    reboot dimension
   EREF     =   0.00    reference energy to select bands
   IMIX   =      4    mixing-type and parameters
     AMIX     =   0.60;   BMIX     =  1.00
     AMIX_MAG =   2.40;   BMIX_MAG =  1.00
     AMIN     =   0.10
     WC   =   100.;   INIMIX=   1;  MIXPRE=   1;  MAXMIX= -45

 Intra band minimization:
   WEIMIN = 0.0000     energy-eigenvalue tresh-hold
   EBREAK =  0.91E-10  absolut break condition
   DEPER  =   0.30     relativ break condition  

   TIME   =   0.40     timestep for ELM

  volume/ion in A,a.u.               =      21.89       147.75
  Fermi-wavevector in a.u.,A,eV,Ry     =   0.928924  1.755411 11.740455  0.862899
  Thomas-Fermi vector in A             =   2.055152
 
 Write flags
   LWAVE        =      F    write WAVECAR
   LDOWNSAMPLE  =      F    k-point downsampling of WAVECAR
   LCHARG       =      T    write CHGCAR
   LVTOT        =      F    write LOCPOT, total local potential
   LVHAR        =      T    write LOCPOT, Hartree potential only
   WRT_POTENTIAL=  hartree ionic  ! write potential to hdf5 file
   LELF         =      F    write electronic localiz. function (ELF)
   LORBIT       =      0    0 simple, 1 ext, 2 COOP (PROOUT), +10 PAW based schemes


 Dipole corrections
   LMONO      =      F    monopole corrections only (constant potential shift)
   LDIPOL     =      F    correct potential (dipole corrections)
   IDIPOL     =      0    1-x, 2-y, 3-z, 4-all directions 
   EPSILON    =  1.0000000 bulk dielectric constant
   LVACPOTAV  =      F  vacuum potentials using an averaging scheme for the charge density
   VACPOTFLAT =  0.1000000 required flatness to determine vacuum potential
 Exchange correlation treatment:
   GGA     = PE    functional components
   XC_C    = 1    coefficients multiplying the functional components
   LIBXC   =     F    Libxc                    
   VOSKOWN =     0    Vosko Wilk Nusair interpolation
   LHFCALC =     F    Hartree Fock is set to
   LHFONE  =     F    Hartree Fock one center treatment
   AEXX    =    0.0000 exact exchange contribution

 Parameters of functionals:
   PE:
     No parameter
 
 Van der Waals corrections
   IVDW    =     0    specifies the selected vdW correction

 Linear response parameters
   LEPSILON=     F    determine dielectric tensor
   LRPA    =     F    only Hartree local field effects (RPA)
   LNABLA  =     F    use nabla operator in PAW spheres
   LVEL    =     F    velocity operator in full k-point grid
   CSHIFT  =0.1000    complex shift for real part using Kramers Kronig
   OMEGAMAX=  -1.0    maximum frequency
   DEG_THRESHOLD= 0.2000000E-02 threshold for treating states as degnerate
   RTIME   =   -0.100 relaxation time in fs
  (WPLASMAI=    0.000 imaginary part of plasma frequency in eV, 0.658/RTIME)
   DFIELD  = 0.0000000 0.0000000 0.0000000 field for delta impulse in time
 
  Optional k-point grid parameters
   LKPOINTS_OPT  =     F    use optional k-point grid
   KPOINTS_OPT_MODE=     1    mode for optional k-point grid
 
 Orbital magnetization related:
   ORBITALMAG=     F  switch on orbital magnetization
   LCHIMAG   =     F  perturbation theory with respect to B field
   DQ        =  0.001000  dq finite difference perturbation B field
   LLRAUG    =     F  two centre corrections for induced B field
   LBONE     =     F  B-component reconstruction in AE one-centre
   LVGVCALC  =     T  calculate vGv susceptibility
   LVGVAPPL  =     F  apply vGv susceptibility instead of pGv for G=0

 Random number generation:
   RANDOM_GENERATOR = DEFAULT
   PCG_SEED         = not used


--------------------------------------------------------------------------------------------------------


 Static calculation
 charge density and potential will be updated during run
 spin polarized calculation
 Variant of blocked Davidson
 Davidson routine will perform the subspace rotation
 perform sub-space diagonalisation
    after iterative eigenvector-optimisation
 modified Broyden-mixing scheme, WC =      100.0
 initial mixing is a Kerker type mixing with AMIX =  0.6000 and BMIX =      1.0000
 Hartree-type preconditioning will be used
 using additional bands           46
 real space projection scheme for non local part
 use partial core corrections
 calculate Harris-corrections to forces 
   (improved forces if not selfconsistent)
 use gradient corrections 
 use of overlap-Matrix (Vanderbilt PP)
 Gauss-broadening in eV      SIGMA  =   0.01


--------------------------------------------------------------------------------------------------------


  energy-cutoff  :      700.00
  volume of cell :     2496.03
      direct lattice vectors                 reciprocal lattice vectors
     5.480000000  0.000000000  0.000000000     0.182481752  0.000000000  0.000000000
     0.000000000 16.440000000  0.000000000     0.000000000  0.060827251  0.000000000
     0.000000000  0.000000000 27.705560954     0.000000000  0.000000000  0.036093837

  length of vectors
     5.480000000 16.440000000 27.705560954     0.182481752  0.060827251  0.036093837


 
 k-points in units of 2pi/SCALE and weight: Automatic KPOINTS generated             
   0.00000000  0.00000000  0.00000000       0.083
   0.03041363  0.00000000  0.00000000       0.167
   0.06082725  0.00000000  0.00000000       0.167
   0.09124088  0.00000000  0.00000000       0.083
   0.00000000  0.03041363  0.00000000       0.083
   0.03041363  0.03041363  0.00000000       0.167
   0.06082725  0.03041363  0.00000000       0.167
   0.09124088  0.03041363  0.00000000       0.083
 
 k-points in reciprocal lattice and weights: Automatic KPOINTS generated             
   0.00000000  0.00000000  0.00000000       0.083
   0.16666667  0.00000000  0.00000000       0.167
   0.33333333  0.00000000  0.00000000       0.167
   0.50000000  0.00000000  0.00000000       0.083
   0.00000000  0.50000000  0.00000000       0.083
   0.16666667  0.50000000  0.00000000       0.167
   0.33333333  0.50000000  0.00000000       0.167
   0.50000000  0.50000000  0.00000000       0.083
 
 position of ions in fractional coordinates (direct lattice) 
   0.25000000  0.00000000  0.04944856
   0.75000000  0.00000000  0.14834567
   0.25000000  0.00000000  0.24724278
   0.75000000  0.00000000  0.34613990
   0.25000000  0.00000000  0.44503701
   0.25000000  0.33333333  0.04944856
   0.75000000  0.33333333  0.14834567
   0.25000000  0.33333333  0.24724278
   0.75000000  0.33333333  0.34613990
   0.25000000  0.33333333  0.44503701
   0.25000000  0.66666667  0.04944856
   0.75000000  0.66666667  0.14834567
   0.25000000  0.66666667  0.24724278
   0.75000000  0.66666667  0.34613990
   0.25000000  0.66666667  0.44503701
   0.75000000  0.16666667  0.04944856
   0.25000000  0.16666667  0.14834567
   0.75000000  0.16666667  0.24724278
   0.25000000  0.16666667  0.34613990
   0.75000000  0.16666667  0.44503701
   0.75000000  0.50000000  0.04944856
   0.25000000  0.50000000  0.14834567
   0.75000000  0.50000000  0.24724278
   0.25000000  0.50000000  0.34613990
   0.75000000  0.50000000  0.44503701
   0.75000000  0.83333333  0.04944856
   0.25000000  0.83333333  0.14834567
   0.75000000  0.83333333  0.24724278
   0.25000000  0.83333333  0.34613990
   0.75000000  0.83333333  0.44503701
   0.00000000  0.08333333  0.00000000
   0.50000000  0.08333333  0.09889711
   0.00000000  0.08333333  0.19779423
   0.50000000  0.08333333  0.29669134
   0.00000000  0.08333333  0.39558845
   0.50000000  0.08333333  0.49448557
   0.00000000  0.41666667  0.00000000
   0.50000000  0.41666667  0.09889711
   0.00000000  0.41666667  0.19779423
   0.50000000  0.41666667  0.29669134
   0.00000000  0.41666667  0.39558845
   0.50000000  0.41666667  0.49448557
   0.00000000  0.75000000  0.00000000
   0.50000000  0.75000000  0.09889711
   0.00000000  0.75000000  0.19779423
   0.50000000  0.75000000  0.29669134
   0.00000000  0.75000000  0.39558845
   0.50000000  0.75000000  0.49448557
   0.50000000  0.25000000  0.00000000
   0.00000000  0.25000000  0.09889711
   0.50000000  0.25000000  0.19779423
   0.00000000  0.25000000  0.29669134
   0.50000000  0.25000000  0.39558845
   0.00000000  0.25000000  0.49448557
   0.50000000  0.58333333  0.00000000
   0.00000000  0.58333333  0.09889711
   0.50000000  0.58333333  0.19779423
   0.00000000  0.58333333  0.29669134
   0.50000000  0.58333333  0.39558845
   0.00000000  0.58333333  0.49448557
   0.50000000  0.91666667  0.00000000
   0.00000000  0.91666667  0.09889711
   0.50000000  0.91666667  0.19779423
   0.00000000  0.91666667  0.29669134
   0.50000000  0.91666667  0.39558845
   0.00000000  0.91666667  0.49448557
   0.01851852  0.25153374  0.56667324
   0.51851852  0.87653374  0.63890106
   0.01851852  0.50153374  0.71112887
   0.51851852  0.12653374  0.78335669
   0.01851852  0.75153374  0.85558451
   0.51851852  0.37653374  0.92781233
   0.01851852  0.75153374  0.56667324
   0.51851852  0.37653374  0.63890106
   0.01851852  0.00153374  0.71112887
   0.51851852  0.62653374  0.78335669
   0.01851852  0.25153374  0.85558451
   0.51851852  0.87653374  0.92781233
   0.01851852  0.50153374  0.56667324
   0.51851852  0.12653374  0.63890106
   0.01851852  0.75153374  0.71112887
   0.51851852  0.37653374  0.78335669
   0.01851852  0.00153374  0.85558451
   0.51851852  0.62653374  0.92781233
   0.01851852  0.00153374  0.56667324
   0.51851852  0.62653374  0.63890106
   0.01851852  0.25153374  0.71112887
   0.51851852  0.87653374  0.78335669
   0.01851852  0.50153374  0.85558451
   0.51851852  0.12653374  0.92781233
   0.76851852  0.62653374  0.56667324
   0.26851852  0.25153374  0.63890106
   0.76851852  0.87653374  0.71112887
   0.26851852  0.50153374  0.78335669
   0.76851852  0.12653374  0.85558451
   0.26851852  0.75153374  0.92781233
   0.76851852  0.12653374  0.56667324
   0.26851852  0.75153374  0.63890106
   0.76851852  0.37653374  0.71112887
   0.26851852  0.00153374  0.78335669
   0.76851852  0.62653374  0.85558451
   0.26851852  0.25153374  0.92781233
   0.76851852  0.37653374  0.56667324
   0.26851852  0.00153374  0.63890106
   0.76851852  0.62653374  0.71112887
   0.26851852  0.25153374  0.78335669
   0.76851852  0.87653374  0.85558451
   0.26851852  0.50153374  0.92781233
   0.76851852  0.87653374  0.56667324
   0.26851852  0.50153374  0.63890106
   0.76851852  0.12653374  0.71112887
   0.26851852  0.75153374  0.78335669
   0.76851852  0.37653374  0.85558451
   0.26851852  0.00153374  0.92781233
 
 position of ions in cartesian coordinates  (Angst):
   1.37000000  0.00000000  1.37000001
   4.11000000  0.00000000  4.11000000
   1.37000000  0.00000000  6.84999999
   4.11000000  0.00000000  9.58999999
   1.37000000  0.00000000 12.33000001
   1.37000000  5.47999999  1.37000001
   4.11000000  5.47999999  4.11000000
   1.37000000  5.47999999  6.84999999
   4.11000000  5.47999999  9.58999999
   1.37000000  5.47999999 12.33000001
   1.37000000 10.96000001  1.37000001
   4.11000000 10.96000001  4.11000000
   1.37000000 10.96000001  6.84999999
   4.11000000 10.96000001  9.58999999
   1.37000000 10.96000001 12.33000001
   4.11000000  2.74000001  1.37000001
   1.37000000  2.74000001  4.11000000
   4.11000000  2.74000001  6.84999999
   1.37000000  2.74000001  9.58999999
   4.11000000  2.74000001 12.33000001
   4.11000000  8.22000000  1.37000001
   1.37000000  8.22000000  4.11000000
   4.11000000  8.22000000  6.84999999
   1.37000000  8.22000000  9.58999999
   4.11000000  8.22000000 12.33000001
   4.11000000 13.69999999  1.37000001
   1.37000000 13.69999999  4.11000000
   4.11000000 13.69999999  6.84999999
   1.37000000 13.69999999  9.58999999
   4.11000000 13.69999999 12.33000001
   0.00000000  1.36999999  0.00000000
   2.74000000  1.36999999  2.73999999
   0.00000000  1.36999999  5.48000001
   2.74000000  1.36999999  8.22000000
   0.00000000  1.36999999 10.96000000
   2.74000000  1.36999999 13.69999999
   0.00000000  6.85000001  0.00000000
   2.74000000  6.85000001  2.73999999
   0.00000000  6.85000001  5.48000001
   2.74000000  6.85000001  8.22000000
   0.00000000  6.85000001 10.96000000
   2.74000000  6.85000001 13.69999999
   0.00000000 12.33000000  0.00000000
   2.74000000 12.33000000  2.73999999
   0.00000000 12.33000000  5.48000001
   2.74000000 12.33000000  8.22000000
   0.00000000 12.33000000 10.96000000
   2.74000000 12.33000000 13.69999999
   2.74000000  4.11000000  0.00000000
   0.00000000  4.11000000  2.73999999
   2.74000000  4.11000000  5.48000001
   0.00000000  4.11000000  8.22000000
   2.74000000  4.11000000 10.96000000
   0.00000000  4.11000000 13.69999999
   2.74000000  9.58999999  0.00000000
   0.00000000  9.58999999  2.73999999
   2.74000000  9.58999999  5.48000001
   0.00000000  9.58999999  8.22000000
   2.74000000  9.58999999 10.96000000
   0.00000000  9.58999999 13.69999999
   2.74000000 15.07000001  0.00000000
   0.00000000 15.07000001  2.73999999
   2.74000000 15.07000001  5.48000001
   0.00000000 15.07000001  8.22000000
   2.74000000 15.07000001 10.96000000
   0.00000000 15.07000001 13.69999999
   0.10148148  4.13521472 15.69999999
   2.84148148 14.41021472 17.70111218
   0.10148148  8.24521472 19.70222439
   2.84148148  2.08021472 21.70333658
   0.10148148 12.35521472 23.70444877
   2.84148148  6.19021472 25.70556095
   0.10148148 12.35521472 15.69999999
   2.84148148  6.19021472 17.70111218
   0.10148148  0.02521472 19.70222439
   2.84148148 10.30021472 21.70333658
   0.10148148  4.13521472 23.70444877
   2.84148148 14.41021472 25.70556095
   0.10148148  8.24521472 15.69999999
   2.84148148  2.08021472 17.70111218
   0.10148148 12.35521472 19.70222439
   2.84148148  6.19021472 21.70333658
   0.10148148  0.02521472 23.70444877
   2.84148148 10.30021472 25.70556095
   0.10148148  0.02521472 15.69999999
   2.84148148 10.30021472 17.70111218
   0.10148148  4.13521472 19.70222439
   2.84148148 14.41021472 21.70333658
   0.10148148  8.24521472 23.70444877
   2.84148148  2.08021472 25.70556095
   4.21148148 10.30021472 15.69999999
   1.47148148  4.13521472 17.70111218
   4.21148148 14.41021472 19.70222439
   1.47148148  8.24521472 21.70333658
   4.21148148  2.08021472 23.70444877
   1.47148148 12.35521472 25.70556095
   4.21148148  2.08021472 15.69999999
   1.47148148 12.35521472 17.70111218
   4.21148148  6.19021472 19.70222439
   1.47148148  0.02521472 21.70333658
   4.21148148 10.30021472 23.70444877
   1.47148148  4.13521472 25.70556095
   4.21148148  6.19021472 15.69999999
   1.47148148  0.02521472 17.70111218
   4.21148148 10.30021472 19.70222439
   1.47148148  4.13521472 21.70333658
   4.21148148 14.41021472 23.70444877
   1.47148148  8.24521472 25.70556095
   4.21148148 14.41021472 15.69999999
   1.47148148  8.24521472 17.70111218
   4.21148148  2.08021472 19.70222439
   1.47148148 12.35521472 21.70333658
   4.21148148  6.19021472 23.70444877
   1.47148148  0.02521472 25.70556095
 


--------------------------------------------------------------------------------------------------------


 k-point     1 :   0.0000 0.0000 0.0000  plane waves:  104911
 k-point     2 :   0.1667 0.0000 0.0000  plane waves:  104975
 k-point     3 :   0.3333 0.0000 0.0000  plane waves:  104944
 k-point     4 :   0.5000 0.0000 0.0000  plane waves:  105048
 k-point     5 :   0.0000 0.5000 0.0000  plane waves:  104886
 k-point     6 :   0.1667 0.5000 0.0000  plane waves:  104874
 k-point     7 :   0.3333 0.5000 0.0000  plane waves:  105056
 k-point     8 :   0.5000 0.5000 0.0000  plane waves:  105032

 maximum and minimum number of plane-waves per node :      6594     6519

 maximum number of plane-waves:    105056
 maximum index in each direction: 
   IXMAX=   11   IYMAX=   35   IZMAX=   59
   IXMIN=  -12   IYMIN=  -35   IZMIN=  -59


 real space projection operators:
  total allocation   :      16478.16 KBytes
  max/ min on nodes  :       1412.62        782.22


 parallel 3D FFT for wavefunctions:
    minimum data exchange during FFTs selected (reduces bandwidth)
 parallel 3D FFT for charge:
    minimum data exchange during FFTs selected (reduces bandwidth)


 total amount of memory used by VASP MPI-rank0   592233. kBytes
=======================================================================

   base      :      30000. kBytes
   nonlr-proj:       6149. kBytes
   fftplans  :      53369. kBytes
   grid      :      35918. kBytes
   one-center:        129. kBytes
   wavefun   :     466668. kBytes
 
     INWAV:  cpu time      0.0001: real time      0.0004
 Broyden mixing: mesh for mixing (old mesh)
   NGX = 23   NGY = 71   NGZ =119
  (NGX  = 72   NGY  =216   NGZ  =360)
  gives a total of 194327 points

 initial charge density was supplied:
 charge density of overlapping atoms calculated
 number of electron     456.0000000 magnetization       1.0000000
 keeping initial charge density in first step


--------------------------------------------------------------------------------------------------------


 Maximum index for non-local projection operator          339
 Maximum index for augmentation-charges         7620 (set IRDMAX)


--------------------------------------------------------------------------------------------------------


 First call to EWALD:  gamma=   0.131
 Maximum number of real-space cells 6x 2x 2
 Maximum number of reciprocal cells 1x 3x 5

    FEWALD:  cpu time      0.0047: real time      0.0047


--------------------------------------- Ionic step        1  -------------------------------------------




--------------------------------------- Iteration      1(   1)  ---------------------------------------


    POTLOK:  cpu time      0.6068: real time      0.6127
    SETDIJ:  cpu time      3.2252: real time      3.2422
     EDDAV:  cpu time     74.2216: real time     74.8813
       DOS:  cpu time      0.0037: real time      0.0037
    --------------------------------------------
      LOOP:  cpu time     78.0573: real time     78.7400

 eigenvalue-minimisations  :  8768
 total energy-change (2. order) : 0.1862260E+04  (-0.2032155E+05)
 number of electron     456.0000000 magnetization       1.0000000
 augmentation part      456.0000000 magnetization       1.0000000

 Free energy of the ion-electron system (eV)
  ---------------------------------------------------
  alpha Z        PSCENC =       520.49008605
  Ewald energy   TEWEN  =    -12240.95411116
  -Hartree energ DENC   =     -1072.32004868
  -exchange      EXHF   =         0.00000000
  -V(xc)+E(xc)   XCENC  =      -981.05847243
  PAW double counting   =     10047.13939321    -8190.57932602
  entropy T*S    EENTRO =        -0.00151204
  eigenvalues    EBANDS =      1937.34364872
  atomic energy  EATOM  =     11842.20083547
  Solvation  Ediel_sol  =         0.00000000
  ---------------------------------------------------
  free energy    TOTEN  =      1862.26049311 eV

  energy without entropy =     1862.26200515  energy(sigma->0) =     1862.26124913


--------------------------------------------------------------------------------------------------------




--------------------------------------- Iteration      1(   2)  ---------------------------------------


     EDDAV:  cpu time     84.3978: real time     85.1579
       DOS:  cpu time      0.0030: real time      0.0030
    --------------------------------------------
      LOOP:  cpu time     84.4008: real time     85.1609

 eigenvalue-minimisations  : 10256
 total energy-change (2. order) :-0.2206822E+04  (-0.2129801E+04)
 number of electron     456.0000000 magnetization       1.0000000
 augmentation part      456.0000000 magnetization       1.0000000

 Free energy of the ion-electron system (eV)
  ---------------------------------------------------
  alpha Z        PSCENC =       520.49008605
  Ewald energy   TEWEN  =    -12240.95411116
  -Hartree energ DENC   =     -1072.32004868
  -exchange      EXHF   =         0.00000000
  -V(xc)+E(xc)   XCENC  =      -981.05847243
  PAW double counting   =     10047.13939321    -8190.57932602
  entropy T*S    EENTRO =        -0.00136829
  eigenvalues    EBANDS =      -269.47858932
  atomic energy  EATOM  =     11842.20083547
  Solvation  Ediel_sol  =         0.00000000
  ---------------------------------------------------
  free energy    TOTEN  =      -344.56160117 eV

  energy without entropy =     -344.56023288  energy(sigma->0) =     -344.56091703


--------------------------------------------------------------------------------------------------------




--------------------------------------- Iteration      1(   3)  ---------------------------------------


     EDDAV:  cpu time     87.9306: real time     88.7552
       DOS:  cpu time      0.0022: real time      0.0022
    --------------------------------------------
      LOOP:  cpu time     87.9328: real time     88.7574

 eigenvalue-minimisations  : 10832
 total energy-change (2. order) :-0.2059575E+03  (-0.2006926E+03)
 number of electron     456.0000000 magnetization       1.0000000
 augmentation part      456.0000000 magnetization       1.0000000

 Free energy of the ion-electron system (eV)
  ---------------------------------------------------
  alpha Z        PSCENC =       520.49008605
  Ewald energy   TEWEN  =    -12240.95411116
  -Hartree energ DENC   =     -1072.32004868
  -exchange      EXHF   =         0.00000000
  -V(xc)+E(xc)   XCENC  =      -981.05847243
  PAW double counting   =     10047.13939321    -8190.57932602
  entropy T*S    EENTRO =        -0.00206702
  eigenvalues    EBANDS =      -475.43543629
  atomic energy  EATOM  =     11842.20083547
  Solvation  Ediel_sol  =         0.00000000
  ---------------------------------------------------
  free energy    TOTEN  =      -550.51914688 eV

  energy without entropy =     -550.51707986  energy(sigma->0) =     -550.51811337


--------------------------------------------------------------------------------------------------------




--------------------------------------- Iteration      1(   4)  ---------------------------------------


     EDDAV:  cpu time     84.5231: real time     85.2798
       DOS:  cpu time      0.0035: real time      0.0035
    --------------------------------------------
      LOOP:  cpu time     84.5266: real time     85.2833

 eigenvalue-minimisations  : 10304
 total energy-change (2. order) :-0.7187267E+01  (-0.7089768E+01)
 number of electron     456.0000000 magnetization       1.0000000
 augmentation part      456.0000000 magnetization       1.0000000

 Free energy of the ion-electron system (eV)
  ---------------------------------------------------
  alpha Z        PSCENC =       520.49008605
  Ewald energy   TEWEN  =    -12240.95411116
  -Hartree energ DENC   =     -1072.32004868
  -exchange      EXHF   =         0.00000000
  -V(xc)+E(xc)   XCENC  =      -981.05847243
  PAW double counting   =     10047.13939321    -8190.57932602
  entropy T*S    EENTRO =        -0.00208479
  eigenvalues    EBANDS =      -482.62268523
  atomic energy  EATOM  =     11842.20083547
  Solvation  Ediel_sol  =         0.00000000
  ---------------------------------------------------
  free energy    TOTEN  =      -557.70641359 eV

  energy without entropy =     -557.70432880  energy(sigma->0) =     -557.70537119


--------------------------------------------------------------------------------------------------------




--------------------------------------- Iteration      1(   5)  ---------------------------------------


     EDDAV:  cpu time     93.0755: real time     93.8720
       DOS:  cpu time      0.0036: real time      0.0036
    CHARGE:  cpu time      4.1289: real time      4.1578
    MIXING:  cpu time      0.0156: real time      0.0157
    --------------------------------------------
      LOOP:  cpu time     97.2236: real time     98.0491

 eigenvalue-minimisations  : 11624
 total energy-change (2. order) :-0.2693973E+00  (-0.2681069E+00)
 number of electron     455.9999997 magnetization       1.0000000
 augmentation part      -47.1568245 magnetization      -0.0665835

 Broyden mixing:
  rms(total) = 0.30078E+01    rms(broyden)= 0.30078E+01
  rms(prec ) = 0.30843E+01
  weight for this iteration     100.00

 Free energy of the ion-electron system (eV)
  ---------------------------------------------------
  alpha Z        PSCENC =       520.49008605
  Ewald energy   TEWEN  =    -12240.95411116
  -Hartree energ DENC   =     -1072.32004868
  -exchange      EXHF   =         0.00000000
  -V(xc)+E(xc)   XCENC  =      -981.05847243
  PAW double counting   =     10047.13939321    -8190.57932602
  entropy T*S    EENTRO =        -0.00200175
  eigenvalues    EBANDS =      -482.89216559
  atomic energy  EATOM  =     11842.20083547
  Solvation  Ediel_sol  =         0.00000000
  ---------------------------------------------------
  free energy    TOTEN  =      -557.97581091 eV

  energy without entropy =     -557.97380916  energy(sigma->0) =     -557.97481004


--------------------------------------------------------------------------------------------------------




--------------------------------------- Iteration      1(   6)  ---------------------------------------


    POTLOK:  cpu time      0.6073: real time      0.6141
    SETDIJ:  cpu time      3.1967: real time      3.2148
     EDDAV:  cpu time     87.5451: real time     88.3343
       DOS:  cpu time      0.0022: real time      0.0022
    CHARGE:  cpu time      4.1459: real time      4.1751
    MIXING:  cpu time      0.0160: real time      0.0161
    --------------------------------------------
      LOOP:  cpu time     95.5131: real time     96.3566

 eigenvalue-minimisations  : 10784
 total energy-change (2. order) : 0.7501253E+01  (-0.1082510E+01)
 number of electron     455.9999997 magnetization       1.0000000
 augmentation part      -46.9516995 magnetization      -0.0556568

 Broyden mixing:
  rms(total) = 0.13694E+01    rms(broyden)= 0.13694E+01
  rms(prec ) = 0.14269E+01
  weight for this iteration     100.00

 eigenvalues of (default mixing * dielectric matrix)
  average eigenvalue GAMMA=   1.7491
  1.7491

 Free energy of the ion-electron system (eV)
  ---------------------------------------------------
  alpha Z        PSCENC =       520.49008605
  Ewald energy   TEWEN  =    -12240.95411116
  -Hartree energ DENC   =     -1190.01144512
  -exchange      EXHF   =         0.00000000
  -V(xc)+E(xc)   XCENC  =      -963.33148241
  PAW double counting   =     20829.22501823   -18980.74014759
  entropy T*S    EENTRO =        -0.00162815
  eigenvalues    EBANDS =      -367.35168322
  atomic energy  EATOM  =     11842.20083547
  Solvation  Ediel_sol  =         0.00000000
  ---------------------------------------------------
  free energy    TOTEN  =      -550.47455790 eV

  energy without entropy =     -550.47292975  energy(sigma->0) =     -550.47374382


--------------------------------------------------------------------------------------------------------




--------------------------------------- Iteration      1(   7)  ---------------------------------------


    POTLOK:  cpu time      0.6056: real time      0.6113
    SETDIJ:  cpu time      3.1964: real time      3.2132
     EDDAV:  cpu time     90.6158: real time     91.4191
       DOS:  cpu time      0.0034: real time      0.0034
    CHARGE:  cpu time      4.1404: real time      4.1688
    MIXING:  cpu time      0.0170: real time      0.0171
    --------------------------------------------
      LOOP:  cpu time     98.5785: real time     99.4330

 eigenvalue-minimisations  : 11312
 total energy-change (2. order) :-0.1678375E+01  (-0.2265543E+01)
 number of electron     455.9999997 magnetization       1.0000000
 augmentation part      -46.5275640 magnetization      -0.0624737

 Broyden mixing:
  rms(total) = 0.63300E+00    rms(broyden)= 0.63300E+00
  rms(prec ) = 0.10531E+01
  weight for this iteration     100.00

 eigenvalues of (default mixing * dielectric matrix)
  average eigenvalue GAMMA=   1.1423
  1.8445  0.4401

 Free energy of the ion-electron system (eV)
  ---------------------------------------------------
  alpha Z        PSCENC =       520.49008605
  Ewald energy   TEWEN  =    -12240.95411116
  -Hartree energ DENC   =     -1255.56086909
  -exchange      EXHF   =         0.00000000
  -V(xc)+E(xc)   XCENC  =      -949.88548731
  PAW double counting   =     32325.46396297   -30482.78007225
  entropy T*S    EENTRO =        -0.00174737
  eigenvalues    EBANDS =      -311.12553046
  atomic energy  EATOM  =     11842.20083547
  Solvation  Ediel_sol  =         0.00000000
  ---------------------------------------------------
  free energy    TOTEN  =      -552.15293316 eV

  energy without entropy =     -552.15118579  energy(sigma->0) =     -552.15205947


--------------------------------------------------------------------------------------------------------




--------------------------------------- Iteration      1(   8)  ---------------------------------------


    POTLOK:  cpu time      0.6056: real time      0.6115
    SETDIJ:  cpu time      3.1986: real time      3.2151
     EDDAV:  cpu time     95.0470: real time     95.8681
       DOS:  cpu time      0.0022: real time      0.0022
    CHARGE:  cpu time      4.1707: real time      4.2001
    MIXING:  cpu time      0.0176: real time      0.0177
    --------------------------------------------
      LOOP:  cpu time    103.0417: real time    103.9148

 eigenvalue-minimisations  : 11928
 total energy-change (2. order) : 0.2042778E+01  (-0.1407186E+01)
 number of electron     455.9999997 magnetization       1.0000000
 augmentation part      -46.4774565 magnetization      -0.0649617

 Broyden mixing:
  rms(total) = 0.28064E+00    rms(broyden)= 0.28064E+00
  rms(prec ) = 0.59135E+00
  weight for this iteration     100.00

 eigenvalues of (default mixing * dielectric matrix)
  average eigenvalue GAMMA=   0.9830
  1.8690  0.5400  0.5400

 Free energy of the ion-electron system (eV)
  ---------------------------------------------------
  alpha Z        PSCENC =       520.49008605
  Ewald energy   TEWEN  =    -12240.95411116
  -Hartree energ DENC   =     -1272.75055768
  -exchange      EXHF   =         0.00000000
  -V(xc)+E(xc)   XCENC  =      -948.20404899
  PAW double counting   =     35169.00930597   -33327.06363948
  entropy T*S    EENTRO =        -0.00146618
  eigenvalues    EBANDS =      -292.83655934
  atomic energy  EATOM  =     11842.20083547
  Solvation  Ediel_sol  =         0.00000000
  ---------------------------------------------------
  free energy    TOTEN  =      -550.11015535 eV

  energy without entropy =     -550.10868916  energy(sigma->0) =     -550.10942225


--------------------------------------------------------------------------------------------------------




--------------------------------------- Iteration      1(   9)  ---------------------------------------


    POTLOK:  cpu time      0.6054: real time      0.6115
    SETDIJ:  cpu time      3.1990: real time      3.2155
     EDDAV:  cpu time     92.5785: real time     93.3790
       DOS:  cpu time      0.0022: real time      0.0022
    CHARGE:  cpu time      4.1515: real time      4.1813
    MIXING:  cpu time      0.0189: real time      0.0191
    --------------------------------------------
      LOOP:  cpu time    100.5555: real time    101.4086

 eigenvalue-minimisations  : 11552
 total energy-change (2. order) : 0.1398025E+00  (-0.9222368E+00)
 number of electron     455.9999997 magnetization       1.0000000
 augmentation part      -46.4776659 magnetization      -0.0650626

 Broyden mixing:
  rms(total) = 0.24661E+00    rms(broyden)= 0.24661E+00
  rms(prec ) = 0.40865E+00
  weight for this iteration     100.00

 eigenvalues of (default mixing * dielectric matrix)
  average eigenvalue GAMMA=   0.8701
  1.8719  0.8915  0.5623  0.1546

 Free energy of the ion-electron system (eV)
  ---------------------------------------------------
  alpha Z        PSCENC =       520.49008605
  Ewald energy   TEWEN  =    -12240.95411116
  -Hartree energ DENC   =     -1271.54218754
  -exchange      EXHF   =         0.00000000
  -V(xc)+E(xc)   XCENC  =      -948.24316040
  PAW double counting   =     35612.29210180   -33770.32835184
  entropy T*S    EENTRO =        -0.00114079
  eigenvalues    EBANDS =      -293.88442443
  atomic energy  EATOM  =     11842.20083547
  Solvation  Ediel_sol  =         0.00000000
  ---------------------------------------------------
  free energy    TOTEN  =      -549.97035285 eV

  energy without entropy =     -549.96921206  energy(sigma->0) =     -549.96978246


--------------------------------------------------------------------------------------------------------




--------------------------------------- Iteration      1(  10)  ---------------------------------------


    POTLOK:  cpu time      0.6047: real time      0.6109
    SETDIJ:  cpu time      3.1983: real time      3.2154
     EDDAV:  cpu time     86.6618: real time     87.4521
       DOS:  cpu time      0.0022: real time      0.0022
    CHARGE:  cpu time      4.1506: real time      4.1802
    MIXING:  cpu time      0.0188: real time      0.0189
    --------------------------------------------
      LOOP:  cpu time     94.6364: real time     95.4796

 eigenvalue-minimisations  : 10680
 total energy-change (2. order) : 0.1536609E+00  (-0.2000019E+00)
 number of electron     455.9999997 magnetization       1.0000000
 augmentation part      -46.5120187 magnetization      -0.0615718

 Broyden mixing:
  rms(total) = 0.15307E+00    rms(broyden)= 0.15307E+00
  rms(prec ) = 0.16933E+00
  weight for this iteration     100.00

 eigenvalues of (default mixing * dielectric matrix)
  average eigenvalue GAMMA=   0.8876
  1.8050  1.2913  0.8068  0.3603  0.1749

 Free energy of the ion-electron system (eV)
  ---------------------------------------------------
  alpha Z        PSCENC =       520.49008605
  Ewald energy   TEWEN  =    -12240.95411116
  -Hartree energ DENC   =     -1264.89715860
  -exchange      EXHF   =         0.00000000
  -V(xc)+E(xc)   XCENC  =      -948.70171332
  PAW double counting   =     36233.75329402   -34391.57525119
  entropy T*S    EENTRO =        -0.00170689
  eigenvalues    EBANDS =      -300.13096635
  atomic energy  EATOM  =     11842.20083547
  Solvation  Ediel_sol  =         0.00000000
  ---------------------------------------------------
  free energy    TOTEN  =      -549.81669198 eV

  energy without entropy =     -549.81498509  energy(sigma->0) =     -549.81583853


--------------------------------------------------------------------------------------------------------




--------------------------------------- Iteration      1(  11)  ---------------------------------------


    POTLOK:  cpu time      0.6056: real time      0.6109
    SETDIJ:  cpu time      3.2088: real time      3.2275
     EDDAV:  cpu time     86.4584: real time     87.2301
       DOS:  cpu time      0.0027: real time      0.0027
    CHARGE:  cpu time      4.1428: real time      4.1722
    MIXING:  cpu time      0.0197: real time      0.0198
    --------------------------------------------
      LOOP:  cpu time     94.4381: real time     95.2632

 eigenvalue-minimisations  : 10592
 total energy-change (2. order) : 0.1767822E-01  (-0.4241562E-01)
 number of electron     455.9999997 magnetization       1.0000000
 augmentation part      -46.5313918 magnetization      -0.0600465

 Broyden mixing:
  rms(total) = 0.71009E-01    rms(broyden)= 0.71009E-01
  rms(prec ) = 0.88923E-01
  weight for this iteration     100.00

 eigenvalues of (default mixing * dielectric matrix)
  average eigenvalue GAMMA=   0.8928
  1.6523  1.2860  1.2860  0.5072  0.4488  0.1766

 Free energy of the ion-electron system (eV)
  ---------------------------------------------------
  alpha Z        PSCENC =       520.49008605
  Ewald energy   TEWEN  =    -12240.95411116
  -Hartree energ DENC   =     -1257.82994652
  -exchange      EXHF   =         0.00000000
  -V(xc)+E(xc)   XCENC  =      -949.39698255
  PAW double counting   =     36621.32929414   -34778.83019621
  entropy T*S    EENTRO =        -0.00043535
  eigenvalues    EBANDS =      -306.80755762
  atomic energy  EATOM  =     11842.20083547
  Solvation  Ediel_sol  =         0.00000000
  ---------------------------------------------------
  free energy    TOTEN  =      -549.79901376 eV

  energy without entropy =     -549.79857841  energy(sigma->0) =     -549.79879608


--------------------------------------------------------------------------------------------------------




--------------------------------------- Iteration      1(  12)  ---------------------------------------


    POTLOK:  cpu time      0.6049: real time      0.6112
    SETDIJ:  cpu time      3.2064: real time      3.2252
     EDDAV:  cpu time     86.8293: real time     87.7017
       DOS:  cpu time      0.0022: real time      0.0022
    CHARGE:  cpu time      4.1460: real time      4.1796
    MIXING:  cpu time      0.0205: real time      0.0207
    --------------------------------------------
      LOOP:  cpu time     94.8093: real time     95.7406

 eigenvalue-minimisations  : 10680
 total energy-change (2. order) : 0.6175282E-02  (-0.1444368E-01)
 number of electron     455.9999997 magnetization       1.0000000
 augmentation part      -46.5244645 magnetization      -0.0601335

 Broyden mixing:
  rms(total) = 0.45498E-01    rms(broyden)= 0.45497E-01
  rms(prec ) = 0.53352E-01
  weight for this iteration     100.00

 eigenvalues of (default mixing * dielectric matrix)
  average eigenvalue GAMMA=   0.8806
  1.6278  1.4117  1.4117  0.6213  0.4575  0.4575  0.1764

 Free energy of the ion-electron system (eV)
  ---------------------------------------------------
  alpha Z        PSCENC =       520.49008605
  Ewald energy   TEWEN  =    -12240.95411116
  -Hartree energ DENC   =     -1256.72324371
  -exchange      EXHF   =         0.00000000
  -V(xc)+E(xc)   XCENC  =      -949.61887804
  PAW double counting   =     36428.46407822   -34585.86201407
  entropy T*S    EENTRO =        -0.00062422
  eigenvalues    EBANDS =      -307.78896702
  atomic energy  EATOM  =     11842.20083547
  Solvation  Ediel_sol  =         0.00000000
  ---------------------------------------------------
  free energy    TOTEN  =      -549.79283847 eV

  energy without entropy =     -549.79221425  energy(sigma->0) =     -549.79252636


--------------------------------------------------------------------------------------------------------




--------------------------------------- Iteration      1(  13)  ---------------------------------------


    POTLOK:  cpu time      0.6045: real time      0.6106
    SETDIJ:  cpu time      3.2038: real time      3.2252
     EDDAV:  cpu time     86.4673: real time     87.2368
       DOS:  cpu time      0.0030: real time      0.0030
    CHARGE:  cpu time      4.1661: real time      4.1957
    MIXING:  cpu time      0.0219: real time      0.0221
    --------------------------------------------
      LOOP:  cpu time     94.4666: real time     95.2933

 eigenvalue-minimisations  : 10608
 total energy-change (2. order) : 0.2745429E-02  (-0.4005228E-02)
 number of electron     455.9999997 magnetization       1.0000000
 augmentation part      -46.5378000 magnetization      -0.0598011

 Broyden mixing:
  rms(total) = 0.28726E-01    rms(broyden)= 0.28726E-01
  rms(prec ) = 0.29861E-01
  weight for this iteration     100.00

 eigenvalues of (default mixing * dielectric matrix)
  average eigenvalue GAMMA=   0.9292
  1.6484  1.6484  1.6627  0.6949  0.6949  0.1764  0.4072  0.5002

 Free energy of the ion-electron system (eV)
  ---------------------------------------------------
  alpha Z        PSCENC =       520.49008605
  Ewald energy   TEWEN  =    -12240.95411116
  -Hartree energ DENC   =     -1256.67571655
  -exchange      EXHF   =         0.00000000
  -V(xc)+E(xc)   XCENC  =      -949.61933816
  PAW double counting   =     36319.16909171   -34476.56371892
  entropy T*S    EENTRO =        -0.00051362
  eigenvalues    EBANDS =      -307.83670787
  atomic energy  EATOM  =     11842.20083547
  Solvation  Ediel_sol  =         0.00000000
  ---------------------------------------------------
  free energy    TOTEN  =      -549.79009305 eV

  energy without entropy =     -549.78957942  energy(sigma->0) =     -549.78983623


[...]
   0.541E+00 0.131E+00 -.356E+02   -.427E+00 0.799E-03 0.356E+02   0.857E-03 -.531E-01 -.176E+00   0.897E-05 -.661E-04 0.676E-06
   -.549E+01 0.935E+00 -.209E+02   0.609E+01 -.281E+00 0.210E+02   -.929E-01 -.696E+00 -.757E+01   -.133E-04 -.851E-04 0.207E-03
   -.760E+01 0.692E+01 0.272E+02   0.818E+01 -.542E+01 -.265E+02   -.578E+00 -.249E+01 0.313E+01   0.710E-05 -.102E-03 -.194E-03
   0.728E+00 0.193E+00 0.359E+02   -.437E+00 0.184E-01 -.356E+02   -.215E+00 -.139E+00 -.209E+00   -.159E-04 -.748E-04 -.476E-04
   0.101E+00 0.980E-02 0.117E+02   0.184E-01 -.102E-03 -.116E+02   -.942E-01 0.496E-02 -.212E-01   0.114E-05 -.311E-04 0.507E-04
   0.645E-01 -.859E-01 -.117E+02   0.185E-01 0.101E-03 0.116E+02   -.726E-01 0.469E-01 0.864E-01   0.530E-06 -.138E-04 -.226E-04
   0.378E+00 -.158E+00 -.359E+02   -.456E+00 -.186E-01 0.356E+02   0.162E-01 0.205E-01 0.222E+00   -.124E-04 -.119E-04 -.382E-04
   -.128E+02 -.486E+01 -.352E+02   0.120E+02 0.382E+01 0.332E+02   0.412E+00 0.583E+00 0.129E+01   0.297E-04 -.431E-04 0.158E-03
   -.692E+01 -.713E+01 0.268E+02   0.791E+01 0.530E+01 -.259E+02   -.141E+00 0.262E+01 0.362E+01   -.297E-04 0.621E-04 -.207E-03
   0.329E+00 -.364E+00 0.354E+02   -.436E+00 -.176E-01 -.356E+02   0.228E+00 0.199E+00 0.327E+00   0.157E-04 0.702E-04 0.224E-04
   -.167E+00 -.125E+00 0.117E+02   0.184E-01 0.974E-04 -.116E+02   0.141E+00 0.962E-01 -.125E+00   0.690E-05 0.492E-04 0.999E-04
   -.174E+00 0.114E+00 -.117E+02   0.185E-01 -.967E-04 0.116E+02   0.139E+00 -.695E-01 0.120E+00   0.321E-05 0.448E-04 -.154E-04
   0.109E+00 0.476E+00 -.358E+02   -.458E+00 0.178E-01 0.356E+02   0.401E+00 -.322E+00 0.140E+00   -.885E-05 0.824E-04 -.883E-05
   -.116E+02 0.374E+01 -.360E+02   0.123E+02 -.355E+01 0.336E+02   -.835E-01 0.302E-01 0.147E+01   0.283E-04 0.134E-03 0.135E-03
   -.151E+02 -.331E+00 -.459E+02   0.150E+02 0.333E+00 0.464E+02   0.227E+00 -.151E+00 0.540E+01   -.146E-04 -.776E-04 0.169E-03
   0.331E+01 -.528E+00 -.101E+02   -.309E+01 0.264E+00 0.956E+01   -.603E+00 0.520E-01 0.584E+00   0.901E-05 0.668E-04 0.188E-03
   0.175E+01 0.845E-01 -.383E+01   -.181E+01 -.153E-01 0.389E+01   -.310E+00 -.321E-01 -.601E-01   -.146E-06 -.256E-04 0.586E-04
   0.208E+01 -.207E-02 0.401E+01   -.182E+01 -.110E-01 -.387E+01   -.486E+00 0.821E-01 -.141E+00   0.688E-05 0.638E-05 -.172E-04
   0.341E+01 0.537E-01 0.108E+02   -.298E+01 0.181E-01 -.106E+02   -.678E+00 -.997E-01 -.166E+00   -.902E-05 -.566E-05 -.191E-03
   -.136E+02 -.494E+01 0.171E+02   0.134E+02 0.504E+01 -.178E+02   0.108E+01 -.143E+00 0.134E+01   -.170E-04 -.488E-04 -.124E-03
   -.124E+02 -.989E-01 -.153E+02   0.124E+02 -.600E-01 0.157E+02   0.836E+00 0.412E+00 -.891E+00   0.223E-04 -.321E-05 0.202E-03
   0.323E+01 0.586E+00 -.106E+02   -.296E+01 -.303E+00 0.104E+02   -.586E+00 -.142E+00 0.169E+00   0.184E-04 -.466E-04 0.139E-03
   0.204E+01 -.598E-01 -.395E+01   -.182E+01 0.153E-01 0.389E+01   -.506E+00 0.194E-01 0.119E-01   0.671E-05 0.235E-04 0.433E-04
   0.165E+01 -.157E-01 0.379E+01   -.181E+01 0.114E-01 -.390E+01   -.280E+00 -.424E-01 0.993E-01   -.475E-05 0.341E-05 -.383E-04
   0.281E+01 -.785E-01 0.951E+01   -.308E+01 -.158E-01 -.942E+01   -.305E+00 0.129E+00 -.264E+00   0.228E-04 -.231E-04 -.778E-04
   -.140E+02 0.938E+01 0.397E+02   0.138E+02 -.964E+01 -.395E+02   0.155E+00 -.976E+00 -.327E+01   0.151E-05 0.524E-04 -.257E-03
   -.148E+02 0.105E+02 -.265E+02   0.147E+02 -.104E+02 0.263E+02   0.922E+00 -.769E+00 -.204E+00   0.996E-06 -.554E-04 0.212E-03
   0.336E+01 -.770E+00 -.107E+02   -.303E+01 0.313E+00 0.104E+02   -.580E+00 0.285E+00 0.245E+00   0.239E-04 0.656E-05 0.801E-04
   0.196E+01 0.596E-01 -.403E+01   -.182E+01 -.221E-03 0.387E+01   -.411E+00 -.137E+00 0.133E+00   0.589E-05 0.184E-04 0.879E-04
   0.186E+01 -.825E-01 0.397E+01   -.181E+01 0.101E-01 -.387E+01   -.331E+00 0.113E+00 -.907E-01   0.147E-05 -.280E-04 -.278E-04
   0.339E+01 0.899E+00 0.105E+02   -.307E+01 -.408E+00 -.998E+01   -.631E+00 -.213E+00 -.504E+00   0.156E-04 0.564E-04 -.140E-03
   -.154E+02 -.982E+01 0.385E+02   0.153E+02 0.102E+02 -.383E+02   0.527E+00 0.137E+01 -.289E+01   0.430E-05 -.926E-04 -.179E-03
   -.121E+02 -.103E+02 -.261E+02   0.123E+02 0.101E+02 0.259E+02   0.117E-01 0.456E+00 0.228E+00   0.588E-05 0.129E-03 0.147E-03
   0.247E+01 0.620E+00 -.931E+01   -.303E+01 -.273E+00 0.957E+01   -.749E-01 -.250E+00 -.150E+00   0.132E-04 -.248E-04 0.166E-03
   0.171E+01 -.121E+00 -.371E+01   -.181E+01 0.243E-03 0.391E+01   -.310E+00 0.125E+00 -.223E+00   0.874E-05 -.173E-04 0.373E-04
   0.192E+01 0.143E+00 0.374E+01   -.181E+01 -.105E-01 -.391E+01   -.426E+00 -.131E+00 0.186E+00   -.104E-06 0.177E-04 -.630E-04
   0.276E+01 -.785E+00 0.981E+01   -.299E+01 0.406E+00 -.993E+01   -.310E+00 0.266E+00 0.852E-02   0.872E-05 -.312E-04 -.929E-04
   -.115E+02 0.568E+01 0.185E+02   0.119E+02 -.563E+01 -.184E+02   0.244E+00 -.267E+00 0.205E+00   -.476E-05 0.996E-04 -.191E-03
   0.210E+02 -.269E+01 -.252E+02   -.206E+02 0.314E+01 0.247E+02   -.942E+00 0.705E+00 -.559E+00   -.382E-05 -.585E-04 0.246E-03
   -.279E+01 -.240E+00 -.913E+01   0.344E+01 -.445E-01 0.989E+01   -.127E+00 0.137E+00 -.700E+00   -.206E-04 -.453E-04 0.102E-03
   -.199E+01 0.423E-01 -.415E+01   0.180E+01 -.119E-03 0.389E+01   0.530E+00 -.665E-02 0.250E+00   0.145E-06 0.368E-04 0.899E-04
   -.166E+01 -.150E-01 0.389E+01   0.181E+01 -.185E-02 -.389E+01   0.214E+00 0.345E-01 -.602E-02   0.540E-05 -.157E-04 -.309E-04
   -.327E+01 -.409E+00 0.107E+02   0.275E+01 0.228E-01 -.100E+02   0.853E+00 0.133E+00 -.599E+00   -.302E-04 0.185E-04 -.983E-04
   0.321E+01 -.636E+00 0.244E+02   -.340E+01 0.118E+01 -.245E+02   -.384E+00 -.264E+00 0.559E+00   -.817E-05 -.290E-04 -.204E-03
   0.631E+01 -.711E+00 -.240E+02   -.652E+01 -.187E+00 0.248E+02   -.675E+00 -.970E-01 -.104E+01   -.963E-05 0.864E-05 0.144E-03
   -.301E+01 0.404E+00 -.105E+02   0.262E+01 0.466E-01 0.100E+02   0.652E+00 -.136E+00 0.435E+00   -.878E-05 -.848E-05 0.200E-03
   -.188E+01 -.111E+00 -.379E+01   0.182E+01 -.272E-03 0.388E+01   0.309E+00 0.617E-01 -.799E-01   -.566E-05 -.331E-04 0.416E-04
   -.207E+01 0.683E-02 0.403E+01   0.181E+01 0.182E-02 -.389E+01   0.567E+00 -.612E-01 -.110E+00   -.771E-05 0.239E-04 -.391E-04
   -.271E+01 0.132E+00 0.928E+01   0.330E+01 0.142E-01 -.984E+01   -.829E-01 -.167E+00 0.596E+00   0.336E-05 -.228E-04 -.144E-03
   0.238E+02 0.579E+00 0.285E+02   -.239E+02 -.101E+01 -.279E+02   -.641E+00 -.979E-01 -.753E+00   0.671E-04 -.104E-04 -.147E-03
   0.610E+01 0.166E+01 -.227E+02   -.630E+01 -.147E+01 0.227E+02   -.497E+00 0.229E+00 -.995E+00   0.721E-05 -.792E-04 0.202E-03
   -.315E+01 0.879E-01 -.103E+02   0.302E+01 -.473E-01 0.998E+01   0.581E+00 -.732E-01 0.236E+00   -.242E-04 0.883E-04 0.123E-03
   -.159E+01 0.110E+00 -.395E+01   0.180E+01 0.272E-02 0.389E+01   0.243E+00 -.617E-01 0.643E-01   -.486E-05 -.717E-05 0.734E-04
   -.179E+01 -.127E+00 0.411E+01   0.180E+01 -.173E-02 -.389E+01   0.407E+00 0.743E-01 -.200E+00   0.835E-06 -.194E-04 -.337E-04
   -.291E+01 0.278E+00 0.947E+01   0.333E+01 0.463E-01 -.993E+01   0.102E+00 -.848E-01 0.395E+00   0.393E-05 0.325E-04 -.173E-03
   0.140E+02 0.616E+00 0.220E+02   -.139E+02 -.129E+01 -.220E+02   -.854E+00 -.405E+00 0.147E+01   0.111E-04 -.750E-04 -.142E-03
   0.204E+02 0.172E+01 -.275E+02   -.209E+02 -.149E+01 0.272E+02   -.612E+00 -.472E+00 0.737E+00   0.582E-05 0.133E-03 0.175E-03
   -.282E+01 -.139E+00 -.977E+01   0.304E+01 0.452E-01 0.985E+01   0.241E+00 0.133E+00 -.236E+00   -.588E-05 -.376E-04 0.154E-03
   -.209E+01 -.622E-01 -.378E+01   0.182E+01 -.233E-02 0.389E+01   0.507E+00 0.973E-01 -.848E-01   -.111E-04 0.393E-05 0.213E-04
   -.197E+01 0.105E+00 0.372E+01   0.183E+01 0.175E-02 -.389E+01   0.339E+00 -.845E-01 0.110E+00   0.516E-05 0.113E-04 -.450E-04
   -.286E+01 -.163E+00 0.102E+02   0.273E+01 -.833E-01 -.994E+01   0.493E+00 0.948E-01 -.143E+00   -.240E-04 -.243E-04 -.774E-04
   0.129E+02 -.564E+00 0.241E+02   -.131E+02 0.112E+01 -.251E+02   -.862E+00 0.592E+00 0.820E+00   -.120E-05 0.954E-04 -.245E-03
 -----------------------------------------------------------------------------------------------
   -.245E+01 -.245E+00 -.212E+00   0.462E-13 0.977E-14 0.226E-11   0.284E+01 0.239E+00 0.925E-02   0.326E-04 -.177E-04 -.293E-04
 
 
 POSITION                                       TOTAL-FORCE (eV/Angst)
 -----------------------------------------------------------------------------------
      1.37000      0.00000      1.37000        -0.221841      0.179751     -0.115270
      4.11000      0.00000      4.11000         0.127369      0.066790      0.030509
      1.37000      0.00000      6.85000         0.041687     -0.015678      0.003752
      4.11000      0.00000      9.59000         0.048466     -0.093276     -0.018000
      1.37000      0.00000     12.33000         0.029031     -0.235945      0.026939
      1.37000      5.48000      1.37000         0.181987      0.081522      0.057267
      4.11000      5.48000      4.11000         0.042186      0.040230     -0.001743
      1.37000      5.48000      6.85000        -0.010499     -0.000817      0.004660
      4.11000      5.48000      9.59000        -0.063636     -0.011739     -0.012940
      1.37000      5.48000     12.33000         0.081048     -0.110185      0.311912
      1.37000     10.96000      1.37000        -0.360464      0.083736     -0.190068
      4.11000     10.96000      4.11000        -0.043446      0.022790      0.025689
      1.37000     10.96000      6.85000        -0.026005      0.015150      0.002932
      4.11000     10.96000      9.59000        -0.034273      0.053845     -0.006984
      1.37000     10.96000     12.33000         0.375840      0.237879      0.138055
      4.11000      2.74000      1.37000         0.285496     -0.076215     -0.107543
      1.37000      2.74000      4.11000         0.014385      0.005717      0.014441
      4.11000      2.74000      6.85000         0.027097     -0.000314      0.006251
      1.37000      2.74000      9.59000         0.027672     -0.048630     -0.026431
      4.11000      2.74000     12.33000        -0.262838     -0.185864      0.139013
      4.11000      8.22000      1.37000         0.194311     -0.149415     -0.255762
      1.37000      8.22000      4.11000        -0.030169     -0.030708      0.017910
      4.11000      8.22000      6.85000        -0.030054     -0.010391      0.004629
      1.37000      8.22000      9.59000         0.012105     -0.028043     -0.015628
      4.11000      8.22000     12.33000        -0.100981     -0.041769      0.180700
      4.11000     13.70000      1.37000         0.061035      0.328800     -0.144727
      1.37000     13.70000      4.11000        -0.054581      0.072663      0.026916
      4.11000     13.70000      6.85000         0.027600      0.008710     -0.005585
      1.37000     13.70000      9.59000         0.055365     -0.053058      0.013087
      4.11000     13.70000     12.33000        -0.027755     -0.124569     -0.009004
      0.00000      1.37000      0.00000        -0.015528     -0.518536     -0.626250
      2.74000      1.37000      2.74000        -0.065247     -0.090724      0.074930
      0.00000      1.37000      5.48000        -0.038861     -0.006963      0.006006
      2.74000      1.37000      8.22000        -0.025974      0.025560      0.003625
      0.00000      1.37000     10.96000         0.142476      0.187644     -0.114344
      2.74000      1.37000     13.70000         0.294433      0.778146      0.180266
      0.00000      6.85000      0.00000        -0.234376      0.424220     -0.979683
      2.74000      6.85000      2.74000        -0.138306      0.024781      0.077655
      0.00000      6.85000      5.48000         0.023264      0.002255      0.006853
      2.74000      6.85000      8.22000         0.037709      0.021710     -0.010767
      0.00000      6.85000     10.96000         0.091074      0.105798     -0.056471
      2.74000      6.85000     13.70000         0.218059      0.011444      0.432169
      0.00000     12.33000      0.00000         0.230402     -0.464772      0.048665
      2.74000     12.33000      2.74000         0.254898     -0.173015      0.088531
      0.00000     12.33000      5.48000         0.036625     -0.039444      0.010781
      2.74000     12.33000      8.22000         0.002142     -0.012283      0.009876
      0.00000     12.33000     10.96000        -0.156023     -0.066436     -0.076329
      2.74000     12.33000     13.70000        -0.513785     -0.274911      0.983108
      2.74000      4.11000      0.00000         0.015263      0.393523      0.622240
      0.00000      4.11000      2.74000        -0.083173      0.039884      0.102388
      2.74000      4.11000      5.48000        -0.012276     -0.002991     -0.009943
      0.00000      4.11000      8.22000         0.022998      0.025193      0.008995
      2.74000      4.11000     10.96000         0.112048      0.078657     -0.135193
      0.00000      4.11000     13.70000         0.507087     -0.041896     -7.476398
      2.74000      9.59000      0.00000        -0.000680     -0.992354      3.783095
      0.00000      9.59000      2.74000         0.071566      0.072191      0.091285
      2.74000      9.59000      5.48000         0.022119      0.014686      0.012498
      0.00000      9.59000      8.22000         0.007040     -0.038861      0.002388
      2.74000      9.59000     10.96000        -0.064933     -0.155746     -0.076959
      0.00000      9.59000     13.70000        -0.306606     -0.454657     -0.694223
      2.74000     15.07000      0.00000         0.846350      0.788270      4.536780
      0.00000     15.07000      2.74000         0.117258     -0.181994      0.147650
      2.74000     15.07000      5.48000        -0.011182     -0.028640     -0.014774
      0.00000     15.07000      8.22000        -0.019116      0.044378      0.017123
      2.74000     15.07000     10.96000         0.049143      0.172329     -0.082151
      0.00000     15.07000     13.70000         0.686868      0.216881     -0.954818
      0.10148      4.13521     15.70000         0.090185     -0.149271      5.847939
      2.84148     14.41021     17.70111        -0.392182     -0.212349      0.046276
      0.10148      8.24521     19.70222        -0.376000      0.037137      0.001444
      2.84148      2.08021     21.70334        -0.226410      0.068999     -0.005476
      0.10148     12.35521     23.70445        -0.248876     -0.027828      0.089159
      2.84148      6.19021     25.70556         0.951533     -0.044078      0.724764
      0.10148     12.35521     15.70000         0.837038      0.252968     -0.472283
      2.84148      6.19021     17.70111        -0.322892      0.140196     -0.014960
      0.10148      0.02521     19.70222        -0.280467     -0.025070     -0.044949
      2.84148     10.30021     21.70334        -0.443126     -0.046598     -0.014629
      0.10148      4.13521     23.70445        -0.577096      0.035195     -0.171765
      2.84148     14.41021     25.70556        -0.088083     -1.235877     -3.054626
      0.10148      8.24521     15.70000         0.796983     -0.713542     -0.339176
      2.84148      2.08021     17.70111        -0.252757     -0.172064     -0.038302
      0.10148     12.35521     19.70222        -0.271321     -0.077854     -0.026190
      2.84148      6.19021     21.70334        -0.290699      0.040794      0.007494
      0.10148      0.02521     23.70445        -0.315508      0.278243     -0.011837
      2.84148     10.30021     25.70556         0.459538      1.766349     -2.709264
      0.10148      0.02521     15.70000         0.237749      0.288585      0.019102
      2.84148     10.30021     17.70111        -0.632841      0.097281      0.109121
      0.10148      4.13521     19.70222        -0.410357      0.004767     -0.020160
      2.84148     14.41021     21.70334        -0.325654      0.001904      0.022286
      0.10148      8.24521     23.70445        -0.538943     -0.113608     -0.106149
      2.84148      2.08021     25.70556         0.629476     -0.220460      0.279936
      4.21148     10.30021     15.70000        -0.604607      1.155224     -1.047853
      1.47148      4.13521     17.70111         0.516259     -0.147003      0.058300
      4.21148     14.41021     19.70222         0.338137      0.035655     -0.001742
      1.47148      8.24521     21.70334         0.365512      0.017622     -0.005151
      4.21148      2.08021     23.70445         0.337103     -0.253102      0.077739
      1.47148     12.35521     25.70556        -0.578724      0.281945      0.481668
      4.21148      2.08021     15.70000        -0.890792     -0.994994     -0.163204
      1.47148     12.35521     17.70111         0.256042      0.314912     -0.053006
      4.21148      6.19021     19.70222         0.248614     -0.049240      0.014131
      1.47148      0.02521     21.70334         0.303089     -0.052483      0.029402
      4.21148     10.30021     23.70445         0.511506     -0.020672      0.035253
      1.47148      4.13521     25.70556        -0.833728     -0.528079     -0.130326
      4.21148      6.19021     15.70000        -0.694825      0.426001     -1.041666
      1.47148      0.02521     17.70111         0.450782     -0.032542     -0.037998
      4.21148     10.30021     19.70222         0.449378      0.050680      0.002650
      1.47148      4.13521     21.70334         0.407200     -0.053893      0.022631
      4.21148     14.41021     23.70445         0.513423      0.239307     -0.062477
      1.47148      8.24521     25.70556        -0.735655     -1.074484      1.470499
      4.21148     14.41021     15.70000        -1.047244     -0.239472      0.445730
      1.47148      8.24521     17.70111         0.455810      0.039533     -0.154288
      4.21148      2.08021     19.70222         0.234669      0.032824      0.023367
      1.47148     12.35521     21.70334         0.197495      0.022106     -0.053643
      4.21148      6.19021     23.70445         0.361391     -0.151683      0.111975
      1.47148      0.02521     25.70556        -1.039019      1.143725     -0.173326
 -----------------------------------------------------------------------------------
    total drift:                                0.386531     -0.006021     -0.202662


--------------------------------------------------------------------------------------------------------



  FREE ENERGIE OF THE ION-ELECTRON SYSTEM (eV)
  ---------------------------------------------------
  free  energy   TOTEN  =      -549.79066801 eV

  energy  without entropy=     -549.79012854  energy(sigma->0) =     -549.79039827
 


--------------------------------------------------------------------------------------------------------


    POTLOK:  cpu time      3.7928: real time      3.8153


--------------------------------------------------------------------------------------------------------


     LOOP+:  cpu time   2602.9055: real time   2626.5538
    4ORBIT:  cpu time      0.0000: real time      0.0000

 total amount of memory used by VASP MPI-rank0   592233. kBytes
=======================================================================

   base      :      30000. kBytes
   nonlr-proj:       6149. kBytes
   fftplans  :      53369. kBytes
   grid      :      35918. kBytes
   one-center:        129. kBytes
   wavefun   :     466668. kBytes
 
  
  
 General timing and accounting informations for this job:
 ========================================================
  
                  Total CPU time used (sec):     2668.923
                            User time (sec):     2553.652
                          System time (sec):      115.271
                         Elapsed time (sec):     2695.841
  
                   Maximum memory used (kb):      857956.
                   Average memory used (kb):          N/A
  
                          Minor page faults:       596822
                          Major page faults:           37
                 Voluntary context switches:         1461
