<?xml version="1.0" encoding="ISO-8859-1"?>
<modeling>
 <generator>
  <i name="program" type="string">vasp </i>
  <i name="version" type="string">6.4.3  </i>
  <i name="subversion" type="string">19Mar24 (build Nov 20 2024 16:33:01) complex                          parallel </i>
  <i name="platform" type="string">LinuxGNU </i>
  <i name="date" type="string">2025 06 03 </i>
  <i name="time" type="string">23:31:11 </i>
 </generator>
 <incar>
  <i type="string" name="SYSTEM">Si and Ge interface calculation</i>
  <i type="int" name="ISTART">     0</i>
  <i type="logical" name="ADDGRID"> T  </i>
  <i type="int" name="ISPIN">     2</i>
  <i name="AMIX">      0.60000000</i>
  <i type="int" name="ICHARG">     2</i>
  <i type="int" name="NELM">   100</i>
  <i name="EDIFF">      0.00000010</i>
  <i name="ENCUT">    700.00000000</i>
  <i name="ENAUG">    900.00000000</i>
  <i type="int" name="NBANDS">    20</i>
  <i name="NUPDOWN">      1.00000000</i>
  <i name="NELECT">     32.00000000</i>
  <i type="string" name="LREAL">AUTO</i>
  <i type="int" name="ISMEAR">     0</i>
  <i name="SIGMA">      0.01000000</i>
  <i type="int" name="LMAXMIX">     6</i>
  <i type="logical" name="LWAVE"> F  </i>
  <i type="logical" name="LVTOT"> F  </i>
  <i type="logical" name="LVHAR"> T  </i>
  <i type="logical" name="LASPH"> T  </i>
  <i type="logical" name="LMIXTAU"> T  </i>
 </incar>
 <primitive_cell>
  <structure name="primitive_cell" >
   <crystal>
    <varray name="basis" >
     <v>       3.24500000      -3.24500000       0.00000000 </v>
     <v>       3.24500000       0.00000000       3.24500000 </v>
     <v>       0.00000000      -3.24500000       3.24500000 </v>
    </varray>
    <i name="volume">     68.33986225 </i>
    <varray name="rec_basis" >
     <v>       0.15408320      -0.15408320      -0.15408320 </v>
     <v>       0.15408320       0.15408320       0.15408320 </v>
     <v>      -0.15408320      -0.15408320       0.15408320 </v>
    </varray>
   </crystal>
   <varray name="positions" >
    <v>       0.00000000       0.00000000       0.00000000 </v>
    <v>       0.75000000       0.75000000       0.75000000 </v>
   </varray>
  </structure>
  <varray name="primitive_index" >
   <v type="int" >        1 </v>
   <v type="int" >        2 </v>
  </varray>
 </primitive_cell>
 <kpoints>
  <generation param="Gamma">
   <v type="int" name="divisions">       5        5        5 </v>
   <v name="usershift">      0.00000000       0.00000000       0.00000000 </v>
   <v name="genvec1">      0.20000000       0.00000000       0.00000000 </v>
   <v name="genvec2">      0.00000000       0.20000000       0.00000000 </v>
   <v name="genvec3">      0.00000000       0.00000000       0.20000000 </v>
   <v name="shift">      0.00000000       0.00000000       0.00000000 </v>
  </generation>
  <varray name="kpointlist" >
   <v>       0.00000000       0.00000000       0.00000000 </v>
   <v>       0.20000000       0.00000000       0.00000000 </v>
   <v>       0.40000000       0.00000000       0.00000000 </v>
   <v>       0.20000000       0.20000000       0.00000000 </v>
   <v>       0.40000000       0.20000000       0.00000000 </v>
   <v>       0.40000000       0.40000000       0.00000000 </v>
   <v>       0.20000000       0.20000000       0.20000000 </v>
   <v>       0.40000000       0.20000000       0.20000000 </v>
   <v>       0.40000000       0.40000000       0.20000000 </v>
   <v>       0.40000000       0.40000000       0.40000000 </v>
  </varray>
  <varray name="weights" >
   <v>       0.00800000 </v>
   <v>       0.04800000 </v>
   <v>       0.04800000 </v>
   <v>       0.09600000 </v>
   <v>       0.19200000 </v>
   <v>       0.09600000 </v>
   <v>       0.06400000 </v>
   <v>       0.19200000 </v>
   <v>       0.19200000 </v>
   <v>       0.06400000 </v>
  </varray>
 </kpoints>
 <parameters>
  <separator name="general" >
   <i type="string" name="SYSTEM">Si and Ge interface calculation</i>
   <i type="logical" name="LCOMPAT"> F  </i>
  </separator>
  <separator name="electronic" >
   <i type="string" name="PREC">normal</i>
   <i name="ENMAX">    700.00000000</i>
   <i name="ENAUG">    900.00000000</i>
   <i name="EDIFF">      0.00000010</i>
   <i type="int" name="IALGO">    38</i>
   <i type="int" name="IWAVPR">    10</i>
   <i type="int" name="NBANDS">    20</i>
   <i type="int" name="NBANDSLOW">    -1</i>
   <i type="int" name="NBANDSHIGH">    -1</i>
   <i name="NELECT">     32.00000000</i>
   <i type="int" name="TURBO">     0</i>
   <i type="int" name="IRESTART">     0</i>
   <i type="int" name="NREBOOT">     0</i>
   <i type="int" name="NMIN">     0</i>
   <i name="EREF">      0.00000000</i>
   <separator name="electronic smearing" >
    <i type="int" name="ISMEAR">     0</i>
    <i name="SIGMA">      0.01000000</i>
    <i name="KSPACING">      0.50000000</i>
    <i type="logical" name="KGAMMA"> T  </i>
    <i type="logical" name="KBLOWUP"> T  </i>
   </separator>
   <separator name="electronic projectors" >
    <i type="logical" name="LREAL"> T  </i>
    <v name="ROPT">     -0.00050000</v>
    <i type="int" name="LMAXPAW">  -100</i>
    <i type="int" name="LMAXMIX">     6</i>
    <i type="logical" name="NLSPLINE"> F  </i>
   </separator>
   <separator name="electronic startup" >
    <i type="int" name="ISTART">     0</i>
    <i type="int" name="ICHARG">     2</i>
    <i type="int" name="INIWAV">     1</i>
   </separator>
   <separator name="electronic spin" >
    <i type="int" name="ISPIN">     2</i>
    <i type="logical" name="LNONCOLLINEAR"> F  </i>
    <v name="MAGMOM">      0.12500000      0.12500000      0.12500000      0.12500000      0.12500000      0.12500000      0.12500000      0.12500000</v>
    <i name="NUPDOWN">      1.00000000</i>
    <i type="logical" name="LSORBIT"> F  </i>
    <v name="SAXIS">      0.00000000      0.00000000      1.00000000</v>
    <i type="logical" name="LSPIRAL"> F  </i>
    <v name="QSPIRAL">      0.00000000      0.00000000      0.00000000</v>
    <i type="logical" name="LZEROZ"> F  </i>
   </separator>
   <separator name="electronic exchange-correlation" >
    <i type="logical" name="LASPH"> T  </i>
   </separator>
   <separator name="electronic convergence" >
    <i type="int" name="NELM">   100</i>
    <i type="int" name="NELMDL">    -5</i>
    <i type="int" name="NELMIN">     2</i>
    <i name="ENINI">    700.00000000</i>
    <separator name="electronic convergence detail" >
     <i type="logical" name="LDIAG"> T  </i>
     <i type="logical" name="LSUBROT"> F  </i>
     <i name="WEIMIN">      0.00000000</i>
     <i name="EBREAK">      0.00000000</i>
     <i name="DEPER">      0.30000000</i>
     <i type="int" name="NRMM">     4</i>
     <i name="TIME">      0.40000000</i>
    </separator>
   </separator>
   <separator name="electronic mixer" >
    <i name="AMIX">      0.60000000</i>
    <i name="BMIX">      1.00000000</i>
    <i name="AMIN">      0.10000000</i>
    <i name="AMIX_MAG">      2.40000000</i>
    <i name="BMIX_MAG">      1.00000000</i>
    <separator name="electronic mixer details" >
     <i type="int" name="IMIX">     4</i>
     <i type="logical" name="MIXFIRST"> F  </i>
     <i type="int" name="MAXMIX">   -45</i>
     <i name="WC">    100.00000000</i>
     <i type="int" name="INIMIX">     1</i>
     <i type="int" name="MIXPRE">     1</i>
     <i type="int" name="MREMOVE">     5</i>
    </separator>
   </separator>
   <separator name="electronic dipolcorrection" >
    <i type="logical" name="LDIPOL"> F  </i>
    <i type="logical" name="LMONO"> F  </i>
    <i type="int" name="IDIPOL">     0</i>
    <i name="EPSILON">      1.00000000</i>
    <v name="DIPOL">   -100.00000000   -100.00000000   -100.00000000</v>
    <i name="EFIELD">      0.00000000</i>
    <i type="logical" name="LVACPOTAV"> F  </i>
   </separator>
  </separator>
  <separator name="grids" >
   <i type="int" name="NGX">    42</i>
   <i type="int" name="NGY">    42</i>
   <i type="int" name="NGZ">    42</i>
   <i type="int" name="NGXF">    84</i>
   <i type="int" name="NGYF">    84</i>
   <i type="int" name="NGZF">    84</i>
   <i type="logical" name="ADDGRID"> T  </i>
  </separator>
  <separator name="ionic" >
   <i type="int" name="NSW">     0</i>
   <i type="int" name="IBRION">    -1</i>
   <i type="int" name="MDALGO">     0</i>
   <i type="int" name="ISIF">     2</i>
   <i name="PSTRESS">      0.00000000</i>
   <i name="EDIFFG">      0.00000100</i>
   <i type="int" name="NFREE">     0</i>
   <i name="POTIM">      0.50000000</i>
   <i name="SMASS">     -3.00000000</i>
   <i name="SCALEE">      1.00000000</i>
  </separator>
  <separator name="ionic md" >
   <i name="TEBEG">      0.00010000</i>
   <i name="TEEND">      0.00010000</i>
   <i type="int" name="NBLOCK">     1</i>
   <i type="int" name="KBLOCK">     1</i>
   <i type="int" name="NPACO">   256</i>
   <i name="APACO">     10.00000000</i>
  </separator>
  <separator name="symmetry" >
   <i type="int" name="ISYM">     2</i>
   <i name="SYMPREC">      0.00001000</i>
  </separator>
  <separator name="dos" >
   <i type="int" name="LORBIT">     0</i>
   <v name="RWIGS">     -1.00000000</v>
   <i type="int" name="NEDOS">   301</i>
   <i name="EMIN">     10.00000000</i>
   <i name="EMAX">    -10.00000000</i>
   <i name="EFERMI">      0.00000000</i>
  </separator>
  <separator name="writing" >
   <i type="int" name="NWRITE">     2</i>
   <i type="logical" name="LWAVE"> F  </i>
   <i type="logical" name="LDOWNSAMPLE"> F  </i>
   <i type="logical" name="LCHARG"> T  </i>
   <i type="logical" name="LPARD"> F  </i>
   <i type="logical" name="LVTOT"> F  </i>
   <i type="logical" name="LVHAR"> T  </i>
   <i type="logical" name="LELF"> F  </i>
   <i type="logical" name="LOPTICS"> F  </i>
   <v name="STM">      0.00000000      0.00000000      0.00000000      0.00000000      0.00000000      0.00000000      0.00000000</v>
  </separator>
  <separator name="performance" >
   <i type="int" name="NPAR">     1</i>
   <i type="int" name="NSIM">     4</i>
   <i type="int" name="NBLK">    -1</i>
   <i type="logical" name="LPLANE"> T  </i>
   <i type="logical" name="LSCALAPACK"> T  </i>
   <i type="logical" name="LSCAAWARE"> F  </i>
   <i type="logical" name="LSCALU"> F  </i>
   <i type="logical" name="LASYNC"> F  </i>
   <i type="logical" name="LORBITALREAL"> F  </i>
  </separator>
  <separator name="miscellaneous" >
   <i type="int" name="IDIOT">     3</i>
   <i type="int" name="PHON_NSTRUCT">    -1</i>
   <i type="logical" name="LMUSIC"> F  </i>
   <v name="POMASS">    118.71000000</v>
   <v name="DARWINR">      0.00000000</v>
   <v name="DARWINV">      1.00000000</v>
   <i type="logical" name="LCORR"> T  </i>
  </separator>
  <i type="logical" name="GGA_COMPAT"> T  </i>
  <i type="logical" name="LBERRY"> F  </i>
  <i type="int" name="ICORELEVEL">     0</i>
  <i type="logical" name="LDAU"> F  </i>
  <i type="int" name="I_CONSTRAINED_M">     0</i>
  <separator name="electronic exchange-correlation" >
   <i type="string" name="GGA    ">PE</i>
   <i type="string" name="XC_C">1</i>
   <i type="int" name="VOSKOWN">     0</i>
   <i type="logical" name="LHFCALC"> F  </i>
   <i type="string" name="PRECFOCK"></i>
   <i type="logical" name="LSYMGRAD"> F  </i>
   <i type="logical" name="LHFONE"> F  </i>
   <i type="logical" name="LRHFCALC"> F  </i>
   <i type="logical" name="LTHOMAS"> F  </i>
   <i type="logical" name="LMODELHF"> F  </i>
   <i type="logical" name="LFOCKACE"> F  </i>
   <i name="ENCUT4O">     -1.00000000</i>
   <i type="int" name="EXXOEP">     0</i>
   <i type="int" name="FOURORBIT">     0</i>
   <i name="AEXX">      0.00000000</i>
   <i name="HFALPHA">      0.00000000</i>
   <i name="MCALPHA">      0.00000000</i>
   <i name="ALDAX">      1.00000000</i>
   <i name="AGGAX">      1.00000000</i>
   <i name="AMGGAX">      1.00000000</i>
   <i name="ALDAC">      1.00000000</i>
   <i name="AGGAC">      1.00000000</i>
   <i name="AMGGAC">      1.00000000</i>
   <i type="int" name="NKREDX">     1</i>
   <i type="int" name="NKREDY">     1</i>
   <i type="int" name="NKREDZ">     1</i>
   <i type="logical" name="SHIFTRED"> F  </i>
   <i type="logical" name="ODDONLY"> F  </i>
   <i type="logical" name="EVENONLY"> F  </i>
   <i type="int" name="LMAXFOCK">     0</i>
   <i type="int" name="NMAXFOCKAE">     0</i>
   <i type="logical" name="LFOCKAEDFT"> F  </i>
   <i name="HFSCREEN">      0.00000000</i>
   <i name="HFSCREENC">      0.00000000</i>
   <i type="int" name="NBANDSGWLOW">     0</i>
  </separator>
  <separator name="vdW DFT" >
   <i type="logical" name="LUSE_VDW"> F  </i>
   <i type="int" name="IVDW_NL">    -1</i>
   <i type="logical" name="LSPIN_VDW"> F  </i>
   <i name="ZAB_VDW">     -0.84910000</i>
   <i name="GAMMA_VDW">      1.39626340</i>
   <i name="ALPHA_VDW">      0.00000000</i>
   <i name="PARAM1">      0.12340000</i>
   <i name="PARAM2">      1.00000000</i>
   <i name="BPARAM">      6.30000000</i>
   <i name="CPARAM">      0.00930000</i>
  </separator>
  <separator name="model GW" >
   <i type="int" name="MODEL_GW">     0</i>
   <i name="MODEL_EPS0">     20.50195868</i>
   <i name="MODEL_ALPHA">      1.00000000</i>
  </separator>
  <separator name="linear response parameters" >
   <i type="logical" name="LEPSILON"> F  </i>
   <i type="logical" name="LRPA"> F  </i>
   <i type="logical" name="LNABLA"> F  </i>
   <i type="logical" name="LVEL"> F  </i>
   <i name="CSHIFT">      0.10000000</i>
   <i name="OMEGAMAX">     -1.00000000</i>
   <i name="DEG_THRESHOLD">      0.00200000</i>
   <i name="RTIME">     -0.10000000</i>
   <i name="WPLASMAI">      0.00000000</i>
   <v name="DFIELD">      0.00000000      0.00000000      0.00000000</v>
   <v name="WPLASMA">      0.00000000      0.00000000      0.00000000      0.00000000      0.00000000      0.00000000      0.00000000      0.00000000      0.00000000</v>
  </separator>
  <separator name="orbital magnetization" >
   <i type="logical" name="NUCIND"> F  </i>
   <v name="MAGPOS">      0.00000000      0.00000000      0.00000000</v>
   <i type="logical" name="LNICSALL"> T  </i>
   <i type="logical" name="ORBITALMAG"> F  </i>
   <i type="logical" name="LMAGBLOCH"> F  </i>
   <i type="logical" name="LCHIMAG"> F  </i>
   <i type="logical" name="LGAUGE"> T  </i>
   <i type="int" name="MAGATOM">     0</i>
   <v name="MAGDIPOL">      0.00000000      0.00000000      0.00000000</v>
   <v name="AVECCONST">      0.00000000      0.00000000      0.00000000</v>
  </separator>
  <separator name="response functions" >
   <i type="logical" name="LALL_IN_ONE"> F  </i>
   <i type="int" name="IALL_IN_ONE">    -1</i>
   <i type="int" name="NBANDS_WAVE">    -1</i>
   <i type="logical" name="LFINITE_TEMPERATURE"> F  </i>
   <i type="logical" name="LADDER"> F  </i>
   <i type="logical" name="LRPAFORCE"> F  </i>
   <i type="logical" name="LFXC"> F  </i>
   <i type="logical" name="LHARTREE"> T  </i>
   <i type="int" name="IBSE">     0</i>
   <v type="int" name="KPOINT">    -1     0     0     0</v>
   <i type="logical" name="LTCTC"> F  </i>
   <i type="logical" name="LTCTE"> F  </i>
   <i type="logical" name="LTETE"> F  </i>
   <i type="logical" name="LTRIPLET"> F  </i>
   <i type="logical" name="LFXCEPS"> F  </i>
   <i type="logical" name="LFXHEG"> F  </i>
   <i type="int" name="NATURALO">     2</i>
   <i type="logical" name="LHOLEGF"> F  </i>
   <i type="logical" name="L2ORDER"> F  </i>
   <i type="logical" name="LDMP1"> F  </i>
   <i type="logical" name="LMP2LT"> F  </i>
   <i type="logical" name="LSMP2LT"> F  </i>
   <i type="logical" name="LGWLF"> F  </i>
   <i name="ENCUTGW">     -1.60000002</i>
   <i name="ENCUTGWSOFT">     -1.60000002</i>
   <i name="ENCUTLF">     -1.00000000</i>
   <i type="logical" name="ESF_SPLINES"> F  </i>
   <i name="ESF_CONV">      0.01000000</i>
   <i type="int" name="ESF_NINTER">    15</i>
   <i type="int" name="LMAXMP2">    -1</i>
   <i name="SCISSOR">      0.00000000</i>
   <i type="int" name="NOMEGA">     0</i>
   <i type="int" name="NOMEGAR">     0</i>
   <i type="int" name="NBANDSGW">    -1</i>
   <i type="int" name="NBANDSO">    -1</i>
   <i type="int" name="NBANDSV">    -1</i>
   <i type="int" name="NELMGW">     1</i>
   <i type="int" name="NELMHF">     1</i>
   <i type="int" name="DIM">     3</i>
   <i type="int" name="IESPILON">     4</i>
   <i type="int" name="ANTIRES">     0</i>
   <i name="OMEGAMAX">    -30.00000000</i>
   <i name="OMEGAMIN">    -30.00000000</i>
   <i name="OMEGATL">   -200.00000000</i>
   <i type="int" name="OMEGAGRID">     0</i>
   <i name="CSHIFT">     -0.10000000</i>
   <i type="logical" name="LSELFENERGY"> F  </i>
   <i type="logical" name="LSPECTRAL"> F  </i>
   <i type="logical" name="LSPECTRALGW"> F  </i>
   <i type="logical" name="LSINGLES"> F  </i>
   <i type="logical" name="LFERMIGW"> F  </i>
   <i type="logical" name="ODDONLYGW"> F  </i>
   <i type="logical" name="EVENONLYGW"> F  </i>
   <i type="int" name="NKREDLFX">     1</i>
   <i type="int" name="NKREDLFY">     1</i>
   <i type="int" name="NKREDLFZ">     1</i>
   <i type="int" name="MAXMEM">  2800</i>
   <i type="int" name="TELESCOPE">     0</i>
   <i type="int" name="NTAUPAR">    -1</i>
   <i type="int" name="NOMEGAPAR">    -1</i>
   <i name="DAMP_NEWTON">      0.80000001</i>
   <i name="LAMBDA">      1.00000000</i>
  </separator>
  <separator name="External order field" >
   <i name="OFIELD_KAPPA">      0.00000000</i>
   <v name="OFIELD_K">      0.00000000      0.00000000      0.00000000</v>
   <i name="OFIELD_Q6_NEAR">      0.00000000</i>
   <i name="OFIELD_Q6_FAR">      0.00000000</i>
   <i name="OFIELD_A">      0.00000000</i>
  </separator>
  <separator name="optional k-points parameters" >
   <i type="int" name="KPOINTS_OPT_MODE">     1</i>
   <i type="logical" name="LKPOINTS_OPT"> F  </i>
  </separator>
 </parameters>
 <atominfo>
  <atoms>       8 </atoms>
  <types>       1 </types>
  <array name="atoms" >
   <dimension dim="1">ion</dimension>
   <field type="string">element</field>
   <field type="int">atomtype</field>
   <set>
    <rc><c>Sn</c><c>   1</c></rc>
    <rc><c>Sn</c><c>   1</c></rc>
    <rc><c>Sn</c><c>   1</c></rc>
    <rc><c>Sn</c><c>   1</c></rc>
    <rc><c>Sn</c><c>   1</c></rc>
    <rc><c>Sn</c><c>   1</c></rc>
    <rc><c>Sn</c><c>   1</c></rc>
    <rc><c>Sn</c><c>   1</c></rc>
   </set>
  </array>
  <array name="atomtypes" >
   <dimension dim="1">type</dimension>
   <field type="int">atomspertype</field>
   <field type="string">element</field>
   <field>mass</field>
   <field>valence</field>
   <field type="string">pseudopotential</field>
   <set>
    <rc><c>   8</c><c>Sn</c><c>    118.71000000</c><c>      4.00000000</c><c>  PAW_PBE Sn 08Apr2002                  </c></rc>
   </set>
  </array>
 </atominfo>
 <structure name="initialpos" >
  <crystal>
   <varray name="basis" >
    <v>       6.49000000       0.00000000       0.00000000 </v>
    <v>       0.00000000       6.49000000       0.00000000 </v>
    <v>       0.00000000       0.00000000       6.49000000 </v>
   </varray>
   <i name="volume">    273.35944900 </i>
   <varray name="rec_basis" >
    <v>       0.15408320       0.00000000       0.00000000 </v>
    <v>       0.00000000       0.15408320       0.00000000 </v>
    <v>       0.00000000       0.00000000       0.15408320 </v>
   </varray>
  </crystal>
  <varray name="positions" >
   <v>       0.00000000       0.00000000       0.00000000 </v>
   <v>       0.25000000       0.25000000       0.25000000 </v>
   <v>       0.00000000       0.50000000       0.50000000 </v>
   <v>       0.25000000       0.75000000       0.75000000 </v>
   <v>       0.50000000       0.00000000       0.50000000 </v>
   <v>       0.75000000       0.25000000       0.75000000 </v>
   <v>       0.50000000       0.50000000       0.00000000 </v>
   <v>       0.75000000       0.75000000       0.25000000 </v>
  </varray>
 </structure>
 <calculation>
  <scstep>
   <time name="dav"> 2512.48  127.40</time>
   <time name="total"> 2524.42  128.37</time>
   <energy>
    <i name="alphaZ">     29.28705277 </i>
    <i name="ewald">   -764.93065327 </i>
    <i name="hartreedc">    -45.05860896 </i>
    <i name="XCdc">   -946.58081898 </i>
    <i name="pawpsdc">   1515.31145118 </i>
    <i name="pawaedc">   -524.48101540 </i>
    <i name="eentropy">     -0.00070193 </i>
    <i name="bandstr">    132.97383236 </i>
    <i name="atom">    752.68786381 </i>
    <i name="e_fr_energy">    149.20840159 </i>
    <i name="e_wo_entrp">    149.20910352 </i>
    <i name="e_0_energy">    149.20875255 </i>
   </energy>
  </scstep>
  <scstep>
   <time name="dav"> 3169.53  160.78</time>
   <time name="total"> 3169.54  160.78</time>
   <energy>
    <i name="e_fr_energy">    -17.01777155 </i>
    <i name="e_wo_entrp">    -17.01657051 </i>
    <i name="e_0_energy">    -17.01717103 </i>
   </energy>
  </scstep>
  <scstep>
   <time name="dav"> 3251.95  165.02</time>
   <time name="total"> 3251.95  165.02</time>
   <energy>
    <i name="e_fr_energy">    -29.98230844 </i>
    <i name="e_wo_entrp">    -29.98151700 </i>
    <i name="e_0_energy">    -29.98191272 </i>
   </energy>
  </scstep>
  <scstep>
   <time name="dav"> 3237.87  164.15</time>
   <time name="total"> 3237.89  164.15</time>
   <energy>
    <i name="e_fr_energy">    -30.28876787 </i>
    <i name="e_wo_entrp">    -30.28758086 </i>
    <i name="e_0_energy">    -30.28817437 </i>
   </energy>
  </scstep>
  <scstep>
   <time name="dav"> 3159.18  160.38</time>
   <time name="total"> 3195.80  162.58</time>
   <energy>
    <i name="e_fr_energy">    -30.30114879 </i>
    <i name="e_wo_entrp">    -30.30021856 </i>
    <i name="e_0_energy">    -30.30068368 </i>
   </energy>
  </scstep>
  <scstep>
   <time name="dav"> 2965.22  150.38</time>
   <time name="total"> 3009.71  153.26</time>
   <energy>
    <i name="e_fr_energy">    -29.96621414 </i>
    <i name="e_wo_entrp">    -29.96528391 </i>
    <i name="e_0_energy">    -29.96574902 </i>
   </energy>
  </scstep>
  <scstep>
   <time name="dav"> 2868.22  146.40</time>
   <time name="total"> 2910.64  149.21</time>
   <energy>
    <i name="e_fr_energy">    -29.90450730 </i>
    <i name="e_wo_entrp">    -29.90357706 </i>
    <i name="e_0_energy">    -29.90404218 </i>
   </energy>
  </scstep>
  <scstep>
   <time name="dav"> 3017.99  152.96</time>
   <time name="total"> 3061.92  155.85</time>
   <energy>
    <i name="e_fr_energy">    -29.90720280 </i>
    <i name="e_wo_entrp">    -29.90627257 </i>
    <i name="e_0_energy">    -29.90673768 </i>
   </energy>
  </scstep>
  <scstep>
   <time name="dav"> 2802.47  142.30</time>
   <time name="total"> 2842.36  144.96</time>
   <energy>
    <i name="e_fr_energy">    -29.90867299 </i>
    <i name="e_wo_entrp">    -29.90774276 </i>
    <i name="e_0_energy">    -29.90820788 </i>
   </energy>
  </scstep>
  <scstep>
   <time name="dav"> 2857.67  144.92</time>
   <time name="total"> 2901.66  147.80</time>
   <energy>
    <i name="e_fr_energy">    -29.90890157 </i>
    <i name="e_wo_entrp">    -29.90797134 </i>
    <i name="e_0_energy">    -29.90843645 </i>
   </energy>
  </scstep>
  <scstep>
   <time name="dav"> 2998.51  152.68</time>
   <time name="total"> 3041.52  155.49</time>
   <energy>
    <i name="e_fr_energy">    -29.90892993 </i>
    <i name="e_wo_entrp">    -29.90799970 </i>
    <i name="e_0_energy">    -29.90846481 </i>
   </energy>
  </scstep>
  <scstep>
   <time name="dav"> 2851.64  144.41</time>
   <time name="total"> 2896.47  147.34</time>
   <energy>
    <i name="e_fr_energy">    -29.90893579 </i>
    <i name="e_wo_entrp">    -29.90800556 </i>
    <i name="e_0_energy">    -29.90847068 </i>
   </energy>
  </scstep>
  <scstep>
   <time name="dav"> 2998.64  153.12</time>
   <time name="total"> 3036.92  155.69</time>
   <energy>
    <i name="e_fr_energy">    -29.90893465 </i>
    <i name="e_wo_entrp">    -29.90800442 </i>
    <i name="e_0_energy">    -29.90846954 </i>
   </energy>
  </scstep>
  <scstep>
   <time name="dav"> 2311.99  117.32</time>
   <time name="total"> 2362.15  120.54</time>
   <energy>
    <i name="e_fr_energy">    -29.90893454 </i>
    <i name="e_wo_entrp">    -29.90800431 </i>
    <i name="e_0_energy">    -29.90846942 </i>
   </energy>
  </scstep>
  <scstep>
   <time name="dav"> 1824.57   92.95</time>
   <time name="total"> 1836.69   93.89</time>
   <energy>
    <i name="alphaZ">     29.28705277 </i>
    <i name="ewald">   -764.93065327 </i>
    <i name="hartreedc">    -53.30850214 </i>
    <i name="XCdc">   -943.74097760 </i>
    <i name="pawpsdc">   2434.25826966 </i>
    <i name="pawaedc">  -1446.31179476 </i>
    <i name="eentropy">     -0.00093023 </i>
    <i name="bandstr">    -37.84926275 </i>
    <i name="atom">    752.68786381 </i>
    <i name="e_fr_energy">    -29.90893452 </i>
    <i name="e_wo_entrp">    -29.90800429 </i>
    <i name="e_0_energy">    -29.90846940 </i>
   </energy>
  </scstep>
  <structure>
   <crystal>
    <varray name="basis" >
     <v>       6.49000000       0.00000000       0.00000000 </v>
     <v>       0.00000000       6.49000000       0.00000000 </v>
     <v>       0.00000000       0.00000000       6.49000000 </v>
    </varray>
    <i name="volume">    273.35944900 </i>
    <varray name="rec_basis" >
     <v>       0.15408320       0.00000000       0.00000000 </v>
     <v>       0.00000000       0.15408320       0.00000000 </v>
     <v>       0.00000000       0.00000000       0.15408320 </v>
    </varray>
   </crystal>
   <varray name="positions" >
    <v>       0.00000000       0.00000000       0.00000000 </v>
    <v>       0.25000000       0.25000000       0.25000000 </v>
    <v>       0.00000000       0.50000000       0.50000000 </v>
    <v>       0.25000000       0.75000000       0.75000000 </v>
    <v>       0.50000000       0.00000000       0.50000000 </v>
    <v>       0.75000000       0.25000000       0.75000000 </v>
    <v>       0.50000000       0.50000000       0.00000000 </v>
    <v>       0.75000000       0.75000000       0.25000000 </v>
   </varray>
  </structure>
  <varray name="forces" >
   <v>       0.00000000      -0.00000000       0.00000000 </v>
   <v>      -0.00000000      -0.00000000      -0.00000000 </v>
   <v>       0.00000000      -0.00000000       0.00000000 </v>
   <v>      -0.00000000      -0.00000000      -0.00000000 </v>
   <v>      -0.00000000       0.00000000       0.00000000 </v>
   <v>      -0.00000000       0.00000000      -0.00000000 </v>
   <v>       0.00000000       0.00000000       0.00000000 </v>
   <v>      -0.00000000       0.00000000      -0.00000000 </v>
  </varray>
  <varray name="stress" >
   <v>      37.76924904       0.00000000       0.00000000 </v>
   <v>       0.00000000      37.76924904       0.00000000 </v>
   <v>      -0.00000000       0.00000000      37.76924904 </v>
  </varray>
  <energy>
   <i name="e_fr_energy">    -29.90893452 </i>
   <i name="e_wo_entrp">    -29.90800429 </i>
   <i name="e_0_energy">    -29.90846940 </i>
  </energy>
  <time name="totalsc">43967.73 2243.31</time>
  <eigenvalues>
   <array>
    <dimension dim="1">band</dimension>
    <dimension dim="2">kpoint</dimension>
    <dimension dim="3">spin</dimension>
    <field>eigene</field>
    <field>occ</field>
    <set>
     <set comment="spin 1">
      <set comment="kpoint 1">
       <r>   -7.1597    1.0000 </r>
       <r>   -4.0723    1.0000 </r>
       <r>   -4.0723    1.0000 </r>
       <r>   -4.0723    1.0000 </r>
       <r>   -4.0722    1.0000 </r>
       <r>   -4.0722    1.0000 </r>
       <r>   -4.0722    1.0000 </r>
       <r>    0.9756    1.0000 </r>
       <r>    0.9756    1.0000 </r>
       <r>    0.9756    1.0000 </r>
       <r>    0.9756    1.0000 </r>
       <r>    0.9756    1.0000 </r>
       <r>    0.9756    1.0000 </r>
       <r>    2.8524    1.0000 </r>
       <r>    3.5258    1.0000 </r>
       <r>    3.5258    1.0000 </r>
       <r>    3.5258    1.0000 </r>
       <r>    4.2544    1.0000 </r>
       <r>    4.2544    1.0000 </r>
       <r>    4.2544    1.0000 </r>
      </set>
      <set comment="kpoint 2">
       <r>   -7.0309    1.0000 </r>
       <r>   -5.1486    1.0000 </r>
       <r>   -4.0525    1.0000 </r>
       <r>   -4.0525    1.0000 </r>
       <r>   -4.0523    1.0000 </r>
       <r>   -4.0523    1.0000 </r>
       <r>   -2.8185    1.0000 </r>
       <r>    0.7423    1.0000 </r>
       <r>    0.7423    1.0000 </r>
       <r>    0.7424    1.0000 </r>
       <r>    0.7424    1.0000 </r>
       <r>    1.1171    1.0000 </r>
       <r>    1.1171    1.0000 </r>
       <r>    1.5810    1.0000 </r>
       <r>    3.0062    1.0000 </r>
       <r>    3.0062    1.0000 </r>
       <r>    4.0930    1.0000 </r>
       <r>    4.7141    0.0000 </r>
       <r>    4.7185    0.0000 </r>
       <r>    4.8550    0.0000 </r>
      </set>
      <set comment="kpoint 3">
       <r>   -6.6466    1.0000 </r>
       <r>   -6.0144    1.0000 </r>
       <r>   -4.0192    1.0000 </r>
       <r>   -4.0192    1.0000 </r>
       <r>   -4.0191    1.0000 </r>
       <r>   -4.0191    1.0000 </r>
       <r>   -1.4292    1.0000 </r>
       <r>    0.0517    1.0000 </r>
       <r>    0.4374    1.0000 </r>
       <r>    0.4374    1.0000 </r>
       <r>    0.4374    1.0000 </r>
       <r>    0.4374    1.0000 </r>
       <r>    1.5336    1.0000 </r>
       <r>    1.5336    1.0000 </r>
       <r>    2.1947    1.0000 </r>
       <r>    2.1947    1.0000 </r>
       <r>    4.2349    1.0000 </r>
       <r>    4.6514    0.0000 </r>
       <r>    5.3686    0.0000 </r>
       <r>    5.6439    0.0000 </r>
      </set>
      <set comment="kpoint 4">
       <r>   -6.9042    1.0000 </r>
       <r>   -5.0747    1.0000 </r>
       <r>   -5.0747    1.0000 </r>
       <r>   -4.3225    1.0000 </r>
       <r>   -3.7607    1.0000 </r>
       <r>   -2.8945    1.0000 </r>
       <r>   -2.8945    1.0000 </r>
       <r>    0.2185    1.0000 </r>
       <r>    0.7741    1.0000 </r>
       <r>    0.7741    1.0000 </r>
       <r>    0.8041    1.0000 </r>
       <r>    1.0372    1.0000 </r>
       <r>    1.0372    1.0000 </r>
       <r>    1.2073    1.0000 </r>
       <r>    2.5014    1.0000 </r>
       <r>    3.3099    1.0000 </r>
       <r>    4.4417    0.0000 </r>
       <r>    4.4887    0.0000 </r>
       <r>    4.7622    0.0000 </r>
       <r>    4.7622    0.0000 </r>
      </set>
      <set comment="kpoint 5">
       <r>   -6.5275    1.0000 </r>
       <r>   -5.9110    1.0000 </r>
       <r>   -4.8734    1.0000 </r>
       <r>   -4.6016    1.0000 </r>
       <r>   -3.4337    1.0000 </r>
       <r>   -3.1167    1.0000 </r>
       <r>   -1.6631    1.0000 </r>
       <r>   -0.4125    1.0000 </r>
       <r>    0.0327    1.0000 </r>
       <r>    0.2620    1.0000 </r>
       <r>    1.0129    1.0000 </r>
       <r>    1.1128    1.0000 </r>
       <r>    1.1775    1.0000 </r>
       <r>    1.6568    1.0000 </r>
       <r>    1.7211    1.0000 </r>
       <r>    2.5383    1.0000 </r>
       <r>    4.9502    0.0000 </r>
       <r>    5.2078    0.0000 </r>
       <r>    5.3059    0.0000 </r>
       <r>    5.3844    0.0000 </r>
      </set>
      <set comment="kpoint 6">
       <r>   -6.1762    1.0000 </r>
       <r>   -5.6122    1.0000 </r>
       <r>   -5.6122    1.0000 </r>
       <r>   -5.1550    1.0000 </r>
       <r>   -2.8275    1.0000 </r>
       <r>   -2.2045    1.0000 </r>
       <r>   -2.2045    1.0000 </r>
       <r>   -1.2853    1.0000 </r>
       <r>    0.0584    1.0000 </r>
       <r>    0.4666    1.0000 </r>
       <r>    0.4666    1.0000 </r>
       <r>    0.9925    1.0000 </r>
       <r>    1.8418    1.0000 </r>
       <r>    1.8959    1.0000 </r>
       <r>    1.8959    1.0000 </r>
       <r>    2.6662    1.0000 </r>
       <r>    4.8700    0.0000 </r>
       <r>    4.9632    0.0000 </r>
       <r>    5.5275    0.0000 </r>
       <r>    5.5275    0.0000 </r>
      </set>
      <set comment="kpoint 7">
       <r>   -6.7805    1.0000 </r>
       <r>   -5.0362    1.0000 </r>
       <r>   -5.0362    1.0000 </r>
       <r>   -5.0362    1.0000 </r>
       <r>   -2.9659    1.0000 </r>
       <r>   -2.9659    1.0000 </r>
       <r>   -2.9659    1.0000 </r>
       <r>    0.1451    1.0000 </r>
       <r>    0.4577    1.0000 </r>
       <r>    0.4577    1.0000 </r>
       <r>    0.4577    1.0000 </r>
       <r>    1.3371    1.0000 </r>
       <r>    1.3371    1.0000 </r>
       <r>    1.3371    1.0000 </r>
       <r>    2.9527    1.0000 </r>
       <r>    2.9527    1.0000 </r>
       <r>    3.9429    1.0000 </r>
       <r>    4.5610    0.0000 </r>
       <r>    4.5610    0.0000 </r>
       <r>    4.5610    0.0000 </r>
      </set>
      <set comment="kpoint 8">
       <r>   -6.4139    1.0000 </r>
       <r>   -5.8201    1.0000 </r>
       <r>   -4.9681    1.0000 </r>
       <r>   -4.9681    1.0000 </r>
       <r>   -3.0899    1.0000 </r>
       <r>   -3.0899    1.0000 </r>
       <r>   -1.9357    1.0000 </r>
       <r>   -0.8954    1.0000 </r>
       <r>    0.2900    1.0000 </r>
       <r>    0.2900    1.0000 </r>
       <r>    1.1470    1.0000 </r>
       <r>    1.3733    1.0000 </r>
       <r>    1.3733    1.0000 </r>
       <r>    1.7146    1.0000 </r>
       <r>    2.1625    1.0000 </r>
       <r>    2.2952    1.0000 </r>
       <r>    4.6455    0.0000 </r>
       <r>    4.8465    0.0000 </r>
       <r>    5.2629    0.0000 </r>
       <r>    5.2629    0.0000 </r>
      </set>
      <set comment="kpoint 9">
       <r>   -6.0829    1.0000 </r>
       <r>   -5.5699    1.0000 </r>
       <r>   -5.5699    1.0000 </r>
       <r>   -5.2384    1.0000 </r>
       <r>   -2.8925    1.0000 </r>
       <r>   -2.4607    1.0000 </r>
       <r>   -2.4607    1.0000 </r>
       <r>   -1.7101    1.0000 </r>
       <r>    0.5137    1.0000 </r>
       <r>    0.8897    1.0000 </r>
       <r>    0.8897    1.0000 </r>
       <r>    1.5814    1.0000 </r>
       <r>    1.9213    1.0000 </r>
       <r>    1.9565    1.0000 </r>
       <r>    1.9565    1.0000 </r>
       <r>    2.5954    1.0000 </r>
       <r>    4.3601    0.2708 </r>
       <r>    4.8270    0.0000 </r>
       <r>    5.0284    0.0000 </r>
       <r>    5.0284    0.0000 </r>
      </set>
      <set comment="kpoint 10">
       <r>   -5.8271    1.0000 </r>
       <r>   -5.4947    1.0000 </r>
       <r>   -5.4947    1.0000 </r>
       <r>   -5.4947    1.0000 </r>
       <r>   -2.8034    1.0000 </r>
       <r>   -2.8034    1.0000 </r>
       <r>   -2.8034    1.0000 </r>
       <r>   -2.3681    1.0000 </r>
       <r>    1.5481    1.0000 </r>
       <r>    1.5481    1.0000 </r>
       <r>    1.5481    1.0000 </r>
       <r>    2.1328    1.0000 </r>
       <r>    2.1328    1.0000 </r>
       <r>    2.1328    1.0000 </r>
       <r>    2.3945    1.0000 </r>
       <r>    2.3945    1.0000 </r>
       <r>    3.5092    1.0000 </r>
       <r>    4.2680    1.0000 </r>
       <r>    4.2680    1.0000 </r>
       <r>    4.2680    1.0000 </r>
      </set>
     </set>
     <set comment="spin 2">
      <set comment="kpoint 1">
       <r>   -7.0656    1.0000 </r>
       <r>   -3.9802    1.0000 </r>
       <r>   -3.9802    1.0000 </r>
       <r>   -3.9802    1.0000 </r>
       <r>   -3.9800    1.0000 </r>
       <r>   -3.9800    1.0000 </r>
       <r>   -3.9800    1.0000 </r>
       <r>    1.0764    1.0000 </r>
       <r>    1.0764    1.0000 </r>
       <r>    1.0764    1.0000 </r>
       <r>    1.0764    1.0000 </r>
       <r>    1.0764    1.0000 </r>
       <r>    1.0764    1.0000 </r>
       <r>    2.9298    0.0000 </r>
       <r>    3.6257    0.0000 </r>
       <r>    3.6257    0.0000 </r>
       <r>    3.6257    0.0000 </r>
       <r>    4.3541    0.0000 </r>
       <r>    4.3541    0.0000 </r>
       <r>    4.3541    0.0000 </r>
      </set>
      <set comment="kpoint 2">
       <r>   -6.9368    1.0000 </r>
       <r>   -5.0557    1.0000 </r>
       <r>   -3.9604    1.0000 </r>
       <r>   -3.9604    1.0000 </r>
       <r>   -3.9602    1.0000 </r>
       <r>   -3.9602    1.0000 </r>
       <r>   -2.7272    1.0000 </r>
       <r>    0.8436    1.0000 </r>
       <r>    0.8436    1.0000 </r>
       <r>    0.8436    1.0000 </r>
       <r>    0.8436    1.0000 </r>
       <r>    1.2179    1.0000 </r>
       <r>    1.2179    1.0000 </r>
       <r>    1.6679    1.0000 </r>
       <r>    3.1062    0.0000 </r>
       <r>    3.1062    0.0000 </r>
       <r>    4.1928    0.0000 </r>
       <r>    4.8096    0.0000 </r>
       <r>    4.8132    0.0000 </r>
       <r>    4.9540    0.0000 </r>
      </set>
      <set comment="kpoint 3">
       <r>   -6.5527    1.0000 </r>
       <r>   -5.9209    1.0000 </r>
       <r>   -3.9274    1.0000 </r>
       <r>   -3.9274    1.0000 </r>
       <r>   -3.9272    1.0000 </r>
       <r>   -3.9272    1.0000 </r>
       <r>   -1.3390    1.0000 </r>
       <r>    0.1406    1.0000 </r>
       <r>    0.5392    1.0000 </r>
       <r>    0.5392    1.0000 </r>
       <r>    0.5392    1.0000 </r>
       <r>    0.5392    1.0000 </r>
       <r>    1.6342    1.0000 </r>
       <r>    1.6342    1.0000 </r>
       <r>    2.2950    1.0000 </r>
       <r>    2.2950    1.0000 </r>
       <r>    4.3347    0.0000 </r>
       <r>    4.7509    0.0000 </r>
       <r>    5.4656    0.0000 </r>
       <r>    5.7359    0.0000 </r>
      </set>
      <set comment="kpoint 4">
       <r>   -6.8103    1.0000 </r>
       <r>   -4.9819    1.0000 </r>
       <r>   -4.9819    1.0000 </r>
       <r>   -4.2305    1.0000 </r>
       <r>   -3.6686    1.0000 </r>
       <r>   -2.8032    1.0000 </r>
       <r>   -2.8032    1.0000 </r>
       <r>    0.3205    1.0000 </r>
       <r>    0.8753    1.0000 </r>
       <r>    0.8753    1.0000 </r>
       <r>    0.8935    1.0000 </r>
       <r>    1.1382    1.0000 </r>
       <r>    1.1382    1.0000 </r>
       <r>    1.3081    1.0000 </r>
       <r>    2.6016    1.0000 </r>
       <r>    3.4099    0.0000 </r>
       <r>    4.5405    0.0000 </r>
       <r>    4.5785    0.0000 </r>
       <r>    4.8615    0.0000 </r>
       <r>    4.8615    0.0000 </r>
      </set>
      <set comment="kpoint 5">
       <r>   -6.4337    1.0000 </r>
       <r>   -5.8176    1.0000 </r>
       <r>   -4.7810    1.0000 </r>
       <r>   -4.5096    1.0000 </r>
       <r>   -3.3418    1.0000 </r>
       <r>   -3.0252    1.0000 </r>
       <r>   -1.5724    1.0000 </r>
       <r>   -0.3223    1.0000 </r>
       <r>    0.1348    1.0000 </r>
       <r>    0.3638    1.0000 </r>
       <r>    1.1142    1.0000 </r>
       <r>    1.2137    1.0000 </r>
       <r>    1.2785    1.0000 </r>
       <r>    1.7572    1.0000 </r>
       <r>    1.8217    1.0000 </r>
       <r>    2.6380    1.0000 </r>
       <r>    5.0495    0.0000 </r>
       <r>    5.3049    0.0000 </r>
       <r>    5.3966    0.0000 </r>
       <r>    5.4834    0.0000 </r>
      </set>
      <set comment="kpoint 6">
       <r>   -6.0827    1.0000 </r>
       <r>   -5.5192    1.0000 </r>
       <r>   -5.5192    1.0000 </r>
       <r>   -5.0624    1.0000 </r>
       <r>   -2.7357    1.0000 </r>
       <r>   -2.1131    1.0000 </r>
       <r>   -2.1131    1.0000 </r>
       <r>   -1.1940    1.0000 </r>
       <r>    0.1604    1.0000 </r>
       <r>    0.5681    1.0000 </r>
       <r>    0.5681    1.0000 </r>
       <r>    1.0936    1.0000 </r>
       <r>    1.9423    1.0000 </r>
       <r>    1.9964    1.0000 </r>
       <r>    1.9964    1.0000 </r>
       <r>    2.7664    0.0000 </r>
       <r>    4.9657    0.0000 </r>
       <r>    5.0540    0.0000 </r>
       <r>    5.6194    0.0000 </r>
       <r>    5.6194    0.0000 </r>
      </set>
      <set comment="kpoint 7">
       <r>   -6.6866    1.0000 </r>
       <r>   -4.9436    1.0000 </r>
       <r>   -4.9436    1.0000 </r>
       <r>   -4.9436    1.0000 </r>
       <r>   -2.8742    1.0000 </r>
       <r>   -2.8742    1.0000 </r>
       <r>   -2.8742    1.0000 </r>
       <r>    0.2365    1.0000 </r>
       <r>    0.5592    1.0000 </r>
       <r>    0.5592    1.0000 </r>
       <r>    0.5592    1.0000 </r>
       <r>    1.4378    1.0000 </r>
       <r>    1.4378    1.0000 </r>
       <r>    1.4378    1.0000 </r>
       <r>    3.0528    0.0000 </r>
       <r>    3.0528    0.0000 </r>
       <r>    4.0332    0.0000 </r>
       <r>    4.6596    0.0000 </r>
       <r>    4.6596    0.0000 </r>
       <r>    4.6596    0.0000 </r>
      </set>
      <set comment="kpoint 8">
       <r>   -6.3203    1.0000 </r>
       <r>   -5.7269    1.0000 </r>
       <r>   -4.8759    1.0000 </r>
       <r>   -4.8759    1.0000 </r>
       <r>   -2.9976    1.0000 </r>
       <r>   -2.9976    1.0000 </r>
       <r>   -1.8440    1.0000 </r>
       <r>   -0.8035    1.0000 </r>
       <r>    0.3914    1.0000 </r>
       <r>    0.3914    1.0000 </r>
       <r>    1.2472    1.0000 </r>
       <r>    1.4742    1.0000 </r>
       <r>    1.4742    1.0000 </r>
       <r>    1.8152    1.0000 </r>
       <r>    2.2613    1.0000 </r>
       <r>    2.3955    1.0000 </r>
       <r>    4.7384    0.0000 </r>
       <r>    4.9439    0.0000 </r>
       <r>    5.3589    0.0000 </r>
       <r>    5.3589    0.0000 </r>
      </set>
      <set comment="kpoint 9">
       <r>   -5.9896    1.0000 </r>
       <r>   -5.4771    1.0000 </r>
       <r>   -5.4771    1.0000 </r>
       <r>   -5.1460    1.0000 </r>
       <r>   -2.7993    1.0000 </r>
       <r>   -2.3678    1.0000 </r>
       <r>   -2.3678    1.0000 </r>
       <r>   -1.6171    1.0000 </r>
       <r>    0.6143    1.0000 </r>
       <r>    0.9898    1.0000 </r>
       <r>    0.9898    1.0000 </r>
       <r>    1.6810    1.0000 </r>
       <r>    2.0218    1.0000 </r>
       <r>    2.0570    1.0000 </r>
       <r>    2.0570    1.0000 </r>
       <r>    2.6957    0.6875 </r>
       <r>    4.4516    0.0000 </r>
       <r>    4.9213    0.0000 </r>
       <r>    5.1210    0.0000 </r>
       <r>    5.1210    0.0000 </r>
      </set>
      <set comment="kpoint 10">
       <r>   -5.7341    1.0000 </r>
       <r>   -5.4022    1.0000 </r>
       <r>   -5.4022    1.0000 </r>
       <r>   -5.4022    1.0000 </r>
       <r>   -2.7088    1.0000 </r>
       <r>   -2.7088    1.0000 </r>
       <r>   -2.7088    1.0000 </r>
       <r>   -2.2737    1.0000 </r>
       <r>    1.6471    1.0000 </r>
       <r>    1.6471    1.0000 </r>
       <r>    1.6471    1.0000 </r>
       <r>    2.2332    1.0000 </r>
       <r>    2.2332    1.0000 </r>
       <r>    2.2332    1.0000 </r>
       <r>    2.4949    1.0000 </r>
       <r>    2.4949    1.0000 </r>
       <r>    3.5996    0.0000 </r>
       <r>    4.3603    0.0000 </r>
       <r>    4.3603    0.0000 </r>
       <r>    4.3603    0.0000 </r>
      </set>
     </set>
    </set>
   </array>
  </eigenvalues>
  <separator name="orbital magnetization" >
   <v name="MAGDIPOLOUT">      0.00000000      0.00000000      0.00000000</v>
  </separator>
  <dos>
   <i name="efermi">      2.69914405 </i>
   <total>
    <array>
     <dimension dim="1">gridpoints</dimension>
     <dimension dim="2">spin</dimension>
     <field>energy</field>
     <field>total</field>
     <field>integrated</field>
     <set>
      <set comment="spin 1">
       <r>    -7.8045     0.0000     0.0000 </r>
       <r>    -7.7572     0.0000     0.0000 </r>
       <r>    -7.7099     0.0000     0.0000 </r>
       <r>    -7.6627     0.0000     0.0000 </r>
       <r>    -7.6154     0.0000     0.0000 </r>
       <r>    -7.5681     0.0000     0.0000 </r>
       <r>    -7.5208     0.0000     0.0000 </r>
       <r>    -7.4735     0.0000     0.0000 </r>
       <r>    -7.4262     0.0000     0.0000 </r>
       <r>    -7.3790     0.0000     0.0000 </r>
       <r>    -7.3317     0.0000     0.0000 </r>
       <r>    -7.2844     0.0000     0.0000 </r>
       <r>    -7.2371     0.0000     0.0000 </r>
       <r>    -7.1898     0.0000     0.0000 </r>
       <r>    -7.1425     0.3358     0.0159 </r>
       <r>    -7.0953     0.0025     0.0160 </r>
       <r>    -7.0480     0.0157     0.0167 </r>
       <r>    -7.0007     2.0146     0.1120 </r>
       <r>    -6.9534     0.0000     0.1120 </r>
       <r>    -6.9061     1.6006     0.1877 </r>
       <r>    -6.8588     2.4600     0.3040 </r>
       <r>    -6.8116     0.0000     0.3040 </r>
       <r>    -6.7643     2.6778     0.4306 </r>
       <r>    -6.7170     0.0292     0.4320 </r>
       <r>    -6.6697     0.0011     0.4321 </r>
       <r>    -6.6224     2.0286     0.5280 </r>
       <r>    -6.5751     0.0007     0.5280 </r>
       <r>    -6.5279     3.8958     0.7122 </r>
       <r>    -6.4806     4.2254     0.9120 </r>
       <r>    -6.4333     0.0252     0.9132 </r>
       <r>    -6.3860     8.0956     1.2960 </r>
       <r>    -6.3387     0.0003     1.2960 </r>
       <r>    -6.2914     0.0000     1.2960 </r>
       <r>    -6.2441     0.0000     1.2960 </r>
       <r>    -6.1969     0.0071     1.2963 </r>
       <r>    -6.1496     4.0531     1.4880 </r>
       <r>    -6.1023     0.0253     1.4892 </r>
       <r>    -6.0550     8.0958     1.8720 </r>
       <r>    -6.0077     1.6796     1.9514 </r>
       <r>    -5.9604     0.3510     1.9680 </r>
       <r>    -5.9132     3.0742     2.1134 </r>
       <r>    -5.8659     5.0470     2.3520 </r>
       <r>    -5.8186     7.1556     2.6903 </r>
       <r>    -5.7713     3.6726     2.8640 </r>
       <r>    -5.7240     0.0000     2.8640 </r>
       <r>    -5.6767     0.0000     2.8640 </r>
       <r>    -5.6295     0.0605     2.8669 </r>
       <r>    -5.5822     8.7312     3.2797 </r>
       <r>    -5.5349    15.5718     4.0160 </r>
       <r>    -5.4876     6.8508     4.3399 </r>
       <r>    -5.4403     1.2703     4.4000 </r>
       <r>    -5.3930     0.0000     4.4000 </r>
       <r>    -5.3458     0.0000     4.4000 </r>
       <r>    -5.2985     0.0000     4.4000 </r>
       <r>    -5.2512     0.2898     4.4137 </r>
       <r>    -5.2039     7.8314     4.7840 </r>
       <r>    -5.1566     1.9161     4.8746 </r>
       <r>    -5.1093     4.1748     5.0720 </r>
       <r>    -5.0621     7.8235     5.4419 </r>
       <r>    -5.0148     8.4091     5.8395 </r>
       <r>    -4.9675     8.7338     6.2525 </r>
       <r>    -4.9202     7.5183     6.6080 </r>
       <r>    -4.8729     4.3002     6.8113 </r>
       <r>    -4.8256     3.8210     6.9920 </r>
       <r>    -4.7783     0.0000     6.9920 </r>
       <r>    -4.7311     0.0000     6.9920 </r>
       <r>    -4.6838     0.0000     6.9920 </r>
       <r>    -4.6365     0.0000     6.9920 </r>
       <r>    -4.5892     7.7976     7.3607 </r>
       <r>    -4.5419     0.3235     7.3760 </r>
       <r>    -4.4946     0.0000     7.3760 </r>
       <r>    -4.4474     0.0000     7.3760 </r>
       <r>    -4.4001     0.0000     7.3760 </r>
       <r>    -4.3528     0.0000     7.3760 </r>
       <r>    -4.3055     4.0271     7.5664 </r>
       <r>    -4.2582     0.0334     7.5680 </r>
       <r>    -4.2109     0.0000     7.5680 </r>
       <r>    -4.1637     0.0000     7.5680 </r>
       <r>    -4.1164     0.0000     7.5680 </r>
       <r>    -4.0691     1.4383     7.6360 </r>
       <r>    -4.0218    11.5852     8.1838 </r>
       <r>    -3.9745     5.2492     8.4320 </r>
       <r>    -3.9272     0.0000     8.4320 </r>
       <r>    -3.8800     0.0000     8.4320 </r>
       <r>    -3.8327     0.0000     8.4320 </r>
       <r>    -3.7854     0.0010     8.4320 </r>
       <r>    -3.7381     4.0568     8.6239 </r>
       <r>    -3.6908     0.0028     8.6240 </r>
       <r>    -3.6435     0.0000     8.6240 </r>
       <r>    -3.5963     0.0000     8.6240 </r>
       <r>    -3.5490     0.0000     8.6240 </r>
       <r>    -3.5017     0.0000     8.6240 </r>
       <r>    -3.4544     0.0137     8.6246 </r>
       <r>    -3.4071     8.1067     9.0080 </r>
       <r>    -3.3598     0.0007     9.0080 </r>
       <r>    -3.3125     0.0000     9.0080 </r>
       <r>    -3.2653     0.0000     9.0080 </r>
       <r>    -3.2180     0.0000     9.0080 </r>
       <r>    -3.1707     0.0000     9.0080 </r>
       <r>    -3.1234     1.4001     9.0742 </r>
       <r>    -3.0761    22.5503    10.1405 </r>
       <r>    -3.0288     0.4131    10.1600 </r>
       <r>    -2.9816     0.1086    10.1651 </r>
       <r>    -2.9343     8.0125    10.5440 </r>
       <r>    -2.8870    13.2964    11.1727 </r>
       <r>    -2.8397     3.1212    11.3203 </r>
       <r>    -2.7924    13.5427    11.9606 </r>
       <r>    -2.7451     0.4941    11.9840 </r>
       <r>    -2.6979     0.0000    11.9840 </r>
       <r>    -2.6506     0.0000    11.9840 </r>
       <r>    -2.6033     0.0000    11.9840 </r>
       <r>    -2.5560     0.0000    11.9840 </r>
       <r>    -2.5087     0.0000    11.9840 </r>
       <r>    -2.4614     7.4854    12.3379 </r>
       <r>    -2.4142     8.7569    12.7520 </r>
       <r>    -2.3669     1.5454    12.8251 </r>
       <r>    -2.3196     1.1616    12.8800 </r>
       <r>    -2.2723     0.0000    12.8800 </r>
       <r>    -2.2250     0.0153    12.8807 </r>
       <r>    -2.1777     8.1053    13.2640 </r>
       <r>    -2.1305     0.0006    13.2640 </r>
       <r>    -2.0832     0.0000    13.2640 </r>
       <r>    -2.0359     0.0000    13.2640 </r>
       <r>    -1.9886     0.0000    13.2640 </r>
       <r>    -1.9413     1.7366    13.3461 </r>
       <r>    -1.8940     6.3846    13.6480 </r>
       <r>    -1.8468     0.0000    13.6480 </r>
       <r>    -1.7995     0.0000    13.6480 </r>
       <r>    -1.7522     0.0000    13.6480 </r>
       <r>    -1.7049     6.2435    13.9432 </r>
       <r>    -1.6576     8.2124    14.3315 </r>
       <r>    -1.6103     1.7865    14.4160 </r>
       <r>    -1.5630     0.0000    14.4160 </r>
       <r>    -1.5158     0.0000    14.4160 </r>
       <r>    -1.4685     0.0000    14.4160 </r>
       <r>    -1.4212     1.7664    14.4995 </r>
       <r>    -1.3739     0.2638    14.5120 </r>
       <r>    -1.3266     0.0000    14.5120 </r>
       <r>    -1.2793     3.2439    14.6654 </r>
       <r>    -1.2321     0.8167    14.7040 </r>
       <r>    -1.1848     0.0000    14.7040 </r>
       <r>    -1.1375     0.0000    14.7040 </r>
       <r>    -1.0902     0.0000    14.7040 </r>
       <r>    -1.0429     0.0000    14.7040 </r>
       <r>    -0.9956     0.0000    14.7040 </r>
       <r>    -0.9484     0.0000    14.7040 </r>
       <r>    -0.9011     1.7307    14.7858 </r>
       <r>    -0.8538     6.3905    15.0880 </r>
       <r>    -0.8065     0.0000    15.0880 </r>
       <r>    -0.7592     0.0000    15.0880 </r>
       <r>    -0.7119     0.0000    15.0880 </r>
       <r>    -0.6647     0.0000    15.0880 </r>
       <r>    -0.6174     0.0000    15.0880 </r>
       <r>    -0.5701     0.0000    15.0880 </r>
       <r>    -0.5228     0.0000    15.0880 </r>
       <r>    -0.4755     0.0000    15.0880 </r>
       <r>    -0.4282     0.1067    15.0930 </r>
       <r>    -0.3810     8.0145    15.4720 </r>
       <r>    -0.3337     0.0000    15.4720 </r>
       <r>    -0.2864     0.0000    15.4720 </r>
       <r>    -0.2391     0.0000    15.4720 </r>
       <r>    -0.1918     0.0000    15.4720 </r>
       <r>    -0.1445     0.0000    15.4720 </r>
       <r>    -0.0972     0.0000    15.4720 </r>
       <r>    -0.0500     0.0000    15.4720 </r>
       <r>    -0.0027     0.0000    15.4720 </r>
       <r>     0.0446     8.1672    15.8582 </r>
       <r>     0.0919     6.0448    16.1440 </r>
       <r>     0.1392     0.5419    16.1696 </r>
       <r>     0.1865     2.1652    16.2720 </r>
       <r>     0.2337     3.9971    16.4610 </r>
       <r>     0.2810     9.7955    16.9242 </r>
       <r>     0.3283    14.6315    17.6160 </r>
       <r>     0.3756     0.0000    17.6160 </r>
       <r>     0.4229     0.1614    17.6236 </r>
       <r>     0.4702    21.3767    18.6344 </r>
       <r>     0.5174     8.5275    19.0376 </r>
       <r>     0.5647     2.4191    19.1520 </r>
       <r>     0.6120     0.0000    19.1520 </r>
       <r>     0.6593     0.0000    19.1520 </r>
       <r>     0.7066     0.0000    19.1520 </r>
       <r>     0.7539     7.7177    19.5169 </r>
       <r>     0.8011     9.8976    19.9849 </r>
       <r>     0.8484     2.6876    20.1120 </r>
       <r>     0.8957    13.0205    20.7277 </r>
       <r>     0.9430     3.2218    20.8800 </r>
       <r>     0.9903     3.5267    21.0468 </r>
       <r>     1.0376    14.9312    21.7528 </r>
       <r>     1.0848     3.8756    21.9360 </r>
       <r>     1.1321    12.2320    22.5144 </r>
       <r>     1.1794    13.0095    23.1295 </r>
       <r>     1.2267     7.2303    23.4714 </r>
       <r>     1.2740     0.0125    23.4720 </r>
       <r>     1.3213     0.1010    23.4768 </r>
       <r>     1.3686    12.1099    24.0494 </r>
       <r>     1.4158    12.1526    24.6240 </r>
       <r>     1.4631     0.0000    24.6240 </r>
       <r>     1.5104     0.0021    24.6241 </r>
       <r>     1.5577    11.4731    25.1666 </r>
       <r>     1.6050    10.8538    25.6798 </r>
       <r>     1.6523     2.1354    25.7808 </r>
       <r>     1.6995     6.1319    26.0707 </r>
       <r>     1.7468    16.0993    26.8319 </r>
       <r>     1.7941     0.0011    26.8320 </r>
       <r>     1.8414     1.9406    26.9238 </r>
       <r>     1.8887     3.3670    27.0830 </r>
       <r>     1.9360    14.8695    27.7861 </r>
       <r>     1.9832    16.3669    28.5599 </r>
       <r>     2.0305     0.0013    28.5600 </r>
       <r>     2.0778     0.0000    28.5600 </r>
       <r>     2.1251     1.1236    28.6131 </r>
       <r>     2.1724    14.4617    29.2969 </r>
       <r>     2.2197     4.7168    29.5200 </r>
       <r>     2.2669     0.0011    29.5200 </r>
       <r>     2.3142     8.0921    29.9026 </r>
       <r>     2.3615     0.0288    29.9040 </r>
       <r>     2.4088     5.2955    30.1544 </r>
       <r>     2.4561     0.1186    30.1600 </r>
       <r>     2.5034     2.4812    30.2773 </r>
       <r>     2.5506     9.3754    30.7206 </r>
       <r>     2.5979     5.5224    30.9817 </r>
       <r>     2.6452     2.9300    31.1203 </r>
       <r>     2.6925     4.0540    31.3120 </r>
       <r>     2.7398     0.0004    31.3120 </r>
       <r>     2.7871     0.0000    31.3120 </r>
       <r>     2.8344     0.0018    31.3121 </r>
       <r>     2.8816     0.3366    31.3280 </r>
       <r>     2.9289     0.0021    31.3281 </r>
       <r>     2.9762     5.4097    31.5839 </r>
       <r>     3.0235     4.0338    31.7746 </r>
       <r>     3.0708     0.0292    31.7760 </r>
       <r>     3.1181     0.0000    31.7760 </r>
       <r>     3.1653     0.0000    31.7760 </r>
       <r>     3.2126     0.0000    31.7760 </r>
       <r>     3.2599     0.0000    31.7760 </r>
       <r>     3.3072     1.4227    31.8433 </r>
       <r>     3.3545     2.6379    31.9680 </r>
       <r>     3.4018     0.0000    31.9680 </r>
       <r>     3.4490     0.0000    31.9680 </r>
       <r>     3.4963     0.0917    31.9723 </r>
       <r>     3.5436     3.6246    32.1437 </r>
       <r>     3.5909     0.0059    32.1440 </r>
       <r>     3.6382     0.0000    32.1440 </r>
       <r>     3.6855     0.0000    32.1440 </r>
       <r>     3.7327     0.0000    32.1440 </r>
       <r>     3.7800     0.0000    32.1440 </r>
       <r>     3.8273     0.0000    32.1440 </r>
       <r>     3.8746     0.0000    32.1440 </r>
       <r>     3.9219     0.0040    32.1442 </r>
       <r>     3.9692     2.7028    32.2720 </r>
       <r>     4.0164     0.0003    32.2720 </r>
       <r>     4.0637     0.0000    32.2720 </r>
       <r>     4.1110     2.0193    32.3675 </r>
       <r>     4.1583     0.0110    32.3680 </r>
       <r>     4.2056     0.0000    32.3680 </r>
       <r>     4.2529     2.5700    32.4895 </r>
       <r>     4.3002     8.5966    32.8960 </r>
       <r>     4.3474     0.2968    32.9100 </r>
       <r>     4.3947     7.8244    33.2800 </r>
       <r>     4.4420     2.1080    33.3797 </r>
       <r>     4.4893     4.1137    33.5742 </r>
       <r>     4.5366     1.9018    33.6641 </r>
       <r>     4.5839     8.1140    34.0478 </r>
       <r>     4.6311     0.1808    34.0563 </r>
       <r>     4.6784     9.9754    34.5280 </r>
       <r>     4.7257     3.6473    34.7005 </r>
       <r>     4.7730     8.0173    35.0795 </r>
       <r>     4.8203     1.9164    35.1702 </r>
       <r>     4.8676    18.2581    36.0335 </r>
       <r>     4.9148     2.6759    36.1600 </r>
       <r>     4.9621     9.5294    36.6106 </r>
       <r>     5.0094     2.7108    36.7388 </r>
       <r>     5.0567    16.1833    37.5040 </r>
       <r>     5.1040     0.0005    37.5040 </r>
       <r>     5.1513     0.0000    37.5040 </r>
       <r>     5.1985     0.7798    37.5409 </r>
       <r>     5.2458     7.4678    37.8940 </r>
       <r>     5.2931    16.4040    38.6696 </r>
       <r>     5.3404     7.8331    39.0400 </r>
       <r>     5.3877     7.5328    39.3962 </r>
       <r>     5.4350     2.6186    39.5200 </r>
       <r>     5.4822     0.0000    39.5200 </r>
       <r>     5.5295     4.9904    39.7560 </r>
       <r>     5.5768     3.1307    39.9040 </r>
       <r>     5.6241     0.0052    39.9042 </r>
       <r>     5.6714     2.0249    40.0000 </r>
       <r>     5.7187     0.0001    40.0000 </r>
       <r>     5.7660     0.0000    40.0000 </r>
       <r>     5.8132     0.0000    40.0000 </r>
       <r>     5.8605     0.0000    40.0000 </r>
       <r>     5.9078     0.0000    40.0000 </r>
       <r>     5.9551     0.0000    40.0000 </r>
       <r>     6.0024     0.0000    40.0000 </r>
       <r>     6.0497     0.0000    40.0000 </r>
       <r>     6.0969     0.0000    40.0000 </r>
       <r>     6.1442     0.0000    40.0000 </r>
       <r>     6.1915     0.0000    40.0000 </r>
       <r>     6.2388     0.0000    40.0000 </r>
       <r>     6.2861     0.0000    40.0000 </r>
       <r>     6.3334     0.0000    40.0000 </r>
       <r>     6.3806     0.0000    40.0000 </r>
      </set>
      <set comment="spin 2">
       <r>    -7.8045     0.0000     0.0000 </r>
       <r>    -7.7572     0.0000     0.0000 </r>
       <r>    -7.7099     0.0000     0.0000 </r>
       <r>    -7.6627     0.0000     0.0000 </r>
       <r>    -7.6154     0.0000     0.0000 </r>
       <r>    -7.5681     0.0000     0.0000 </r>
       <r>    -7.5208     0.0000     0.0000 </r>
       <r>    -7.4735     0.0000     0.0000 </r>
       <r>    -7.4262     0.0000     0.0000 </r>
       <r>    -7.3790     0.0000     0.0000 </r>
       <r>    -7.3317     0.0000     0.0000 </r>
       <r>    -7.2844     0.0000     0.0000 </r>
       <r>    -7.2371     0.0000     0.0000 </r>
       <r>    -7.1898     0.0000     0.0000 </r>
       <r>    -7.1425     0.0000     0.0000 </r>
       <r>    -7.0953     0.0000     0.0000 </r>
       <r>    -7.0480     0.3362     0.0159 </r>
       <r>    -7.0007     0.0021     0.0160 </r>
       <r>    -6.9534     0.0192     0.0169 </r>
       <r>    -6.9061     2.0111     0.1120 </r>
       <r>    -6.8588     0.0000     0.1120 </r>
       <r>    -6.8116     1.7332     0.1940 </r>
       <r>    -6.7643     2.3274     0.3040 </r>
       <r>    -6.7170     0.0000     0.3040 </r>
       <r>    -6.6697     2.6844     0.4309 </r>
       <r>    -6.6224     0.0226     0.4320 </r>
       <r>    -6.5751     0.0015     0.4321 </r>
       <r>    -6.5279     2.0283     0.5280 </r>
       <r>    -6.4806     0.0004     0.5280 </r>
       <r>    -6.4333     4.2727     0.7300 </r>
       <r>    -6.3860     3.8485     0.9120 </r>
       <r>    -6.3387     0.0373     0.9138 </r>
       <r>    -6.2914     8.0837     1.2960 </r>
       <r>    -6.2441     0.0002     1.2960 </r>
       <r>    -6.1969     0.0000     1.2960 </r>
       <r>    -6.1496     0.0000     1.2960 </r>
       <r>    -6.1023     0.0116     1.2965 </r>
       <r>    -6.0550     4.0488     1.4880 </r>
       <r>    -6.0077     0.0421     1.4900 </r>
       <r>    -5.9604     8.0791     1.8720 </r>
       <r>    -5.9132     1.7544     1.9549 </r>
       <r>    -5.8659     0.2760     1.9680 </r>
       <r>    -5.8186     3.6181     2.1391 </r>
       <r>    -5.7713     4.5031     2.3520 </r>
       <r>    -5.7240     7.8491     2.7231 </r>
       <r>    -5.6767     2.9791     2.8640 </r>
       <r>    -5.6295     0.0000     2.8640 </r>
       <r>    -5.5822     0.0000     2.8640 </r>
       <r>    -5.5349     0.1088     2.8691 </r>
       <r>    -5.4876     9.1153     3.3002 </r>
       <r>    -5.4403    15.1394     4.0160 </r>
       <r>    -5.3930     7.3365     4.3629 </r>
       <r>    -5.3458     0.7847     4.4000 </r>
       <r>    -5.2985     0.0000     4.4000 </r>
       <r>    -5.2512     0.0000     4.4000 </r>
       <r>    -5.2039     0.0000     4.4000 </r>
       <r>    -5.1566     0.5465     4.4258 </r>
       <r>    -5.1093     7.5747     4.7840 </r>
       <r>    -5.0621     2.4959     4.9020 </r>
       <r>    -5.0148     3.5950     5.0720 </r>
       <r>    -4.9675     7.9571     5.4482 </r>
       <r>    -4.9202     8.2815     5.8398 </r>
       <r>    -4.8729    10.7389     6.3476 </r>
       <r>    -4.8256     5.5072     6.6080 </r>
       <r>    -4.7783     5.2556     6.8565 </r>
       <r>    -4.7311     2.8656     6.9920 </r>
       <r>    -4.6838     0.0000     6.9920 </r>
       <r>    -4.6365     0.0000     6.9920 </r>
       <r>    -4.5892     0.0000     6.9920 </r>
       <r>    -4.5419     0.0000     6.9920 </r>
       <r>    -4.4946     7.9792     7.3693 </r>
       <r>    -4.4474     0.1419     7.3760 </r>
       <r>    -4.4001     0.0000     7.3760 </r>
       <r>    -4.3528     0.0000     7.3760 </r>
       <r>    -4.3055     0.0000     7.3760 </r>
       <r>    -4.2582     0.0002     7.3760 </r>
       <r>    -4.2109     4.0491     7.5675 </r>
       <r>    -4.1637     0.0113     7.5680 </r>
       <r>    -4.1164     0.0000     7.5680 </r>
       <r>    -4.0691     0.0000     7.5680 </r>
       <r>    -4.0218     0.0000     7.5680 </r>
       <r>    -3.9745     1.7714     7.6518 </r>
       <r>    -3.9272    12.4673     8.2413 </r>
       <r>    -3.8800     4.0339     8.4320 </r>
       <r>    -3.8327     0.0000     8.4320 </r>
       <r>    -3.7854     0.0000     8.4320 </r>
       <r>    -3.7381     0.0000     8.4320 </r>
       <r>    -3.6908     0.0034     8.4322 </r>
       <r>    -3.6435     4.0564     8.6240 </r>
       <r>    -3.5963     0.0008     8.6240 </r>
       <r>    -3.5490     0.0000     8.6240 </r>
       <r>    -3.5017     0.0000     8.6240 </r>
       <r>    -3.4544     0.0000     8.6240 </r>
       <r>    -3.4071     0.0000     8.6240 </r>
       <r>    -3.3598     0.0431     8.6260 </r>
       <r>    -3.3125     8.0780     9.0080 </r>
       <r>    -3.2653     0.0001     9.0080 </r>
       <r>    -3.2180     0.0000     9.0080 </r>
       <r>    -3.1707     0.0000     9.0080 </r>
       <r>    -3.1234     0.0000     9.0080 </r>
       <r>    -3.0761     0.0000     9.0080 </r>
       <r>    -3.0288     2.4595     9.1243 </r>
       <r>    -2.9816    21.7144    10.1510 </r>
       <r>    -2.9343     0.1896    10.1600 </r>
       <r>    -2.8870     0.2891    10.1737 </r>
       <r>    -2.8397     7.8320    10.5440 </r>
       <r>    -2.7924    14.3733    11.2236 </r>
       <r>    -2.7451     2.2449    11.3298 </r>
       <r>    -2.6979    13.3465    11.9608 </r>
       <r>    -2.6506     0.4897    11.9840 </r>
       <r>    -2.6033     0.0000    11.9840 </r>
       <r>    -2.5560     0.0000    11.9840 </r>
       <r>    -2.5087     0.0000    11.9840 </r>
       <r>    -2.4614     0.0000    11.9840 </r>
       <r>    -2.4142     0.0000    11.9840 </r>
       <r>    -2.3669     8.9445    12.4069 </r>
       <r>    -2.3196     7.2979    12.7520 </r>
       <r>    -2.2723     1.5702    12.8262 </r>
       <r>    -2.2250     1.1369    12.8800 </r>
       <r>    -2.1777     0.0000    12.8800 </r>
       <r>    -2.1305     0.0566    12.8827 </r>
       <r>    -2.0832     8.0644    13.2640 </r>
       <r>    -2.0359     0.0001    13.2640 </r>
       <r>    -1.9886     0.0000    13.2640 </r>
       <r>    -1.9413     0.0000    13.2640 </r>
       <r>    -1.8940     0.0000    13.2640 </r>
       <r>    -1.8468     2.8260    13.3976 </r>
       <r>    -1.7995     5.2951    13.6480 </r>
       <r>    -1.7522     0.0000    13.6480 </r>
       <r>    -1.7049     0.0000    13.6480 </r>
       <r>    -1.6576     0.0000    13.6480 </r>
       <r>    -1.6103     6.7428    13.9668 </r>
       <r>    -1.5630     8.7437    14.3803 </r>
       <r>    -1.5158     0.7558    14.4160 </r>
       <r>    -1.4685     0.0000    14.4160 </r>
       <r>    -1.4212     0.0000    14.4160 </r>
       <r>    -1.3739     0.0000    14.4160 </r>
       <r>    -1.3266     1.9486    14.5081 </r>
       <r>    -1.2793     0.0817    14.5120 </r>
       <r>    -1.2321     0.0000    14.5120 </r>
       <r>    -1.1848     3.6740    14.6857 </r>
       <r>    -1.1375     0.3866    14.7040 </r>
       <r>    -1.0902     0.0000    14.7040 </r>
       <r>    -1.0429     0.0000    14.7040 </r>
       <r>    -0.9956     0.0000    14.7040 </r>
       <r>    -0.9484     0.0000    14.7040 </r>
       <r>    -0.9011     0.0000    14.7040 </r>
       <r>    -0.8538     0.0000    14.7040 </r>
       <r>    -0.8065     2.7262    14.8329 </r>
       <r>    -0.7592     5.3949    15.0880 </r>
       <r>    -0.7119     0.0000    15.0880 </r>
       <r>    -0.6647     0.0000    15.0880 </r>
       <r>    -0.6174     0.0000    15.0880 </r>
       <r>    -0.5701     0.0000    15.0880 </r>
       <r>    -0.5228     0.0000    15.0880 </r>
       <r>    -0.4755     0.0000    15.0880 </r>
       <r>    -0.4282     0.0000    15.0880 </r>
       <r>    -0.3810     0.0000    15.0880 </r>
       <r>    -0.3337     0.4342    15.1085 </r>
       <r>    -0.2864     7.6870    15.4720 </r>
       <r>    -0.2391     0.0000    15.4720 </r>
       <r>    -0.1918     0.0000    15.4720 </r>
       <r>    -0.1445     0.0000    15.4720 </r>
       <r>    -0.0972     0.0000    15.4720 </r>
       <r>    -0.0500     0.0000    15.4720 </r>
       <r>    -0.0027     0.0000    15.4720 </r>
       <r>     0.0446     0.0000    15.4720 </r>
       <r>     0.0919     0.0000    15.4720 </r>
       <r>     0.1392     6.7828    15.7927 </r>
       <r>     0.1865     7.4287    16.1440 </r>
       <r>     0.2337     0.9475    16.1888 </r>
       <r>     0.2810     1.7600    16.2720 </r>
       <r>     0.3283     3.5189    16.4384 </r>
       <r>     0.3756     8.4885    16.8398 </r>
       <r>     0.4229    16.4166    17.6160 </r>
       <r>     0.4702     0.0001    17.6160 </r>
       <r>     0.5174     0.0085    17.6164 </r>
       <r>     0.5647    17.0354    18.4219 </r>
       <r>     0.6120    10.3668    18.9121 </r>
       <r>     0.6593     5.0740    19.1520 </r>
       <r>     0.7066     0.0000    19.1520 </r>
       <r>     0.7539     0.0000    19.1520 </r>
       <r>     0.8011     0.0000    19.1520 </r>
       <r>     0.8484     6.1183    19.4413 </r>
       <r>     0.8957    12.6382    20.0389 </r>
       <r>     0.9430     1.5464    20.1120 </r>
       <r>     0.9903     8.5836    20.5179 </r>
       <r>     1.0376     7.6587    20.8800 </r>
       <r>     1.0848     2.2346    20.9857 </r>
       <r>     1.1321    13.5171    21.6248 </r>
       <r>     1.1794     6.5815    21.9360 </r>
       <r>     1.2267    11.4956    22.4796 </r>
       <r>     1.2740    10.9413    22.9969 </r>
       <r>     1.3213     9.9217    23.4660 </r>
       <r>     1.3686     0.1260    23.4720 </r>
       <r>     1.4158     0.0076    23.4724 </r>
       <r>     1.4631     9.0654    23.9010 </r>
       <r>     1.5104    15.2905    24.6240 </r>
       <r>     1.5577     0.0000    24.6240 </r>
       <r>     1.6050     0.0001    24.6240 </r>
       <r>     1.6523    10.3040    25.1112 </r>
       <r>     1.6995    11.9935    25.6783 </r>
       <r>     1.7468     0.6085    25.7071 </r>
       <r>     1.7941     7.5605    26.0646 </r>
       <r>     1.8414    16.2075    26.8309 </r>
       <r>     1.8887     0.0227    26.8320 </r>
       <r>     1.9360     0.7484    26.8674 </r>
       <r>     1.9832     3.5695    27.0362 </r>
       <r>     2.0305    15.1008    27.7502 </r>
       <r>     2.0778    17.1005    28.5588 </r>
       <r>     2.1251     0.0261    28.5600 </r>
       <r>     2.1724     0.0000    28.5600 </r>
       <r>     2.2197     0.2235    28.5706 </r>
       <r>     2.2669    14.2782    29.2457 </r>
       <r>     2.3142     5.7879    29.5194 </r>
       <r>     2.3615     0.0132    29.5200 </r>
       <r>     2.4088     7.8795    29.8926 </r>
       <r>     2.4561     0.2417    29.9040 </r>
       <r>     2.5034     4.7876    30.1304 </r>
       <r>     2.5506     0.6265    30.1600 </r>
       <r>     2.5979     1.2307    30.2182 </r>
       <r>     2.6452     9.7065    30.6772 </r>
       <r>     2.6925     3.8923    30.8612 </r>
       <r>     2.7398     5.4737    31.1200 </r>
       <r>     2.7871     4.0531    31.3117 </r>
       <r>     2.8344     0.0072    31.3120 </r>
       <r>     2.8816     0.0000    31.3120 </r>
       <r>     2.9289     0.1528    31.3192 </r>
       <r>     2.9762     0.1856    31.3280 </r>
       <r>     3.0235     0.0001    31.3280 </r>
       <r>     3.0708     5.3844    31.5826 </r>
       <r>     3.1181     3.9025    31.7671 </r>
       <r>     3.1653     0.1876    31.7760 </r>
       <r>     3.2126     0.0000    31.7760 </r>
       <r>     3.2599     0.0000    31.7760 </r>
       <r>     3.3072     0.0000    31.7760 </r>
       <r>     3.3545     0.0000    31.7760 </r>
       <r>     3.4018     0.5037    31.7998 </r>
       <r>     3.4490     3.5569    31.9680 </r>
       <r>     3.4963     0.0000    31.9680 </r>
       <r>     3.5436     0.0000    31.9680 </r>
       <r>     3.5909     0.2978    31.9821 </r>
       <r>     3.6382     3.3850    32.1421 </r>
       <r>     3.6855     0.0393    32.1440 </r>
       <r>     3.7327     0.0000    32.1440 </r>
       <r>     3.7800     0.0000    32.1440 </r>
       <r>     3.8273     0.0000    32.1440 </r>
       <r>     3.8746     0.0000    32.1440 </r>
       <r>     3.9219     0.0000    32.1440 </r>
       <r>     3.9692     0.0000    32.1440 </r>
       <r>     4.0164     0.0246    32.1452 </r>
       <r>     4.0637     2.6825    32.2720 </r>
       <r>     4.1110     0.0000    32.2720 </r>
       <r>     4.1583     0.0000    32.2720 </r>
       <r>     4.2056     1.9575    32.3646 </r>
       <r>     4.2529     0.0728    32.3680 </r>
       <r>     4.3002     0.0000    32.3680 </r>
       <r>     4.3474     2.4135    32.4821 </r>
       <r>     4.3947     8.7530    32.8960 </r>
       <r>     4.4420     0.7092    32.9295 </r>
       <r>     4.4893     7.4119    33.2800 </r>
       <r>     4.5366     1.1653    33.3351 </r>
       <r>     4.5839     6.0486    33.6211 </r>
       <r>     4.6311     0.9075    33.6640 </r>
       <r>     4.6784     8.0891    34.0465 </r>
       <r>     4.7257     0.3310    34.0621 </r>
       <r>     4.7730     9.8505    34.5279 </r>
       <r>     4.8203     3.6049    34.6984 </r>
       <r>     4.8676     6.9862    35.0287 </r>
       <r>     4.9148     3.0634    35.1736 </r>
       <r>     4.9621    17.7520    36.0129 </r>
       <r>     5.0094     3.1102    36.1600 </r>
       <r>     5.0567     9.5168    36.6100 </r>
       <r>     5.1040     2.7967    36.7422 </r>
       <r>     5.1513    16.1104    37.5040 </r>
       <r>     5.1985     0.0001    37.5040 </r>
       <r>     5.2458     0.0000    37.5040 </r>
       <r>     5.2931     0.3922    37.5225 </r>
       <r>     5.3404     7.8000    37.8914 </r>
       <r>     5.3877    17.0175    38.6960 </r>
       <r>     5.4350     7.2749    39.0400 </r>
       <r>     5.4822     5.5685    39.3033 </r>
       <r>     5.5295     4.5829    39.5200 </r>
       <r>     5.5768     0.0000    39.5200 </r>
       <r>     5.6241     6.0579    39.8064 </r>
       <r>     5.6714     2.0632    39.9040 </r>
       <r>     5.7187     0.0153    39.9047 </r>
       <r>     5.7660     2.0150    40.0000 </r>
       <r>     5.8132     0.0000    40.0000 </r>
       <r>     5.8605     0.0000    40.0000 </r>
       <r>     5.9078     0.0000    40.0000 </r>
       <r>     5.9551     0.0000    40.0000 </r>
       <r>     6.0024     0.0000    40.0000 </r>
       <r>     6.0497     0.0000    40.0000 </r>
       <r>     6.0969     0.0000    40.0000 </r>
       <r>     6.1442     0.0000    40.0000 </r>
       <r>     6.1915     0.0000    40.0000 </r>
       <r>     6.2388     0.0000    40.0000 </r>
       <r>     6.2861     0.0000    40.0000 </r>
       <r>     6.3334     0.0000    40.0000 </r>
       <r>     6.3806     0.0000    40.0000 </r>
      </set>
     </set>
    </array>
   </total>
  </dos>
 </calculation>
 <structure name="finalpos" >
  <crystal>
   <varray name="basis" >
    <v>       6.49000000       0.00000000       0.00000000 </v>
    <v>       0.00000000       6.49000000       0.00000000 </v>
    <v>       0.00000000       0.00000000       6.49000000 </v>
   </varray>
   <i name="volume">    273.35944900 </i>
   <varray name="rec_basis" >
    <v>       0.15408320       0.00000000       0.00000000 </v>
    <v>       0.00000000       0.15408320       0.00000000 </v>
    <v>       0.00000000       0.00000000       0.15408320 </v>
   </varray>
  </crystal>
  <varray name="positions" >
   <v>       0.00000000       0.00000000       0.00000000 </v>
   <v>       0.25000000       0.25000000       0.25000000 </v>
   <v>       0.00000000       0.50000000       0.50000000 </v>
   <v>       0.25000000       0.75000000       0.75000000 </v>
   <v>       0.50000000       0.00000000       0.50000000 </v>
   <v>       0.75000000       0.25000000       0.75000000 </v>
   <v>       0.50000000       0.50000000       0.00000000 </v>
   <v>       0.75000000       0.75000000       0.25000000 </v>
  </varray>
 </structure>
</modeling>
