<?xml version="1.0" encoding="ISO-8859-1"?>
<modeling>
 <generator>
  <i name="program" type="string">vasp </i>
  <i name="version" type="string">6.4.3  </i>
  <i name="subversion" type="string">19Mar24 (build Oct 22 2024 11:23:12) complex                          parallel </i>
  <i name="platform" type="string">LinuxIFC </i>
  <i name="date" type="string">2025 06 08 </i>
  <i name="time" type="string">20:48:15 </i>
 </generator>
 <incar>
  <i type="string" name="SYSTEM">Si and Ge interface calculation</i>
  <i type="int" name="ISTART">     0</i>
  <i type="logical" name="ADDGRID"> T  </i>
  <i type="int" name="ISPIN">     2</i>
  <i name="AMIX">      0.60000000</i>
  <i type="int" name="ICHARG">     2</i>
  <i type="int" name="NELM">   100</i>
  <i name="EDIFF">      0.00000010</i>
  <i name="ENCUT">    700.00000000</i>
  <i name="ENAUG">    900.00000000</i>
  <i type="int" name="NBANDS">   404</i>
  <i name="NUPDOWN">      1.00000000</i>
  <i name="NELECT">    672.00000000</i>
  <i type="string" name="LREAL">AUTO</i>
  <i type="int" name="ISMEAR">     0</i>
  <i name="SIGMA">      0.01000000</i>
  <i type="int" name="LMAXMIX">     6</i>
  <i type="logical" name="LWAVE"> F  </i>
  <i type="logical" name="LVTOT"> F  </i>
  <i type="logical" name="LVHAR"> T  </i>
  <i type="logical" name="LASPH"> T  </i>
  <i type="logical" name="LMIXTAU"> T  </i>
 </incar>
 <primitive_cell>
  <structure name="primitive_cell" >
   <crystal>
    <varray name="basis" >
     <v>       0.00000000      -8.00133800       0.00000000 </v>
     <v>      11.31560040       0.00000000       0.00000000 </v>
     <v>       0.00000000       0.00000000      25.60421562 </v>
    </varray>
    <i name="volume">   2318.20423552 </i>
    <varray name="rec_basis" >
     <v>       0.00000000      -0.12497910       0.00000000 </v>
     <v>       0.08837357       0.00000000       0.00000000 </v>
     <v>       0.00000000       0.00000000       0.03905607 </v>
    </varray>
   </crystal>
   <varray name="positions" >
    <v>       0.08801168       0.97066277       0.00000002 </v>
    <v>       0.83801174       0.72066271       0.07812522 </v>
    <v>       0.58801174       0.47066277       0.15625042 </v>
    <v>       0.33801150       0.22066289       0.23437557 </v>
    <v>       0.08801174       0.97066271       0.31250080 </v>
    <v>       0.83801174       0.72066271       0.39062604 </v>
    <v>       0.08801168       0.47066277       0.00000002 </v>
    <v>       0.83801174       0.22066276       0.07812522 </v>
    <v>       0.58801174       0.97066277       0.15625042 </v>
    <v>       0.33801150       0.72066283       0.23437557 </v>
    <v>       0.08801174       0.47066283       0.31250080 </v>
    <v>       0.83801174       0.22066277       0.39062604 </v>
    <v>       0.58801174       0.97066277       0.00000002 </v>
    <v>       0.33801174       0.72066271       0.07812521 </v>
    <v>       0.08801174       0.47066277       0.15625040 </v>
    <v>       0.83801150       0.22066289       0.23437560 </v>
    <v>       0.58801162       0.97066271       0.31250080 </v>
    <v>       0.33801174       0.72066271       0.39062601 </v>
    <v>       0.58801174       0.47066277       0.00000002 </v>
    <v>       0.33801174       0.22066276       0.07812521 </v>
    <v>       0.08801174       0.97066277       0.15625040 </v>
    <v>       0.83801150       0.72066283       0.23437560 </v>
    <v>       0.58801162       0.47066283       0.31250080 </v>
    <v>       0.33801174       0.22066277       0.39062601 </v>
    <v>       0.83801162       0.34566274       0.00000003 </v>
    <v>       0.58801174       0.09566276       0.07812521 </v>
    <v>       0.33801174       0.84566277       0.15625040 </v>
    <v>       0.08801150       0.59566283       0.23437557 </v>
    <v>       0.83801150       0.34566277       0.31250077 </v>
    <v>       0.58801174       0.09566271       0.39062604 </v>
    <v>       0.83801162       0.84566283       0.00000003 </v>
    <v>       0.58801174       0.59566277       0.07812521 </v>
    <v>       0.33801174       0.34566280       0.15625040 </v>
    <v>       0.08801150       0.09566288       0.23437557 </v>
    <v>       0.83801150       0.84566283       0.31250077 </v>
    <v>       0.58801174       0.59566277       0.39062604 </v>
    <v>       0.33801174       0.34566274       0.00000002 </v>
    <v>       0.08801162       0.09566276       0.07812521 </v>
    <v>       0.83801174       0.84566277       0.15625040 </v>
    <v>       0.58801150       0.59566283       0.23437560 </v>
    <v>       0.33801150       0.34566277       0.31250077 </v>
    <v>       0.08801174       0.09566271       0.39062601 </v>
    <v>       0.33801174       0.84566283       0.00000002 </v>
    <v>       0.08801162       0.59566277       0.07812521 </v>
    <v>       0.83801174       0.34566280       0.15625040 </v>
    <v>       0.58801150       0.09566288       0.23437560 </v>
    <v>       0.33801150       0.84566283       0.31250077 </v>
    <v>       0.08801174       0.59566277       0.39062601 </v>
    <v>       0.27850628       0.12500003       0.47129923 </v>
    <v>       0.77850628       0.12500000       0.56090474 </v>
    <v>       0.27850580       0.12499988       0.65051037 </v>
    <v>       0.77850556       0.12499976       0.74011582 </v>
    <v>       0.27850533       0.12499976       0.82972133 </v>
    <v>       0.77850533       0.12499976       0.91932684 </v>
    <v>       0.61183977       0.45833337       0.47129923 </v>
    <v>       0.11183977       0.45833331       0.56090480 </v>
    <v>       0.61183929       0.45833331       0.65051037 </v>
    <v>       0.11183882       0.45833325       0.74011582 </v>
    <v>       0.61183882       0.45833328       0.82972133 </v>
    <v>       0.11183834       0.45833316       0.91932684 </v>
    <v>       0.94517279       0.79166675       0.47129923 </v>
    <v>       0.44517279       0.79166663       0.56090474 </v>
    <v>       0.94517255       0.79166669       0.65051037 </v>
    <v>       0.44517231       0.79166651       0.74011582 </v>
    <v>       0.94517231       0.79166657       0.82972133 </v>
    <v>       0.44517183       0.79166657       0.91932684 </v>
    <v>       0.61183953       0.20833334       0.47129923 </v>
    <v>       0.11183977       0.20833325       0.56090474 </v>
    <v>       0.61183929       0.20833328       0.65051037 </v>
    <v>       0.11183834       0.20833325       0.74011582 </v>
    <v>       0.61183882       0.20833313       0.82972139 </v>
    <v>       0.11183882       0.20833313       0.91932684 </v>
    <v>       0.94517303       0.54166675       0.47129923 </v>
    <v>       0.44517279       0.54166663       0.56090480 </v>
    <v>       0.94517255       0.54166657       0.65051037 </v>
    <v>       0.44517231       0.54166663       0.74011582 </v>
    <v>       0.94517231       0.54166639       0.82972133 </v>
    <v>       0.44517183       0.54166645       0.91932684 </v>
    <v>       0.27850628       0.87500000       0.47129923 </v>
    <v>       0.77850628       0.87499994       0.56090480 </v>
    <v>       0.27850580       0.87499994       0.65051037 </v>
    <v>       0.77850580       0.87499982       0.74011582 </v>
    <v>       0.27850580       0.87499982       0.82972133 </v>
    <v>       0.77850533       0.87499976       0.91932684 </v>
   </varray>
  </structure>
  <varray name="primitive_index" >
   <v type="int" >        1 </v>
   <v type="int" >       14 </v>
   <v type="int" >        3 </v>
   <v type="int" >        4 </v>
   <v type="int" >       17 </v>
   <v type="int" >        6 </v>
   <v type="int" >        7 </v>
   <v type="int" >       20 </v>
   <v type="int" >        9 </v>
   <v type="int" >       10 </v>
   <v type="int" >       23 </v>
   <v type="int" >       12 </v>
   <v type="int" >       25 </v>
   <v type="int" >       26 </v>
   <v type="int" >       39 </v>
   <v type="int" >       28 </v>
   <v type="int" >       29 </v>
   <v type="int" >       42 </v>
   <v type="int" >       31 </v>
   <v type="int" >       32 </v>
   <v type="int" >       45 </v>
   <v type="int" >       34 </v>
   <v type="int" >       35 </v>
   <v type="int" >       48 </v>
   <v type="int" >       49 </v>
   <v type="int" >       62 </v>
   <v type="int" >       63 </v>
   <v type="int" >       52 </v>
   <v type="int" >       65 </v>
   <v type="int" >       54 </v>
   <v type="int" >       55 </v>
   <v type="int" >       68 </v>
   <v type="int" >       69 </v>
   <v type="int" >       58 </v>
   <v type="int" >       71 </v>
   <v type="int" >       60 </v>
   <v type="int" >       85 </v>
   <v type="int" >       74 </v>
   <v type="int" >       87 </v>
   <v type="int" >       88 </v>
   <v type="int" >       77 </v>
   <v type="int" >       90 </v>
   <v type="int" >       91 </v>
   <v type="int" >       80 </v>
   <v type="int" >       93 </v>
   <v type="int" >       94 </v>
   <v type="int" >       83 </v>
   <v type="int" >       96 </v>
   <v type="int" >      115 </v>
   <v type="int" >      116 </v>
   <v type="int" >       99 </v>
   <v type="int" >      100 </v>
   <v type="int" >      119 </v>
   <v type="int" >      120 </v>
   <v type="int" >      121 </v>
   <v type="int" >      104 </v>
   <v type="int" >      105 </v>
   <v type="int" >      124 </v>
   <v type="int" >      125 </v>
   <v type="int" >      108 </v>
   <v type="int" >      109 </v>
   <v type="int" >      128 </v>
   <v type="int" >      129 </v>
   <v type="int" >      112 </v>
   <v type="int" >      113 </v>
   <v type="int" >      132 </v>
   <v type="int" >      151 </v>
   <v type="int" >      134 </v>
   <v type="int" >      135 </v>
   <v type="int" >      154 </v>
   <v type="int" >      155 </v>
   <v type="int" >      138 </v>
   <v type="int" >      139 </v>
   <v type="int" >      158 </v>
   <v type="int" >      159 </v>
   <v type="int" >      142 </v>
   <v type="int" >      143 </v>
   <v type="int" >      162 </v>
   <v type="int" >      163 </v>
   <v type="int" >      164 </v>
   <v type="int" >      147 </v>
   <v type="int" >      148 </v>
   <v type="int" >      167 </v>
   <v type="int" >      168 </v>
  </varray>
 </primitive_cell>
 <kpoints>
  <generation param="Gamma">
   <v type="int" name="divisions">       3        2        1 </v>
   <v name="usershift">      0.00000000       0.00000000       0.00000000 </v>
   <v name="genvec1">      0.33333333       0.00000000       0.00000000 </v>
   <v name="genvec2">      0.00000000       0.50000000       0.00000000 </v>
   <v name="genvec3">      0.00000000       0.00000000       1.00000000 </v>
   <v name="shift">      0.00000000       0.00000000       0.00000000 </v>
  </generation>
  <varray name="kpointlist" >
   <v>       0.00000000       0.00000000       0.00000000 </v>
   <v>       0.33333333       0.00000000       0.00000000 </v>
   <v>       0.00000000       0.50000000       0.00000000 </v>
   <v>       0.33333333       0.50000000       0.00000000 </v>
  </varray>
  <varray name="weights" >
   <v>       0.16666667 </v>
   <v>       0.33333333 </v>
   <v>       0.16666667 </v>
   <v>       0.33333333 </v>
  </varray>
 </kpoints>
 <parameters>
  <separator name="general" >
   <i type="string" name="SYSTEM">Si and Ge interface calculation</i>
   <i type="logical" name="LCOMPAT"> F  </i>
  </separator>
  <separator name="electronic" >
   <i type="string" name="PREC">normal</i>
   <i name="ENMAX">    700.00000000</i>
   <i name="ENAUG">    900.00000000</i>
   <i name="EDIFF">      0.00000010</i>
   <i type="int" name="IALGO">    38</i>
   <i type="int" name="IWAVPR">    10</i>
   <i type="int" name="NBANDS">   404</i>
   <i type="int" name="NBANDSLOW">    -1</i>
   <i type="int" name="NBANDSHIGH">    -1</i>
   <i name="NELECT">    672.00000000</i>
   <i type="int" name="TURBO">     0</i>
   <i type="int" name="IRESTART">     0</i>
   <i type="int" name="NREBOOT">     0</i>
   <i type="int" name="NMIN">     0</i>
   <i name="EREF">      0.00000000</i>
   <separator name="electronic smearing" >
    <i type="int" name="ISMEAR">     0</i>
    <i name="SIGMA">      0.01000000</i>
    <i name="KSPACING">      0.50000000</i>
    <i type="logical" name="KGAMMA"> T  </i>
    <i type="logical" name="KBLOWUP"> T  </i>
   </separator>
   <separator name="electronic projectors" >
    <i type="logical" name="LREAL"> T  </i>
    <v name="ROPT">     -0.00050000     -0.00050000</v>
    <i type="int" name="LMAXPAW">  -100</i>
    <i type="int" name="LMAXMIX">     6</i>
    <i type="logical" name="NLSPLINE"> F  </i>
   </separator>
   <separator name="electronic startup" >
    <i type="int" name="ISTART">     0</i>
    <i type="int" name="ICHARG">     2</i>
    <i type="int" name="INIWAV">     1</i>
   </separator>
   <separator name="electronic spin" >
    <i type="int" name="ISPIN">     2</i>
    <i type="logical" name="LNONCOLLINEAR"> F  </i>
    <v name="MAGMOM">      0.00595238      0.00595238      0.00595238      0.00595238      0.00595238      0.00595238      0.00595238      0.00595238      0.00595238      0.00595238      0.00595238      0.00595238      0.00595238      0.00595238      0.00595238      0.00595238      0.00595238      0.00595238      0.00595238      0.00595238
      0.00595238      0.00595238      0.00595238      0.00595238      0.00595238      0.00595238      0.00595238      0.00595238      0.00595238      0.00595238      0.00595238      0.00595238      0.00595238      0.00595238      0.00595238      0.00595238      0.00595238      0.00595238      0.00595238      0.00595238
      0.00595238      0.00595238      0.00595238      0.00595238      0.00595238      0.00595238      0.00595238      0.00595238      0.00595238      0.00595238      0.00595238      0.00595238      0.00595238      0.00595238      0.00595238      0.00595238      0.00595238      0.00595238      0.00595238      0.00595238
      0.00595238      0.00595238      0.00595238      0.00595238      0.00595238      0.00595238      0.00595238      0.00595238      0.00595238      0.00595238      0.00595238      0.00595238      0.00595238      0.00595238      0.00595238      0.00595238      0.00595238      0.00595238      0.00595238      0.00595238
      0.00595238      0.00595238      0.00595238      0.00595238      0.00595238      0.00595238      0.00595238      0.00595238      0.00595238      0.00595238      0.00595238      0.00595238      0.00595238      0.00595238      0.00595238      0.00595238      0.00595238      0.00595238      0.00595238      0.00595238
      0.00595238      0.00595238      0.00595238      0.00595238      0.00595238      0.00595238      0.00595238      0.00595238      0.00595238      0.00595238      0.00595238      0.00595238      0.00595238      0.00595238      0.00595238      0.00595238      0.00595238      0.00595238      0.00595238      0.00595238
      0.00595238      0.00595238      0.00595238      0.00595238      0.00595238      0.00595238      0.00595238      0.00595238      0.00595238      0.00595238      0.00595238      0.00595238      0.00595238      0.00595238      0.00595238      0.00595238      0.00595238      0.00595238      0.00595238      0.00595238
      0.00595238      0.00595238      0.00595238      0.00595238      0.00595238      0.00595238      0.00595238      0.00595238      0.00595238      0.00595238      0.00595238      0.00595238      0.00595238      0.00595238      0.00595238      0.00595238      0.00595238      0.00595238      0.00595238      0.00595238
      0.00595238      0.00595238      0.00595238      0.00595238      0.00595238      0.00595238      0.00595238      0.00595238</v>
    <i name="NUPDOWN">      1.00000000</i>
    <i type="logical" name="LSORBIT"> F  </i>
    <v name="SAXIS">      0.00000000      0.00000000      1.00000000</v>
    <i type="logical" name="LSPIRAL"> F  </i>
    <v name="QSPIRAL">      0.00000000      0.00000000      0.00000000</v>
    <i type="logical" name="LZEROZ"> F  </i>
   </separator>
   <separator name="electronic exchange-correlation" >
    <i type="logical" name="LASPH"> T  </i>
   </separator>
   <separator name="electronic convergence" >
    <i type="int" name="NELM">   100</i>
    <i type="int" name="NELMDL">    -5</i>
    <i type="int" name="NELMIN">     2</i>
    <i name="ENINI">    700.00000000</i>
    <separator name="electronic convergence detail" >
     <i type="logical" name="LDIAG"> T  </i>
     <i type="logical" name="LSUBROT"> F  </i>
     <i name="WEIMIN">      0.00000000</i>
     <i name="EBREAK">      0.00000000</i>
     <i name="DEPER">      0.30000000</i>
     <i type="int" name="NRMM">     4</i>
     <i name="TIME">      0.40000000</i>
    </separator>
   </separator>
   <separator name="electronic mixer" >
    <i name="AMIX">      0.60000000</i>
    <i name="BMIX">      1.00000000</i>
    <i name="AMIN">      0.10000000</i>
    <i name="AMIX_MAG">      2.40000000</i>
    <i name="BMIX_MAG">      1.00000000</i>
    <separator name="electronic mixer details" >
     <i type="int" name="IMIX">     4</i>
     <i type="logical" name="MIXFIRST"> F  </i>
     <i type="int" name="MAXMIX">   -45</i>
     <i name="WC">    100.00000000</i>
     <i type="int" name="INIMIX">     1</i>
     <i type="int" name="MIXPRE">     1</i>
     <i type="int" name="MREMOVE">     5</i>
    </separator>
   </separator>
   <separator name="electronic dipolcorrection" >
    <i type="logical" name="LDIPOL"> F  </i>
    <i type="logical" name="LMONO"> F  </i>
    <i type="int" name="IDIPOL">     0</i>
    <i name="EPSILON">      1.00000000</i>
    <v name="DIPOL">   -100.00000000   -100.00000000   -100.00000000</v>
    <i name="EFIELD">      0.00000000</i>
    <i type="logical" name="LVACPOTAV"> F  </i>
   </separator>
  </separator>
  <separator name="grids" >
   <i type="int" name="NGX">    80</i>
   <i type="int" name="NGY">   108</i>
   <i type="int" name="NGZ">   168</i>
   <i type="int" name="NGXF">   160</i>
   <i type="int" name="NGYF">   216</i>
   <i type="int" name="NGZF">   336</i>
   <i type="logical" name="ADDGRID"> T  </i>
  </separator>
  <separator name="ionic" >
   <i type="int" name="NSW">     0</i>
   <i type="int" name="IBRION">    -1</i>
   <i type="int" name="MDALGO">     0</i>
   <i type="int" name="ISIF">     2</i>
   <i name="PSTRESS">      0.00000000</i>
   <i name="EDIFFG">      0.00000100</i>
   <i type="int" name="NFREE">     0</i>
   <i name="POTIM">      0.50000000</i>
   <i name="SMASS">     -3.00000000</i>
   <i name="SCALEE">      1.00000000</i>
  </separator>
  <separator name="ionic md" >
   <i name="TEBEG">      0.00010000</i>
   <i name="TEEND">      0.00010000</i>
   <i type="int" name="NBLOCK">     1</i>
   <i type="int" name="KBLOCK">     1</i>
   <i type="int" name="NPACO">   256</i>
   <i name="APACO">     10.00000000</i>
  </separator>
  <separator name="symmetry" >
   <i type="int" name="ISYM">     2</i>
   <i name="SYMPREC">      0.00001000</i>
  </separator>
  <separator name="dos" >
   <i type="int" name="LORBIT">     0</i>
   <v name="RWIGS">     -1.00000000     -1.00000000</v>
   <i type="int" name="NEDOS">   301</i>
   <i name="EMIN">     10.00000000</i>
   <i name="EMAX">    -10.00000000</i>
   <i name="EFERMI">      0.00000000</i>
  </separator>
  <separator name="writing" >
   <i type="int" name="NWRITE">     2</i>
   <i type="logical" name="LWAVE"> F  </i>
   <i type="logical" name="LDOWNSAMPLE"> F  </i>
   <i type="logical" name="LCHARG"> T  </i>
   <i type="logical" name="LPARD"> F  </i>
   <i type="logical" name="LVTOT"> F  </i>
   <i type="logical" name="LVHAR"> T  </i>
   <i type="logical" name="LELF"> F  </i>
   <i type="logical" name="LOPTICS"> F  </i>
   <v name="STM">      0.00000000      0.00000000      0.00000000      0.00000000      0.00000000      0.00000000      0.00000000</v>
  </separator>
  <separator name="performance" >
   <i type="int" name="NPAR">     4</i>
   <i type="int" name="NSIM">     4</i>
   <i type="int" name="NBLK">    -1</i>
   <i type="logical" name="LPLANE"> T  </i>
   <i type="logical" name="LSCALAPACK"> T  </i>
   <i type="logical" name="LSCAAWARE"> F  </i>
   <i type="logical" name="LSCALU"> F  </i>
   <i type="logical" name="LASYNC"> F  </i>
   <i type="logical" name="LORBITALREAL"> F  </i>
  </separator>
  <separator name="miscellaneous" >
   <i type="int" name="IDIOT">     3</i>
   <i type="int" name="PHON_NSTRUCT">    -1</i>
   <i type="logical" name="LMUSIC"> F  </i>
   <v name="POMASS">     72.61000000    118.71000000</v>
   <v name="DARWINR">      0.00000000      0.00000000</v>
   <v name="DARWINV">      1.00000000      1.00000000</v>
   <i type="logical" name="LCORR"> T  </i>
  </separator>
  <i type="logical" name="GGA_COMPAT"> T  </i>
  <i type="logical" name="LBERRY"> F  </i>
  <i type="int" name="ICORELEVEL">     0</i>
  <i type="logical" name="LDAU"> F  </i>
  <i type="int" name="I_CONSTRAINED_M">     0</i>
  <separator name="electronic exchange-correlation" >
   <i type="string" name="GGA    ">PE</i>
   <i type="string" name="XC_C">1</i>
   <i type="int" name="VOSKOWN">     0</i>
   <i type="logical" name="LHFCALC"> F  </i>
   <i type="string" name="PRECFOCK"></i>
   <i type="logical" name="LSYMGRAD"> F  </i>
   <i type="logical" name="LHFONE"> F  </i>
   <i type="logical" name="LRHFCALC"> F  </i>
   <i type="logical" name="LTHOMAS"> F  </i>
   <i type="logical" name="LMODELHF"> F  </i>
   <i type="logical" name="LFOCKACE"> F  </i>
   <i name="ENCUT4O">     -1.00000000</i>
   <i type="int" name="EXXOEP">     0</i>
   <i type="int" name="FOURORBIT">     0</i>
   <i name="AEXX">      0.00000000</i>
   <i name="HFALPHA">      0.00000000</i>
   <i name="MCALPHA">      0.00000000</i>
   <i name="ALDAX">      1.00000000</i>
   <i name="AGGAX">      1.00000000</i>
   <i name="AMGGAX">      1.00000000</i>
   <i name="ALDAC">      1.00000000</i>
   <i name="AGGAC">      1.00000000</i>
   <i name="AMGGAC">      1.00000000</i>
   <i type="int" name="NKREDX">     1</i>
   <i type="int" name="NKREDY">     1</i>
   <i type="int" name="NKREDZ">     1</i>
   <i type="logical" name="SHIFTRED"> F  </i>
   <i type="logical" name="ODDONLY"> F  </i>
   <i type="logical" name="EVENONLY"> F  </i>
   <i type="int" name="LMAXFOCK">     0</i>
   <i type="int" name="NMAXFOCKAE">     0</i>
   <i type="logical" name="LFOCKAEDFT"> F  </i>
   <i name="HFSCREEN">      0.00000000</i>
   <i name="HFSCREENC">      0.00000000</i>
   <i type="int" name="NBANDSGWLOW">     0</i>
  </separator>
  <separator name="vdW DFT" >
   <i type="logical" name="LUSE_VDW"> F  </i>
   <i type="int" name="IVDW_NL">    -1</i>
   <i type="logical" name="LSPIN_VDW"> F  </i>
   <i name="ZAB_VDW">     -0.84910000</i>
   <i name="GAMMA_VDW">      1.39626340</i>
   <i name="ALPHA_VDW">      0.00000000</i>
   <i name="PARAM1">      0.12340000</i>
   <i name="PARAM2">      1.00000000</i>
   <i name="BPARAM">      6.30000000</i>
   <i name="CPARAM">      0.00930000</i>
  </separator>
  <separator name="model GW" >
   <i type="int" name="MODEL_GW">     0</i>
   <i name="MODEL_EPS0">     16.55860168</i>
   <i name="MODEL_ALPHA">      1.00000000</i>
  </separator>
  <separator name="linear response parameters" >
   <i type="logical" name="LEPSILON"> F  </i>
   <i type="logical" name="LRPA"> F  </i>
   <i type="logical" name="LNABLA"> F  </i>
   <i type="logical" name="LVEL"> F  </i>
   <i name="CSHIFT">      0.10000000</i>
   <i name="OMEGAMAX">     -1.00000000</i>
   <i name="DEG_THRESHOLD">      0.00200000</i>
   <i name="RTIME">     -0.10000000</i>
   <i name="WPLASMAI">      0.00000000</i>
   <v name="DFIELD">      0.00000000      0.00000000      0.00000000</v>
   <v name="WPLASMA">      0.00000000      0.00000000      0.00000000      0.00000000      0.00000000      0.00000000      0.00000000      0.00000000      0.00000000</v>
  </separator>
  <separator name="orbital magnetization" >
   <i type="logical" name="NUCIND"> F  </i>
   <v name="MAGPOS">      0.00000000      0.00000000      0.00000000</v>
   <i type="logical" name="LNICSALL"> T  </i>
   <i type="logical" name="ORBITALMAG"> F  </i>
   <i type="logical" name="LMAGBLOCH"> F  </i>
   <i type="logical" name="LCHIMAG"> F  </i>
   <i type="logical" name="LGAUGE"> T  </i>
   <i type="int" name="MAGATOM">     0</i>
   <v name="MAGDIPOL">      0.00000000      0.00000000      0.00000000</v>
   <v name="AVECCONST">      0.00000000      0.00000000      0.00000000</v>
  </separator>
  <separator name="response functions" >
   <i type="logical" name="LALL_IN_ONE"> F  </i>
   <i type="int" name="IALL_IN_ONE">    -1</i>
   <i type="int" name="NBANDS_WAVE">    -1</i>
   <i type="logical" name="LFINITE_TEMPERATURE"> F  </i>
   <i type="logical" name="LADDER"> F  </i>
   <i type="logical" name="LRPAFORCE"> F  </i>
   <i type="logical" name="LFXC"> F  </i>
   <i type="logical" name="LHARTREE"> T  </i>
   <i type="int" name="IBSE">     0</i>
   <v type="int" name="KPOINT">    -1     0     0     0</v>
   <i type="logical" name="LTCTC"> F  </i>
   <i type="logical" name="LTCTE"> F  </i>
   <i type="logical" name="LTETE"> F  </i>
   <i type="logical" name="LTRIPLET"> F  </i>
   <i type="logical" name="LFXCEPS"> F  </i>
   <i type="logical" name="LFXHEG"> F  </i>
   <i type="int" name="NATURALO">     2</i>
   <i type="logical" name="LHOLEGF"> F  </i>
   <i type="logical" name="L2ORDER"> F  </i>
   <i type="logical" name="LDMP1"> F  </i>
   <i type="logical" name="LMP2LT"> F  </i>
   <i type="logical" name="LSMP2LT"> F  </i>
   <i type="logical" name="LGWLF"> F  </i>
   <i name="ENCUTGW">     -1.60000002</i>
   <i name="ENCUTGWSOFT">     -1.60000002</i>
   <i name="ENCUTLF">     -1.00000000</i>
   <i type="logical" name="ESF_SPLINES"> F  </i>
   <i name="ESF_CONV">      0.01000000</i>
   <i type="int" name="ESF_NINTER">    15</i>
   <i type="int" name="LMAXMP2">    -1</i>
   <i name="SCISSOR">      0.00000000</i>
   <i type="int" name="NOMEGA">     0</i>
   <i type="int" name="NOMEGAR">     0</i>
   <i type="int" name="NBANDSGW">    -1</i>
   <i type="int" name="NBANDSO">    -1</i>
   <i type="int" name="NBANDSV">    -1</i>
   <i type="int" name="NELMGW">     1</i>
   <i type="int" name="NELMHF">     1</i>
   <i type="int" name="DIM">     3</i>
   <i type="int" name="IESPILON">     4</i>
   <i type="int" name="ANTIRES">     0</i>
   <i name="OMEGAMAX">    -30.00000000</i>
   <i name="OMEGAMIN">    -30.00000000</i>
   <i name="OMEGATL">   -200.00000000</i>
   <i type="int" name="OMEGAGRID">     0</i>
   <i name="CSHIFT">     -0.10000000</i>
   <i type="logical" name="LSELFENERGY"> F  </i>
   <i type="logical" name="LSPECTRAL"> F  </i>
   <i type="logical" name="LSPECTRALGW"> F  </i>
   <i type="logical" name="LSINGLES"> F  </i>
   <i type="logical" name="LFERMIGW"> F  </i>
   <i type="logical" name="ODDONLYGW"> F  </i>
   <i type="logical" name="EVENONLYGW"> F  </i>
   <i type="int" name="NKREDLFX">     1</i>
   <i type="int" name="NKREDLFY">     1</i>
   <i type="int" name="NKREDLFZ">     1</i>
   <i type="int" name="MAXMEM">  2800</i>
   <i type="int" name="TELESCOPE">     0</i>
   <i type="int" name="NTAUPAR">    -1</i>
   <i type="int" name="NOMEGAPAR">    -1</i>
   <i name="DAMP_NEWTON">      0.80000001</i>
   <i name="LAMBDA">      1.00000000</i>
  </separator>
  <separator name="External order field" >
   <i name="OFIELD_KAPPA">      0.00000000</i>
   <v name="OFIELD_K">      0.00000000      0.00000000      0.00000000</v>
   <i name="OFIELD_Q6_NEAR">      0.00000000</i>
   <i name="OFIELD_Q6_FAR">      0.00000000</i>
   <i name="OFIELD_A">      0.00000000</i>
  </separator>
  <separator name="optional k-points parameters" >
   <i type="int" name="KPOINTS_OPT_MODE">     1</i>
   <i type="logical" name="LKPOINTS_OPT"> F  </i>
  </separator>
 </parameters>
 <atominfo>
  <atoms>     168 </atoms>
  <types>       2 </types>
  <array name="atoms" >
   <dimension dim="1">ion</dimension>
   <field type="string">element</field>
   <field type="int">atomtype</field>
   <set>
    <rc><c>Ge</c><c>   1</c></rc>
    <rc><c>Ge</c><c>   1</c></rc>
    <rc><c>Ge</c><c>   1</c></rc>
    <rc><c>Ge</c><c>   1</c></rc>
    <rc><c>Ge</c><c>   1</c></rc>
    <rc><c>Ge</c><c>   1</c></rc>
    <rc><c>Ge</c><c>   1</c></rc>
    <rc><c>Ge</c><c>   1</c></rc>
    <rc><c>Ge</c><c>   1</c></rc>
    <rc><c>Ge</c><c>   1</c></rc>
    <rc><c>Ge</c><c>   1</c></rc>
    <rc><c>Ge</c><c>   1</c></rc>
    <rc><c>Ge</c><c>   1</c></rc>
    <rc><c>Ge</c><c>   1</c></rc>
    <rc><c>Ge</c><c>   1</c></rc>
    <rc><c>Ge</c><c>   1</c></rc>
    <rc><c>Ge</c><c>   1</c></rc>
    <rc><c>Ge</c><c>   1</c></rc>
    <rc><c>Ge</c><c>   1</c></rc>
    <rc><c>Ge</c><c>   1</c></rc>
    <rc><c>Ge</c><c>   1</c></rc>
    <rc><c>Ge</c><c>   1</c></rc>
    <rc><c>Ge</c><c>   1</c></rc>
    <rc><c>Ge</c><c>   1</c></rc>
    <rc><c>Ge</c><c>   1</c></rc>
    <rc><c>Ge</c><c>   1</c></rc>
    <rc><c>Ge</c><c>   1</c></rc>
    <rc><c>Ge</c><c>   1</c></rc>
    <rc><c>Ge</c><c>   1</c></rc>
    <rc><c>Ge</c><c>   1</c></rc>
    <rc><c>Ge</c><c>   1</c></rc>
    <rc><c>Ge</c><c>   1</c></rc>
    <rc><c>Ge</c><c>   1</c></rc>
    <rc><c>Ge</c><c>   1</c></rc>
    <rc><c>Ge</c><c>   1</c></rc>
    <rc><c>Ge</c><c>   1</c></rc>
    <rc><c>Ge</c><c>   1</c></rc>
    <rc><c>Ge</c><c>   1</c></rc>
    <rc><c>Ge</c><c>   1</c></rc>
    <rc><c>Ge</c><c>   1</c></rc>
    <rc><c>Ge</c><c>   1</c></rc>
    <rc><c>Ge</c><c>   1</c></rc>
    <rc><c>Ge</c><c>   1</c></rc>
    <rc><c>Ge</c><c>   1</c></rc>
    <rc><c>Ge</c><c>   1</c></rc>
    <rc><c>Ge</c><c>   1</c></rc>
    <rc><c>Ge</c><c>   1</c></rc>
    <rc><c>Ge</c><c>   1</c></rc>
    <rc><c>Ge</c><c>   1</c></rc>
    <rc><c>Ge</c><c>   1</c></rc>
    <rc><c>Ge</c><c>   1</c></rc>
    <rc><c>Ge</c><c>   1</c></rc>
    <rc><c>Ge</c><c>   1</c></rc>
    <rc><c>Ge</c><c>   1</c></rc>
    <rc><c>Ge</c><c>   1</c></rc>
    <rc><c>Ge</c><c>   1</c></rc>
    <rc><c>Ge</c><c>   1</c></rc>
    <rc><c>Ge</c><c>   1</c></rc>
    <rc><c>Ge</c><c>   1</c></rc>
    <rc><c>Ge</c><c>   1</c></rc>
    <rc><c>Ge</c><c>   1</c></rc>
    <rc><c>Ge</c><c>   1</c></rc>
    <rc><c>Ge</c><c>   1</c></rc>
    <rc><c>Ge</c><c>   1</c></rc>
    <rc><c>Ge</c><c>   1</c></rc>
    <rc><c>Ge</c><c>   1</c></rc>
    <rc><c>Ge</c><c>   1</c></rc>
    <rc><c>Ge</c><c>   1</c></rc>
    <rc><c>Ge</c><c>   1</c></rc>
    <rc><c>Ge</c><c>   1</c></rc>
    <rc><c>Ge</c><c>   1</c></rc>
    <rc><c>Ge</c><c>   1</c></rc>
    <rc><c>Ge</c><c>   1</c></rc>
    <rc><c>Ge</c><c>   1</c></rc>
    <rc><c>Ge</c><c>   1</c></rc>
    <rc><c>Ge</c><c>   1</c></rc>
    <rc><c>Ge</c><c>   1</c></rc>
    <rc><c>Ge</c><c>   1</c></rc>
    <rc><c>Ge</c><c>   1</c></rc>
    <rc><c>Ge</c><c>   1</c></rc>
    <rc><c>Ge</c><c>   1</c></rc>
    <rc><c>Ge</c><c>   1</c></rc>
    <rc><c>Ge</c><c>   1</c></rc>
    <rc><c>Ge</c><c>   1</c></rc>
    <rc><c>Ge</c><c>   1</c></rc>
    <rc><c>Ge</c><c>   1</c></rc>
    <rc><c>Ge</c><c>   1</c></rc>
    <rc><c>Ge</c><c>   1</c></rc>
    <rc><c>Ge</c><c>   1</c></rc>
    <rc><c>Ge</c><c>   1</c></rc>
    <rc><c>Ge</c><c>   1</c></rc>
    <rc><c>Ge</c><c>   1</c></rc>
    <rc><c>Ge</c><c>   1</c></rc>
    <rc><c>Ge</c><c>   1</c></rc>
    <rc><c>Ge</c><c>   1</c></rc>
    <rc><c>Ge</c><c>   1</c></rc>
    <rc><c>Sn</c><c>   2</c></rc>
    <rc><c>Sn</c><c>   2</c></rc>
    <rc><c>Sn</c><c>   2</c></rc>
    <rc><c>Sn</c><c>   2</c></rc>
    <rc><c>Sn</c><c>   2</c></rc>
    <rc><c>Sn</c><c>   2</c></rc>
    <rc><c>Sn</c><c>   2</c></rc>
    <rc><c>Sn</c><c>   2</c></rc>
    <rc><c>Sn</c><c>   2</c></rc>
    <rc><c>Sn</c><c>   2</c></rc>
    <rc><c>Sn</c><c>   2</c></rc>
    <rc><c>Sn</c><c>   2</c></rc>
    <rc><c>Sn</c><c>   2</c></rc>
    <rc><c>Sn</c><c>   2</c></rc>
    <rc><c>Sn</c><c>   2</c></rc>
    <rc><c>Sn</c><c>   2</c></rc>
    <rc><c>Sn</c><c>   2</c></rc>
    <rc><c>Sn</c><c>   2</c></rc>
    <rc><c>Sn</c><c>   2</c></rc>
    <rc><c>Sn</c><c>   2</c></rc>
    <rc><c>Sn</c><c>   2</c></rc>
    <rc><c>Sn</c><c>   2</c></rc>
    <rc><c>Sn</c><c>   2</c></rc>
    <rc><c>Sn</c><c>   2</c></rc>
    <rc><c>Sn</c><c>   2</c></rc>
    <rc><c>Sn</c><c>   2</c></rc>
    <rc><c>Sn</c><c>   2</c></rc>
    <rc><c>Sn</c><c>   2</c></rc>
    <rc><c>Sn</c><c>   2</c></rc>
    <rc><c>Sn</c><c>   2</c></rc>
    <rc><c>Sn</c><c>   2</c></rc>
    <rc><c>Sn</c><c>   2</c></rc>
    <rc><c>Sn</c><c>   2</c></rc>
    <rc><c>Sn</c><c>   2</c></rc>
    <rc><c>Sn</c><c>   2</c></rc>
    <rc><c>Sn</c><c>   2</c></rc>
    <rc><c>Sn</c><c>   2</c></rc>
    <rc><c>Sn</c><c>   2</c></rc>
    <rc><c>Sn</c><c>   2</c></rc>
    <rc><c>Sn</c><c>   2</c></rc>
    <rc><c>Sn</c><c>   2</c></rc>
    <rc><c>Sn</c><c>   2</c></rc>
    <rc><c>Sn</c><c>   2</c></rc>
    <rc><c>Sn</c><c>   2</c></rc>
    <rc><c>Sn</c><c>   2</c></rc>
    <rc><c>Sn</c><c>   2</c></rc>
    <rc><c>Sn</c><c>   2</c></rc>
    <rc><c>Sn</c><c>   2</c></rc>
    <rc><c>Sn</c><c>   2</c></rc>
    <rc><c>Sn</c><c>   2</c></rc>
    <rc><c>Sn</c><c>   2</c></rc>
    <rc><c>Sn</c><c>   2</c></rc>
    <rc><c>Sn</c><c>   2</c></rc>
    <rc><c>Sn</c><c>   2</c></rc>
    <rc><c>Sn</c><c>   2</c></rc>
    <rc><c>Sn</c><c>   2</c></rc>
    <rc><c>Sn</c><c>   2</c></rc>
    <rc><c>Sn</c><c>   2</c></rc>
    <rc><c>Sn</c><c>   2</c></rc>
    <rc><c>Sn</c><c>   2</c></rc>
    <rc><c>Sn</c><c>   2</c></rc>
    <rc><c>Sn</c><c>   2</c></rc>
    <rc><c>Sn</c><c>   2</c></rc>
    <rc><c>Sn</c><c>   2</c></rc>
    <rc><c>Sn</c><c>   2</c></rc>
    <rc><c>Sn</c><c>   2</c></rc>
    <rc><c>Sn</c><c>   2</c></rc>
    <rc><c>Sn</c><c>   2</c></rc>
    <rc><c>Sn</c><c>   2</c></rc>
    <rc><c>Sn</c><c>   2</c></rc>
    <rc><c>Sn</c><c>   2</c></rc>
    <rc><c>Sn</c><c>   2</c></rc>
   </set>
  </array>
  <array name="atomtypes" >
   <dimension dim="1">type</dimension>
   <field type="int">atomspertype</field>
   <field type="string">element</field>
   <field>mass</field>
   <field>valence</field>
   <field type="string">pseudopotential</field>
   <set>
    <rc><c>  96</c><c>Ge</c><c>     72.61000000</c><c>      4.00000000</c><c>  PAW_PBE Ge 05Jan2001                  </c></rc>
    <rc><c>  72</c><c>Sn</c><c>    118.71000000</c><c>      4.00000000</c><c>  PAW_PBE Sn 08Apr2002                  </c></rc>
   </set>
  </array>
 </atominfo>
 <structure name="initialpos" >
  <crystal>
   <varray name="basis" >
    <v>      11.31560040       0.00000000       0.00000000 </v>
    <v>       0.00000000      16.00267601       0.00000000 </v>
    <v>       0.00000000       0.00000000      25.60421562 </v>
   </varray>
   <i name="volume">   4636.40847104 </i>
   <varray name="rec_basis" >
    <v>       0.08837357       0.00000000       0.00000000 </v>
    <v>       0.00000000       0.06248955       0.00000000 </v>
    <v>       0.00000000       0.00000000       0.03905607 </v>
   </varray>
  </crystal>
  <varray name="positions" >
   <v>       0.97066277       0.45599416       0.00000002 </v>
   <v>       0.72066271       0.08099414       0.07812521 </v>
   <v>       0.47066277       0.70599413       0.15625042 </v>
   <v>       0.22066289       0.33099425       0.23437557 </v>
   <v>       0.97066271       0.95599413       0.31250077 </v>
   <v>       0.72066271       0.58099413       0.39062604 </v>
   <v>       0.47066277       0.45599416       0.00000002 </v>
   <v>       0.22066276       0.08099414       0.07812521 </v>
   <v>       0.97066277       0.70599413       0.15625042 </v>
   <v>       0.72066283       0.33099425       0.23437557 </v>
   <v>       0.47066283       0.95599413       0.31250077 </v>
   <v>       0.22066277       0.58099413       0.39062604 </v>
   <v>       0.97066277       0.95599413       0.00000002 </v>
   <v>       0.72066271       0.58099413       0.07812522 </v>
   <v>       0.47066277       0.20599413       0.15625040 </v>
   <v>       0.22066289       0.83099437       0.23437557 </v>
   <v>       0.97066271       0.45599413       0.31250080 </v>
   <v>       0.72066271       0.08099413       0.39062601 </v>
   <v>       0.47066277       0.95599413       0.00000002 </v>
   <v>       0.22066276       0.58099413       0.07812522 </v>
   <v>       0.97066277       0.20599413       0.15625040 </v>
   <v>       0.72066283       0.83099437       0.23437557 </v>
   <v>       0.47066283       0.45599413       0.31250080 </v>
   <v>       0.22066277       0.08099413       0.39062601 </v>
   <v>       0.97066277       0.70599413       0.00000002 </v>
   <v>       0.72066271       0.33099413       0.07812521 </v>
   <v>       0.47066277       0.95599413       0.15625040 </v>
   <v>       0.22066289       0.58099425       0.23437560 </v>
   <v>       0.97066271       0.20599419       0.31250080 </v>
   <v>       0.72066271       0.83099413       0.39062604 </v>
   <v>       0.47066277       0.70599413       0.00000002 </v>
   <v>       0.22066276       0.33099413       0.07812521 </v>
   <v>       0.97066277       0.95599413       0.15625040 </v>
   <v>       0.72066283       0.58099425       0.23437560 </v>
   <v>       0.47066283       0.20599419       0.31250080 </v>
   <v>       0.22066277       0.83099413       0.39062604 </v>
   <v>       0.97066277       0.20599414       0.00000002 </v>
   <v>       0.72066271       0.83099413       0.07812521 </v>
   <v>       0.47066277       0.45599413       0.15625040 </v>
   <v>       0.22066289       0.08099425       0.23437560 </v>
   <v>       0.97066271       0.70599425       0.31250077 </v>
   <v>       0.72066271       0.33099413       0.39062601 </v>
   <v>       0.47066277       0.20599414       0.00000002 </v>
   <v>       0.22066276       0.83099413       0.07812521 </v>
   <v>       0.97066277       0.45599413       0.15625040 </v>
   <v>       0.72066283       0.08099425       0.23437560 </v>
   <v>       0.47066283       0.70599425       0.31250077 </v>
   <v>       0.22066277       0.33099413       0.39062601 </v>
   <v>       0.34566274       0.58099419       0.00000003 </v>
   <v>       0.09566276       0.20599416       0.07812521 </v>
   <v>       0.84566277       0.83099413       0.15625040 </v>
   <v>       0.59566283       0.45599425       0.23437557 </v>
   <v>       0.34566277       0.08099419       0.31250080 </v>
   <v>       0.09566271       0.70599413       0.39062604 </v>
   <v>       0.84566283       0.58099419       0.00000003 </v>
   <v>       0.59566277       0.20599416       0.07812521 </v>
   <v>       0.34566280       0.83099413       0.15625040 </v>
   <v>       0.09566288       0.45599425       0.23437557 </v>
   <v>       0.84566283       0.08099419       0.31250080 </v>
   <v>       0.59566277       0.70599413       0.39062604 </v>
   <v>       0.34566274       0.08099414       0.00000001 </v>
   <v>       0.09566276       0.70599413       0.07812521 </v>
   <v>       0.84566277       0.33099413       0.15625040 </v>
   <v>       0.59566283       0.95599425       0.23437560 </v>
   <v>       0.34566277       0.58099425       0.31250077 </v>
   <v>       0.09566271       0.20599401       0.39062601 </v>
   <v>       0.84566283       0.08099414       0.00000001 </v>
   <v>       0.59566277       0.70599413       0.07812521 </v>
   <v>       0.34566280       0.33099413       0.15625040 </v>
   <v>       0.09566288       0.95599425       0.23437560 </v>
   <v>       0.84566283       0.58099425       0.31250077 </v>
   <v>       0.59566277       0.20599401       0.39062601 </v>
   <v>       0.34566274       0.83099419       0.00000000 </v>
   <v>       0.09566276       0.45599419       0.07812521 </v>
   <v>       0.84566277       0.08099417       0.15625040 </v>
   <v>       0.59566283       0.70599431       0.23437557 </v>
   <v>       0.34566277       0.33099425       0.31250077 </v>
   <v>       0.09566271       0.95599413       0.39062598 </v>
   <v>       0.84566283       0.83099419       0.00000000 </v>
   <v>       0.59566277       0.45599419       0.07812521 </v>
   <v>       0.34566280       0.08099417       0.15625040 </v>
   <v>       0.09566288       0.70599431       0.23437557 </v>
   <v>       0.84566283       0.33099425       0.31250077 </v>
   <v>       0.59566277       0.95599413       0.39062598 </v>
   <v>       0.34566274       0.33099413       0.00000002 </v>
   <v>       0.09566276       0.95599413       0.07812522 </v>
   <v>       0.84566277       0.58099413       0.15625040 </v>
   <v>       0.59566283       0.20599425       0.23437560 </v>
   <v>       0.34566277       0.83099413       0.31250077 </v>
   <v>       0.09566271       0.45599413       0.39062601 </v>
   <v>       0.84566283       0.33099413       0.00000002 </v>
   <v>       0.59566277       0.95599413       0.07812522 </v>
   <v>       0.34566280       0.58099413       0.15625040 </v>
   <v>       0.09566288       0.20599425       0.23437560 </v>
   <v>       0.84566283       0.83099413       0.31250077 </v>
   <v>       0.59566277       0.45599413       0.39062601 </v>
   <v>       0.12500000       0.86074680       0.47129923 </v>
   <v>       0.12500000       0.11074686       0.56090480 </v>
   <v>       0.12499988       0.36074710       0.65051037 </v>
   <v>       0.12499976       0.61074722       0.74011582 </v>
   <v>       0.12499976       0.86074728       0.82972133 </v>
   <v>       0.12499976       0.11074734       0.91932684 </v>
   <v>       0.45833337       0.19408011       0.47129923 </v>
   <v>       0.45833331       0.44408011       0.56090480 </v>
   <v>       0.45833331       0.69408035       0.65051037 </v>
   <v>       0.45833322       0.94408053       0.74011582 </v>
   <v>       0.45833322       0.19408059       0.82972133 </v>
   <v>       0.45833316       0.44408083       0.91932684 </v>
   <v>       0.79166675       0.52741361       0.47129923 </v>
   <v>       0.79166669       0.77741361       0.56090480 </v>
   <v>       0.79166681       0.02741384       0.65051037 </v>
   <v>       0.79166651       0.27741384       0.74011582 </v>
   <v>       0.79166657       0.52741384       0.82972133 </v>
   <v>       0.79166657       0.77741408       0.91932684 </v>
   <v>       0.12500003       0.36074686       0.47129923 </v>
   <v>       0.12500000       0.61074686       0.56090474 </v>
   <v>       0.12499988       0.86074704       0.65051037 </v>
   <v>       0.12499988       0.11074710       0.74011582 </v>
   <v>       0.12499976       0.36074734       0.82972133 </v>
   <v>       0.12499976       0.61074734       0.91932684 </v>
   <v>       0.45833337       0.69408011       0.47129923 </v>
   <v>       0.45833334       0.94408029       0.56090474 </v>
   <v>       0.45833337       0.19408059       0.65051037 </v>
   <v>       0.45833325       0.44408059       0.74011582 </v>
   <v>       0.45833328       0.69408059       0.82972133 </v>
   <v>       0.45833311       0.94408089       0.91932684 </v>
   <v>       0.79166681       0.02741349       0.47129923 </v>
   <v>       0.79166663       0.27741361       0.56090474 </v>
   <v>       0.79166669       0.52741373       0.65051037 </v>
   <v>       0.79166663       0.77741384       0.74011582 </v>
   <v>       0.79166651       0.02741384       0.82972133 </v>
   <v>       0.79166657       0.27741408       0.91932684 </v>
   <v>       0.20833331       0.19408011       0.47129923 </v>
   <v>       0.20833325       0.44408011       0.56090474 </v>
   <v>       0.20833328       0.69408035       0.65051037 </v>
   <v>       0.20833313       0.94408041       0.74011582 </v>
   <v>       0.20833313       0.19408059       0.82972133 </v>
   <v>       0.20833313       0.44408059       0.91932684 </v>
   <v>       0.54166675       0.52741349       0.47129923 </v>
   <v>       0.54166663       0.77741361       0.56090480 </v>
   <v>       0.54166663       0.02741384       0.65051037 </v>
   <v>       0.54166663       0.27741384       0.74011582 </v>
   <v>       0.54166639       0.52741384       0.82972133 </v>
   <v>       0.54166651       0.77741408       0.91932684 </v>
   <v>       0.87500000       0.86074686       0.47129923 </v>
   <v>       0.87500000       0.11074686       0.56090480 </v>
   <v>       0.87499994       0.36074710       0.65051037 </v>
   <v>       0.87499982       0.61074710       0.74011582 </v>
   <v>       0.87499982       0.86074728       0.82972133 </v>
   <v>       0.87499982       0.11074734       0.91932684 </v>
   <v>       0.20833334       0.69408023       0.47129923 </v>
   <v>       0.20833328       0.94408029       0.56090480 </v>
   <v>       0.20833322       0.19408035       0.65051031 </v>
   <v>       0.20833325       0.44408083       0.74011582 </v>
   <v>       0.20833313       0.69408059       0.82972139 </v>
   <v>       0.20833307       0.94408089       0.91932684 </v>
   <v>       0.54166675       0.02741349       0.47129923 </v>
   <v>       0.54166663       0.27741361       0.56090480 </v>
   <v>       0.54166657       0.52741373       0.65051037 </v>
   <v>       0.54166657       0.77741384       0.74011582 </v>
   <v>       0.54166657       0.02741384       0.82972133 </v>
   <v>       0.54166645       0.27741408       0.91932684 </v>
   <v>       0.87500000       0.36074686       0.47129923 </v>
   <v>       0.87499994       0.61074686       0.56090480 </v>
   <v>       0.87500000       0.86074704       0.65051037 </v>
   <v>       0.87499988       0.11074710       0.74011582 </v>
   <v>       0.87499982       0.36074710       0.82972133 </v>
   <v>       0.87499976       0.61074734       0.91932684 </v>
  </varray>
 </structure>
 <calculation>
  <scstep>
   <time name="dav">   35.46   35.77</time>
   <time name="total">   38.41   38.73</time>
   <energy>
    <i name="alphaZ">    991.21889800 </i>
    <i name="ewald"> -11786.66350248 </i>
    <i name="hartreedc">  -6446.60285663 </i>
    <i name="XCdc">  -9238.42415804 </i>
    <i name="pawpsdc">  22099.84193803 </i>
    <i name="pawaedc"> -11791.56227843 </i>
    <i name="eentropy">     -0.00157730 </i>
    <i name="bandstr">   2777.32806769 </i>
    <i name="atom">  16853.79812076 </i>
    <i name="e_fr_energy">   3458.93265162 </i>
    <i name="e_wo_entrp">   3458.93422892 </i>
    <i name="e_0_energy">   3458.93344027 </i>
   </energy>
  </scstep>
  <scstep>
   <time name="dav">   39.81   40.16</time>
   <time name="total">   39.81   40.16</time>
   <energy>
    <i name="e_fr_energy">   -253.72921640 </i>
    <i name="e_wo_entrp">   -253.72718801 </i>
    <i name="e_0_energy">   -253.72820221 </i>
   </energy>
  </scstep>
  <scstep>
   <time name="dav">   41.33   41.69</time>
   <time name="total">   41.33   41.70</time>
   <energy>
    <i name="e_fr_energy">   -664.50703638 </i>
    <i name="e_wo_entrp">   -664.50560566 </i>
    <i name="e_0_energy">   -664.50632102 </i>
   </energy>
  </scstep>
  <scstep>
   <time name="dav">   40.78   41.14</time>
   <time name="total">   40.78   41.14</time>
   <energy>
    <i name="e_fr_energy">   -681.05379103 </i>
    <i name="e_wo_entrp">   -681.05116242 </i>
    <i name="e_0_energy">   -681.05247673 </i>
   </energy>
  </scstep>
  <scstep>
   <time name="dav">   44.14   44.53</time>
   <time name="total">   46.39   46.80</time>
   <energy>
    <i name="e_fr_energy">   -681.76767997 </i>
    <i name="e_wo_entrp">   -681.76507835 </i>
    <i name="e_0_energy">   -681.76637916 </i>
   </energy>
  </scstep>
  <scstep>
   <time name="dav">   50.40   50.83</time>
   <time name="total">   55.63   56.09</time>
   <energy>
    <i name="e_fr_energy">   -672.26661810 </i>
    <i name="e_wo_entrp">   -672.26396243 </i>
    <i name="e_0_energy">   -672.26529027 </i>
   </energy>
  </scstep>
  <scstep>
   <time name="dav">   46.92   47.36</time>
   <time name="total">   52.19   52.68</time>
   <energy>
    <i name="e_fr_energy">   -675.54335980 </i>
    <i name="e_wo_entrp">   -675.54064604 </i>
    <i name="e_0_energy">   -675.54200292 </i>
   </energy>
  </scstep>
  <scstep>
   <time name="dav">   51.36   51.80</time>
   <time name="total">   56.58   57.06</time>
   <energy>
    <i name="e_fr_energy">   -670.84061368 </i>
    <i name="e_wo_entrp">   -670.83830996 </i>
    <i name="e_0_energy">   -670.83946182 </i>
   </energy>
  </scstep>
  <scstep>
   <time name="dav">   43.39   43.76</time>
   <time name="total">   48.60   49.01</time>
   <energy>
    <i name="e_fr_energy">   -670.26093363 </i>
    <i name="e_wo_entrp">   -670.25983983 </i>
    <i name="e_0_energy">   -670.26038673 </i>
   </energy>
  </scstep>
  <scstep>
   <time name="dav">   39.25   39.59</time>
   <time name="total">   44.46   44.83</time>
   <energy>
    <i name="e_fr_energy">   -670.24065724 </i>
    <i name="e_wo_entrp">   -670.23942720 </i>
    <i name="e_0_energy">   -670.24004222 </i>
   </energy>
  </scstep>
  <scstep>
   <time name="dav">   42.56   42.92</time>
   <time name="total">   47.76   48.15</time>
   <energy>
    <i name="e_fr_energy">   -670.22974802 </i>
    <i name="e_wo_entrp">   -670.22689896 </i>
    <i name="e_0_energy">   -670.22832349 </i>
   </energy>
  </scstep>
  <scstep>
   <time name="dav">   40.06   40.41</time>
   <time name="total">   45.23   45.63</time>
   <energy>
    <i name="e_fr_energy">   -670.23271685 </i>
    <i name="e_wo_entrp">   -670.23070371 </i>
    <i name="e_0_energy">   -670.23171028 </i>
   </energy>
  </scstep>
  <scstep>
   <time name="dav">   39.26   39.60</time>
   <time name="total">   44.44   44.81</time>
   <energy>
    <i name="e_fr_energy">   -670.23403692 </i>
    <i name="e_wo_entrp">   -670.23191229 </i>
    <i name="e_0_energy">   -670.23297460 </i>
   </energy>
  </scstep>
  <scstep>
   <time name="dav">   40.46   40.80</time>
   <time name="total">   45.65   46.03</time>
   <energy>
    <i name="e_fr_energy">   -670.23437403 </i>
    <i name="e_wo_entrp">   -670.23222564 </i>
    <i name="e_0_energy">   -670.23329983 </i>
   </energy>
  </scstep>
  <scstep>
   <time name="dav">   40.38   40.73</time>
   <time name="total">   45.57   45.95</time>
   <energy>
    <i name="e_fr_energy">   -670.23443270 </i>
    <i name="e_wo_entrp">   -670.23233847 </i>
    <i name="e_0_energy">   -670.23338559 </i>
   </energy>
  </scstep>
  <scstep>
   <time name="dav">   38.14   38.46</time>
   <time name="total">   43.33   43.69</time>
   <energy>
    <i name="e_fr_energy">   -670.23450227 </i>
    <i name="e_wo_entrp">   -670.23242406 </i>
    <i name="e_0_energy">   -670.23346316 </i>
   </energy>
  </scstep>
  <scstep>
   <time name="dav">   39.51   39.84</time>
   <time name="total">   44.68   45.06</time>
   <energy>
    <i name="e_fr_energy">   -670.23452042 </i>
    <i name="e_wo_entrp">   -670.23243643 </i>
    <i name="e_0_energy">   -670.23347843 </i>
   </energy>
  </scstep>
  <scstep>
   <time name="dav">   40.91   41.26</time>
   <time name="total">   46.09   46.47</time>
   <energy>
    <i name="e_fr_energy">   -670.23452515 </i>
    <i name="e_wo_entrp">   -670.23244982 </i>
    <i name="e_0_energy">   -670.23348749 </i>
   </energy>
  </scstep>
  <scstep>
   <time name="dav">   39.69   40.03</time>
   <time name="total">   44.85   45.24</time>
   <energy>
    <i name="e_fr_energy">   -670.23453479 </i>
    <i name="e_wo_entrp">   -670.23246508 </i>
    <i name="e_0_energy">   -670.23349994 </i>
   </energy>
  </scstep>
  <scstep>
   <time name="dav">   39.72   40.05</time>
   <time name="total">   44.91   45.28</time>
   <energy>
    <i name="e_fr_energy">   -670.23454648 </i>
    <i name="e_wo_entrp">   -670.23247830 </i>
    <i name="e_0_energy">   -670.23351239 </i>
   </energy>
  </scstep>
  <scstep>
   <time name="dav">   40.59   40.94</time>
   <time name="total">   45.78   46.17</time>
   <energy>
    <i name="e_fr_energy">   -670.23455177 </i>
    <i name="e_wo_entrp">   -670.23248670 </i>
    <i name="e_0_energy">   -670.23351924 </i>
   </energy>
  </scstep>
  <scstep>
   <time name="dav">   40.05   40.40</time>
   <time name="total">   45.25   45.63</time>
   <energy>
    <i name="e_fr_energy">   -670.23455302 </i>
    <i name="e_wo_entrp">   -670.23249152 </i>
    <i name="e_0_energy">   -670.23352227 </i>
   </energy>
  </scstep>
  <scstep>
   <time name="dav">   40.14   40.48</time>
   <time name="total">   45.33   45.72</time>
   <energy>
    <i name="e_fr_energy">   -670.23455363 </i>
    <i name="e_wo_entrp">   -670.23248932 </i>
    <i name="e_0_energy">   -670.23352147 </i>
   </energy>
  </scstep>
  <scstep>
   <time name="dav">   30.47   30.73</time>
   <time name="total">   35.66   35.96</time>
   <energy>
    <i name="e_fr_energy">   -670.23455404 </i>
    <i name="e_wo_entrp">   -670.23248871 </i>
    <i name="e_0_energy">   -670.23352137 </i>
   </energy>
  </scstep>
  <scstep>
   <time name="dav">   25.09   25.31</time>
   <time name="total">   30.30   30.55</time>
   <energy>
    <i name="e_fr_energy">   -670.23455421 </i>
    <i name="e_wo_entrp">   -670.23248919 </i>
    <i name="e_0_energy">   -670.23352170 </i>
   </energy>
  </scstep>
  <scstep>
   <time name="dav">   24.77   24.98</time>
   <time name="total">   27.73   27.96</time>
   <energy>
    <i name="alphaZ">    991.21889800 </i>
    <i name="ewald"> -11786.66350248 </i>
    <i name="hartreedc">  -6704.95174371 </i>
    <i name="XCdc">  -9184.87423443 </i>
    <i name="pawpsdc">  44489.87860535 </i>
    <i name="pawaedc"> -34225.89372990 </i>
    <i name="eentropy">     -0.00206494 </i>
    <i name="bandstr">  -1102.74490291 </i>
    <i name="atom">  16853.79812076 </i>
    <i name="e_fr_energy">   -670.23455425 </i>
    <i name="e_wo_entrp">   -670.23248931 </i>
    <i name="e_0_energy">   -670.23352178 </i>
   </energy>
  </scstep>
  <structure>
   <crystal>
    <varray name="basis" >
     <v>      11.31560040       0.00000000       0.00000000 </v>
     <v>       0.00000000      16.00267601       0.00000000 </v>
     <v>       0.00000000       0.00000000      25.60421562 </v>
    </varray>
    <i name="volume">   4636.40847104 </i>
    <varray name="rec_basis" >
     <v>       0.08837357       0.00000000       0.00000000 </v>
     <v>       0.00000000       0.06248955       0.00000000 </v>
     <v>       0.00000000       0.00000000       0.03905607 </v>
    </varray>
   </crystal>
   <varray name="positions" >
    <v>       0.97066277       0.45599416       0.00000002 </v>
    <v>       0.72066271       0.08099414       0.07812521 </v>
    <v>       0.47066277       0.70599413       0.15625042 </v>
    <v>       0.22066289       0.33099425       0.23437557 </v>
    <v>       0.97066271       0.95599413       0.31250077 </v>
    <v>       0.72066271       0.58099413       0.39062604 </v>
    <v>       0.47066277       0.45599416       0.00000002 </v>
    <v>       0.22066276       0.08099414       0.07812521 </v>
    <v>       0.97066277       0.70599413       0.15625042 </v>
    <v>       0.72066283       0.33099425       0.23437557 </v>
    <v>       0.47066283       0.95599413       0.31250077 </v>
    <v>       0.22066277       0.58099413       0.39062604 </v>
    <v>       0.97066277       0.95599413       0.00000002 </v>
    <v>       0.72066271       0.58099413       0.07812522 </v>
    <v>       0.47066277       0.20599413       0.15625040 </v>
    <v>       0.22066289       0.83099437       0.23437557 </v>
    <v>       0.97066271       0.45599413       0.31250080 </v>
    <v>       0.72066271       0.08099413       0.39062601 </v>
    <v>       0.47066277       0.95599413       0.00000002 </v>
    <v>       0.22066276       0.58099413       0.07812522 </v>
    <v>       0.97066277       0.20599413       0.15625040 </v>
    <v>       0.72066283       0.83099437       0.23437557 </v>
    <v>       0.47066283       0.45599413       0.31250080 </v>
    <v>       0.22066277       0.08099413       0.39062601 </v>
    <v>       0.97066277       0.70599413       0.00000002 </v>
    <v>       0.72066271       0.33099413       0.07812521 </v>
    <v>       0.47066277       0.95599413       0.15625040 </v>
    <v>       0.22066289       0.58099425       0.23437560 </v>
    <v>       0.97066271       0.20599419       0.31250080 </v>
    <v>       0.72066271       0.83099413       0.39062604 </v>
    <v>       0.47066277       0.70599413       0.00000002 </v>
    <v>       0.22066276       0.33099413       0.07812521 </v>
    <v>       0.97066277       0.95599413       0.15625040 </v>
    <v>       0.72066283       0.58099425       0.23437560 </v>
    <v>       0.47066283       0.20599419       0.31250080 </v>
    <v>       0.22066277       0.83099413       0.39062604 </v>
    <v>       0.97066277       0.20599414       0.00000002 </v>
    <v>       0.72066271       0.83099413       0.07812521 </v>
    <v>       0.47066277       0.45599413       0.15625040 </v>
    <v>       0.22066289       0.08099425       0.23437560 </v>
    <v>       0.97066271       0.70599425       0.31250077 </v>
    <v>       0.72066271       0.33099413       0.39062601 </v>
    <v>       0.47066277       0.20599414       0.00000002 </v>
    <v>       0.22066276       0.83099413       0.07812521 </v>
    <v>       0.97066277       0.45599413       0.15625040 </v>
    <v>       0.72066283       0.08099425       0.23437560 </v>
    <v>       0.47066283       0.70599425       0.31250077 </v>
    <v>       0.22066277       0.33099413       0.39062601 </v>
    <v>       0.34566274       0.58099419       0.00000003 </v>
    <v>       0.09566276       0.20599416       0.07812521 </v>
    <v>       0.84566277       0.83099413       0.15625040 </v>
    <v>       0.59566283       0.45599425       0.23437557 </v>
    <v>       0.34566277       0.08099419       0.31250080 </v>
    <v>       0.09566271       0.70599413       0.39062604 </v>
    <v>       0.84566283       0.58099419       0.00000003 </v>
    <v>       0.59566277       0.20599416       0.07812521 </v>
    <v>       0.34566280       0.83099413       0.15625040 </v>
    <v>       0.09566288       0.45599425       0.23437557 </v>
    <v>       0.84566283       0.08099419       0.31250080 </v>
    <v>       0.59566277       0.70599413       0.39062604 </v>
    <v>       0.34566274       0.08099414       0.00000001 </v>
    <v>       0.09566276       0.70599413       0.07812521 </v>
    <v>       0.84566277       0.33099413       0.15625040 </v>
    <v>       0.59566283       0.95599425       0.23437560 </v>
    <v>       0.34566277       0.58099425       0.31250077 </v>
    <v>       0.09566271       0.20599401       0.39062601 </v>
    <v>       0.84566283       0.08099414       0.00000001 </v>
    <v>       0.59566277       0.70599413       0.07812521 </v>
    <v>       0.34566280       0.33099413       0.15625040 </v>
    <v>       0.09566288       0.95599425       0.23437560 </v>
    <v>       0.84566283       0.58099425       0.31250077 </v>
    <v>       0.59566277       0.20599401       0.39062601 </v>
    <v>       0.34566274       0.83099419       0.00000000 </v>
    <v>       0.09566276       0.45599419       0.07812521 </v>
    <v>       0.84566277       0.08099417       0.15625040 </v>
    <v>       0.59566283       0.70599431       0.23437557 </v>
    <v>       0.34566277       0.33099425       0.31250077 </v>
    <v>       0.09566271       0.95599413       0.39062598 </v>
    <v>       0.84566283       0.83099419       0.00000000 </v>
    <v>       0.59566277       0.45599419       0.07812521 </v>
    <v>       0.34566280       0.08099417       0.15625040 </v>
    <v>       0.09566288       0.70599431       0.23437557 </v>
    <v>       0.84566283       0.33099425       0.31250077 </v>
    <v>       0.59566277       0.95599413       0.39062598 </v>
    <v>       0.34566274       0.33099413       0.00000002 </v>
    <v>       0.09566276       0.95599413       0.07812522 </v>
    <v>       0.84566277       0.58099413       0.15625040 </v>
    <v>       0.59566283       0.20599425       0.23437560 </v>
    <v>       0.34566277       0.83099413       0.31250077 </v>
    <v>       0.09566271       0.45599413       0.39062601 </v>
    <v>       0.84566283       0.33099413       0.00000002 </v>
    <v>       0.59566277       0.95599413       0.07812522 </v>
    <v>       0.34566280       0.58099413       0.15625040 </v>
    <v>       0.09566288       0.20599425       0.23437560 </v>
    <v>       0.84566283       0.83099413       0.31250077 </v>
    <v>       0.59566277       0.45599413       0.39062601 </v>
    <v>       0.12500000       0.86074680       0.47129923 </v>
    <v>       0.12500000       0.11074686       0.56090480 </v>
    <v>       0.12499988       0.36074710       0.65051037 </v>
    <v>       0.12499976       0.61074722       0.74011582 </v>
    <v>       0.12499976       0.86074728       0.82972133 </v>
    <v>       0.12499976       0.11074734       0.91932684 </v>
    <v>       0.45833337       0.19408011       0.47129923 </v>
    <v>       0.45833331       0.44408011       0.56090480 </v>
    <v>       0.45833331       0.69408035       0.65051037 </v>
    <v>       0.45833322       0.94408053       0.74011582 </v>
    <v>       0.45833322       0.19408059       0.82972133 </v>
    <v>       0.45833316       0.44408083       0.91932684 </v>
    <v>       0.79166675       0.52741361       0.47129923 </v>
    <v>       0.79166669       0.77741361       0.56090480 </v>
    <v>       0.79166681       0.02741384       0.65051037 </v>
    <v>       0.79166651       0.27741384       0.74011582 </v>
    <v>       0.79166657       0.52741384       0.82972133 </v>
    <v>       0.79166657       0.77741408       0.91932684 </v>
    <v>       0.12500003       0.36074686       0.47129923 </v>
    <v>       0.12500000       0.61074686       0.56090474 </v>
    <v>       0.12499988       0.86074704       0.65051037 </v>
    <v>       0.12499988       0.11074710       0.74011582 </v>
    <v>       0.12499976       0.36074734       0.82972133 </v>
    <v>       0.12499976       0.61074734       0.91932684 </v>
    <v>       0.45833337       0.69408011       0.47129923 </v>
    <v>       0.45833334       0.94408029       0.56090474 </v>
    <v>       0.45833337       0.19408059       0.65051037 </v>
    <v>       0.45833325       0.44408059       0.74011582 </v>
    <v>       0.45833328       0.69408059       0.82972133 </v>
    <v>       0.45833311       0.94408089       0.91932684 </v>
    <v>       0.79166681       0.02741349       0.47129923 </v>
    <v>       0.79166663       0.27741361       0.56090474 </v>
    <v>       0.79166669       0.52741373       0.65051037 </v>
    <v>       0.79166663       0.77741384       0.74011582 </v>
    <v>       0.79166651       0.02741384       0.82972133 </v>
    <v>       0.79166657       0.27741408       0.91932684 </v>
    <v>       0.20833331       0.19408011       0.47129923 </v>
    <v>       0.20833325       0.44408011       0.56090474 </v>
    <v>       0.20833328       0.69408035       0.65051037 </v>
    <v>       0.20833313       0.94408041       0.74011582 </v>
    <v>       0.20833313       0.19408059       0.82972133 </v>
    <v>       0.20833313       0.44408059       0.91932684 </v>
    <v>       0.54166675       0.52741349       0.47129923 </v>
    <v>       0.54166663       0.77741361       0.56090480 </v>
    <v>       0.54166663       0.02741384       0.65051037 </v>
    <v>       0.54166663       0.27741384       0.74011582 </v>
    <v>       0.54166639       0.52741384       0.82972133 </v>
    <v>       0.54166651       0.77741408       0.91932684 </v>
    <v>       0.87500000       0.86074686       0.47129923 </v>
    <v>       0.87500000       0.11074686       0.56090480 </v>
    <v>       0.87499994       0.36074710       0.65051037 </v>
    <v>       0.87499982       0.61074710       0.74011582 </v>
    <v>       0.87499982       0.86074728       0.82972133 </v>
    <v>       0.87499982       0.11074734       0.91932684 </v>
    <v>       0.20833334       0.69408023       0.47129923 </v>
    <v>       0.20833328       0.94408029       0.56090480 </v>
    <v>       0.20833322       0.19408035       0.65051031 </v>
    <v>       0.20833325       0.44408083       0.74011582 </v>
    <v>       0.20833313       0.69408059       0.82972139 </v>
    <v>       0.20833307       0.94408089       0.91932684 </v>
    <v>       0.54166675       0.02741349       0.47129923 </v>
    <v>       0.54166663       0.27741361       0.56090480 </v>
    <v>       0.54166657       0.52741373       0.65051037 </v>
    <v>       0.54166657       0.77741384       0.74011582 </v>
    <v>       0.54166657       0.02741384       0.82972133 </v>
    <v>       0.54166645       0.27741408       0.91932684 </v>
    <v>       0.87500000       0.36074686       0.47129923 </v>
    <v>       0.87499994       0.61074686       0.56090480 </v>
    <v>       0.87500000       0.86074704       0.65051037 </v>
    <v>       0.87499988       0.11074710       0.74011582 </v>
    <v>       0.87499982       0.36074710       0.82972133 </v>
    <v>       0.87499976       0.61074734       0.91932684 </v>
   </varray>
  </structure>
  <varray name="forces" >
   <v>       0.94466060      -0.23214861      -0.18055888 </v>
   <v>      -0.11642259      -0.01154831      -0.17738660 </v>
   <v>      -0.04200493       0.00377883       0.02977598 </v>
   <v>      -0.10914710       0.02414543       0.05754927 </v>
   <v>      -0.23820705      -0.06493394       0.10788511 </v>
   <v>       0.16406087       1.08151884      -3.03609602 </v>
   <v>       1.08243873       1.41155458      11.02254817 </v>
   <v>      -0.09225660       0.18640909       0.06527192 </v>
   <v>      -0.08110047       0.05883159      -0.07609578 </v>
   <v>      -0.00471418       0.00693696      -0.04308691 </v>
   <v>      -0.01399334      -0.04151165      -0.05013069 </v>
   <v>       0.48266699      -0.53122368      -0.14453068 </v>
   <v>       0.94466060      -0.23214861      -0.18055888 </v>
   <v>      -0.11642259      -0.01154831      -0.17738660 </v>
   <v>      -0.04200493       0.00377883       0.02977598 </v>
   <v>      -0.10914710       0.02414543       0.05754927 </v>
   <v>      -0.23820705      -0.06493394       0.10788511 </v>
   <v>       0.16406087       1.08151884      -3.03609602 </v>
   <v>       1.08243873       1.41155458      11.02254817 </v>
   <v>      -0.09225660       0.18640909       0.06527192 </v>
   <v>      -0.08110047       0.05883159      -0.07609578 </v>
   <v>      -0.00471418       0.00693696      -0.04308691 </v>
   <v>      -0.01399334      -0.04151165      -0.05013069 </v>
   <v>       0.48266699      -0.53122368      -0.14453068 </v>
   <v>       1.66043158       0.38822291       1.15392939 </v>
   <v>      -0.01463023      -0.09780943       0.01031610 </v>
   <v>      -0.05078473       0.02701249       0.06235392 </v>
   <v>      -0.02420341       0.02723465       0.05351752 </v>
   <v>      -0.34137200      -0.04539929       0.10561918 </v>
   <v>       0.54762248      -0.09202775       0.38309558 </v>
   <v>      -0.32398886      -0.53500481       0.77135108 </v>
   <v>      -0.18303121       0.11885408       0.10756657 </v>
   <v>      -0.05094974       0.03947588      -0.06974683 </v>
   <v>      -0.00913288       0.04100095      -0.05323695 </v>
   <v>       0.07238142      -0.04807394      -0.16289012 </v>
   <v>       2.05365144      -0.44265830      -3.43872094 </v>
   <v>       1.66043158       0.38822291       1.15392939 </v>
   <v>      -0.01463023      -0.09780943       0.01031610 </v>
   <v>      -0.05078473       0.02701249       0.06235392 </v>
   <v>      -0.02420341       0.02723465       0.05351752 </v>
   <v>      -0.34137200      -0.04539929       0.10561918 </v>
   <v>       0.54762248      -0.09202775       0.38309558 </v>
   <v>      -0.32398886      -0.53500481       0.77135108 </v>
   <v>      -0.18303121       0.11885408       0.10756657 </v>
   <v>      -0.05094974       0.03947588      -0.06974683 </v>
   <v>      -0.00913288       0.04100095      -0.05323695 </v>
   <v>       0.07238142      -0.04807394      -0.16289012 </v>
   <v>       2.05365144      -0.44265830      -3.43872094 </v>
   <v>      -0.89936001       0.45636283      -0.01631755 </v>
   <v>       0.26239770      -0.12176190       0.13667728 </v>
   <v>       0.03706862      -0.02199005       0.01926819 </v>
   <v>       0.04847060      -0.05896937      -0.03566548 </v>
   <v>       0.15994228      -0.00807008       0.15133636 </v>
   <v>      -1.86157418      -0.08280102      -2.38816806 </v>
   <v>      -1.59475869      -2.23999237       7.98289708 </v>
   <v>      -0.01052125       0.07624363       0.04141273 </v>
   <v>       0.04812647      -0.06829218      -0.07067721 </v>
   <v>       0.08677050      -0.01504306       0.08821487 </v>
   <v>       0.05062988       0.14469709      -0.04464270 </v>
   <v>       0.09808377       0.38091397      -0.25542917 </v>
   <v>      -0.89936001       0.45636283      -0.01631755 </v>
   <v>       0.26239770      -0.12176190       0.13667728 </v>
   <v>       0.03706862      -0.02199005       0.01926819 </v>
   <v>       0.04847060      -0.05896937      -0.03566548 </v>
   <v>       0.15994228      -0.00807008       0.15133636 </v>
   <v>      -1.86157418      -0.08280102      -2.38816806 </v>
   <v>      -1.59475869      -2.23999237       7.98289708 </v>
   <v>      -0.01052125       0.07624363       0.04141273 </v>
   <v>       0.04812647      -0.06829218      -0.07067721 </v>
   <v>       0.08677050      -0.01504306       0.08821487 </v>
   <v>       0.05062988       0.14469709      -0.04464270 </v>
   <v>       0.09808377       0.38091397      -0.25542917 </v>
   <v>      -1.48415966       0.03840142       0.47777079 </v>
   <v>       0.02446770      -0.13382152       0.04034415 </v>
   <v>       0.05446679      -0.01708736       0.03403605 </v>
   <v>       0.03362549       0.02030298      -0.02800698 </v>
   <v>       0.41340118       0.13232427       0.14345435 </v>
   <v>      -0.44042180       1.20364766      -0.78827037 </v>
   <v>       1.08940461       1.54741450       3.08984875 </v>
   <v>       0.08503836       0.09918984      -0.23114127 </v>
   <v>       0.04617746      -0.03175082      -0.08371129 </v>
   <v>       0.11320999      -0.01499470       0.05282986 </v>
   <v>      -0.09369603       0.05833162      -0.15703513 </v>
   <v>      -0.29897049      -0.89331373      -1.98184052 </v>
   <v>      -1.48415966       0.03840142       0.47777079 </v>
   <v>       0.02446770      -0.13382152       0.04034415 </v>
   <v>       0.05446679      -0.01708736       0.03403605 </v>
   <v>       0.03362549       0.02030298      -0.02800698 </v>
   <v>       0.41340118       0.13232427       0.14345435 </v>
   <v>      -0.44042180       1.20364766      -0.78827037 </v>
   <v>       1.08940461       1.54741450       3.08984875 </v>
   <v>       0.08503836       0.09918984      -0.23114127 </v>
   <v>       0.04617746      -0.03175082      -0.08371129 </v>
   <v>       0.11320999      -0.01499470       0.05282986 </v>
   <v>      -0.09369603       0.05833162      -0.15703513 </v>
   <v>      -0.29897049      -0.89331373      -1.98184052 </v>
   <v>      -1.32596169       1.17394694       3.93396364 </v>
   <v>      -0.10873067      -0.15355956       0.21488403 </v>
   <v>      -0.09848486      -0.03624392      -0.01793763 </v>
   <v>      -0.06295520      -0.09047299       0.02457651 </v>
   <v>      -0.12418326      -0.09688386      -0.06631831 </v>
   <v>       0.62649498       0.49921107       0.50223033 </v>
   <v>      -0.08382897       0.01411394       0.29963990 </v>
   <v>      -0.08860811      -0.10966101      -0.13827351 </v>
   <v>      -0.04375917      -0.04837898      -0.01353273 </v>
   <v>      -0.00629809      -0.07112660       0.01651679 </v>
   <v>      -0.02739296      -0.09798347       0.04063541 </v>
   <v>       0.22350011      -0.74649875     -11.37205596 </v>
   <v>       1.47866896      -0.49711220       2.99297606 </v>
   <v>      -0.05957731      -0.05125223       0.10769520 </v>
   <v>      -0.00919686      -0.07318470      -0.00183731 </v>
   <v>      -0.04830933      -0.03941829       0.02783524 </v>
   <v>       0.00299569      -0.10566617      -0.14536104 </v>
   <v>      -1.50845899      -0.85270024      -3.96400997 </v>
   <v>      -1.32596169       1.17394694       3.93396364 </v>
   <v>      -0.10873067      -0.15355956       0.21488403 </v>
   <v>      -0.09848486      -0.03624392      -0.01793763 </v>
   <v>      -0.06295520      -0.09047299       0.02457651 </v>
   <v>      -0.12418326      -0.09688386      -0.06631831 </v>
   <v>       0.62649498       0.49921107       0.50223033 </v>
   <v>      -0.08382897       0.01411394       0.29963990 </v>
   <v>      -0.08860811      -0.10966101      -0.13827351 </v>
   <v>      -0.04375917      -0.04837898      -0.01353273 </v>
   <v>      -0.00629809      -0.07112660       0.01651679 </v>
   <v>      -0.02739296      -0.09798347       0.04063541 </v>
   <v>       0.22350011      -0.74649875     -11.37205596 </v>
   <v>       1.47866896      -0.49711220       2.99297606 </v>
   <v>      -0.05957731      -0.05125223       0.10769520 </v>
   <v>      -0.00919686      -0.07318470      -0.00183731 </v>
   <v>      -0.04830933      -0.03941829       0.02783524 </v>
   <v>       0.00299569      -0.10566617      -0.14536104 </v>
   <v>      -1.50845899      -0.85270024      -3.96400997 </v>
   <v>       1.16183526      -1.32652929       2.60818765 </v>
   <v>       0.13467205       0.17302508       0.13780797 </v>
   <v>       0.07367200       0.02413856      -0.00353165 </v>
   <v>       0.03001856       0.04941173       0.00195146 </v>
   <v>       0.12665303       0.14729638      -0.07257217 </v>
   <v>      -0.72871711      -0.76543019       0.46492810 </v>
   <v>      -1.31266821       0.13116916       2.62525478 </v>
   <v>       0.05780531       0.07457957       0.11942330 </v>
   <v>      -0.00824499       0.02894976       0.02283445 </v>
   <v>       0.03191559       0.00190964       0.01204198 </v>
   <v>       0.03217163       0.07826221      -0.00913854 </v>
   <v>       0.78527106      -0.10851099      -1.79590971 </v>
   <v>      -0.60129612      -0.27413678      -0.29803836 </v>
   <v>       0.08430541       0.13896846      -0.15589800 </v>
   <v>       0.02769690       0.01461855       0.01081367 </v>
   <v>       0.00979911       0.02091243       0.00927995 </v>
   <v>       0.04054062       0.09276455       0.03120094 </v>
   <v>       0.03886153       1.15889396      -8.82574657 </v>
   <v>       1.16183526      -1.32652929       2.60818765 </v>
   <v>       0.13467205       0.17302508       0.13780797 </v>
   <v>       0.07367200       0.02413856      -0.00353165 </v>
   <v>       0.03001856       0.04941173       0.00195146 </v>
   <v>       0.12665303       0.14729638      -0.07257217 </v>
   <v>      -0.72871711      -0.76543019       0.46492810 </v>
   <v>      -1.31266821       0.13116916       2.62525478 </v>
   <v>       0.05780531       0.07457957       0.11942330 </v>
   <v>      -0.00824499       0.02894976       0.02283445 </v>
   <v>       0.03191559       0.00190964       0.01204198 </v>
   <v>       0.03217163       0.07826221      -0.00913854 </v>
   <v>       0.78527106      -0.10851099      -1.79590971 </v>
   <v>      -0.60129612      -0.27413678      -0.29803836 </v>
   <v>       0.08430541       0.13896846      -0.15589800 </v>
   <v>       0.02769690       0.01461855       0.01081367 </v>
   <v>       0.00979911       0.02091243       0.00927995 </v>
   <v>       0.04054062       0.09276455       0.03120094 </v>
   <v>       0.03886153       1.15889396      -8.82574657 </v>
  </varray>
  <varray name="stress" >
   <v>      45.20372213       3.57069133      -0.42655796 </v>
   <v>       3.57068935      45.83218330       0.09018009 </v>
   <v>      -0.42655939       0.09018015      90.30921702 </v>
  </varray>
  <energy>
   <i name="e_fr_energy">   -670.23455425 </i>
   <i name="e_wo_entrp">   -670.23248931 </i>
   <i name="e_0_energy">   -670.23352178 </i>
  </energy>
  <time name="totalsc"> 1224.35 1235.71</time>
  <eigenvalues>
   <array>
    <dimension dim="1">band</dimension>
    <dimension dim="2">kpoint</dimension>
    <dimension dim="3">spin</dimension>
    <field>eigene</field>
    <field>occ</field>
    <set>
     <set comment="spin 1">
      <set comment="kpoint 1">
       <r>   -9.1301    1.0000 </r>
       <r>   -8.9218    1.0000 </r>
       <r>   -8.7101    1.0000 </r>
       <r>   -8.6928    1.0000 </r>
       <r>   -8.6233    1.0000 </r>
       <r>   -8.5891    1.0000 </r>
       <r>   -8.5195    1.0000 </r>
       <r>   -8.4721    1.0000 </r>
       <r>   -8.3707    1.0000 </r>
       <r>   -8.2416    1.0000 </r>
       <r>   -8.1174    1.0000 </r>
       <r>   -7.9316    1.0000 </r>
       <r>   -7.9279    1.0000 </r>
       <r>   -7.8229    1.0000 </r>
       <r>   -7.7566    1.0000 </r>
       <r>   -7.6847    1.0000 </r>
       <r>   -7.6005    1.0000 </r>
       <r>   -7.5690    1.0000 </r>
       <r>   -7.4886    1.0000 </r>
       <r>   -7.4454    1.0000 </r>
       <r>   -7.4288    1.0000 </r>
       <r>   -7.4182    1.0000 </r>
       <r>   -7.3535    1.0000 </r>
       <r>   -7.2751    1.0000 </r>
       <r>   -7.2103    1.0000 </r>
       <r>   -7.1575    1.0000 </r>
       <r>   -7.0325    1.0000 </r>
       <r>   -7.0088    1.0000 </r>
       <r>   -6.9918    1.0000 </r>
       <r>   -6.9736    1.0000 </r>
       <r>   -6.9240    1.0000 </r>
       <r>   -6.9029    1.0000 </r>
       <r>   -6.8484    1.0000 </r>
       <r>   -6.8189    1.0000 </r>
       <r>   -6.8076    1.0000 </r>
       <r>   -6.7533    1.0000 </r>
       <r>   -6.6947    1.0000 </r>
       <r>   -6.6463    1.0000 </r>
       <r>   -6.5816    1.0000 </r>
       <r>   -6.3960    1.0000 </r>
       <r>   -6.3156    1.0000 </r>
       <r>   -6.3072    1.0000 </r>
       <r>   -6.2961    1.0000 </r>
       <r>   -6.2067    1.0000 </r>
       <r>   -6.2017    1.0000 </r>
       <r>   -6.0550    1.0000 </r>
       <r>   -5.9809    1.0000 </r>
       <r>   -5.9514    1.0000 </r>
       <r>   -5.8639    1.0000 </r>
       <r>   -5.8541    1.0000 </r>
       <r>   -5.7406    1.0000 </r>
       <r>   -5.7344    1.0000 </r>
       <r>   -5.6933    1.0000 </r>
       <r>   -5.6674    1.0000 </r>
       <r>   -5.5807    1.0000 </r>
       <r>   -5.5688    1.0000 </r>
       <r>   -5.5671    1.0000 </r>
       <r>   -5.5087    1.0000 </r>
       <r>   -5.4540    1.0000 </r>
       <r>   -5.4339    1.0000 </r>
       <r>   -5.3930    1.0000 </r>
       <r>   -5.3776    1.0000 </r>
       <r>   -5.3570    1.0000 </r>
       <r>   -5.3425    1.0000 </r>
       <r>   -5.3277    1.0000 </r>
       <r>   -5.2736    1.0000 </r>
       <r>   -5.2309    1.0000 </r>
       <r>   -5.2091    1.0000 </r>
       <r>   -5.2069    1.0000 </r>
       <r>   -5.1630    1.0000 </r>
       <r>   -5.1061    1.0000 </r>
       <r>   -5.0937    1.0000 </r>
       <r>   -5.0766    1.0000 </r>
       <r>   -5.0732    1.0000 </r>
       <r>   -5.0637    1.0000 </r>
       <r>   -5.0322    1.0000 </r>
       <r>   -4.9741    1.0000 </r>
       <r>   -4.9112    1.0000 </r>
       <r>   -4.8657    1.0000 </r>
       <r>   -4.8620    1.0000 </r>
       <r>   -4.8222    1.0000 </r>
       <r>   -4.7769    1.0000 </r>
       <r>   -4.7464    1.0000 </r>
       <r>   -4.7273    1.0000 </r>
       <r>   -4.5875    1.0000 </r>
       <r>   -4.5854    1.0000 </r>
       <r>   -4.5354    1.0000 </r>
       <r>   -4.5258    1.0000 </r>
       <r>   -4.5039    1.0000 </r>
       <r>   -4.4636    1.0000 </r>
       <r>   -4.4548    1.0000 </r>
       <r>   -4.4113    1.0000 </r>
       <r>   -4.3748    1.0000 </r>
       <r>   -4.3418    1.0000 </r>
       <r>   -4.1618    1.0000 </r>
       <r>   -4.1360    1.0000 </r>
       <r>   -4.0828    1.0000 </r>
       <r>   -4.0811    1.0000 </r>
       <r>   -4.0546    1.0000 </r>
       <r>   -3.9595    1.0000 </r>
       <r>   -3.9235    1.0000 </r>
       <r>   -3.8961    1.0000 </r>
       <r>   -3.8792    1.0000 </r>
       <r>   -3.8722    1.0000 </r>
[...]
       <r>    -3.1263    39.4563   239.0044 </r>
       <r>    -3.0719    30.9401   240.6876 </r>
       <r>    -3.0175    38.1071   242.7606 </r>
       <r>    -2.9631    60.4359   246.0483 </r>
       <r>    -2.9087    86.1738   250.7361 </r>
       <r>    -2.8543    29.4054   252.3358 </r>
       <r>    -2.7999    30.6293   254.0020 </r>
       <r>    -2.7455    42.4437   256.3109 </r>
       <r>    -2.6911    45.0543   258.7619 </r>
       <r>    -2.6367    35.2547   260.6797 </r>
       <r>    -2.5823    76.3099   264.8309 </r>
       <r>    -2.5279    67.2182   268.4877 </r>
       <r>    -2.4735    49.7716   271.1952 </r>
       <r>    -2.4191    28.8705   272.7658 </r>
       <r>    -2.3647    64.7739   276.2895 </r>
       <r>    -2.3103    51.3376   279.0822 </r>
       <r>    -2.2559    28.8957   280.6541 </r>
       <r>    -2.2015    53.0481   283.5400 </r>
       <r>    -2.1471    39.1461   285.6695 </r>
       <r>    -2.0927    13.3526   286.3959 </r>
       <r>    -2.0383    46.7796   288.9407 </r>
       <r>    -1.9839    47.6911   291.5351 </r>
       <r>    -1.9295     8.1890   291.9805 </r>
       <r>    -1.8751    31.0657   293.6705 </r>
       <r>    -1.8207    48.2989   296.2980 </r>
       <r>    -1.7663    39.1605   298.4283 </r>
       <r>    -1.7119    44.3467   300.8407 </r>
       <r>    -1.6575    30.6735   302.5094 </r>
       <r>    -1.6031    34.3337   304.3771 </r>
       <r>    -1.5487    30.0134   306.0098 </r>
       <r>    -1.4943    42.1067   308.3004 </r>
       <r>    -1.4399    26.2837   309.7303 </r>
       <r>    -1.3855    40.6382   311.9410 </r>
       <r>    -1.3311     7.1953   312.3325 </r>
       <r>    -1.2767    18.4578   313.3366 </r>
       <r>    -1.2223    12.1956   314.0000 </r>
       <r>    -1.1679    13.0925   314.7122 </r>
       <r>    -1.1135    29.8514   316.3361 </r>
       <r>    -1.0591     6.9126   316.7122 </r>
       <r>    -1.0047    23.0844   317.9680 </r>
       <r>    -0.9503    18.6268   318.9813 </r>
       <r>    -0.8959    38.4725   321.0742 </r>
       <r>    -0.8415     4.9990   321.3461 </r>
       <r>    -0.7871    16.7880   322.2594 </r>
       <r>    -0.7327    30.0800   323.8957 </r>
       <r>    -0.6783    40.5855   326.1035 </r>
       <r>    -0.6239    40.9904   328.3334 </r>
       <r>    -0.5695    59.1397   331.5506 </r>
       <r>    -0.5151    53.2543   334.4476 </r>
       <r>    -0.4607    67.3769   338.1129 </r>
       <r>    -0.4063    78.6192   342.3898 </r>
       <r>    -0.3519    59.3582   345.6189 </r>
       <r>    -0.2975    90.7280   350.5546 </r>
       <r>    -0.2431    53.6576   353.4736 </r>
       <r>    -0.1887    92.4688   358.5039 </r>
       <r>    -0.1343    58.8398   361.7048 </r>
       <r>    -0.0799    65.8071   365.2847 </r>
       <r>    -0.0255    73.1195   369.2624 </r>
       <r>     0.0289    87.2160   374.0069 </r>
       <r>     0.0833    62.3698   377.3999 </r>
       <r>     0.1377    96.2391   382.6353 </r>
       <r>     0.1921    62.7194   386.0472 </r>
       <r>     0.2465    92.7791   391.0944 </r>
       <r>     0.3009    77.8588   395.3299 </r>
       <r>     0.3553    97.7688   400.6485 </r>
       <r>     0.4097    99.3063   406.0507 </r>
       <r>     0.4641   107.6254   411.9055 </r>
       <r>     0.5185    94.2500   417.0328 </r>
       <r>     0.5729   131.5348   424.1883 </r>
       <r>     0.6273   109.1288   430.1249 </r>
       <r>     0.6817   128.3261   437.1059 </r>
       <r>     0.7361   174.6949   446.6092 </r>
       <r>     0.7905    77.4184   450.8208 </r>
       <r>     0.8449    96.3097   456.0600 </r>
       <r>     0.8993   116.0696   462.3742 </r>
       <r>     0.9537   108.8476   468.2955 </r>
       <r>     1.0081    90.0676   473.1952 </r>
       <r>     1.0625    72.6478   477.1472 </r>
       <r>     1.1169   126.9485   484.0532 </r>
       <r>     1.1713   106.5495   489.8495 </r>
       <r>     1.2257   100.1671   495.2985 </r>
       <r>     1.2801   157.1418   503.8470 </r>
       <r>     1.3345   115.2062   510.1142 </r>
       <r>     1.3889    96.5341   515.3656 </r>
       <r>     1.4433   106.6251   521.1660 </r>
       <r>     1.4977   117.4047   527.5529 </r>
       <r>     1.5521   123.1516   534.2523 </r>
       <r>     1.6065   113.1528   540.4078 </r>
       <r>     1.6609    98.6217   545.7728 </r>
       <r>     1.7153   109.7165   551.7414 </r>
       <r>     1.7697   101.3259   557.2536 </r>
       <r>     1.8241   135.8497   564.6438 </r>
       <r>     1.8785    96.3681   569.8863 </r>
       <r>     1.9329    68.6609   573.6214 </r>
       <r>     1.9873   110.4848   579.6317 </r>
       <r>     2.0417    84.4211   584.2242 </r>
       <r>     2.0961   111.0616   590.2660 </r>
       <r>     2.1505    72.3249   594.2004 </r>
       <r>     2.2049    84.4063   598.7921 </r>
       <r>     2.2593    99.3017   604.1942 </r>
       <r>     2.3137    79.5753   608.5231 </r>
       <r>     2.3681    68.0093   612.2228 </r>
       <r>     2.4225    60.8769   615.5345 </r>
       <r>     2.4769    67.2909   619.1951 </r>
       <r>     2.5313    83.4829   623.7365 </r>
       <r>     2.5857   101.7305   629.2706 </r>
       <r>     2.6401    40.4158   631.4692 </r>
       <r>     2.6945    61.6250   634.8217 </r>
       <r>     2.7489    84.2895   639.4071 </r>
       <r>     2.8033    62.7771   642.8221 </r>
       <r>     2.8577    66.9138   646.4622 </r>
       <r>     2.9121    35.0264   648.3677 </r>
       <r>     2.9665    46.0755   650.8742 </r>
       <r>     3.0209    46.5855   653.4084 </r>
       <r>     3.0753    62.1440   656.7891 </r>
       <r>     3.1297    33.7699   658.6261 </r>
       <r>     3.1841    25.9524   660.0379 </r>
       <r>     3.2385    62.5908   663.4429 </r>
       <r>     3.2929    51.8873   666.2656 </r>
       <r>     3.3473    44.2145   668.6708 </r>
       <r>     3.4017    27.4095   670.1619 </r>
       <r>     3.4561    34.0906   672.0164 </r>
       <r>     3.5105    19.3403   673.0685 </r>
       <r>     3.5649    24.7059   674.4125 </r>
       <r>     3.6193    66.0008   678.0029 </r>
       <r>     3.6737    26.5235   679.4458 </r>
       <r>     3.7281    47.3788   682.0232 </r>
       <r>     3.7825    17.9558   683.0000 </r>
       <r>     3.8369    17.9255   683.9751 </r>
       <r>     3.8913     3.8333   684.1837 </r>
       <r>     3.9457    39.5127   686.3332 </r>
       <r>     4.0001     0.0034   686.3333 </r>
       <r>     4.0545    24.5161   687.6670 </r>
       <r>     4.1089    13.6967   688.4121 </r>
       <r>     4.1633    38.5927   690.5115 </r>
       <r>     4.2177    57.0144   693.6131 </r>
       <r>     4.2721    30.1917   695.2556 </r>
       <r>     4.3265     1.4350   695.3336 </r>
       <r>     4.3809    41.4123   697.5864 </r>
       <r>     4.4353    55.3358   700.5967 </r>
       <r>     4.4897    58.2107   703.7634 </r>
       <r>     4.5441    53.6498   706.6819 </r>
       <r>     4.5985    84.1780   711.2612 </r>
       <r>     4.6529    78.4551   715.5291 </r>
       <r>     4.7073    51.6880   718.3410 </r>
       <r>     4.7617   106.9638   724.1598 </r>
       <r>     4.8160    78.2078   728.4143 </r>
       <r>     4.8704    59.4919   731.6506 </r>
       <r>     4.9248   100.8859   737.1388 </r>
       <r>     4.9792    94.3952   742.2739 </r>
       <r>     5.0336   103.2849   747.8926 </r>
       <r>     5.0880    98.8587   753.2704 </r>
       <r>     5.1424   126.9393   760.1759 </r>
       <r>     5.1968    83.1879   764.7014 </r>
       <r>     5.2512   116.2882   771.0275 </r>
       <r>     5.3056    78.3392   775.2892 </r>
       <r>     5.3600    91.2706   780.2544 </r>
       <r>     5.4144   123.0547   786.9485 </r>
       <r>     5.4688   108.3565   792.8431 </r>
       <r>     5.5232   131.4653   799.9948 </r>
       <r>     5.5776    71.4136   803.8798 </r>
       <r>     5.6320    38.8598   805.9937 </r>
       <r>     5.6864    24.6568   807.3350 </r>
       <r>     5.7408    12.2234   808.0000 </r>
       <r>     5.7952     0.0000   808.0000 </r>
       <r>     5.8496     0.0000   808.0000 </r>
       <r>     5.9040     0.0000   808.0000 </r>
       <r>     5.9584     0.0000   808.0000 </r>
       <r>     6.0128     0.0000   808.0000 </r>
       <r>     6.0672     0.0000   808.0000 </r>
       <r>     6.1216     0.0000   808.0000 </r>
       <r>     6.1760     0.0000   808.0000 </r>
       <r>     6.2304     0.0000   808.0000 </r>
       <r>     6.2848     0.0000   808.0000 </r>
       <r>     6.3392     0.0000   808.0000 </r>
       <r>     6.3936     0.0000   808.0000 </r>
       <r>     6.4480     0.0000   808.0000 </r>
      </set>
     </set>
    </array>
   </total>
  </dos>
 </calculation>
 <structure name="finalpos" >
  <crystal>
   <varray name="basis" >
    <v>      11.31560040       0.00000000       0.00000000 </v>
    <v>       0.00000000      16.00267601       0.00000000 </v>
    <v>       0.00000000       0.00000000      25.60421562 </v>
   </varray>
   <i name="volume">   4636.40847104 </i>
   <varray name="rec_basis" >
    <v>       0.08837357       0.00000000       0.00000000 </v>
    <v>       0.00000000       0.06248955       0.00000000 </v>
    <v>       0.00000000       0.00000000       0.03905607 </v>
   </varray>
  </crystal>
  <varray name="positions" >
   <v>       0.97066277       0.45599416       0.00000002 </v>
   <v>       0.72066271       0.08099414       0.07812521 </v>
   <v>       0.47066277       0.70599413       0.15625042 </v>
   <v>       0.22066289       0.33099425       0.23437557 </v>
   <v>       0.97066271       0.95599413       0.31250077 </v>
   <v>       0.72066271       0.58099413       0.39062604 </v>
   <v>       0.47066277       0.45599416       0.00000002 </v>
   <v>       0.22066276       0.08099414       0.07812521 </v>
   <v>       0.97066277       0.70599413       0.15625042 </v>
   <v>       0.72066283       0.33099425       0.23437557 </v>
   <v>       0.47066283       0.95599413       0.31250077 </v>
   <v>       0.22066277       0.58099413       0.39062604 </v>
   <v>       0.97066277       0.95599413       0.00000002 </v>
   <v>       0.72066271       0.58099413       0.07812522 </v>
   <v>       0.47066277       0.20599413       0.15625040 </v>
   <v>       0.22066289       0.83099437       0.23437557 </v>
   <v>       0.97066271       0.45599413       0.31250080 </v>
   <v>       0.72066271       0.08099413       0.39062601 </v>
   <v>       0.47066277       0.95599413       0.00000002 </v>
   <v>       0.22066276       0.58099413       0.07812522 </v>
   <v>       0.97066277       0.20599413       0.15625040 </v>
   <v>       0.72066283       0.83099437       0.23437557 </v>
   <v>       0.47066283       0.45599413       0.31250080 </v>
   <v>       0.22066277       0.08099413       0.39062601 </v>
   <v>       0.97066277       0.70599413       0.00000002 </v>
   <v>       0.72066271       0.33099413       0.07812521 </v>
   <v>       0.47066277       0.95599413       0.15625040 </v>
   <v>       0.22066289       0.58099425       0.23437560 </v>
   <v>       0.97066271       0.20599419       0.31250080 </v>
   <v>       0.72066271       0.83099413       0.39062604 </v>
   <v>       0.47066277       0.70599413       0.00000002 </v>
   <v>       0.22066276       0.33099413       0.07812521 </v>
   <v>       0.97066277       0.95599413       0.15625040 </v>
   <v>       0.72066283       0.58099425       0.23437560 </v>
   <v>       0.47066283       0.20599419       0.31250080 </v>
   <v>       0.22066277       0.83099413       0.39062604 </v>
   <v>       0.97066277       0.20599414       0.00000002 </v>
   <v>       0.72066271       0.83099413       0.07812521 </v>
   <v>       0.47066277       0.45599413       0.15625040 </v>
   <v>       0.22066289       0.08099425       0.23437560 </v>
   <v>       0.97066271       0.70599425       0.31250077 </v>
   <v>       0.72066271       0.33099413       0.39062601 </v>
   <v>       0.47066277       0.20599414       0.00000002 </v>
   <v>       0.22066276       0.83099413       0.07812521 </v>
   <v>       0.97066277       0.45599413       0.15625040 </v>
   <v>       0.72066283       0.08099425       0.23437560 </v>
   <v>       0.47066283       0.70599425       0.31250077 </v>
   <v>       0.22066277       0.33099413       0.39062601 </v>
   <v>       0.34566274       0.58099419       0.00000003 </v>
   <v>       0.09566276       0.20599416       0.07812521 </v>
   <v>       0.84566277       0.83099413       0.15625040 </v>
   <v>       0.59566283       0.45599425       0.23437557 </v>
   <v>       0.34566277       0.08099419       0.31250080 </v>
   <v>       0.09566271       0.70599413       0.39062604 </v>
   <v>       0.84566283       0.58099419       0.00000003 </v>
   <v>       0.59566277       0.20599416       0.07812521 </v>
   <v>       0.34566280       0.83099413       0.15625040 </v>
   <v>       0.09566288       0.45599425       0.23437557 </v>
   <v>       0.84566283       0.08099419       0.31250080 </v>
   <v>       0.59566277       0.70599413       0.39062604 </v>
   <v>       0.34566274       0.08099414       0.00000001 </v>
   <v>       0.09566276       0.70599413       0.07812521 </v>
   <v>       0.84566277       0.33099413       0.15625040 </v>
   <v>       0.59566283       0.95599425       0.23437560 </v>
   <v>       0.34566277       0.58099425       0.31250077 </v>
   <v>       0.09566271       0.20599401       0.39062601 </v>
   <v>       0.84566283       0.08099414       0.00000001 </v>
   <v>       0.59566277       0.70599413       0.07812521 </v>
   <v>       0.34566280       0.33099413       0.15625040 </v>
   <v>       0.09566288       0.95599425       0.23437560 </v>
   <v>       0.84566283       0.58099425       0.31250077 </v>
   <v>       0.59566277       0.20599401       0.39062601 </v>
   <v>       0.34566274       0.83099419       0.00000000 </v>
   <v>       0.09566276       0.45599419       0.07812521 </v>
   <v>       0.84566277       0.08099417       0.15625040 </v>
   <v>       0.59566283       0.70599431       0.23437557 </v>
   <v>       0.34566277       0.33099425       0.31250077 </v>
   <v>       0.09566271       0.95599413       0.39062598 </v>
   <v>       0.84566283       0.83099419       0.00000000 </v>
   <v>       0.59566277       0.45599419       0.07812521 </v>
   <v>       0.34566280       0.08099417       0.15625040 </v>
   <v>       0.09566288       0.70599431       0.23437557 </v>
   <v>       0.84566283       0.33099425       0.31250077 </v>
   <v>       0.59566277       0.95599413       0.39062598 </v>
   <v>       0.34566274       0.33099413       0.00000002 </v>
   <v>       0.09566276       0.95599413       0.07812522 </v>
   <v>       0.84566277       0.58099413       0.15625040 </v>
   <v>       0.59566283       0.20599425       0.23437560 </v>
   <v>       0.34566277       0.83099413       0.31250077 </v>
   <v>       0.09566271       0.45599413       0.39062601 </v>
   <v>       0.84566283       0.33099413       0.00000002 </v>
   <v>       0.59566277       0.95599413       0.07812522 </v>
   <v>       0.34566280       0.58099413       0.15625040 </v>
   <v>       0.09566288       0.20599425       0.23437560 </v>
   <v>       0.84566283       0.83099413       0.31250077 </v>
   <v>       0.59566277       0.45599413       0.39062601 </v>
   <v>       0.12500000       0.86074680       0.47129923 </v>
   <v>       0.12500000       0.11074686       0.56090480 </v>
   <v>       0.12499988       0.36074710       0.65051037 </v>
   <v>       0.12499976       0.61074722       0.74011582 </v>
   <v>       0.12499976       0.86074728       0.82972133 </v>
   <v>       0.12499976       0.11074734       0.91932684 </v>
   <v>       0.45833337       0.19408011       0.47129923 </v>
   <v>       0.45833331       0.44408011       0.56090480 </v>
   <v>       0.45833331       0.69408035       0.65051037 </v>
   <v>       0.45833322       0.94408053       0.74011582 </v>
   <v>       0.45833322       0.19408059       0.82972133 </v>
   <v>       0.45833316       0.44408083       0.91932684 </v>
   <v>       0.79166675       0.52741361       0.47129923 </v>
   <v>       0.79166669       0.77741361       0.56090480 </v>
   <v>       0.79166681       0.02741384       0.65051037 </v>
   <v>       0.79166651       0.27741384       0.74011582 </v>
   <v>       0.79166657       0.52741384       0.82972133 </v>
   <v>       0.79166657       0.77741408       0.91932684 </v>
   <v>       0.12500003       0.36074686       0.47129923 </v>
   <v>       0.12500000       0.61074686       0.56090474 </v>
   <v>       0.12499988       0.86074704       0.65051037 </v>
   <v>       0.12499988       0.11074710       0.74011582 </v>
   <v>       0.12499976       0.36074734       0.82972133 </v>
   <v>       0.12499976       0.61074734       0.91932684 </v>
   <v>       0.45833337       0.69408011       0.47129923 </v>
   <v>       0.45833334       0.94408029       0.56090474 </v>
   <v>       0.45833337       0.19408059       0.65051037 </v>
   <v>       0.45833325       0.44408059       0.74011582 </v>
   <v>       0.45833328       0.69408059       0.82972133 </v>
   <v>       0.45833311       0.94408089       0.91932684 </v>
   <v>       0.79166681       0.02741349       0.47129923 </v>
   <v>       0.79166663       0.27741361       0.56090474 </v>
   <v>       0.79166669       0.52741373       0.65051037 </v>
   <v>       0.79166663       0.77741384       0.74011582 </v>
   <v>       0.79166651       0.02741384       0.82972133 </v>
   <v>       0.79166657       0.27741408       0.91932684 </v>
   <v>       0.20833331       0.19408011       0.47129923 </v>
   <v>       0.20833325       0.44408011       0.56090474 </v>
   <v>       0.20833328       0.69408035       0.65051037 </v>
   <v>       0.20833313       0.94408041       0.74011582 </v>
   <v>       0.20833313       0.19408059       0.82972133 </v>
   <v>       0.20833313       0.44408059       0.91932684 </v>
   <v>       0.54166675       0.52741349       0.47129923 </v>
   <v>       0.54166663       0.77741361       0.56090480 </v>
   <v>       0.54166663       0.02741384       0.65051037 </v>
   <v>       0.54166663       0.27741384       0.74011582 </v>
   <v>       0.54166639       0.52741384       0.82972133 </v>
   <v>       0.54166651       0.77741408       0.91932684 </v>
   <v>       0.87500000       0.86074686       0.47129923 </v>
   <v>       0.87500000       0.11074686       0.56090480 </v>
   <v>       0.87499994       0.36074710       0.65051037 </v>
   <v>       0.87499982       0.61074710       0.74011582 </v>
   <v>       0.87499982       0.86074728       0.82972133 </v>
   <v>       0.87499982       0.11074734       0.91932684 </v>
   <v>       0.20833334       0.69408023       0.47129923 </v>
   <v>       0.20833328       0.94408029       0.56090480 </v>
   <v>       0.20833322       0.19408035       0.65051031 </v>
   <v>       0.20833325       0.44408083       0.74011582 </v>
   <v>       0.20833313       0.69408059       0.82972139 </v>
   <v>       0.20833307       0.94408089       0.91932684 </v>
   <v>       0.54166675       0.02741349       0.47129923 </v>
   <v>       0.54166663       0.27741361       0.56090480 </v>
   <v>       0.54166657       0.52741373       0.65051037 </v>
   <v>       0.54166657       0.77741384       0.74011582 </v>
   <v>       0.54166657       0.02741384       0.82972133 </v>
   <v>       0.54166645       0.27741408       0.91932684 </v>
   <v>       0.87500000       0.36074686       0.47129923 </v>
   <v>       0.87499994       0.61074686       0.56090480 </v>
   <v>       0.87500000       0.86074704       0.65051037 </v>
   <v>       0.87499988       0.11074710       0.74011582 </v>
   <v>       0.87499982       0.36074710       0.82972133 </v>
   <v>       0.87499976       0.61074734       0.91932684 </v>
  </varray>
 </structure>
</modeling>
