Si Bulk DFT energetics calculations using VASP\n
This script is running on comp120.cluster.local in /lustre/home/ah1365/projects/127870/upgrade_report/case_studies/common/structures/interfaces/120_Si36C84_012_012_a0.280303_b0.055556_c1.482413_interface11shift3\n
Job started on: Sun  8 Jun 00:30:51 UTC 2025\n
 running   64 mpi-ranks, on    4 nodes
 distrk:  each k-point on   64 cores,    1 groups
 distr:  one band on   16 cores,    4 groups
 vasp.6.4.3 19Mar24 (build Oct 22 2024 11:23:12) complex                        
  
 POSCAR found type information on POSCAR SiC 
 POSCAR found :  2 types and     120 ions
 -----------------------------------------------------------------------------
|                                                                             |
|           W    W    AA    RRRRR   N    N  II  N    N   GGGG   !!!           |
|           W    W   A  A   R    R  NN   N  II  NN   N  G    G  !!!           |
|           W    W  A    A  R    R  N N  N  II  N N  N  G       !!!           |
|           W WW W  AAAAAA  RRRRR   N  N N  II  N  N N  G  GGG   !            |
|           WW  WW  A    A  R   R   N   NN  II  N   NN  G    G                |
|           W    W  A    A  R    R  N    N  II  N    N   GGGG   !!!           |
|                                                                             |
|     You use a magnetic or noncollinear calculation, but did not specify     |
|     the initial magnetic moment with the MAGMOM tag. Note that a            |
|     default of 8.333e-3 will be used for all atoms. This ferromagnetic      |
|     setup may break the symmetry of the crystal, in particular it may       |
|     rule out finding an antiferromagnetic solution. Thence, we              |
|     recommend setting the initial magnetic moment manually or verifying     |
|     carefully that this magnetic setup is desired.                          |
|                                                                             |
 -----------------------------------------------------------------------------

 scaLAPACK will be used
 LDA part: xc-table for (Slater+PW92), standard interpolation
 POSCAR, INCAR and KPOINTS ok, starting setup
 FFT: planning ... GRIDC
 FFT: planning ... GRID_SOFT
 FFT: planning ... GRID
 WAVECAR not read
 entering main loop
       N       E                     dE             d eps       ncg     rms          rms(c)
DAV:   1     0.237974775048E+04    0.23797E+04   -0.25585E+05 16128   0.186E+03
DAV:   2    -0.516309644923E+03   -0.28961E+04   -0.27643E+04 19824   0.293E+02
DAV:   3    -0.826994090314E+03   -0.31068E+03   -0.29662E+03 20032   0.899E+01
DAV:   4    -0.843308364648E+03   -0.16314E+02   -0.15719E+02 21608   0.202E+01
DAV:   5    -0.844149561190E+03   -0.84120E+00   -0.82643E+00 23120   0.399E+00    0.405E+01
DAV:   6    -0.831798912973E+03    0.12351E+02   -0.38419E+02 22248   0.369E+01    0.338E+01
DAV:   7    -0.795898935463E+03    0.35900E+02   -0.17039E+02 22776   0.263E+01    0.132E+01
DAV:   8    -0.800955829521E+03   -0.50569E+01   -0.39621E+01 22824   0.144E+01    0.116E+01
DAV:   9    -0.796700156058E+03    0.42557E+01   -0.12684E+01 21824   0.101E+01    0.452E+00
DAV:  10    -0.796572351773E+03    0.12780E+00   -0.39103E+00 21192   0.413E+00    0.293E+00
DAV:  11    -0.796488604448E+03    0.83747E-01   -0.11911E+00 20880   0.258E+00    0.200E+00
DAV:  12    -0.796455790705E+03    0.32814E-01   -0.40219E-01 20864   0.146E+00    0.132E+00
DAV:  13    -0.796450857544E+03    0.49332E-02   -0.13057E-01 20552   0.814E-01    0.714E-01
DAV:  14    -0.796450041554E+03    0.81599E-03   -0.42575E-02 20912   0.513E-01    0.366E-01
DAV:  15    -0.796447596484E+03    0.24451E-02   -0.14446E-02 20992   0.296E-01    0.165E-01
DAV:  16    -0.796447401566E+03    0.19492E-03   -0.45871E-03 22504   0.143E-01    0.975E-02
DAV:  17    -0.796447305295E+03    0.96271E-04   -0.12771E-03 21744   0.775E-02    0.546E-02
DAV:  18    -0.796447303843E+03    0.14525E-05   -0.43648E-04 21864   0.431E-02    0.323E-02
DAV:  19    -0.796447305928E+03   -0.20853E-05   -0.15990E-04 20632   0.259E-02    0.177E-02
DAV:  20    -0.796447310837E+03   -0.49090E-05   -0.58542E-05 20848   0.148E-02    0.110E-02
DAV:  21    -0.796447316802E+03   -0.59652E-05   -0.30338E-05 22080   0.956E-03    0.823E-03
DAV:  22    -0.796447319456E+03   -0.26539E-05   -0.12931E-05 21440   0.652E-03    0.600E-03
DAV:  23    -0.796447321745E+03   -0.22890E-05   -0.10209E-05 21960   0.519E-03    0.448E-03
DAV:  24    -0.796447323483E+03   -0.17381E-05   -0.97567E-06 22616   0.483E-03    0.314E-03
DAV:  25    -0.796447324288E+03   -0.80420E-06   -0.65208E-06 22400   0.397E-03    0.207E-03
DAV:  26    -0.796447324556E+03   -0.26801E-06   -0.25222E-06 21320   0.257E-03    0.135E-03
DAV:  27    -0.796447324685E+03   -0.12988E-06   -0.82030E-07 19776   0.152E-03    0.905E-04
DAV:  28    -0.796447324769E+03   -0.83117E-07   -0.25456E-07 12536   0.917E-04
   1 F= -.79644732E+03 E0= -.79644599E+03  d E =-.267277E-02  mag=     1.0000
Job ended on: Sun  8 Jun 00:48:26 UTC 2025\n
