 vasp.6.4.3 19Mar24 (build Oct 22 2024 11:23:12) complex                        
  
 executed on             LinuxIFC date 2025.06.08  13:03:01
 running   64 mpi-ranks, on    4 nodes
 distrk:  each k-point on   64 cores,    1 groups
 distr:  one band on NCORE=  16 cores,    4 groups


--------------------------------------------------------------------------------------------------------


 INCAR:
   SYSTEM = Si and Ge interface calculation
   ISTART = 0
   ICHARG = 2
   LWAVE = .FALSE.
   LREAL = AUTO
   ENCUT = 700
   ENAUG = 900
   ADDGRID = .TRUE.
   LMAXMIX = 6
   LASPH = .TRUE.
   LMIXTAU = .TRUE.
   NCORE = 16
   NELM = 100
   NBANDS = 288
   EDIFF = 1d-7
   AMIX = 0.6
   ISMEAR = 0
   SIGMA = 0.01
   NELECT = 480
   ISPIN = 2
   NUPDOWN = 1
   LVTOT = .FALSE.
   LVHAR = .TRUE.

 POTCAR:    PAW_PBE Si 05Jan2001                  
 POTCAR:    PAW_PBE Ge 05Jan2001                  
 -----------------------------------------------------------------------------
|                                                                             |
|           W    W    AA    RRRRR   N    N  II  N    N   GGGG   !!!           |
|           W    W   A  A   R    R  NN   N  II  NN   N  G    G  !!!           |
|           W    W  A    A  R    R  N N  N  II  N N  N  G       !!!           |
|           W WW W  AAAAAA  RRRRR   N  N N  II  N  N N  G  GGG   !            |
|           WW  WW  A    A  R   R   N   NN  II  N   NN  G    G                |
|           W    W  A    A  R    R  N    N  II  N    N   GGGG   !!!           |
|                                                                             |
|     You use a magnetic or noncollinear calculation, but did not specify     |
|     the initial magnetic moment with the MAGMOM tag. Note that a            |
|     default of 8.333e-3 will be used for all atoms. This ferromagnetic      |
|     setup may break the symmetry of the crystal, in particular it may       |
|     rule out finding an antiferromagnetic solution. Thence, we              |
|     recommend setting the initial magnetic moment manually or verifying     |
|     carefully that this magnetic setup is desired.                          |
|                                                                             |
 -----------------------------------------------------------------------------

 POTCAR:    PAW_PBE Si 05Jan2001                  
   VRHFIN =Si: s2p2                                                                                 
   LEXCH  = PE                                                                                      
   EATOM  =   103.0669 eV,    7.5752 Ry                                                             
                                                                                                    
   TITEL  = PAW_PBE Si 05Jan2001                                                                    
   LULTRA =        F    use ultrasoft PP ?                                                          
   IUNSCR =        1    unscreen: 0-lin 1-nonlin 2-no                                               
   RPACOR =    1.500    partial core radius                                                         
   POMASS =   28.085; ZVAL   =    4.000    mass and valenz                                          
   RCORE  =    1.900    outmost cutoff radius                                                       
   RWIGS  =    2.480; RWIGS  =    1.312    wigner-seitz radius (au A)                               
   ENMAX  =  245.345; ENMIN  =  184.009 eV                                                          
   ICORE  =        2    local potential                                                             
   LCOR   =        T    correct aug charges                                                         
   LPAW   =        T    paw PP                                                                      
   EAUG   =  322.069                                                                                
   DEXC   =    0.000                                                                                
   RMAX   =    1.950    core radius for proj-oper                                                   
   RAUG   =    1.300    factor for augmentation sphere                                              
   RDEP   =    1.993    radius for radial grids                                                     
   RDEPT  =    1.837    core radius for aug-charge                                                  
                                                                                                    
   Atomic configuration                                                                             
    6 entries                                                                                       
     n  l   j            E        occ.                                                              
     1  0  0.50     -1785.8828   2.0000                                                             
     2  0  0.50      -139.4969   2.0000                                                             
     2  1  1.50       -95.5546   6.0000                                                             
     3  0  0.50       -10.8127   2.0000                                                             
     3  1  0.50        -4.0811   2.0000                                                             
     3  2  1.50        -4.0817   0.0000                                                             
   Description                                                                                      
     l       E           TYP  RCUT    TYP  RCUT                                                     
     0    -10.8127223     23  1.900                                                                 
     0     -7.6451159     23  1.900                                                                 
     1     -4.0811372     23  1.900                                                                 
     1      2.4879257     23  1.900                                                                 
     2     -4.0817478      7  1.900                                                                 
  local pseudopotential read in
  partial core-charges read in
  partial kinetic energy density read in
  atomic valenz-charges read in
  non local Contribution for L=           0  read in
    real space projection operators read in
  non local Contribution for L=           0  read in
    real space projection operators read in
  non local Contribution for L=           1  read in
    real space projection operators read in
  non local Contribution for L=           1  read in
    real space projection operators read in
    PAW grid and wavefunctions read in
 
   number of l-projection  operators is LMAX  =           4
   number of lm-projection operators is LMMAX =           8
 
 POTCAR:    PAW_PBE Ge 05Jan2001                  
   VRHFIN =Ge: s2p2                                                                                 
   LEXCH  = PE                                                                                      
   EATOM  =   104.9960 eV,    7.7170 Ry                                                             
                                                                                                    
   TITEL  = PAW_PBE Ge 05Jan2001                                                                    
   LULTRA =        F    use ultrasoft PP ?                                                          
   IUNSCR =        1    unscreen: 0-lin 1-nonlin 2-no                                               
   RPACOR =    2.170    partial core radius                                                         
   POMASS =   72.610; ZVAL   =    4.000    mass and valenz                                          
   RCORE  =    2.300    outmost cutoff radius                                                       
   RWIGS  =    2.300; RWIGS  =    1.217    wigner-seitz radius (au A)                               
   ENMAX  =  173.807; ENMIN  =  130.355 eV                                                          
   ICORE  =        3    local potential                                                             
   LCOR   =        T    correct aug charges                                                         
   LPAW   =        T    paw PP                                                                      
   EAUG   =  385.843                                                                                
   DEXC   =    0.000                                                                                
   RMAX   =    2.342    core radius for proj-oper                                                   
   RAUG   =    1.300    factor for augmentation sphere                                              
   RDEP   =    2.318    radius for radial grids                                                     
   RDEPT  =    2.103    core radius for aug-charge                                                  
                                                                                                    
   Atomic configuration                                                                             
   10 entries                                                                                       
     n  l   j            E        occ.                                                              
     1  0  0.50    -10959.8463   2.0000                                                             
     2  0  0.50     -1371.6056   2.0000                                                             
     2  1  1.50     -1198.4791   6.0000                                                             
     3  0  0.50      -168.4733   2.0000                                                             
     3  1  1.50      -115.6019   6.0000                                                             
     3  2  2.50       -29.3106  10.0000                                                             
     4  0  0.50       -11.7309   2.0000                                                             
     4  1  0.50        -3.8952   2.0000                                                             
     4  2  1.50        -4.0817   0.0000                                                             
     4  3  2.50        -4.0817   0.0000                                                             
   Description                                                                                      
     l       E           TYP  RCUT    TYP  RCUT                                                     
     0    -11.7309493     23  2.300                                                                 
     0     -7.4578696     23  2.300                                                                 
     1     -3.8952261     23  2.300                                                                 
     1      6.1178114     23  2.300                                                                 
     2     -4.0817478     23  2.300                                                                 
     3     -1.3605826      7  2.300                                                                 
  local pseudopotential read in
  partial core-charges read in
  partial kinetic energy density read in
  atomic valenz-charges read in
  non local Contribution for L=           0  read in
    real space projection operators read in
  non local Contribution for L=           0  read in
    real space projection operators read in
  non local Contribution for L=           1  read in
    real space projection operators read in
  non local Contribution for L=           1  read in
    real space projection operators read in
  non local Contribution for L=           2  read in
    real space projection operators read in
    PAW grid and wavefunctions read in
 
   number of l-projection  operators is LMAX  =           5
   number of lm-projection operators is LMMAX =          13
 
 Optimization of the real space projectors (new method)

 maximal supplied QI-value         = 19.84
 optimisation between [QCUT,QGAM] = [ 13.49, 26.99] = [ 50.98,203.92] Ry 
 Optimized for a Real-space Cutoff    1.07 Angstroem

   l    n(q)    QCUT    max X(q) W(low)/X(q) W(high)/X(q)  e(spline) 
   0      9    13.493   159.560    0.22E-03    0.15E-03    0.72E-07
   0      9    13.493   115.863    0.21E-03    0.15E-03    0.71E-07
   1      8    13.493    88.339    0.15E-03    0.11E-03    0.13E-06
   1      8    13.493    48.592    0.15E-03    0.10E-03    0.13E-06
 Optimization of the real space projectors (new method)

 maximal supplied QI-value         = 16.25
 optimisation between [QCUT,QGAM] = [ 13.49, 26.98] = [ 50.95,203.80] Ry 
 Optimized for a Real-space Cutoff    1.25 Angstroem

   l    n(q)    QCUT    max X(q) W(low)/X(q) W(high)/X(q)  e(spline) 
   0     10    13.489    65.336    0.91E-04    0.11E-03    0.34E-06
   0     10    13.489    52.220    0.89E-04    0.11E-03    0.34E-06
   1     10    13.489    36.409    0.22E-03    0.27E-03    0.14E-06
   1     10    13.489    21.334    0.21E-03    0.27E-03    0.14E-06
   2      9    13.489     4.673    0.11E-03    0.12E-03    0.19E-06
  PAW_PBE Si 05Jan2001                  :
 energy of atom  1       EATOM= -103.0669
 kinetic energy error for atom=    0.0003 (will be added to EATOM!!)
  PAW_PBE Ge 05Jan2001                  :
 energy of atom  2       EATOM= -104.9960
 kinetic energy error for atom=    0.0001 (will be added to EATOM!!)
 
 
 POSCAR: Si+Ge
  positions in direct lattice
  No initial velocities read in


 exchange-correlation table for PE
   RHO(1)=    0.500       N(1)  =     2000
   RHO(2)=  100.500       N(2)  =     4000
 


--------------------------------------------------------------------------------------------------------


 ion  position               nearest neighbor table
   1  0.979  0.986  0.000-  49 2.35  87 2.35  56 2.35  67 2.49
   2  0.729  0.819  0.091- 117 2.35  68 2.35  57 2.35  49 2.35
   3  0.479  0.652  0.183-  51 2.35 111 2.35  58 2.35 117 2.35
   4  0.229  0.486  0.274-  52 2.35  51 2.35  70 2.35  59 2.35
   5  0.979  0.319  0.366-  82 2.35  60 2.35  71 2.35  52 2.35
   6  0.864  0.946  0.560- 109 2.38  88 2.38  72 3.07
   7  0.864  0.946  0.830-  67 2.38  50 2.38  95 2.48 119 2.48
   8  0.729  0.152  0.091-  38 2.35  56 2.35  63 2.35  96 2.35
   9  0.479  0.986  0.183-  64 2.35  39 2.35  57 2.35  38 2.35
  10  0.229  0.819  0.274-  39 2.35  40 2.35  65 2.35  58 2.35
  11  0.979  0.652  0.366-  41 2.35  59 2.35 106 2.35  40 2.35
  12  0.729  0.486  0.457-  60 2.35  41 2.35 100 2.35  53 2.49
  13  0.979  0.652  0.000-  43 2.35  68 2.35  61 2.35 114 2.51
  14  0.729  0.486  0.091-  44 2.35  62 2.35 111 2.35  43 2.35
  15  0.479  0.319  0.183-  70 2.35  45 2.35  63 2.35  44 2.35
  16  0.229  0.152  0.274-  45 2.35  73 2.35  71 2.35  64 2.35
  17  0.979  0.986  0.366-  72 2.35  47 2.35  65 2.35  73 2.35
  18  0.729  0.819  0.457- 106 2.35  48 2.35  47 2.35
  19  0.479  0.986  0.000-  87 2.35  49 2.35  38 2.35  50 2.49
  20  0.229  0.819  0.091-  68 2.35 117 2.35  39 2.35  87 2.35
  21  0.979  0.652  0.183-  51 2.35 111 2.35  40 2.35  68 2.35
  22  0.729  0.486  0.274- 111 2.35  70 2.35  52 2.35  41 2.35
  23  0.479  0.319  0.366- 100 2.35  71 2.35  82 2.35  70 2.35
  24  0.229  0.152  0.457-  72 2.35  54 2.35  71 2.35  79 2.51
  25  0.479  0.319  0.000-  55 2.35  44 2.35  96 2.35
  26  0.229  0.152  0.091-  55 2.35  45 2.35  56 2.35  38 2.35
  27  0.979  0.986  0.183-  73 2.35  56 2.35  39 2.35  57 2.35
  28  0.729  0.819  0.274-  57 2.35  58 2.35  40 2.35  47 2.35
  29  0.479  0.652  0.366-  48 2.35  59 2.35  41 2.35  58 2.35
  30  0.229  0.486  0.457-  59 2.35  60 2.35 100 2.35  42 2.49
  31  0.614  0.446  0.897- 108 2.38  81 2.38  43 3.07
  32  0.229  0.486  0.091-  62 2.35  51 2.35  44 2.35  61 2.35
  33  0.979  0.319  0.183-  52 2.35  45 2.35  63 2.35  62 2.35
  34  0.729  0.152  0.274-  63 2.35  64 2.35  73 2.35  82 2.35
  35  0.479  0.986  0.366-  54 2.35  65 2.35  47 2.35  64 2.35
  36  0.114  0.446  0.628-  53 2.38  42 2.38  74 2.48  98 2.48
  37  0.614  0.696  0.897-  84 2.38 102 2.38 120 2.51  43 3.12
  38  0.479  0.069  0.091-  19 2.35   8 2.35   9 2.35  26 2.35
  39  0.229  0.902  0.183-  10 2.35   9 2.35  20 2.35  27 2.35
  40  0.979  0.736  0.274-  21 2.35  10 2.35  28 2.35  11 2.35
  41  0.729  0.569  0.366-  11 2.35  29 2.35  12 2.35  22 2.35
  42  0.364  0.446  0.560- 112 2.38  36 2.38 100 2.44  30 2.49
  43  0.729  0.569  0.000-  13 2.35 120 2.35  14 2.35  31 3.07  37 3.12
  44  0.479  0.402  0.091-  14 2.35  32 2.35  25 2.35  15 2.35
  45  0.229  0.236  0.183-  15 2.35  16 2.35  33 2.35  26 2.35
  46  0.364  0.696  0.560-  85 2.38 115 2.38  48 2.42
  47  0.729  0.902  0.366-  17 2.35  35 2.35  28 2.35  18 2.35
  48  0.479  0.736  0.457-  29 2.35  18 2.35  94 2.35  46 2.42
  49  0.729  0.902  0.000-   1 2.35  19 2.35   2 2.35  50 2.44
  50  0.614  0.946  0.897- 105 2.38   7 2.38  49 2.44  19 2.49
  51  0.229  0.569  0.183-   3 2.35  21 2.35   4 2.35  32 2.35
  52  0.979  0.402  0.274-   4 2.35  22 2.35  33 2.35   5 2.35
  53  0.864  0.446  0.560- 112 2.38  36 2.38  60 2.44  12 2.49
  54  0.479  0.069  0.457-  35 2.35  76 2.35  24 2.35
  55  0.229  0.236  0.000-  25 2.35  75 2.35  26 2.35  69 2.42
  56  0.979  0.069  0.091-   1 2.35   8 2.35  26 2.35  27 2.35
  57  0.729  0.902  0.183-  28 2.35   2 2.35   9 2.35  27 2.35
  58  0.479  0.736  0.274-   3 2.35  28 2.35  10 2.35  29 2.35
  59  0.229  0.569  0.366-  11 2.35  29 2.35   4 2.35  30 2.35
  60  0.979  0.402  0.457-   5 2.35  12 2.35  30 2.35  53 2.44
  61  0.229  0.569  0.000-  13 2.35 120 2.35  32 2.35
  62  0.979  0.402  0.091-  14 2.35  32 2.35  75 2.35  33 2.35
  63  0.729  0.236  0.183-  34 2.35  15 2.35  33 2.35   8 2.35
  64  0.479  0.069  0.274-   9 2.35  34 2.35  16 2.35  35 2.35
  65  0.229  0.902  0.366-  17 2.35  35 2.35  10 2.35  94 2.35
  66  0.864  0.196  0.560-  91 2.38 118 2.38  76 2.51  72 3.12
  67  0.114  0.946  0.897-   7 2.38 105 2.38  87 2.44   1 2.49
  68  0.979  0.736  0.091-   2 2.35  20 2.35  13 2.35  21 2.35
  69  0.114  0.196  0.897-  99 2.38  78 2.38  55 2.42
  70  0.479  0.402  0.274-  15 2.35  22 2.35   4 2.35  23 2.35
  71  0.229  0.236  0.366-   5 2.35  23 2.35  16 2.35  24 2.35
  72  0.979  0.069  0.457-  76 2.35  17 2.35  24 2.35   6 3.07  66 3.12
  73  0.979  0.069  0.274-  16 2.35  34 2.35  27 2.35  17 2.35
  74  0.114  0.321  0.695-  86 2.38 116 2.38 118 2.48  36 2.48
  75  0.979  0.319  0.000-  96 2.35  55 2.35  62 2.35
  76  0.729  0.152  0.457-  72 2.35  54 2.35  82 2.35  66 2.51
  77  0.614  0.571  0.695- 110 2.38  89 2.38  85 2.48 112 2.48
  78  0.364  0.196  0.830-  90 2.38  69 2.38  86 2.48 113 2.48
  79  0.364  0.196  0.560-  91 2.38 118 2.38  24 2.51
  80  0.114  0.821  0.695-  92 2.38 119 2.38  88 2.48 115 2.48
  81  0.864  0.446  0.830-  93 2.38  31 2.38  89 2.48 116 2.48
  82  0.729  0.236  0.366-   5 2.35  23 2.35  34 2.35  76 2.35
  83  0.614  0.071  0.695- 113 2.38  95 2.38  91 2.48 109 2.48
  84  0.364  0.696  0.830-  37 2.38 114 2.38 110 2.48  92 2.48
  85  0.614  0.696  0.628-  46 2.38 103 2.38  77 2.48 107 2.48
  86  0.364  0.321  0.762-  74 2.38 104 2.38  78 2.48 108 2.48
  87  0.229  0.902  0.000-   1 2.35  19 2.35  20 2.35  67 2.44
  88  0.114  0.946  0.628-   6 2.38  97 2.38  80 2.48 101 2.48
  89  0.864  0.571  0.762-  77 2.38  98 2.38  81 2.48 102 2.48
  90  0.614  0.196  0.897-  78 2.38  99 2.38  96 2.42
  91  0.614  0.196  0.628-  66 2.38  79 2.38  83 2.48 104 2.48
  92  0.364  0.821  0.762- 107 2.38  80 2.38 105 2.48  84 2.48
  93  0.114  0.446  0.897-  81 2.38 108 2.38
  94  0.229  0.819  0.457- 106 2.35  48 2.35  65 2.35
  95  0.864  0.071  0.762-  83 2.38 101 2.38  99 2.48   7 2.48
  96  0.729  0.236  0.000-  75 2.35   8 2.35  25 2.35  90 2.42
  97  0.364  0.946  0.560- 109 2.38  88 2.38
  98  0.114  0.571  0.695- 110 2.38  89 2.38 115 2.48  36 2.48
  99  0.864  0.196  0.830-  69 2.38  90 2.38 116 2.48  95 2.48
 100  0.479  0.402  0.457-  23 2.35  12 2.35  30 2.35  42 2.44
 101  0.114  0.071  0.695- 113 2.38  95 2.38 118 2.48  88 2.48
 102  0.864  0.696  0.830- 114 2.38  37 2.38  89 2.48 119 2.48
 103  0.864  0.696  0.560- 115 2.38  85 2.38 106 2.42
 104  0.614  0.321  0.695- 116 2.38  86 2.38 112 2.48  91 2.48
 105  0.364  0.946  0.830-  50 2.38  67 2.38  92 2.48 113 2.48
 106  0.979  0.736  0.457-  18 2.35  11 2.35  94 2.35 103 2.42
 107  0.614  0.821  0.695-  92 2.38 119 2.38 109 2.48  85 2.48
 108  0.364  0.446  0.830-  31 2.38  93 2.38 110 2.48  86 2.48
 109  0.614  0.946  0.628-   6 2.38  97 2.38 107 2.48  83 2.48
 110  0.364  0.571  0.762-  77 2.38  98 2.38  84 2.48 108 2.48
 111  0.729  0.569  0.183-   3 2.35  22 2.35  21 2.35  14 2.35
 112  0.614  0.446  0.628-  53 2.38  42 2.38 104 2.48  77 2.48
 113  0.364  0.071  0.762-  83 2.38 101 2.38  78 2.48 105 2.48
 114  0.114  0.696  0.897- 102 2.38  84 2.38  13 2.51
 115  0.114  0.696  0.628- 103 2.38  46 2.38  98 2.48  80 2.48
 116  0.864  0.321  0.762- 104 2.38  74 2.38  99 2.48  81 2.48
 117  0.479  0.736  0.091-   2 2.35 120 2.35  20 2.35   3 2.35
 118  0.114  0.196  0.628-  66 2.38  79 2.38  74 2.48 101 2.48
 119  0.864  0.821  0.762- 107 2.38  80 2.38   7 2.48 102 2.48
 120  0.479  0.652  0.000- 117 2.35  61 2.35  43 2.35  37 2.51
 
  LATTYP: Found a simple orthorhombic cell.
 ALAT       =     7.6805944440
 B/A-ratio  =     2.1213200862
 C/A-ratio  =     2.7342758666
  
  Lattice vectors:
  
 A1 = (   7.6805944440,   0.0000000000,   0.0000000000)
 A2 = (   0.0000000000,  16.2929992680,   0.0000000000)
 A3 = (   0.0000000000,   0.0000000000,  21.0008640290)


Analysis of symmetry for initial positions (statically):
=====================================================================
 Subroutine PRICEL returns:
 Original cell was already a primitive cell.
 

 Routine SETGRP: Setting up the symmetry group for a 
 simple orthorhombic supercell.


 Subroutine GETGRP returns: Found  1 space group operations
 (whereof  1 operations were pure point group operations)
 out of a pool of  8 trial point group operations.


The static configuration has the point symmetry C_1 .


Analysis of symmetry for dynamics (positions and initial velocities):
=====================================================================
 Subroutine PRICEL returns:
 Original cell was already a primitive cell.
 

 Routine SETGRP: Setting up the symmetry group for a 
 simple orthorhombic supercell.


 Subroutine GETGRP returns: Found  1 space group operations
 (whereof  1 operations were pure point group operations)
 out of a pool of  8 trial point group operations.


The dynamic configuration has the point symmetry C_1 .


Analysis of structural, dynamic, and magnetic symmetry:
=====================================================================
 Subroutine PRICEL returns:
 Original cell was already a primitive cell.
 

 Routine SETGRP: Setting up the symmetry group for a 
 simple orthorhombic supercell.


 Subroutine GETGRP returns: Found  1 space group operations
 (whereof  1 operations were pure point group operations)
 out of a pool of  8 trial point group operations.


The overall configuration has the point symmetry C_1 .


 Subroutine INISYM returns: Found  1 space group operations
 (whereof  1 operations are pure point group operations),
 and found     1 'primitive' translations


----------------------------------------------------------------------------------------

                                     Primitive cell                                     

  volume of cell :    2628.0464

  direct lattice vectors                    reciprocal lattice vectors
     7.680594444  0.000000000  0.000000000     0.130198256  0.000000000  0.000000000
     0.000000000 16.292999268  0.000000000     0.000000000  0.061376054  0.000000000
     0.000000000  0.000000000 21.000864029     0.000000000  0.000000000  0.047617088

  length of vectors
     7.680594444 16.292999268 21.000864029     0.130198256  0.061376054  0.047617088

  position of ions in fractional coordinates (direct lattice)
     0.978517294  0.985678196  0.000000001
     0.728517234  0.819011450  0.091431901
     0.478517175  0.652344763  0.182863802
     0.228517234  0.485678136  0.274295658
     0.978517175  0.319011390  0.365727574
     0.864321470  0.946336031  0.560199738
     0.864321589  0.946336150  0.829607725
     0.728517234  0.152344853  0.091431901
     0.478517175  0.985678136  0.182863802
     0.228517234  0.819011509  0.274295658
     0.978517175  0.652344763  0.365727574
     0.728517175  0.485678077  0.457159460
     0.978517294  0.652344942  0.000000001
     0.728517234  0.485678196  0.091431901
     0.478517175  0.319011509  0.182863802
     0.228517234  0.152344868  0.274295658
     0.978517175  0.985678136  0.365727574
     0.728517175  0.819011390  0.457159460
     0.478517294  0.985678196  0.000000000
     0.228517249  0.819011450  0.091431901
     0.978517234  0.652344763  0.182863802
     0.728517294  0.485678136  0.274295628
     0.478517175  0.319011390  0.365727574
     0.228517115  0.152344704  0.457159460
     0.478517294  0.319011539  0.000000000
     0.228517249  0.152344853  0.091431901
     0.978517234  0.985678136  0.182863802
     0.728517294  0.819011509  0.274295628
     0.478517175  0.652344763  0.365727574
     0.228517115  0.485678077  0.457159460
     0.614321470  0.446336091  0.896959722
     0.228517249  0.485678196  0.091431901
     0.978517234  0.319011509  0.182863802
     0.728517294  0.152344868  0.274295628
     0.478517175  0.985678136  0.365727574
     0.114321470  0.446336061  0.627551734
     0.614321530  0.696336091  0.896959722
     0.478517294  0.069011487  0.091431893
     0.228517264  0.902344763  0.182863802
     0.978517294  0.735678136  0.274295658
     0.728517234  0.569011450  0.365727574
     0.364321589  0.446336091  0.560199738
     0.728517354  0.569011629  0.000000000
     0.478517294  0.402344882  0.091431893
     0.228517264  0.235678196  0.182863802
     0.364321470  0.696336031  0.560199738
     0.728517234  0.902344823  0.365727574
     0.478517234  0.735678077  0.457159400
     0.728517354  0.902344942  0.000000000
     0.614321470  0.946336031  0.896959722
     0.228517264  0.569011509  0.182863802
     0.978517294  0.402344853  0.274295658
     0.864321470  0.446336061  0.560199738
     0.478517234  0.069011383  0.457159400
     0.228517294  0.235678196  0.000000001
     0.978517234  0.069011487  0.091431901
     0.728517175  0.902344763  0.182863802
     0.478517294  0.735678136  0.274295628
     0.228517175  0.569011450  0.365727574
     0.978517056  0.402344644  0.457159460
     0.228517294  0.569011629  0.000000001
     0.978517234  0.402344882  0.091431901
     0.728517175  0.235678196  0.182863802
     0.478517294  0.069011539  0.274295628
     0.228517175  0.902344823  0.365727574
     0.864321470  0.196336150  0.560199738
     0.114321589  0.946336031  0.896959722
     0.978517234  0.735678196  0.091431901
     0.114321470  0.196336150  0.896959722
     0.478517294  0.402344853  0.274295628
     0.228517175  0.235678121  0.365727574
     0.978517056  0.069011383  0.457159460
     0.978517294  0.069011539  0.274295658
     0.114321589  0.321336091  0.694903731
     0.978517294  0.319011539  0.000000001
     0.728517175  0.152344704  0.457159460
     0.614321530  0.571336091  0.694903731
     0.364321589  0.196336150  0.829607725
     0.364321589  0.196336150  0.560199738
     0.114321589  0.821336150  0.694903731
     0.864321589  0.446336091  0.829607725
     0.728517234  0.235678121  0.365727574
     0.614321530  0.071336150  0.694903731
     0.364321589  0.696336091  0.829607725
     0.614321470  0.696336031  0.627551734
     0.364321589  0.321336091  0.762255728
     0.228517294  0.902344942  0.000000001
     0.114321470  0.946336031  0.627551734
     0.864321530  0.571336091  0.762255728
     0.614321470  0.196336031  0.896959722
     0.614321530  0.196336150  0.627551734
     0.364321589  0.821336150  0.762255728
     0.114321470  0.446336091  0.896959722
     0.228517115  0.819011390  0.457159460
     0.864321530  0.071336150  0.762255728
     0.728517354  0.235678196  0.000000000
     0.364321589  0.946336091  0.560199738
     0.114321589  0.571336150  0.694903731
     0.864321589  0.196336150  0.829607725
     0.478517234  0.402344644  0.457159400
     0.114321589  0.071336150  0.694903731
     0.864321589  0.696336091  0.829607725
     0.864321530  0.696336091  0.560199738
     0.614321589  0.321336150  0.694903731
     0.364321589  0.946336150  0.829607725
     0.978517056  0.735678077  0.457159460
     0.614321530  0.821336091  0.694903731
     0.364321470  0.446336150  0.829607725
     0.614321589  0.946336091  0.627551734
     0.364321589  0.571336150  0.762255728
     0.728517175  0.569011509  0.182863802
     0.614321530  0.446336091  0.627551734
     0.364321589  0.071336150  0.762255728
     0.114321470  0.696336091  0.896959722
     0.114321470  0.696336031  0.627551734
     0.864321470  0.321336061  0.762255728
     0.478517294  0.735678196  0.091431893
     0.114321470  0.196336150  0.627551734
     0.864321530  0.821336150  0.762255728
     0.478517294  0.652344942  0.000000000

  ion indices of the primitive-cell ions
   primitive index   ion index
                 1           1
                 2           2
                 3           3
                 4           4
                 5           5
                 6           6
                 7           7
                 8           8
                 9           9
                10          10
                11          11
                12          12
                13          13
                14          14
                15          15
                16          16
                17          17
                18          18
                19          19
                20          20
                21          21
                22          22
                23          23
                24          24
                25          25
                26          26
                27          27
                28          28
                29          29
                30          30
                31          31
                32          32
                33          33
                34          34
                35          35
                36          36
                37          37
                38          38
                39          39
                40          40
                41          41
                42          42
                43          43
                44          44
                45          45
                46          46
                47          47
                48          48
                49          49
                50          50
                51          51
                52          52
                53          53
                54          54
                55          55
                56          56
                57          57
                58          58
                59          59
                60          60
                61          61
                62          62
                63          63
                64          64
                65          65
                66          66
                67          67
                68          68
                69          69
                70          70
                71          71
                72          72
                73          73
                74          74
                75          75
                76          76
                77          77
                78          78
                79          79
                80          80
                81          81
                82          82
                83          83
                84          84
                85          85
                86          86
                87          87
                88          88
                89          89
                90          90
                91          91
                92          92
                93          93
                94          94
                95          95
                96          96
                97          97
                98          98
                99          99
               100         100
               101         101
               102         102
               103         103
               104         104
               105         105
               106         106
               107         107
               108         108
               109         109
               110         110
               111         111
               112         112
               113         113
               114         114
               115         115
               116         116
               117         117
               118         118
               119         119
               120         120

----------------------------------------------------------------------------------------

 
 
 KPOINTS: Automatic KPOINTS generated             

Automatic generation of k-mesh.
 Grid dimensions read from file:
 generate k-points for:    4    2    1

 Generating k-lattice:

  Cartesian coordinates                     Fractional coordinates (reciprocal lattice)
     0.032549564  0.000000000  0.000000000     0.250000000  0.000000000  0.000000000
     0.000000000  0.030688027  0.000000000     0.000000000  0.500000000  0.000000000
     0.000000000  0.000000000  0.047617088     0.000000000  0.000000000  1.000000000

  Length of vectors
     0.032549564  0.030688027  0.047617088

  Shift w.r.t. Gamma in fractional coordinates (k-lattice)
     0.000000000  0.000000000  0.000000000

 
 Subroutine IBZKPT returns following result:
 ===========================================
 
 Found      6 irreducible k-points:
 
 Following reciprocal coordinates:
            Coordinates               Weight
  0.000000  0.000000  0.000000      1.000000
  0.250000  0.000000  0.000000      2.000000
  0.500000  0.000000  0.000000      1.000000
  0.000000  0.500000  0.000000      1.000000
  0.250000  0.500000  0.000000      2.000000
  0.500000  0.500000  0.000000      1.000000
 
 Following cartesian coordinates:
            Coordinates               Weight
  0.000000  0.000000  0.000000      1.000000
  0.032550  0.000000  0.000000      2.000000
  0.065099  0.000000  0.000000      1.000000
  0.000000  0.030688  0.000000      1.000000
  0.032550  0.030688  0.000000      2.000000
  0.065099  0.030688  0.000000      1.000000
 


--------------------------------------------------------------------------------------------------------




 Dimension of arrays:
   k-points           NKPTS =      6   k-points in BZ     NKDIM =      6   number of bands    NBANDS=    288
   number of dos      NEDOS =    301   number of ions     NIONS =    120
   non local maximal  LDIM  =      5   non local SUM 2l+1 LMDIM =     13
   total plane-waves  NPLWV = 756000
   max r-space proj   IRMAX =   2381   max aug-charges    IRDMAX= 125263
   dimension x,y,z NGX =    50 NGY =  108 NGZ =  140
   dimension x,y,z NGXF=   100 NGYF=  216 NGZF=  280
   support grid    NGXF=   200 NGYF=  432 NGZF=  560
   ions per type =              72  48
   NGX,Y,Z   is equivalent  to a cutoff of  10.82, 11.02, 11.08 a.u.
   NGXF,Y,Z  is equivalent  to a cutoff of  21.64, 22.04, 22.17 a.u.

 SYSTEM =  Si and Ge interface calculation         
 POSCAR =  Si+Ge                                   

 Startparameter for this run:
   NWRITE =      2    write-flag & timer
   PREC   = normal    normal or accurate (medium, high low for compatibility)
   ISTART =      0    job   : 0-new  1-cont  2-samecut
   ICHARG =      2    charge: 1-file 2-atom 10-const
   ISPIN  =      2    spin polarized calculation?
   LNONCOLLINEAR =      F non collinear calculations
   LSORBIT =      F    spin-orbit coupling
   INIWAV =      1    electr: 0-lowe 1-rand  2-diag
   LASPH  =      T    aspherical Exc in radial PAW
 Electronic Relaxation 1
   ENCUT  =  700.0 eV  51.45 Ry    7.17 a.u.  16.57 35.15 45.30*2*pi/ulx,y,z
   ENINI  =  700.0     initial cutoff
   ENAUG  =  900.0 eV  augmentation charge cutoff
   NELM   =    100;   NELMIN=  2; NELMDL= -5     # of ELM steps 
   EDIFF  = 0.1E-06   stopping-criterion for ELM
   LREAL  =      T    real-space projection
   NLSPLINE    = F    spline interpolate recip. space projectors
   LCOMPAT=      F    compatible to vasp.4.4
   GGA_COMPAT  = T    GGA compatible to vasp.4.4-vasp.4.6
   LMAXPAW     = -100 max onsite density
   LMAXMIX     =    6 max onsite mixed and CHGCAR
   VOSKOWN=      0    Vosko Wilk Nusair interpolation
   ROPT   =   -0.00050  -0.00050
 Ionic relaxation
   EDIFFG = 0.1E-05   stopping-criterion for IOM
   NSW    =      0    number of steps for IOM
   NBLOCK =      1;   KBLOCK =      1    inner block; outer block 
   IBRION =     -1    ionic relax: 0-MD 1-quasi-New 2-CG
   NFREE  =      0    steps in history (QN), initial steepest desc. (CG)
   ISIF   =      2    stress and relaxation
   IWAVPR =     10    prediction:  0-non 1-charg 2-wave 3-comb
   ISYM   =      2    0-nonsym 1-usesym 2-fastsym
   LCORR  =      T    Harris-Foulkes like correction to forces

   POTIM  = 0.5000    time-step for ionic-motion
   TEIN   =    0.0    initial temperature
   TEBEG  =    0.0;   TEEND  =   0.0 temperature during run
   SMASS  =  -3.00    Nose mass-parameter (am)
   estimated Nose-frequenzy (Omega)   =  0.10E-29 period in steps = 0.13E+47 mass=  -0.135E-26a.u.
   SCALEE = 1.0000    scale energy and forces
   NPACO  =    256;   APACO  = 10.0  distance and # of slots for P.C.
   PSTRESS=    0.0 pullay stress

  Mass of Ions in am
   POMASS =  28.09 72.61
  Ionic Valenz
   ZVAL   =   4.00  4.00
  Atomic Wigner-Seitz radii
   RWIGS  =  -1.00 -1.00
  virtual crystal weights 
   VCA    =   1.00  1.00
   NELECT =     480.0000    total number of electrons
   NUPDOWN=       1.0000    fix difference up-down

 DOS related values:
   EMIN   =  10.00;   EMAX   =-10.00  energy-range for DOS
   EFERMI =   0.00;   METHOD = LEGACY      
   ISMEAR =     0;   SIGMA  =   0.01  broadening in eV -4-tet -1-fermi 0-gaus

 Electronic relaxation 2 (details)
   IALGO  =     38    algorithm
   LDIAG  =      T    sub-space diagonalisation (order eigenvalues)
   LSUBROT=      F    optimize rotation matrix (better conditioning)
   TURBO    =      0    0=normal 1=particle mesh
   IRESTART =      0    0=no restart 2=restart with 2 vectors
   NREBOOT  =      0    no. of reboots
   NMIN     =      0    reboot dimension
   EREF     =   0.00    reference energy to select bands
   IMIX   =      4    mixing-type and parameters
     AMIX     =   0.60;   BMIX     =  1.00
     AMIX_MAG =   2.40;   BMIX_MAG =  1.00
     AMIN     =   0.10
     WC   =   100.;   INIMIX=   1;  MIXPRE=   1;  MAXMIX= -45

 Intra band minimization:
   WEIMIN = 0.0000     energy-eigenvalue tresh-hold
   EBREAK =  0.87E-10  absolut break condition
   DEPER  =   0.30     relativ break condition  

   TIME   =   0.40     timestep for ELM

  volume/ion in A,a.u.               =      21.90       147.79
  Fermi-wavevector in a.u.,A,eV,Ry     =   0.928847  1.755267 11.738521  0.862757
  Thomas-Fermi vector in A             =   2.055067
 
 Write flags
   LWAVE        =      F    write WAVECAR
   LDOWNSAMPLE  =      F    k-point downsampling of WAVECAR
   LCHARG       =      T    write CHGCAR
   LVTOT        =      F    write LOCPOT, total local potential
   LVHAR        =      T    write LOCPOT, Hartree potential only
   WRT_POTENTIAL=  hartree ionic  ! write potential to hdf5 file
   LELF         =      F    write electronic localiz. function (ELF)
   LORBIT       =      0    0 simple, 1 ext, 2 COOP (PROOUT), +10 PAW based schemes


 Dipole corrections
   LMONO      =      F    monopole corrections only (constant potential shift)
   LDIPOL     =      F    correct potential (dipole corrections)
   IDIPOL     =      0    1-x, 2-y, 3-z, 4-all directions 
   EPSILON    =  1.0000000 bulk dielectric constant
   LVACPOTAV  =      F  vacuum potentials using an averaging scheme for the charge density
   VACPOTFLAT =  0.1000000 required flatness to determine vacuum potential
 Exchange correlation treatment:
   GGA     = PE    functional components
   XC_C    = 1    coefficients multiplying the functional components
   LIBXC   =     F    Libxc                    
   VOSKOWN =     0    Vosko Wilk Nusair interpolation
   LHFCALC =     F    Hartree Fock is set to
   LHFONE  =     F    Hartree Fock one center treatment
   AEXX    =    0.0000 exact exchange contribution

 Parameters of functionals:
   PE:
     No parameter
 
 Van der Waals corrections
   IVDW    =     0    specifies the selected vdW correction

 Linear response parameters
   LEPSILON=     F    determine dielectric tensor
   LRPA    =     F    only Hartree local field effects (RPA)
   LNABLA  =     F    use nabla operator in PAW spheres
   LVEL    =     F    velocity operator in full k-point grid
   CSHIFT  =0.1000    complex shift for real part using Kramers Kronig
   OMEGAMAX=  -1.0    maximum frequency
   DEG_THRESHOLD= 0.2000000E-02 threshold for treating states as degnerate
   RTIME   =   -0.100 relaxation time in fs
  (WPLASMAI=    0.000 imaginary part of plasma frequency in eV, 0.658/RTIME)
   DFIELD  = 0.0000000 0.0000000 0.0000000 field for delta impulse in time
 
  Optional k-point grid parameters
   LKPOINTS_OPT  =     F    use optional k-point grid
   KPOINTS_OPT_MODE=     1    mode for optional k-point grid
 
 Orbital magnetization related:
   ORBITALMAG=     F  switch on orbital magnetization
   LCHIMAG   =     F  perturbation theory with respect to B field
   DQ        =  0.001000  dq finite difference perturbation B field
   LLRAUG    =     F  two centre corrections for induced B field
   LBONE     =     F  B-component reconstruction in AE one-centre
   LVGVCALC  =     T  calculate vGv susceptibility
   LVGVAPPL  =     F  apply vGv susceptibility instead of pGv for G=0

 Random number generation:
   RANDOM_GENERATOR = DEFAULT
   PCG_SEED         = not used


--------------------------------------------------------------------------------------------------------


 Static calculation
 charge density and potential will be updated during run
 spin polarized calculation
 Variant of blocked Davidson
 Davidson routine will perform the subspace rotation
 perform sub-space diagonalisation
    after iterative eigenvector-optimisation
 modified Broyden-mixing scheme, WC =      100.0
 initial mixing is a Kerker type mixing with AMIX =  0.6000 and BMIX =      1.0000
 Hartree-type preconditioning will be used
 using additional bands           48
 real space projection scheme for non local part
 use partial core corrections
 calculate Harris-corrections to forces 
   (improved forces if not selfconsistent)
 use gradient corrections 
 use of overlap-Matrix (Vanderbilt PP)
 Gauss-broadening in eV      SIGMA  =   0.01


--------------------------------------------------------------------------------------------------------


  energy-cutoff  :      700.00
  volume of cell :     2628.05
      direct lattice vectors                 reciprocal lattice vectors
     7.680594444  0.000000000  0.000000000     0.130198256  0.000000000  0.000000000
     0.000000000 16.292999268  0.000000000     0.000000000  0.061376054  0.000000000
     0.000000000  0.000000000 21.000864029     0.000000000  0.000000000  0.047617088

  length of vectors
     7.680594444 16.292999268 21.000864029     0.130198256  0.061376054  0.047617088


 
 k-points in units of 2pi/SCALE and weight: Automatic KPOINTS generated             
   0.00000000  0.00000000  0.00000000       0.125
   0.03254956  0.00000000  0.00000000       0.250
   0.06509913  0.00000000  0.00000000       0.125
   0.00000000  0.03068803  0.00000000       0.125
   0.03254956  0.03068803  0.00000000       0.250
   0.06509913  0.03068803  0.00000000       0.125
 
 k-points in reciprocal lattice and weights: Automatic KPOINTS generated             
   0.00000000  0.00000000  0.00000000       0.125
   0.25000000  0.00000000  0.00000000       0.250
   0.50000000  0.00000000  0.00000000       0.125
   0.00000000  0.50000000  0.00000000       0.125
   0.25000000  0.50000000  0.00000000       0.250
   0.50000000  0.50000000  0.00000000       0.125
 
 position of ions in fractional coordinates (direct lattice) 
   0.97851729  0.98567820  0.00000000
   0.72851723  0.81901145  0.09143190
   0.47851718  0.65234476  0.18286380
   0.22851723  0.48567814  0.27429566
   0.97851718  0.31901139  0.36572757
   0.86432147  0.94633603  0.56019974
   0.86432159  0.94633615  0.82960773
   0.72851723  0.15234485  0.09143190
   0.47851718  0.98567814  0.18286380
   0.22851723  0.81901151  0.27429566
   0.97851718  0.65234476  0.36572757
   0.72851718  0.48567808  0.45715946
   0.97851729  0.65234494  0.00000000
   0.72851723  0.48567820  0.09143190
   0.47851718  0.31901151  0.18286380
   0.22851723  0.15234487  0.27429566
   0.97851718  0.98567814  0.36572757
   0.72851718  0.81901139  0.45715946
   0.47851729  0.98567820  0.00000000
   0.22851725  0.81901145  0.09143190
   0.97851723  0.65234476  0.18286380
   0.72851729  0.48567814  0.27429563
   0.47851718  0.31901139  0.36572757
   0.22851712  0.15234470  0.45715946
   0.47851729  0.31901154  0.00000000
   0.22851725  0.15234485  0.09143190
   0.97851723  0.98567814  0.18286380
   0.72851729  0.81901151  0.27429563
   0.47851718  0.65234476  0.36572757
   0.22851712  0.48567808  0.45715946
   0.61432147  0.44633609  0.89695972
   0.22851725  0.48567820  0.09143190
   0.97851723  0.31901151  0.18286380
   0.72851729  0.15234487  0.27429563
   0.47851718  0.98567814  0.36572757
   0.11432147  0.44633606  0.62755173
   0.61432153  0.69633609  0.89695972
   0.47851729  0.06901149  0.09143189
   0.22851726  0.90234476  0.18286380
   0.97851729  0.73567814  0.27429566
   0.72851723  0.56901145  0.36572757
   0.36432159  0.44633609  0.56019974
   0.72851735  0.56901163  0.00000000
   0.47851729  0.40234488  0.09143189
   0.22851726  0.23567820  0.18286380
   0.36432147  0.69633603  0.56019974
   0.72851723  0.90234482  0.36572757
   0.47851723  0.73567808  0.45715940
   0.72851735  0.90234494  0.00000000
   0.61432147  0.94633603  0.89695972
   0.22851726  0.56901151  0.18286380
   0.97851729  0.40234485  0.27429566
   0.86432147  0.44633606  0.56019974
   0.47851723  0.06901138  0.45715940
   0.22851729  0.23567820  0.00000000
   0.97851723  0.06901149  0.09143190
   0.72851718  0.90234476  0.18286380
   0.47851729  0.73567814  0.27429563
   0.22851718  0.56901145  0.36572757
   0.97851706  0.40234464  0.45715946
   0.22851729  0.56901163  0.00000000
   0.97851723  0.40234488  0.09143190
   0.72851718  0.23567820  0.18286380
   0.47851729  0.06901154  0.27429563
   0.22851718  0.90234482  0.36572757
   0.86432147  0.19633615  0.56019974
   0.11432159  0.94633603  0.89695972
   0.97851723  0.73567820  0.09143190
   0.11432147  0.19633615  0.89695972
   0.47851729  0.40234485  0.27429563
   0.22851718  0.23567812  0.36572757
   0.97851706  0.06901138  0.45715946
   0.97851729  0.06901154  0.27429566
   0.11432159  0.32133609  0.69490373
   0.97851729  0.31901154  0.00000000
   0.72851718  0.15234470  0.45715946
   0.61432153  0.57133609  0.69490373
   0.36432159  0.19633615  0.82960773
   0.36432159  0.19633615  0.56019974
   0.11432159  0.82133615  0.69490373
   0.86432159  0.44633609  0.82960773
   0.72851723  0.23567812  0.36572757
   0.61432153  0.07133615  0.69490373
   0.36432159  0.69633609  0.82960773
   0.61432147  0.69633603  0.62755173
   0.36432159  0.32133609  0.76225573
   0.22851729  0.90234494  0.00000000
   0.11432147  0.94633603  0.62755173
   0.86432153  0.57133609  0.76225573
   0.61432147  0.19633603  0.89695972
   0.61432153  0.19633615  0.62755173
   0.36432159  0.82133615  0.76225573
   0.11432147  0.44633609  0.89695972
   0.22851712  0.81901139  0.45715946
   0.86432153  0.07133615  0.76225573
   0.72851735  0.23567820  0.00000000
   0.36432159  0.94633609  0.56019974
   0.11432159  0.57133615  0.69490373
   0.86432159  0.19633615  0.82960773
   0.47851723  0.40234464  0.45715940
   0.11432159  0.07133615  0.69490373
   0.86432159  0.69633609  0.82960773
   0.86432153  0.69633609  0.56019974
   0.61432159  0.32133615  0.69490373
   0.36432159  0.94633615  0.82960773
   0.97851706  0.73567808  0.45715946
   0.61432153  0.82133609  0.69490373
   0.36432147  0.44633615  0.82960773
   0.61432159  0.94633609  0.62755173
   0.36432159  0.57133615  0.76225573
   0.72851718  0.56901151  0.18286380
   0.61432153  0.44633609  0.62755173
   0.36432159  0.07133615  0.76225573
   0.11432147  0.69633609  0.89695972
   0.11432147  0.69633603  0.62755173
   0.86432147  0.32133606  0.76225573
   0.47851729  0.73567820  0.09143189
   0.11432147  0.19633615  0.62755173
   0.86432153  0.82133615  0.76225573
   0.47851729  0.65234494  0.00000000
 
 position of ions in cartesian coordinates  (Angst):
   7.51559449 16.05965413  0.00000002
   5.59544542 13.34415296  1.92014892
   3.67529636 10.62865275  3.84029784
   1.75514820  7.91315351  5.76044582
   7.51559358  5.19765234  7.68059505
   6.63850268 15.41865226 11.76467853
   6.63850359 15.41865420 17.42247903
   5.59544542  2.48215458  1.92014892
   3.67529636 16.05965315  3.84029784
   1.75514820 13.34415392  5.76044582
   7.51559358 10.62865275  7.68059505
   5.59544497  7.91315255  9.60074366
   7.51559449 10.62865566  0.00000002
   5.59544542  7.91315449  1.92014892
   3.67529636  5.19765428  3.84029784
   1.75514820  2.48215482  5.76044582
   7.51559358 16.05965315  7.68059505
   5.59544497 13.34415198  9.60074366
   3.67529727 16.05965413  0.00000000
   1.75514831 13.34415296  1.92014892
   7.51559403 10.62865275  3.84029784
   5.59544588  7.91315351  5.76044519
   3.67529636  5.19765234  7.68059505
   1.75514728  2.48215215  9.60074366
   3.67529727  5.19765477  0.00000000
   1.75514831  2.48215458  1.92014892
   7.51559403 16.05965315  3.84029784
   5.59544588 13.34415392  5.76044519
   3.67529636 10.62865275  7.68059505
   1.75514728  7.91315255  9.60074366
   4.71835407  7.27215360 18.83692916
   1.75514831  7.91315449  1.92014892
   7.51559403  5.19765428  3.84029784
   5.59544588  2.48215482  5.76044519
   3.67529636 16.05965315  7.68059505
   0.87805685  7.27215312 13.17912864
   4.71835453 11.34540342 18.83692916
   3.67529727  1.12440411  1.92014875
   1.75514843 14.70190256  3.84029784
   7.51559449 11.98640333  5.76044582
   5.59544542  9.27090314  7.68059505
   2.79820637  7.27215360 11.76467853
   5.59544634  9.27090605  0.00000000
   3.67529727  6.55540487  1.92014875
   1.75514843  3.83990467  3.84029784
   2.79820546 11.34540244 11.76467853
   5.59544542 14.70190354  7.68059505
   3.67529681 11.98640237  9.60074240
   5.59544634 14.70190548  0.00000000
   4.71835407 15.41865226 18.83692916
   1.75514843  9.27090410  3.84029784
   7.51559449  6.55540440  5.76044582
   6.63850268  7.27215312 11.76467853
   3.67529681  1.12440241  9.60074240
   1.75514866  3.83990467  0.00000002
   7.51559403  1.12440411  1.92014892
   5.59544497 14.70190256  3.84029784
   3.67529727 11.98640333  5.76044519
   1.75514774  9.27090314  7.68059505
   7.51559266  6.55540099  9.60074366
   1.75514866  9.27090605  0.00000002
   7.51559403  6.55540487  1.92014892
   5.59544497  3.83990467  3.84029784
   3.67529727  1.12440495  5.76044519
   1.75514774 14.70190354  7.68059505
   6.63850268  3.19890475 11.76467853
   0.87805776 15.41865226 18.83692916
   7.51559403 11.98640431  1.92014892
   0.87805685  3.19890475 18.83692916
   3.67529727  6.55540440  5.76044519
   1.75514774  3.83990345  7.68059505
   7.51559266  1.12440241  9.60074366
   7.51559449  1.12440495  5.76044582
   0.87805776  5.23552870 14.59357877
   7.51559449  5.19765477  0.00000002
   5.59544497  2.48215215  9.60074366
   4.71835453  9.30877851 14.59357877
   2.79820637  3.19890475 17.42247903
   2.79820637  3.19890475 11.76467853
   0.87805776 13.38202929 14.59357877
   6.63850359  7.27215360 17.42247903
   5.59544542  3.83990345  7.68059505
   4.71835453  1.16227984 14.59357877
   2.79820637 11.34540342 17.42247903
   4.71835407 11.34540244 13.17912864
   2.79820637  5.23552870 16.00802890
   1.75514866 14.70190548  0.00000002
   0.87805685 15.41865226 13.17912864
   6.63850314  9.30877851 16.00802890
   4.71835407  3.19890281 18.83692916
   4.71835453  3.19890475 13.17912864
   2.79820637 13.38202929 16.00802890
   0.87805685  7.27215360 18.83692916
   1.75514728 13.34415198  9.60074366
   6.63850314  1.16227984 16.00802890
   5.59544634  3.83990467  0.00000000
   2.79820637 15.41865324 11.76467853
   0.87805776  9.30877947 14.59357877
   6.63850359  3.19890475 17.42247903
   3.67529681  6.55540099  9.60074240
   0.87805776  1.16227984 14.59357877
   6.63850359 11.34540342 17.42247903
   6.63850314 11.34540342 11.76467853
   4.71835498  5.23552966 14.59357877
   2.79820637 15.41865420 17.42247903
   7.51559266 11.98640237  9.60074366
   4.71835453 13.38202833 14.59357877
   2.79820546  7.27215457 17.42247903
   4.71835498 15.41865324 13.17912864
   2.79820637  9.30877947 16.00802890
   5.59544497  9.27090410  3.84029784
   4.71835453  7.27215360 13.17912864
   2.79820637  1.16227984 16.00802890
   0.87805685 11.34540342 18.83692916
   0.87805685 11.34540244 13.17912864
   6.63850268  5.23552821 16.00802890
   3.67529727 11.98640431  1.92014875
   0.87805685  3.19890475 13.17912864
   6.63850314 13.38202929 16.00802890
   3.67529727 10.62865566  0.00000000
 


--------------------------------------------------------------------------------------------------------


 k-point     1 :   0.0000 0.0000 0.0000  plane waves:  110549
 k-point     2 :   0.2500 0.0000 0.0000  plane waves:  110533
 k-point     3 :   0.5000 0.0000 0.0000  plane waves:  110530
 k-point     4 :   0.0000 0.5000 0.0000  plane waves:  110618
 k-point     5 :   0.2500 0.5000 0.0000  plane waves:  110556
 k-point     6 :   0.5000 0.5000 0.0000  plane waves:  110468

 maximum and minimum number of plane-waves per node :      6948     6873

 maximum number of plane-waves:    110618
 maximum index in each direction: 
   IXMAX=   16   IYMAX=   35   IZMAX=   45
   IXMIN=  -17   IYMIN=  -35   IZMIN=  -45


 real space projection operators:
  total allocation   :      17575.78 KBytes
  max/ min on nodes  :       1413.86       1014.09


 parallel 3D FFT for wavefunctions:
    minimum data exchange during FFTs selected (reduces bandwidth)
 parallel 3D FFT for charge:
    minimum data exchange during FFTs selected (reduces bandwidth)


 total amount of memory used by VASP MPI-rank0   166835. kBytes
=======================================================================

   base      :      30000. kBytes
   nonlr-proj:       6554. kBytes
   fftplans  :      18524. kBytes
   grid      :      14584. kBytes
   one-center:        129. kBytes
   wavefun   :      97044. kBytes
 
     INWAV:  cpu time      0.0000: real time      0.0001
 Broyden mixing: mesh for mixing (old mesh)
   NGX = 33   NGY = 71   NGZ = 91
  (NGX  =100   NGY  =216   NGZ  =280)
  gives a total of 213213 points

 initial charge density was supplied:
 charge density of overlapping atoms calculated
 number of electron     480.0000000 magnetization       1.0000000
 keeping initial charge density in first step


--------------------------------------------------------------------------------------------------------


 Maximum index for non-local projection operator          418
 Maximum index for augmentation-charges         5909 (set IRDMAX)


--------------------------------------------------------------------------------------------------------


 First call to EWALD:  gamma=   0.128
 Maximum number of real-space cells 5x 2x 2
 Maximum number of reciprocal cells 2x 3x 4

    FEWALD:  cpu time      0.0031: real time      0.0031


--------------------------------------- Ionic step        1  -------------------------------------------




--------------------------------------- Iteration      1(   1)  ---------------------------------------


    POTLOK:  cpu time      0.2005: real time      0.2023
    SETDIJ:  cpu time      1.0239: real time      1.0295
     EDDAV:  cpu time     18.1351: real time     18.2881
       DOS:  cpu time      0.0018: real time      0.0018
    --------------------------------------------
      LOOP:  cpu time     19.3614: real time     19.5217

 eigenvalue-minimisations  :  6912
 total energy-change (2. order) : 0.1966650E+04  (-0.2139656E+05)
 number of electron     480.0000000 magnetization       1.0000000
 augmentation part      480.0000000 magnetization       1.0000000

 Free energy of the ion-electron system (eV)
  ---------------------------------------------------
  alpha Z        PSCENC =       529.58409355
  Ewald energy   TEWEN  =    -12736.09711623
  -Hartree energ DENC   =     -1248.58234899
  -exchange      EXHF   =         0.00000000
  -V(xc)+E(xc)   XCENC  =     -1036.04233170
  PAW double counting   =     10575.88222728    -8613.76247617
  entropy T*S    EENTRO =        -0.00080735
  eigenvalues    EBANDS =      2035.06819422
  atomic energy  EATOM  =     12460.60057749
  Solvation  Ediel_sol  =         0.00000000
  ---------------------------------------------------
  free energy    TOTEN  =      1966.65001211 eV

  energy without entropy =     1966.65081946  energy(sigma->0) =     1966.65041578


--------------------------------------------------------------------------------------------------------




--------------------------------------- Iteration      1(   2)  ---------------------------------------


     EDDAV:  cpu time     20.3653: real time     20.5293
       DOS:  cpu time      0.0013: real time      0.0013
    --------------------------------------------
      LOOP:  cpu time     20.3666: real time     20.5306

 eigenvalue-minimisations  :  8080
 total energy-change (2. order) :-0.2326464E+04  (-0.2243522E+04)
 number of electron     480.0000000 magnetization       1.0000000
 augmentation part      480.0000000 magnetization       1.0000000

 Free energy of the ion-electron system (eV)
  ---------------------------------------------------
  alpha Z        PSCENC =       529.58409355
  Ewald energy   TEWEN  =    -12736.09711623
  -Hartree energ DENC   =     -1248.58234899
  -exchange      EXHF   =         0.00000000
  -V(xc)+E(xc)   XCENC  =     -1036.04233170
  PAW double counting   =     10575.88222728    -8613.76247617
  entropy T*S    EENTRO =        -0.00208703
  eigenvalues    EBANDS =      -291.39452598
  atomic energy  EATOM  =     12460.60057749
  Solvation  Ediel_sol  =         0.00000000
  ---------------------------------------------------
  free energy    TOTEN  =      -359.81398778 eV

  energy without entropy =     -359.81190075  energy(sigma->0) =     -359.81294426


--------------------------------------------------------------------------------------------------------




--------------------------------------- Iteration      1(   3)  ---------------------------------------


     EDDAV:  cpu time     21.2209: real time     21.3909
       DOS:  cpu time      0.0014: real time      0.0014
    --------------------------------------------
      LOOP:  cpu time     21.2223: real time     21.3922

 eigenvalue-minimisations  :  8528
 total energy-change (2. order) :-0.2169540E+03  (-0.2104155E+03)
 number of electron     480.0000000 magnetization       1.0000000
 augmentation part      480.0000000 magnetization       1.0000000

 Free energy of the ion-electron system (eV)
  ---------------------------------------------------
  alpha Z        PSCENC =       529.58409355
  Ewald energy   TEWEN  =    -12736.09711623
  -Hartree energ DENC   =     -1248.58234899
  -exchange      EXHF   =         0.00000000
  -V(xc)+E(xc)   XCENC  =     -1036.04233170
  PAW double counting   =     10575.88222728    -8613.76247617
  entropy T*S    EENTRO =        -0.00247973
  eigenvalues    EBANDS =      -508.34815981
  atomic energy  EATOM  =     12460.60057749
  Solvation  Ediel_sol  =         0.00000000
  ---------------------------------------------------
  free energy    TOTEN  =      -576.76801430 eV

  energy without entropy =     -576.76553457  energy(sigma->0) =     -576.76677444


--------------------------------------------------------------------------------------------------------




--------------------------------------- Iteration      1(   4)  ---------------------------------------


     EDDAV:  cpu time     20.4811: real time     20.6394
       DOS:  cpu time      0.0014: real time      0.0014
    --------------------------------------------
      LOOP:  cpu time     20.4825: real time     20.6408

 eigenvalue-minimisations  :  8160
 total energy-change (2. order) :-0.7875675E+01  (-0.7744672E+01)
 number of electron     480.0000000 magnetization       1.0000000
 augmentation part      480.0000000 magnetization       1.0000000

 Free energy of the ion-electron system (eV)
  ---------------------------------------------------
  alpha Z        PSCENC =       529.58409355
  Ewald energy   TEWEN  =    -12736.09711623
  -Hartree energ DENC   =     -1248.58234899
  -exchange      EXHF   =         0.00000000
  -V(xc)+E(xc)   XCENC  =     -1036.04233170
  PAW double counting   =     10575.88222728    -8613.76247617
  entropy T*S    EENTRO =        -0.00264367
  eigenvalues    EBANDS =      -516.22367050
  atomic energy  EATOM  =     12460.60057749
  Solvation  Ediel_sol  =         0.00000000
  ---------------------------------------------------
  free energy    TOTEN  =      -584.64368894 eV

  energy without entropy =     -584.64104527  energy(sigma->0) =     -584.64236710


--------------------------------------------------------------------------------------------------------




--------------------------------------- Iteration      1(   5)  ---------------------------------------


     EDDAV:  cpu time     22.4422: real time     22.6089
       DOS:  cpu time      0.0015: real time      0.0015
    CHARGE:  cpu time      1.0661: real time      1.0821
    MIXING:  cpu time      0.0052: real time      0.0052
    --------------------------------------------
      LOOP:  cpu time     23.5149: real time     23.6976

 eigenvalue-minimisations  :  9152
 total energy-change (2. order) :-0.2988774E+00  (-0.2971013E+00)
 number of electron     479.9999997 magnetization       1.0000000
 augmentation part      -48.5551030 magnetization      -0.0682327

 Broyden mixing:
  rms(total) = 0.31601E+01    rms(broyden)= 0.31601E+01
  rms(prec ) = 0.33097E+01
  weight for this iteration     100.00

 Free energy of the ion-electron system (eV)
  ---------------------------------------------------
  alpha Z        PSCENC =       529.58409355
  Ewald energy   TEWEN  =    -12736.09711623
  -Hartree energ DENC   =     -1248.58234899
  -exchange      EXHF   =         0.00000000
  -V(xc)+E(xc)   XCENC  =     -1036.04233170
  PAW double counting   =     10575.88222728    -8613.76247617
  entropy T*S    EENTRO =        -0.00245975
  eigenvalues    EBANDS =      -516.52273186
  atomic energy  EATOM  =     12460.60057749
  Solvation  Ediel_sol  =         0.00000000
  ---------------------------------------------------
  free energy    TOTEN  =      -584.94256637 eV

  energy without entropy =     -584.94010663  energy(sigma->0) =     -584.94133650


--------------------------------------------------------------------------------------------------------




--------------------------------------- Iteration      1(   6)  ---------------------------------------


    POTLOK:  cpu time      0.1766: real time      0.1789
    SETDIJ:  cpu time      1.0065: real time      1.0120
     EDDAV:  cpu time     20.7504: real time     20.9093
       DOS:  cpu time      0.0014: real time      0.0015
    CHARGE:  cpu time      1.0668: real time      1.0746
    MIXING:  cpu time      0.0056: real time      0.0056
    --------------------------------------------
      LOOP:  cpu time     23.0073: real time     23.1819

 eigenvalue-minimisations  :  8320
 total energy-change (2. order) : 0.8969570E+01  (-0.1447586E+01)
 number of electron     479.9999997 magnetization       1.0000000
 augmentation part      -48.2029479 magnetization      -0.0544104

 Broyden mixing:
  rms(total) = 0.14391E+01    rms(broyden)= 0.14391E+01
  rms(prec ) = 0.15361E+01
  weight for this iteration     100.00

 eigenvalues of (default mixing * dielectric matrix)
  average eigenvalue GAMMA=   1.6965
  1.6965

 Free energy of the ion-electron system (eV)
  ---------------------------------------------------
  alpha Z        PSCENC =       529.58409355
  Ewald energy   TEWEN  =    -12736.09711623
  -Hartree energ DENC   =     -1383.09873244
  -exchange      EXHF   =         0.00000000
  -V(xc)+E(xc)   XCENC  =     -1017.06601343
  PAW double counting   =     22316.48628471   -20363.17048134
  entropy T*S    EENTRO =        -0.00273650
  eigenvalues    EBANDS =      -383.20887266
  atomic energy  EATOM  =     12460.60057749
  Solvation  Ediel_sol  =         0.00000000
  ---------------------------------------------------
  free energy    TOTEN  =      -575.97299684 eV

  energy without entropy =     -575.97026034  energy(sigma->0) =     -575.97162859


--------------------------------------------------------------------------------------------------------




--------------------------------------- Iteration      1(   7)  ---------------------------------------


    POTLOK:  cpu time      0.1753: real time      0.1773
    SETDIJ:  cpu time      1.0064: real time      1.0116
     EDDAV:  cpu time     20.9426: real time     21.1059
       DOS:  cpu time      0.0015: real time      0.0015
    CHARGE:  cpu time      1.0665: real time      1.0743
    MIXING:  cpu time      0.0051: real time      0.0052
    --------------------------------------------
      LOOP:  cpu time     23.1975: real time     23.3758

 eigenvalue-minimisations  :  8400
 total energy-change (2. order) :-0.1527902E+00  (-0.1512098E+01)
 number of electron     479.9999997 magnetization       1.0000000
 augmentation part      -48.0383222 magnetization      -0.0506146

 Broyden mixing:
  rms(total) = 0.66258E+00    rms(broyden)= 0.66258E+00
  rms(prec ) = 0.91184E+00
  weight for this iteration     100.00

 eigenvalues of (default mixing * dielectric matrix)
  average eigenvalue GAMMA=   1.1914
  1.8567  0.5261

 Free energy of the ion-electron system (eV)
  ---------------------------------------------------
  alpha Z        PSCENC =       529.58409355
  Ewald energy   TEWEN  =    -12736.09711623
  -Hartree energ DENC   =     -1438.45935232
  -exchange      EXHF   =         0.00000000
  -V(xc)+E(xc)   XCENC  =     -1004.48219257
  PAW double counting   =     33738.08981999   -31790.29902788
  entropy T*S    EENTRO =        -0.00194774
  eigenvalues    EBANDS =      -335.06064135
  atomic energy  EATOM  =     12460.60057749
  Solvation  Ediel_sol  =         0.00000000
  ---------------------------------------------------
  free energy    TOTEN  =      -576.12578706 eV

  energy without entropy =     -576.12383932  energy(sigma->0) =     -576.12481319


--------------------------------------------------------------------------------------------------------




--------------------------------------- Iteration      1(   8)  ---------------------------------------


    POTLOK:  cpu time      0.1757: real time      0.1770
    SETDIJ:  cpu time      1.0060: real time      1.0111
     EDDAV:  cpu time     20.8536: real time     21.0150
       DOS:  cpu time      0.0014: real time      0.0014
    CHARGE:  cpu time      1.0649: real time      1.0729
    MIXING:  cpu time      0.0055: real time      0.0056
    --------------------------------------------
      LOOP:  cpu time     23.1071: real time     23.2829

 eigenvalue-minimisations  :  8360
 total energy-change (2. order) : 0.1085359E+01  (-0.4508140E+00)
 number of electron     479.9999997 magnetization       1.0000000
 augmentation part      -47.7896687 magnetization      -0.0507036

 Broyden mixing:
  rms(total) = 0.16213E+00    rms(broyden)= 0.16213E+00
  rms(prec ) = 0.18003E+00
  weight for this iteration     100.00

 eigenvalues of (default mixing * dielectric matrix)
  average eigenvalue GAMMA=   1.2129
  1.8432  1.2123  0.5830

 Free energy of the ion-electron system (eV)
  ---------------------------------------------------
  alpha Z        PSCENC =       529.58409355
  Ewald energy   TEWEN  =    -12736.09711623
  -Hartree energ DENC   =     -1464.37266401
  -exchange      EXHF   =         0.00000000
  -V(xc)+E(xc)   XCENC  =     -1001.40672616
  PAW double counting   =     38440.72171554   -36494.29461230
  entropy T*S    EENTRO =        -0.00259485
  eigenvalues    EBANDS =      -309.77310132
  atomic energy  EATOM  =     12460.60057749
  Solvation  Ediel_sol  =         0.00000000
  ---------------------------------------------------
  free energy    TOTEN  =      -575.04042829 eV

  energy without entropy =     -575.03783344  energy(sigma->0) =     -575.03913086


--------------------------------------------------------------------------------------------------------




--------------------------------------- Iteration      1(   9)  ---------------------------------------


    POTLOK:  cpu time      0.1750: real time      0.1776
    SETDIJ:  cpu time      1.0057: real time      1.0110
     EDDAV:  cpu time     20.2645: real time     20.4197
       DOS:  cpu time      0.0013: real time      0.0013
    CHARGE:  cpu time      1.0625: real time      1.0701
    MIXING:  cpu time      0.0054: real time      0.0054
    --------------------------------------------
      LOOP:  cpu time     22.5144: real time     22.6852

 eigenvalue-minimisations  :  8088
 total energy-change (2. order) :-0.7232260E-01  (-0.1464924E+00)
 number of electron     479.9999997 magnetization       1.0000000
 augmentation part      -47.8400293 magnetization      -0.0523670

 Broyden mixing:
  rms(total) = 0.13585E+00    rms(broyden)= 0.13585E+00
  rms(prec ) = 0.15791E+00
  weight for this iteration     100.00

 eigenvalues of (default mixing * dielectric matrix)
  average eigenvalue GAMMA=   1.1343
  1.7088  1.7088  0.6269  0.4927

 Free energy of the ion-electron system (eV)
  ---------------------------------------------------
  alpha Z        PSCENC =       529.58409355
  Ewald energy   TEWEN  =    -12736.09711623
  -Hartree energ DENC   =     -1455.75674313
  -exchange      EXHF   =         0.00000000
  -V(xc)+E(xc)   XCENC  =     -1002.11852911
  PAW double counting   =     39102.79897303   -37156.08409448
  entropy T*S    EENTRO =        -0.00228188
  eigenvalues    EBANDS =      -318.03763014
  atomic energy  EATOM  =     12460.60057749
  Solvation  Ediel_sol  =         0.00000000
  ---------------------------------------------------
  free energy    TOTEN  =      -575.11275089 eV

  energy without entropy =     -575.11046901  energy(sigma->0) =     -575.11160995


--------------------------------------------------------------------------------------------------------




--------------------------------------- Iteration      1(  10)  ---------------------------------------


    POTLOK:  cpu time      0.1768: real time      0.1781
    SETDIJ:  cpu time      1.0067: real time      1.0120
     EDDAV:  cpu time     20.6594: real time     20.8205
       DOS:  cpu time      0.0014: real time      0.0014
    CHARGE:  cpu time      1.0677: real time      1.0757
    MIXING:  cpu time      0.0055: real time      0.0055
    --------------------------------------------
      LOOP:  cpu time     22.9175: real time     23.0933

 eigenvalue-minimisations  :  8280
 total energy-change (2. order) : 0.1930409E-01  (-0.2260929E-01)
 number of electron     479.9999997 magnetization       1.0000000
 augmentation part      -47.8742389 magnetization      -0.0507350

 Broyden mixing:
  rms(total) = 0.82788E-01    rms(broyden)= 0.82788E-01
  rms(prec ) = 0.94794E-01
  weight for this iteration     100.00

 eigenvalues of (default mixing * dielectric matrix)
  average eigenvalue GAMMA=   1.0696
  1.7600  1.7600  0.7620  0.5331  0.5331

 Free energy of the ion-electron system (eV)
  ---------------------------------------------------
  alpha Z        PSCENC =       529.58409355
  Ewald energy   TEWEN  =    -12736.09711623
  -Hartree energ DENC   =     -1450.10071280
  -exchange      EXHF   =         0.00000000
  -V(xc)+E(xc)   XCENC  =     -1002.63598161
  PAW double counting   =     39269.75560424   -37322.81779860
  entropy T*S    EENTRO =        -0.00255774
  eigenvalues    EBANDS =      -323.37955510
  atomic energy  EATOM  =     12460.60057749
  Solvation  Ediel_sol  =         0.00000000
  ---------------------------------------------------
  free energy    TOTEN  =      -575.09344680 eV

  energy without entropy =     -575.09088906  energy(sigma->0) =     -575.09216793


--------------------------------------------------------------------------------------------------------




--------------------------------------- Iteration      1(  11)  ---------------------------------------


    POTLOK:  cpu time      0.1770: real time      0.1783
    SETDIJ:  cpu time      1.0039: real time      1.0093
     EDDAV:  cpu time     20.8443: real time     21.0070
       DOS:  cpu time      0.0015: real time      0.0015
    CHARGE:  cpu time      1.0646: real time      1.0723
    MIXING:  cpu time      0.0063: real time      0.0063
    --------------------------------------------
      LOOP:  cpu time     23.0977: real time     23.2748

 eigenvalue-minimisations  :  8320
 total energy-change (2. order) :-0.2055397E-03  (-0.8322966E-02)
 number of electron     479.9999997 magnetization       1.0000000
 augmentation part      -47.8803802 magnetization      -0.0491107

 Broyden mixing:
  rms(total) = 0.53919E-01    rms(broyden)= 0.53919E-01
  rms(prec ) = 0.73265E-01
  weight for this iteration     100.00

 eigenvalues of (default mixing * dielectric matrix)
  average eigenvalue GAMMA=   1.0263
  1.5795  1.5795  1.2804  0.6618  0.6618  0.3945

 Free energy of the ion-electron system (eV)
  ---------------------------------------------------
  alpha Z        PSCENC =       529.58409355
  Ewald energy   TEWEN  =    -12736.09711623
  -Hartree energ DENC   =     -1448.50977181
  -exchange      EXHF   =         0.00000000
  -V(xc)+E(xc)   XCENC  =     -1002.79250950
  PAW double counting   =     39353.67515747   -37406.67153748
  entropy T*S    EENTRO =        -0.00242857
  eigenvalues    EBANDS =      -324.88011727
  atomic energy  EATOM  =     12460.60057749
  Solvation  Ediel_sol  =         0.00000000
  ---------------------------------------------------
  free energy    TOTEN  =      -575.09365234 eV

  energy without entropy =     -575.09122377  energy(sigma->0) =     -575.09243805


--------------------------------------------------------------------------------------------------------




--------------------------------------- Iteration      1(  12)  ---------------------------------------


    POTLOK:  cpu time      0.1754: real time      0.1781
    SETDIJ:  cpu time      1.0059: real time      1.0115
     EDDAV:  cpu time     20.9233: real time     21.0898
       DOS:  cpu time      0.0015: real time      0.0015
    CHARGE:  cpu time      1.0665: real time      1.0742
    MIXING:  cpu time      0.0059: real time      0.0059
    --------------------------------------------
      LOOP:  cpu time     23.1784: real time     23.3610

 eigenvalue-minimisations  :  8344
 total energy-change (2. order) : 0.2501134E-02  (-0.4073391E-02)
 number of electron     479.9999997 magnetization       1.0000000
 augmentation part      -47.8789754 magnetization      -0.0491578

 Broyden mixing:
  rms(total) = 0.34566E-01    rms(broyden)= 0.34566E-01
  rms(prec ) = 0.45494E-01
  weight for this iteration     100.00

 eigenvalues of (default mixing * dielectric matrix)
  average eigenvalue GAMMA=   1.0157
  1.6710  1.5826  1.5826  0.7823  0.6492  0.5145  0.3279

 Free energy of the ion-electron system (eV)
  ---------------------------------------------------
  alpha Z        PSCENC =       529.58409355
  Ewald energy   TEWEN  =    -12736.09711623
  -Hartree energ DENC   =     -1449.29313668
  -exchange      EXHF   =         0.00000000
  -V(xc)+E(xc)   XCENC  =     -1002.74593281
  PAW double counting   =     39347.66451192   -37400.68266712
  entropy T*S    EENTRO =        -0.00255599
  eigenvalues    EBANDS =      -324.11892533
  atomic energy  EATOM  =     12460.60057749
  Solvation  Ediel_sol  =         0.00000000
  ---------------------------------------------------
  free energy    TOTEN  =      -575.09115120 eV

  energy without entropy =     -575.08859521  energy(sigma->0) =     -575.08987321


--------------------------------------------------------------------------------------------------------




--------------------------------------- Iteration      1(  13)  ---------------------------------------


    POTLOK:  cpu time      0.1759: real time      0.1774
    SETDIJ:  cpu time      1.0046: real time      1.0105
     EDDAV:  cpu time     20.7874: real time     20.9517
       DOS:  cpu time      0.0014: real time      0.0014
    CHARGE:  cpu time      1.0691: real time      1.0771
    MIXING:  cpu time      0.0066: real time      0.0066
    --------------------------------------------
      LOOP:  cpu time     23.0450: real time     23.2248

 eigenvalue-minimisations  :  8288
 total energy-change (2. order) : 0.1339531E-02  (-0.1192495E-02)
 number of electron     479.9999997 magnetization       1.0000000
 augmentation part      -47.8770197 magnetization      -0.0482934

 Broyden mixing:
  rms(total) = 0.19585E-01    rms(broyden)= 0.19585E-01
  rms(prec ) = 0.22207E-01
  weight for this iteration     100.00

 eigenvalues of (default mixing * dielectric matrix)
  average eigenvalue GAMMA=   1.0512
  1.9418  1.9418  1.6331  0.7579  0.6818  0.6818  0.4602  0.3114

 Free energy of the ion-electron system (eV)
  ---------------------------------------------------
  alpha Z        PSCENC =       529.58409355
  Ewald energy   TEWEN  =    -12736.09711623
  -Hartree energ DENC   =     -1449.46903371
  -exchange      EXHF   =         0.00000000
  -V(xc)+E(xc)   XCENC  =     -1002.75330283
  PAW double counting   =     39303.22637384   -37356.24245561
  entropy T*S    EENTRO =        -0.00259886
  eigenvalues    EBANDS =      -323.93634933
  atomic energy  EATOM  =     12460.60057749
  Solvation  Ediel_sol  =         0.00000000
  ---------------------------------------------------
  free energy    TOTEN  =      -575.08981167 eV

  energy without entropy =     -575.08721281  energy(sigma->0) =     -575.08851224


--------------------------------------------------------------------------------------------------------




--------------------------------------- Iteration      1(  14)  ---------------------------------------


    POTLOK:  cpu time      0.1758: real time      0.1777
    SETDIJ:  cpu time      1.0032: real time      1.0085
     EDDAV:  cpu time     19.9911: real time     20.1433
       DOS:  cpu time      0.0016: real time      0.0016
    CHARGE:  cpu time      1.0632: real time      1.0707
    MIXING:  cpu time      0.0059: real time      0.0059
    --------------------------------------------
      LOOP:  cpu time     22.2407: real time     22.4077

 eigenvalue-minimisations  :  7904
 total energy-change (2. order) : 0.6929318E-04  (-0.3908281E-03)
 number of electron     479.9999997 magnetization       1.0000000
 augmentation part      -47.8779855 magnetization      -0.0476105

 Broyden mixing:
  rms(total) = 0.10796E-01    rms(broyden)= 0.10796E-01
  rms(prec ) = 0.12008E-01
  weight for this iteration     100.00

[...]
   -.506E-01 0.317E+00 0.117E+02   0.868E-02 -.127E+00 -.117E+02   0.160E-01 -.586E-01 -.890E-01   -.566E-05 -.140E-04 0.141E-03
   -.209E-01 0.305E+00 -.117E+02   0.814E-02 -.143E+00 0.117E+02   0.585E-02 -.472E-01 -.308E-01   -.221E-04 -.123E-03 -.350E-04
   -.249E+00 -.671E+00 -.376E+02   -.217E+00 0.107E+01 0.372E+02   0.269E+00 0.912E-01 0.435E-01   0.183E-04 -.175E-04 -.224E-03
   -.494E+01 -.130E+02 -.146E+02   0.408E+01 0.143E+02 0.157E+02   0.220E+00 -.115E+01 -.156E+01   0.643E-04 -.166E-03 -.223E-04
   -.743E+00 -.118E+01 0.301E+02   0.137E+00 0.117E+01 -.311E+02   -.196E+00 0.222E+00 0.118E+01   -.838E-04 0.461E-04 -.610E-04
   -.790E-01 -.121E+01 0.372E+02   -.219E+00 0.171E+01 -.371E+02   0.235E+00 -.298E+00 -.240E+00   -.343E-04 0.619E-04 0.503E-03
   0.553E+01 0.138E+02 0.177E+02   -.432E+01 -.146E+02 -.183E+02   -.506E+00 0.576E+00 0.108E+01   0.566E-04 -.460E-04 -.757E-05
   0.273E-01 0.171E+00 -.119E+02   0.864E-02 -.162E+00 0.117E+02   -.254E-01 0.811E-01 0.214E+00   -.353E-04 -.460E-05 -.145E-03
   -.722E-01 -.121E+01 -.373E+02   -.219E+00 0.171E+01 0.371E+02   0.234E+00 -.298E+00 0.254E+00   0.189E-04 -.737E-04 -.372E-03
   -.336E+01 0.177E+02 -.593E+02   0.287E+01 -.164E+02 0.564E+02   0.292E+00 -.225E+01 0.371E+01   0.134E-03 -.307E-03 -.411E-03
   -.420E-01 0.236E+00 -.117E+02   0.814E-02 -.143E+00 0.117E+02   0.771E-02 0.884E-02 -.165E-01   0.184E-04 -.114E-03 -.486E-04
   -.280E+00 0.724E+00 0.413E+01   0.112E-01 -.325E+00 -.388E+01   -.643E-01 0.225E-01 -.112E+01   0.152E-04 -.337E-07 0.139E-05
   0.396E+01 -.171E+02 0.576E+02   -.285E+01 0.172E+02 -.570E+02   -.426E-01 0.105E+01 -.165E+01   0.140E-03 -.198E-04 0.560E-03
   0.615E+01 -.116E+02 -.479E+02   -.551E+01 0.105E+02 0.476E+02   0.627E-02 0.986E+00 0.133E+01   -.778E-04 -.262E-03 -.460E-03
   0.240E+00 -.328E+00 0.444E+01   -.102E-01 0.300E+00 -.392E+01   0.340E-01 0.179E-01 -.115E+01   0.746E-04 0.158E-03 0.407E-04
   -.172E+01 0.286E+01 0.116E+02   0.250E+00 -.280E+01 -.108E+02   0.727E+00 0.147E-02 -.582E+00   -.285E-03 -.950E-04 -.154E-03
   -.467E+01 -.136E+02 -.160E+02   0.408E+01 0.143E+02 0.157E+02   -.249E-01 -.524E+00 -.807E+00   -.652E-04 -.139E-03 -.961E-04
   0.303E+00 -.220E+00 0.314E+01   -.117E-01 0.325E+00 -.299E+01   -.707E-01 -.312E-01 -.724E+00   -.392E-04 0.585E-04 -.110E-03
   -.374E+00 0.132E+00 0.879E+01   0.962E-02 -.101E+00 -.791E+01   -.153E+00 -.224E-01 -.102E+01   -.871E-05 0.888E-04 -.941E-04
   0.686E-01 -.101E+01 -.376E+02   -.219E+00 0.171E+01 0.371E+02   0.122E+00 -.138E+00 0.664E-01   -.886E-05 -.259E-04 -.448E-03
   -.274E+00 0.159E+00 0.305E+01   0.107E-01 -.300E+00 -.295E+01   0.312E-01 0.570E-01 -.643E+00   -.384E-04 -.191E-03 -.863E-04
   0.172E+01 -.290E+01 0.114E+02   -.249E+00 0.280E+01 -.107E+02   -.717E+00 -.175E-01 -.708E+00   0.368E-03 0.120E-03 -.887E-04
   -.171E+01 0.284E+01 -.115E+02   0.250E+00 -.280E+01 0.108E+02   0.713E+00 0.297E-01 0.568E+00   0.230E-03 0.149E-03 0.356E-04
   0.332E+00 -.213E+00 -.314E+01   -.117E-01 0.325E+00 0.299E+01   -.460E-01 -.410E-01 0.723E+00   -.545E-04 0.630E-05 -.124E-03
   -.583E+01 0.242E+02 0.467E+02   0.563E+01 -.237E+02 -.460E+02   0.197E+00 -.123E+01 -.761E+00   -.294E-04 0.105E-03 0.437E-03
   -.375E+00 0.146E+00 -.879E+01   0.967E-02 -.101E+00 0.791E+01   -.161E+00 -.353E-01 0.102E+01   -.625E-04 -.693E-04 -.133E-03
   -.290E+00 0.192E+00 -.305E+01   0.107E-01 -.300E+00 0.295E+01   0.434E-01 0.475E-01 0.625E+00   -.645E-04 0.137E-03 -.116E-03
   0.473E+01 0.139E+02 0.181E+02   -.432E+01 -.146E+02 -.183E+02   -.219E+00 0.257E+00 0.449E+00   -.128E-04 -.253E-04 0.158E-04
   0.172E+01 -.288E+01 -.114E+02   -.249E+00 0.280E+01 0.107E+02   -.713E+00 -.215E-01 0.695E+00   -.175E-03 -.122E-03 0.239E-04
   -.280E+00 0.372E+00 -.434E+01   0.112E-01 -.325E+00 0.388E+01   -.422E-01 -.212E-01 0.104E+01   0.875E-04 -.120E-04 -.127E-03
   0.158E+00 0.829E+00 0.388E+01   -.142E+00 -.910E+00 -.283E+01   0.245E-01 0.172E+00 0.130E+01   0.126E-04 -.223E-04 0.174E-05
   0.395E+01 -.171E+02 -.577E+02   -.285E+01 0.172E+02 0.570E+02   -.537E-01 0.108E+01 0.167E+01   -.134E-04 0.179E-03 -.421E-03
   0.238E+00 -.666E+00 -.425E+01   -.103E-01 0.300E+00 0.392E+01   0.495E-01 -.330E-01 0.123E+01   0.942E-04 -.142E-03 -.141E-03
   -.679E+01 0.110E+02 0.464E+02   0.585E+01 -.104E+02 -.452E+02   0.146E+00 -.895E+00 -.949E+00   0.496E-04 0.108E-03 0.663E-03
   0.167E+00 0.823E+00 -.388E+01   -.142E+00 -.910E+00 0.283E+01   0.227E-01 0.170E+00 -.131E+01   -.228E-04 0.131E-04 -.154E-03
   0.206E+00 -.692E+00 0.425E+01   -.103E-01 0.300E+00 -.392E+01   0.627E-01 -.190E-01 -.122E+01   -.535E-04 0.104E-03 -.249E-04
   -.855E+00 0.288E+01 0.116E+02   0.250E+00 -.280E+01 -.108E+02   0.866E+00 0.307E-03 -.630E+00   0.254E-03 -.916E-04 -.176E-03
   -.582E+01 0.242E+02 -.467E+02   0.563E+01 -.237E+02 0.460E+02   0.219E+00 -.125E+01 0.754E+00   -.315E-04 0.338E-04 -.406E-03
   -.244E+00 0.222E+00 0.304E+01   0.107E-01 -.300E+00 -.295E+01   -.613E-02 0.399E-01 -.617E+00   0.242E-04 -.153E-03 -.636E-04
   0.859E+00 -.293E+01 0.114E+02   -.249E+00 0.280E+01 -.107E+02   -.867E+00 -.245E-01 -.745E+00   -.336E-03 0.877E-04 -.111E-03
   0.471E+01 0.139E+02 -.181E+02   -.432E+01 -.146E+02 0.183E+02   -.196E+00 0.241E+00 -.456E+00   0.914E-05 0.141E-03 -.805E-05
   -.265E+00 0.377E+00 0.435E+01   0.112E-01 -.325E+00 -.388E+01   -.695E-01 -.123E-01 -.106E+01   -.333E-04 0.139E-04 -.970E-05
   0.100E+00 -.109E+00 0.143E+02   -.131E-01 0.960E-01 -.136E+02   -.678E-01 0.426E-03 -.676E+00   0.733E-05 -.103E-03 -.190E-03
   -.679E+01 0.110E+02 -.464E+02   0.585E+01 -.104E+02 0.452E+02   0.172E+00 -.903E+00 0.946E+00   -.101E-03 0.231E-03 -.322E-03
   0.276E+00 -.218E+00 0.313E+01   -.117E-01 0.325E+00 -.299E+01   -.217E-01 -.378E-01 -.715E+00   0.537E-04 0.101E-04 -.367E-04
   0.299E+00 0.155E+00 0.880E+01   0.964E-02 -.101E+00 -.791E+01   0.185E+00 -.372E-01 -.102E+01   0.938E-05 0.851E-04 -.697E-04
   0.306E+00 0.146E+00 -.879E+01   0.962E-02 -.101E+00 0.791E+01   0.185E+00 -.665E-02 0.102E+01   0.570E-04 -.984E-04 -.125E-03
   -.222E+00 0.185E+00 -.304E+01   0.107E-01 -.300E+00 0.295E+01   0.112E-01 0.402E-01 0.616E+00   0.464E-04 0.992E-04 -.875E-04
   -.511E-01 0.244E+00 0.117E+02   0.815E-02 -.143E+00 -.117E+02   0.260E-01 -.180E-01 0.406E-01   -.119E-06 -.312E-04 0.192E-03
   0.961E-01 -.107E+00 -.143E+02   -.131E-01 0.960E-01 0.136E+02   -.692E-01 -.410E-03 0.676E+00   -.358E-05 0.729E-04 0.206E-04
   0.213E+00 -.339E+00 -.443E+01   -.103E-01 0.300E+00 0.392E+01   0.783E-01 0.742E-02 0.113E+01   -.827E-04 -.986E-04 -.176E-03
   -.467E+01 -.136E+02 0.160E+02   0.408E+01 0.143E+02 -.157E+02   -.243E-01 -.530E+00 0.806E+00   -.160E-04 0.198E-04 -.117E-03
   -.866E+00 0.290E+01 -.116E+02   0.250E+00 -.280E+01 0.108E+02   0.870E+00 -.836E-02 0.640E+00   -.246E-03 0.131E-03 0.587E-05
   0.252E+00 -.236E+00 -.312E+01   -.116E-01 0.325E+00 0.299E+01   -.161E-01 -.337E-01 0.699E+00   0.727E-04 0.162E-04 -.109E-03
   0.716E-01 -.101E+01 0.376E+02   -.219E+00 0.171E+01 -.371E+02   0.123E+00 -.131E+00 -.817E-01   0.435E-04 0.540E-04 0.426E-03
   0.871E+00 -.295E+01 -.115E+02   -.249E+00 0.280E+01 0.107E+02   -.884E+00 0.189E-02 0.757E+00   0.192E-03 -.144E-03 0.187E-04
   -.259E+00 0.736E+00 -.414E+01   0.112E-01 -.325E+00 0.388E+01   -.629E-01 0.130E-01 0.112E+01   -.101E-03 -.738E-05 -.154E-03
   0.614E+01 -.116E+02 0.479E+02   -.551E+01 0.105E+02 -.476E+02   0.181E-01 0.959E+00 -.133E+01   0.160E-03 -.974E-06 0.239E-03
 -----------------------------------------------------------------------------------------------
   0.453E-02 0.273E+00 0.103E-01   0.355E-13 -.107E-13 -.639E-13   -.202E+00 -.285E+00 -.728E-01   -.156E-05 0.245E-03 0.448E-03
 
 
 POSITION                                       TOTAL-FORCE (eV/Angst)
 -----------------------------------------------------------------------------------
      7.51559     16.05965      0.00000        -0.233608      0.596989     -0.222705
      5.59545     13.34415      1.92015         0.546659      0.015052     -0.242933
      3.67530     10.62865      3.84030        -0.450392     -0.130772      0.440627
      1.75515      7.91315      5.76045         0.000286     -0.083708      0.062229
      7.51559      5.19765      7.68060         0.547847      0.006016      0.250550
      6.63850     15.41865     11.76468         0.007916      0.085890     -1.795730
      6.63850     15.41865     17.42248         0.015618     -0.030400      0.179993
      5.59545      2.48215      1.92015         0.039572     -0.563843      0.380265
      3.67530     16.05965      3.84030         0.024389     -0.099424     -0.055363
      1.75515     13.34415      5.76045         0.031702     -0.095070      0.025582
      7.51559     10.62865      7.68060         0.037488     -0.570586     -0.371853
      5.59544      7.91315      9.60074         0.884051      0.540973      0.163811
      7.51559     10.62866      0.00000         0.678534     -0.125174     -0.161573
      5.59545      7.91315      1.92015         0.232506     -0.457580     -0.585501
      3.67530      5.19765      3.84030         0.028456     -0.093139     -0.013689
      1.75515      2.48215      5.76045         0.493669      0.212912      0.042193
      7.51559     16.05965      7.68060         0.224956     -0.463632      0.589951
      5.59544     13.34415      9.60074         0.103705      0.937368      0.709621
      3.67530     16.05965      0.00000         0.890547      0.546559     -0.172395
      1.75515     13.34415      1.92015        -0.397339     -0.328163      0.223654
      7.51559     10.62865      3.84030         0.502879      0.194918     -0.037397
      5.59545      7.91315      5.76045         0.021581     -0.433412      0.539053
      3.67530      5.19765      7.68060        -0.407425     -0.336058     -0.220996
      1.75515      2.48215      9.60074         0.677982     -0.128475      0.165633
      3.67530      5.19765      0.00000         0.104345      0.927608     -0.704586
      1.75515      2.48215      1.92015         0.070461     -0.181165     -0.123262
      7.51559     16.05965      3.84030         0.005027     -0.427990     -0.532334
      5.59545     13.34415      5.76045         0.024058     -0.080914      0.014508
      3.67530     10.62865      7.68060         0.065121     -0.193297      0.123922
      1.75515      7.91315      9.60074        -0.227513      0.600045      0.231279
      4.71835      7.27215     18.83693         0.016662      0.075880      1.789565
      1.75515      7.91315      1.92015         0.179427     -0.125587     -0.110211
      7.51559      5.19765      3.84030         0.034644     -0.090953     -0.013402
      5.59545      2.48215      5.76045        -0.449153     -0.138479     -0.430747
      3.67530     16.05965      7.68060         0.177412     -0.134547      0.113284
      0.87806      7.27215     13.17913         0.022638     -0.016730     -0.178870
      4.71835     11.34540     18.83693        -0.638755      0.195139      0.524705
      3.67530      1.12440      1.92015        -0.063445      0.291292     -0.237512
      1.75515     14.70190      3.84030        -0.016361      0.099195     -0.079774
      7.51559     11.98640      5.76045        -0.002703      0.129324      0.043677
      5.59545      9.27090      7.68060        -0.060031      0.289024      0.228706
      2.79821      7.27215     11.76468        -0.803557      0.204086     -0.165769
      5.59545      9.27091      0.00000        -0.184718     -0.963689     -0.863707
      3.67530      6.55540      1.92015        -0.162701      0.096312     -0.132392
      1.75515      3.83990      3.84030        -0.002788      0.118652     -0.042930
      2.79821     11.34540     11.76468         0.706654     -0.186677     -0.479848
      5.59545     14.70190      7.68060        -0.159168      0.098012      0.127656
      3.67530     11.98640      9.60074        -0.182402     -0.260631      0.357602
      5.59545     14.70191      0.00000        -0.227408     -0.165882     -0.122529
      4.71835     15.41865     18.83693         0.327030      0.020155      0.566186
      1.75515      9.27090      3.84030        -0.003946      0.116768     -0.020655
      7.51559      6.55540      5.76045        -0.005579      0.100797      0.074984
      6.63850      7.27215     11.76468         0.324143      0.026460     -0.558677
      3.67530      1.12440      9.60074        -1.148749     -0.842257      0.787234
      1.75515      3.83990      0.00000        -0.177803     -0.267682     -0.360407
      7.51559      1.12440      1.92015        -0.061815      0.271923     -0.257978
      5.59544     14.70190      3.84030         0.011784      0.097099     -0.077699
      3.67530     11.98640      5.76045        -0.012909      0.114583      0.036986
      1.75515      9.27090      7.68060        -0.059317      0.288814      0.256778
      7.51559      6.55540      9.60074        -0.239124     -0.158740      0.133852
      1.75515      9.27091      0.00000        -1.148686     -0.850027     -0.786425
      7.51559      6.55540      1.92015        -0.197015      0.471606      0.388703
      5.59544      3.83990      3.84030        -0.024188      0.131513     -0.049474
      3.67530      1.12440      5.76045        -0.005298      0.114469      0.015165
      1.75515     14.70190      7.68060        -0.195893      0.485452     -0.391614
      6.63850      3.19890     11.76468        -0.637794      0.189154     -0.531090
      0.87806     15.41865     18.83693        -0.800743      0.208310      0.162114
      7.51559     11.98640      1.92015        -0.062124      0.197014     -0.123231
      0.87806      3.19890     18.83693         0.708423     -0.192753      0.482087
      3.67530      6.55540      5.76045         0.012236      0.090078      0.071027
      1.75515      3.83990      7.68060        -0.056133      0.199168      0.118482
      7.51559      1.12440      9.60074        -0.190617     -0.971884      0.866226
      7.51559      1.12440      5.76045        -0.024479      0.101776      0.020214
      0.87806      5.23553     14.59358        -0.331135      0.422034     -0.861369
      7.51559      5.19765      0.00000         1.067835      1.159398     -1.049925
      5.59544      2.48215      9.60074         0.639509     -0.090757      1.100971
      4.71835      9.30878     14.59358         0.265609     -0.009933     -0.629250
      2.79821      3.19890     17.42248        -0.745887      0.065568      0.149911
      2.79821      3.19890     11.76468        -0.619317      0.206718     -1.168800
      0.87806     13.38203     14.59358         0.222681      0.073561     -0.573319
      6.63850      7.27215     17.42248        -0.515726      0.009334     -0.140918
      5.59545      3.83990      7.68060        -0.026747      0.559935     -0.433522
      4.71835      1.16228     14.59358        -0.230951     -0.083909     -0.542140
      2.79821     11.34540     17.42248         0.757928     -0.117367      0.050368
      4.71835     11.34540     13.17913        -0.743248      0.077556     -0.146369
      2.79821      5.23553     16.00803         0.275485      0.071587      0.571680
      1.75515     14.70191      0.00000        -0.003415     -0.737662     -0.130125
      0.87806     15.41865     13.17913        -0.524997      0.010033      0.141385
      6.63850      9.30878     16.00803        -0.234231     -0.060326      0.531876
      4.71835      3.19890     18.83693         0.191845     -0.482580      0.249508
      4.71835      3.19890     13.17913         0.756687     -0.105092     -0.053049
      2.79821     13.38203     16.00803        -0.308800      0.025344      0.585425
      0.87806      7.27215     18.83693         0.042262      0.090983      2.348146
      1.75515     13.34415      9.60074         1.050398      1.167434      1.046646
      6.63850      1.16228     16.00803         0.279430     -0.399001      0.894078
      5.59545      3.83990      0.00000        -0.794841     -0.320014      0.187362
      2.79821     15.41865     11.76468         0.049736      0.083352     -2.349668
      0.87806      9.30878     14.59358         0.260529     -0.410754     -0.896133
      6.63850      3.19890     17.42248         0.262099      0.086028      0.119270
      3.67530      6.55540      9.60074         0.023097     -0.761008      0.126528
      0.87806      1.16228     14.59358        -0.237353     -0.037964     -0.529853
      6.63850     11.34540     17.42248        -0.256271     -0.157742      0.037316
      6.63850     11.34540     11.76468         0.196642     -0.483486     -0.265151
      4.71835      5.23553     14.59358        -0.321874      0.040027     -0.593238
      2.79821     15.41865     17.42248         0.021097     -0.012490      0.011876
      7.51559     11.98640      9.60074        -0.772093     -0.345271     -0.188386
      4.71835     13.38203     14.59358         0.244441      0.069578     -0.577953
      2.79821      7.27215     17.42248         0.494902      0.017396     -0.140333
      4.71835     15.41865     13.17913         0.502602      0.038334      0.141778
      2.79821      9.30878     16.00803        -0.198379     -0.074637      0.533994
      5.59544      9.27090      3.84030        -0.015266      0.083245     -0.003390
      4.71835      7.27215     13.17913         0.015454     -0.011173     -0.009453
      2.79821      1.16228     16.00803         0.282371     -0.031706      0.619236
      0.87806     11.34540     18.83693        -0.617812      0.199370      1.167399
      0.87806     11.34540     13.17913         0.254785      0.096043     -0.115826
      6.63850      5.23553     16.00803         0.225761      0.055152      0.567789
      3.67530     11.98640      1.92015        -0.023237      0.569119      0.429482
      0.87806      3.19890     13.17913        -0.259178     -0.148646     -0.035487
      6.63850     13.38203     16.00803        -0.309080      0.423695      0.863054
      3.67530     10.62866      0.00000         0.647925     -0.116375     -1.094270
 -----------------------------------------------------------------------------------
    total drift:                               -0.197156     -0.011804     -0.061991


--------------------------------------------------------------------------------------------------------



  FREE ENERGIE OF THE ION-ELECTRON SYSTEM (eV)
  ---------------------------------------------------
  free  energy   TOTEN  =      -575.08985473 eV

  energy  without entropy=     -575.08729760  energy(sigma->0) =     -575.08857617
 


--------------------------------------------------------------------------------------------------------


    POTLOK:  cpu time      1.1967: real time      1.2034


--------------------------------------------------------------------------------------------------------


     LOOP+:  cpu time    593.1619: real time    598.2907
    4ORBIT:  cpu time      0.0000: real time      0.0000

 total amount of memory used by VASP MPI-rank0   166835. kBytes
=======================================================================

   base      :      30000. kBytes
   nonlr-proj:       6554. kBytes
   fftplans  :      18524. kBytes
   grid      :      14584. kBytes
   one-center:        129. kBytes
   wavefun   :      97044. kBytes
 
  
  
 General timing and accounting informations for this job:
 ========================================================
  
                  Total CPU time used (sec):      647.848
                            User time (sec):      616.090
                          System time (sec):       31.757
                         Elapsed time (sec):      655.444
  
                   Maximum memory used (kb):      429844.
                   Average memory used (kb):          N/A
  
                          Minor page faults:       115670
                          Major page faults:           27
                 Voluntary context switches:         1942
