Si and Ge interface calculation         
           1
     7.680594    0.000000    0.000000
     0.000000   16.292999    0.000000
     0.000000    0.000000   21.000864
   Si   Ge
    72    48
Direct configuration=     1
   0.97851729  0.98567820  0.00000000
   0.72851723  0.81901145  0.09143190
   0.47851718  0.65234476  0.18286380
   0.22851723  0.48567814  0.27429566
   0.97851718  0.31901139  0.36572757
   0.61432147  0.69633603  0.62755173
   0.11432147  0.19633615  0.89695972
   0.72851723  0.15234485  0.09143190
   0.47851718  0.98567814  0.18286380
   0.22851723  0.81901151  0.27429566
   0.97851718  0.65234476  0.36572757
   0.86432147  0.19633615  0.56019974
   0.97851729  0.65234494  0.00000000
   0.72851723  0.48567820  0.09143190
   0.47851718  0.31901151  0.18286380
   0.86432147  0.44633606  0.56019974
   0.97851718  0.98567814  0.36572757
   0.86432147  0.94633603  0.56019974
   0.61432153  0.69633609  0.89695972
   0.22851725  0.81901145  0.09143190
   0.61432147  0.94633603  0.89695972
   0.72851729  0.48567814  0.27429563
   0.47851718  0.31901139  0.36572757
   0.22851712  0.15234470  0.45715946
   0.61432147  0.44633609  0.89695972
   0.22851725  0.15234485  0.09143190
   0.97851723  0.98567814  0.18286380
   0.72851729  0.81901151  0.27429563
   0.47851718  0.65234476  0.36572757
   0.22851712  0.48567808  0.45715946
   0.36432159  0.19633615  0.82960773
   0.22851725  0.48567820  0.09143190
   0.97851723  0.31901151  0.18286380
   0.72851729  0.15234487  0.27429563
   0.47851718  0.98567814  0.36572757
   0.36432147  0.69633603  0.56019974
   0.72851735  0.23567820  0.00000000
   0.47851729  0.06901149  0.09143189
   0.22851726  0.90234476  0.18286380
   0.97851729  0.73567814  0.27429566
   0.72851723  0.56901145  0.36572757
   0.47851723  0.40234464  0.45715940
   0.72851735  0.56901163  0.00000000
   0.47851729  0.40234488  0.09143189
   0.22851726  0.23567820  0.18286380
   0.97851729  0.06901154  0.27429566
   0.72851723  0.90234482  0.36572757
   0.47851723  0.73567808  0.45715940
   0.72851735  0.90234494  0.00000000
   0.47851729  0.73567820  0.09143189
   0.22851726  0.56901151  0.18286380
   0.97851729  0.40234485  0.27429566
   0.72851723  0.23567812  0.36572757
   0.47851723  0.06901138  0.45715940
   0.22851729  0.23567820  0.00000000
   0.11432147  0.69633609  0.89695972
   0.72851718  0.90234476  0.18286380
   0.47851729  0.73567814  0.27429563
   0.36432159  0.19633615  0.56019974
   0.97851706  0.40234464  0.45715946
   0.22851729  0.56901163  0.00000000
   0.97851723  0.40234488  0.09143190
   0.72851718  0.23567820  0.18286380
   0.47851729  0.06901154  0.27429563
   0.22851718  0.90234482  0.36572757
   0.97851706  0.73567808  0.45715946
   0.22851729  0.90234494  0.00000000
   0.97851723  0.73567820  0.09143190
   0.72851718  0.56901151  0.18286380
   0.47851729  0.40234485  0.27429563
   0.22851718  0.23567812  0.36572757
   0.97851706  0.06901138  0.45715946
   0.22851712  0.81901139  0.45715946
   0.11432159  0.32133609  0.69490373
   0.86432159  0.94633615  0.82960773
   0.72851718  0.81901139  0.45715946
   0.61432153  0.57133609  0.69490373
   0.47851729  0.65234494  0.00000000
   0.22851718  0.56901145  0.36572757
   0.11432159  0.82133615  0.69490373
   0.86432159  0.44633609  0.82960773
   0.22851723  0.15234487  0.27429566
   0.61432153  0.07133615  0.69490373
   0.36432159  0.69633609  0.82960773
   0.72851718  0.15234470  0.45715946
   0.36432159  0.32133609  0.76225573
   0.11432159  0.94633603  0.89695972
   0.11432147  0.94633603  0.62755173
   0.86432153  0.57133609  0.76225573
   0.61432147  0.19633603  0.89695972
   0.61432153  0.19633615  0.62755173
   0.36432159  0.82133615  0.76225573
   0.11432147  0.44633609  0.89695972
   0.11432147  0.44633606  0.62755173
   0.86432153  0.07133615  0.76225573
   0.47851729  0.98567820  0.00000000
   0.36432159  0.94633609  0.56019974
   0.11432159  0.57133615  0.69490373
   0.86432159  0.19633615  0.82960773
   0.36432159  0.44633609  0.56019974
   0.11432159  0.07133615  0.69490373
   0.86432159  0.69633609  0.82960773
   0.86432153  0.69633609  0.56019974
   0.61432159  0.32133615  0.69490373
   0.36432159  0.94633615  0.82960773
   0.72851718  0.48567808  0.45715946
   0.61432153  0.82133609  0.69490373
   0.36432147  0.44633615  0.82960773
   0.61432159  0.94633609  0.62755173
   0.36432159  0.57133615  0.76225573
   0.97851729  0.31901154  0.00000000
   0.61432153  0.44633609  0.62755173
   0.36432159  0.07133615  0.76225573
   0.97851723  0.06901149  0.09143190
   0.11432147  0.69633603  0.62755173
   0.86432147  0.32133606  0.76225573
   0.97851723  0.65234476  0.18286380
   0.11432147  0.19633615  0.62755173
   0.86432153  0.82133615  0.76225573
   0.47851729  0.31901154  0.00000000
