  48  48   0   0
  0.2323126E+02  0.8001338E-09  0.1265123E-08  0.1161174E-08  0.5000000E-15
  1.000000000000000E-004
  CAR 
 Si and Ge interface calculation         
      6.65804945    -12.18082681  301      3.45697983      1.00000000
    -12.181  0.0000E+00  0.0000E+00  0.0000E+00  0.0000E+00
    -12.118  0.0000E+00  0.0000E+00  0.0000E+00  0.0000E+00
    -12.055  0.0000E+00  0.0000E+00  0.0000E+00  0.0000E+00
    -11.992  0.0000E+00  0.0000E+00  0.0000E+00  0.0000E+00
    -11.930  0.0000E+00  0.0000E+00  0.0000E+00  0.0000E+00
    -11.867  0.0000E+00  0.0000E+00  0.0000E+00  0.0000E+00
    -11.804  0.0000E+00  0.0000E+00  0.0000E+00  0.0000E+00
    -11.741  0.0000E+00  0.0000E+00  0.0000E+00  0.0000E+00
    -11.678  0.0000E+00  0.0000E+00  0.0000E+00  0.0000E+00
    -11.616  0.0000E+00  0.0000E+00  0.0000E+00  0.0000E+00
    -11.553  0.0000E+00  0.0000E+00  0.0000E+00  0.0000E+00
    -11.490  0.0000E+00  0.0000E+00  0.0000E+00  0.0000E+00
    -11.427  0.0000E+00  0.0000E+00  0.0000E+00  0.0000E+00
    -11.364  0.3728E-07  0.3290E-14  0.2341E-08  0.2066E-15
    -11.302  0.7955E+01  0.6318E+01  0.4996E+00  0.3967E+00
    -11.239  0.1334E+01  0.1646E+01  0.5837E+00  0.5001E+00
    -11.176  0.1459E+02  0.1592E+02  0.1500E+01  0.1500E+01
    -11.113  0.0000E+00  0.0000E+00  0.1500E+01  0.1500E+01
    -11.050  0.0000E+00  0.0000E+00  0.1500E+01  0.1500E+01
    -10.988  0.2937E+00  0.8868E-04  0.1518E+01  0.1500E+01
    -10.925  0.1563E+02  0.1592E+02  0.2500E+01  0.2500E+01
    -10.862  0.0000E+00  0.0000E+00  0.2500E+01  0.2500E+01
    -10.799  0.0000E+00  0.0000E+00  0.2500E+01  0.2500E+01
    -10.737  0.0000E+00  0.0000E+00  0.2500E+01  0.2500E+01
    -10.674  0.5575E+00  0.3076E-03  0.2535E+01  0.2500E+01
    -10.611  0.1537E+02  0.1592E+02  0.3500E+01  0.3500E+01
    -10.548  0.1662E-07  0.1179E-14  0.3500E+01  0.3500E+01
    -10.485  0.7952E+01  0.6035E+01  0.3999E+01  0.3879E+01
    -10.423  0.0000E+00  0.1927E+01  0.4000E+01  0.4000E+01
    -10.360  0.0000E+00  0.0000E+00  0.4000E+01  0.4000E+01
    -10.297  0.0000E+00  0.0000E+00  0.4000E+01  0.4000E+01
    -10.234  0.0000E+00  0.0000E+00  0.4000E+01  0.4000E+01
    -10.171  0.0000E+00  0.0000E+00  0.4000E+01  0.4000E+01
    -10.109  0.0000E+00  0.0000E+00  0.4000E+01  0.4000E+01
    -10.046  0.0000E+00  0.0000E+00  0.4000E+01  0.4000E+01
     -9.983  0.2039E-03  0.0000E+00  0.4000E+01  0.4000E+01
     -9.920  0.7962E+01  0.1346E+01  0.4500E+01  0.4085E+01
     -9.857  0.1368E-04  0.6616E+01  0.4500E+01  0.4500E+01
     -9.795  0.1592E+02  0.8177E+00  0.5500E+01  0.4551E+01
     -9.732  0.0000E+00  0.1511E+02  0.5500E+01  0.5500E+01
     -9.669  0.0000E+00  0.0000E+00  0.5500E+01  0.5500E+01
     -9.606  0.0000E+00  0.0000E+00  0.5500E+01  0.5500E+01
     -9.543  0.0000E+00  0.0000E+00  0.5500E+01  0.5500E+01
     -9.481  0.2186E-06  0.0000E+00  0.5500E+01  0.5500E+01
     -9.418  0.1590E+02  0.1967E+00  0.6498E+01  0.5512E+01
     -9.355  0.0000E+00  0.1573E+02  0.6500E+01  0.6500E+01
     -9.292  0.0000E+00  0.0000E+00  0.6500E+01  0.6500E+01
     -9.229  0.0000E+00  0.0000E+00  0.6500E+01  0.6500E+01
     -9.167  0.0000E+00  0.0000E+00  0.6500E+01  0.6500E+01
     -9.104  0.0000E+00  0.0000E+00  0.6500E+01  0.6500E+01
     -9.041  0.0000E+00  0.0000E+00  0.6500E+01  0.6500E+01
     -8.978  0.0000E+00  0.0000E+00  0.6500E+01  0.6500E+01
     -8.915  0.2523E-10  0.0000E+00  0.6500E+01  0.6500E+01
     -8.853  0.1481E+02  0.6223E-02  0.7430E+01  0.6500E+01
     -8.790  0.4436E+01  0.1795E+02  0.7709E+01  0.7628E+01
     -8.727  0.4637E+01  0.5792E+01  0.8000E+01  0.7991E+01
     -8.664  0.7884E+01  0.6319E+01  0.8495E+01  0.8388E+01
     -8.601  0.9991E+01  0.1146E+02  0.9123E+01  0.9109E+01
     -8.539  0.7887E+01  0.7318E+01  0.9618E+01  0.9570E+01
     -8.476  0.6321E+01  0.5067E+01  0.1002E+02  0.9888E+01
     -8.413  0.1118E+02  0.8334E+01  0.1072E+02  0.1041E+02
     -8.350  0.5279E+01  0.9397E+01  0.1105E+02  0.1100E+02
     -8.287  0.1403E+02  0.1144E+02  0.1193E+02  0.1172E+02
     -8.225  0.8501E+01  0.1009E+02  0.1246E+02  0.1235E+02
     -8.162  0.7109E+01  0.8454E+01  0.1291E+02  0.1288E+02
     -8.099  0.1206E+02  0.1240E+02  0.1367E+02  0.1366E+02
     -8.036  0.8677E+01  0.7687E+01  0.1421E+02  0.1415E+02
     -7.973  0.4578E+01  0.5546E+01  0.1450E+02  0.1449E+02
     -7.911  0.2649E+01  0.2740E+01  0.1467E+02  0.1467E+02
     -7.848  0.5248E+01  0.4371E+01  0.1500E+02  0.1494E+02
     -7.785  0.1215E+02  0.6885E+01  0.1576E+02  0.1537E+02
     -7.722  0.1451E+02  0.1763E+02  0.1667E+02  0.1648E+02
     -7.659  0.9878E+01  0.1126E+02  0.1729E+02  0.1719E+02
     -7.597  0.2057E+02  0.1705E+02  0.1858E+02  0.1826E+02
     -7.534  0.1044E+02  0.1450E+02  0.1924E+02  0.1917E+02
     -7.471  0.5357E+01  0.4472E+01  0.1957E+02  0.1945E+02
     -7.408  0.1925E+02  0.1848E+02  0.2078E+02  0.2061E+02
     -7.346  0.1028E+02  0.1008E+02  0.2143E+02  0.2125E+02
     -7.283  0.1607E+02  0.1419E+02  0.2244E+02  0.2214E+02
     -7.220  0.1195E+02  0.1309E+02  0.2319E+02  0.2296E+02
     -7.157  0.1688E+02  0.1767E+02  0.2425E+02  0.2407E+02
     -7.094  0.1691E+02  0.1600E+02  0.2531E+02  0.2507E+02
     -7.032  0.1762E+02  0.1614E+02  0.2642E+02  0.2609E+02
     -6.969  0.1718E+02  0.1854E+02  0.2750E+02  0.2725E+02
     -6.906  0.1764E+02  0.1707E+02  0.2861E+02  0.2833E+02
     -6.843  0.1740E+02  0.1601E+02  0.2970E+02  0.2933E+02
     -6.780  0.1252E+02  0.1463E+02  0.3048E+02  0.3025E+02
     -6.718  0.9417E+01  0.9434E+01  0.3108E+02  0.3084E+02
     -6.655  0.1361E+02  0.1221E+02  0.3193E+02  0.3161E+02
     -6.592  0.9764E+01  0.1242E+02  0.3254E+02  0.3239E+02
     -6.529  0.1465E+02  0.1311E+02  0.3346E+02  0.3321E+02
     -6.466  0.1178E+02  0.1406E+02  0.3420E+02  0.3410E+02
     -6.404  0.4990E+01  0.4122E+01  0.3452E+02  0.3435E+02
     -6.341  0.4002E+01  0.5073E+01  0.3477E+02  0.3467E+02
     -6.278  0.1237E+02  0.1072E+02  0.3555E+02  0.3535E+02
     -6.215  0.6351E+01  0.8638E+01  0.3594E+02  0.3589E+02
     -6.152  0.2667E+02  0.2166E+02  0.3762E+02  0.3725E+02
     -6.090  0.2604E+02  0.2995E+02  0.3925E+02  0.3913E+02
     -6.027  0.1350E+02  0.1088E+02  0.4010E+02  0.3981E+02
     -5.964  0.1857E+02  0.1391E+02  0.4127E+02  0.4069E+02
     -5.901  0.1254E+02  0.1722E+02  0.4206E+02  0.4177E+02
     -5.838  0.1168E+02  0.1033E+02  0.4279E+02  0.4242E+02
     -5.776  0.4479E+01  0.9282E+01  0.4307E+02  0.4300E+02
     -5.713  0.6622E+01  0.5088E+01  0.4349E+02  0.4332E+02
     -5.650  0.4403E+01  0.6032E+01  0.4376E+02  0.4370E+02
     -5.587  0.1737E+02  0.1356E+02  0.4486E+02  0.4455E+02
     -5.524  0.8491E+01  0.1190E+02  0.4539E+02  0.4530E+02
     -5.462  0.1172E+02  0.9018E+01  0.4613E+02  0.4586E+02
     -5.399  0.1479E+02  0.1529E+02  0.4705E+02  0.4682E+02
     -5.336  0.7237E+01  0.8648E+01  0.4751E+02  0.4737E+02
     -5.273  0.2208E+02  0.2105E+02  0.4890E+02  0.4869E+02
     -5.210  0.5117E+01  0.4169E+01  0.4922E+02  0.4895E+02
     -5.148  0.1184E+02  0.1506E+02  0.4996E+02  0.4990E+02
     -5.085  0.5492E+01  0.5443E+01  0.5030E+02  0.5024E+02
     -5.022  0.1865E+02  0.1374E+02  0.5148E+02  0.5110E+02
     -4.959  0.1196E+02  0.1403E+02  0.5223E+02  0.5198E+02
     -4.896  0.2725E+02  0.1704E+02  0.5394E+02  0.5305E+02
     -4.834  0.1319E+02  0.2275E+02  0.5477E+02  0.5448E+02
     -4.771  0.1154E+02  0.1255E+02  0.5549E+02  0.5527E+02
     -4.708  0.1206E+02  0.1089E+02  0.5625E+02  0.5595E+02
     -4.645  0.9230E+01  0.1260E+02  0.5683E+02  0.5675E+02
     -4.582  0.8201E+01  0.3504E+01  0.5735E+02  0.5697E+02
     -4.520  0.2225E+02  0.2270E+02  0.5874E+02  0.5839E+02
     -4.457  0.1830E+02  0.1781E+02  0.5989E+02  0.5951E+02
     -4.394  0.9664E+01  0.1564E+02  0.6050E+02  0.6049E+02
     -4.331  0.7819E+01  0.2323E+01  0.6099E+02  0.6064E+02
     -4.268  0.1460E+02  0.1654E+02  0.6191E+02  0.6168E+02
     -4.206  0.8554E+01  0.9793E+01  0.6245E+02  0.6229E+02
     -4.143  0.1146E+02  0.8203E+01  0.6317E+02  0.6281E+02
     -4.080  0.1860E+02  0.1949E+02  0.6433E+02  0.6403E+02
     -4.017  0.1232E+02  0.1439E+02  0.6511E+02  0.6494E+02
     -3.955  0.1162E+02  0.1318E+02  0.6584E+02  0.6576E+02
     -3.892  0.1588E+02  0.1402E+02  0.6683E+02  0.6664E+02
     -3.829  0.2009E+02  0.1952E+02  0.6810E+02  0.6787E+02
     -3.766  0.1225E+02  0.1241E+02  0.6887E+02  0.6865E+02
     -3.703  0.1252E+02  0.9542E+01  0.6965E+02  0.6925E+02
     -3.641  0.1715E+02  0.1946E+02  0.7073E+02  0.7047E+02
     -3.578  0.2242E+02  0.2275E+02  0.7214E+02  0.7190E+02
     -3.515  0.1197E+02  0.1359E+02  0.7289E+02  0.7275E+02
     -3.452  0.1272E+02  0.1170E+02  0.7369E+02  0.7349E+02
     -3.389  0.1054E+02  0.9717E+01  0.7435E+02  0.7410E+02
     -3.327  0.9918E+01  0.1148E+02  0.7497E+02  0.7482E+02
     -3.264  0.1221E+02  0.1200E+02  0.7574E+02  0.7558E+02
     -3.201  0.1050E+02  0.1226E+02  0.7640E+02  0.7635E+02
     -3.138  0.6481E+01  0.5983E+01  0.7681E+02  0.7672E+02
     -3.075  0.1027E+02  0.1064E+02  0.7745E+02  0.7739E+02
     -3.013  0.1346E+02  0.1118E+02  0.7830E+02  0.7809E+02
     -2.950  0.9341E+01  0.1003E+02  0.7889E+02  0.7872E+02
     -2.887  0.7634E+01  0.8843E+01  0.7937E+02  0.7928E+02
     -2.824  0.1353E+02  0.8769E+01  0.8021E+02  0.7983E+02
     -2.761  0.8071E+01  0.1288E+02  0.8072E+02  0.8064E+02
     -2.699  0.1029E+02  0.8708E+01  0.8137E+02  0.8118E+02
     -2.636  0.1402E+02  0.1185E+02  0.8225E+02  0.8193E+02
     -2.573  0.1358E+02  0.1609E+02  0.8310E+02  0.8294E+02
     -2.510  0.5446E+01  0.6668E+01  0.8344E+02  0.8336E+02
     -2.447  0.1283E+02  0.7200E+01  0.8425E+02  0.8381E+02
     -2.385  0.1400E+02  0.1838E+02  0.8513E+02  0.8497E+02
     -2.322  0.1305E+02  0.1155E+02  0.8595E+02  0.8569E+02
     -2.259  0.3488E+01  0.6807E+01  0.8617E+02  0.8612E+02
     -2.196  0.1443E+02  0.1258E+02  0.8708E+02  0.8691E+02
     -2.133  0.8540E+01  0.9583E+01  0.8761E+02  0.8751E+02
     -2.071  0.4817E+01  0.4157E+01  0.8791E+02  0.8777E+02
     -2.008  0.1052E+02  0.8141E+01  0.8858E+02  0.8828E+02
     -1.945  0.1343E+02  0.1120E+02  0.8942E+02  0.8899E+02
     -1.882  0.8985E+01  0.1521E+02  0.8998E+02  0.8994E+02
     -1.819  0.4994E+01  0.5332E+01  0.9030E+02  0.9028E+02
     -1.757  0.9024E+01  0.4522E+01  0.9086E+02  0.9056E+02
     -1.694  0.7883E+01  0.1094E+02  0.9136E+02  0.9125E+02
     -1.631  0.1789E+02  0.1368E+02  0.9248E+02  0.9211E+02
     -1.568  0.1729E+02  0.2015E+02  0.9357E+02  0.9337E+02
     -1.505  0.5104E+01  0.7389E+01  0.9389E+02  0.9384E+02
     -1.443  0.7875E+01  0.6401E+01  0.9438E+02  0.9424E+02
     -1.380  0.7875E+01  0.8546E+01  0.9488E+02  0.9478E+02
     -1.317  0.1079E+02  0.1015E+02  0.9556E+02  0.9541E+02
     -1.254  0.4306E+01  0.5103E+01  0.9583E+02  0.9574E+02
     -1.191  0.9008E+01  0.6222E+01  0.9639E+02  0.9613E+02
     -1.129  0.9031E+01  0.1048E+02  0.9696E+02  0.9678E+02
     -1.066  0.9347E+01  0.9330E+01  0.9755E+02  0.9737E+02
     -1.003  0.1079E+02  0.8320E+01  0.9822E+02  0.9789E+02
     -0.940  0.1962E+02  0.2108E+02  0.9946E+02  0.9922E+02
     -0.878  0.1129E+02  0.1326E+02  0.1002E+03  0.1001E+03
     -0.815  0.5334E+01  0.5111E+01  0.1005E+03  0.1004E+03
     -0.752  0.1346E+02  0.9907E+01  0.1013E+03  0.1010E+03
     -0.689  0.1563E+02  0.1627E+02  0.1023E+03  0.1020E+03
     -0.626  0.1222E+02  0.1288E+02  0.1031E+03  0.1028E+03
     -0.564  0.2090E+02  0.1990E+02  0.1044E+03  0.1041E+03
     -0.501  0.1753E+02  0.1863E+02  0.1055E+03  0.1052E+03
     -0.438  0.3257E+02  0.2749E+02  0.1076E+03  0.1070E+03
     -0.375  0.2848E+02  0.2829E+02  0.1093E+03  0.1087E+03
     -0.312  0.2409E+02  0.2734E+02  0.1109E+03  0.1105E+03
     -0.250  0.1444E+02  0.1666E+02  0.1118E+03  0.1115E+03
     -0.187  0.2034E+02  0.1972E+02  0.1130E+03  0.1128E+03
     -0.124  0.3453E+02  0.3031E+02  0.1152E+03  0.1147E+03
     -0.061  0.2257E+02  0.2902E+02  0.1166E+03  0.1165E+03
      0.002  0.2637E+02  0.2185E+02  0.1183E+03  0.1178E+03
      0.064  0.2384E+02  0.2282E+02  0.1198E+03  0.1193E+03
      0.127  0.2686E+02  0.2783E+02  0.1215E+03  0.1210E+03
      0.190  0.2445E+02  0.2697E+02  0.1230E+03  0.1227E+03
      0.253  0.2285E+02  0.1764E+02  0.1244E+03  0.1238E+03
      0.316  0.2830E+02  0.3175E+02  0.1262E+03  0.1258E+03
      0.378  0.2750E+02  0.2837E+02  0.1279E+03  0.1276E+03
      0.441  0.3142E+02  0.2691E+02  0.1299E+03  0.1293E+03
      0.504  0.2328E+02  0.2730E+02  0.1314E+03  0.1310E+03
      0.567  0.2548E+02  0.2392E+02  0.1330E+03  0.1325E+03
      0.630  0.3396E+02  0.3561E+02  0.1351E+03  0.1348E+03
      0.692  0.1448E+02  0.1677E+02  0.1360E+03  0.1358E+03
      0.755  0.2048E+02  0.1793E+02  0.1373E+03  0.1369E+03
      0.818  0.1899E+02  0.2156E+02  0.1385E+03  0.1383E+03
      0.881  0.2348E+02  0.1999E+02  0.1400E+03  0.1395E+03
      0.944  0.3397E+02  0.3279E+02  0.1421E+03  0.1416E+03
      1.006  0.2244E+02  0.2661E+02  0.1435E+03  0.1433E+03
      1.069  0.2584E+02  0.2357E+02  0.1451E+03  0.1448E+03
      1.132  0.2511E+02  0.2478E+02  0.1467E+03  0.1463E+03
      1.195  0.2728E+02  0.2865E+02  0.1484E+03  0.1481E+03
      1.258  0.2784E+02  0.2268E+02  0.1502E+03  0.1495E+03
      1.320  0.2913E+02  0.3566E+02  0.1520E+03  0.1518E+03
      1.383  0.2879E+02  0.2396E+02  0.1538E+03  0.1533E+03
      1.446  0.2496E+02  0.2912E+02  0.1554E+03  0.1551E+03
      1.509  0.2403E+02  0.2167E+02  0.1569E+03  0.1565E+03
      1.572  0.2527E+02  0.2582E+02  0.1585E+03  0.1581E+03
      1.634  0.1922E+02  0.1906E+02  0.1597E+03  0.1593E+03
      1.697  0.2761E+02  0.2362E+02  0.1614E+03  0.1608E+03
      1.760  0.1604E+02  0.2289E+02  0.1624E+03  0.1622E+03
      1.823  0.2784E+02  0.2419E+02  0.1642E+03  0.1637E+03
      1.886  0.2011E+02  0.2430E+02  0.1654E+03  0.1653E+03
      1.948  0.1722E+02  0.1329E+02  0.1665E+03  0.1661E+03
      2.011  0.1404E+02  0.1891E+02  0.1674E+03  0.1673E+03
      2.074  0.1902E+02  0.1849E+02  0.1686E+03  0.1684E+03
      2.137  0.1463E+02  0.1401E+02  0.1695E+03  0.1693E+03
      2.200  0.2197E+02  0.1786E+02  0.1709E+03  0.1704E+03
      2.262  0.2752E+02  0.3081E+02  0.1726E+03  0.1724E+03
      2.325  0.1574E+02  0.1673E+02  0.1736E+03  0.1734E+03
      2.388  0.1022E+02  0.1105E+02  0.1743E+03  0.1741E+03
      2.451  0.1949E+02  0.1628E+02  0.1755E+03  0.1751E+03
      2.513  0.1634E+02  0.1611E+02  0.1765E+03  0.1762E+03
      2.576  0.1922E+02  0.1986E+02  0.1777E+03  0.1774E+03
      2.639  0.1894E+02  0.1526E+02  0.1789E+03  0.1784E+03
      2.702  0.1964E+02  0.1649E+02  0.1801E+03  0.1794E+03
      2.765  0.9695E+01  0.1813E+02  0.1808E+03  0.1805E+03
      2.827  0.1659E+02  0.1312E+02  0.1818E+03  0.1814E+03
      2.890  0.2138E+02  0.1398E+02  0.1831E+03  0.1822E+03
      2.953  0.1915E+02  0.2321E+02  0.1843E+03  0.1837E+03
      3.016  0.1154E+02  0.1557E+02  0.1851E+03  0.1847E+03
      3.079  0.1894E+02  0.1456E+02  0.1863E+03  0.1856E+03
      3.141  0.1547E+02  0.1701E+02  0.1872E+03  0.1867E+03
      3.204  0.2052E+02  0.2125E+02  0.1885E+03  0.1880E+03
      3.267  0.1137E+02  0.1699E+02  0.1892E+03  0.1891E+03
      3.330  0.1196E+02  0.7366E+01  0.1900E+03  0.1895E+03
      3.393  0.8817E+01  0.9442E+01  0.1905E+03  0.1901E+03
      3.455  0.1779E+02  0.1349E+02  0.1917E+03  0.1910E+03
      3.518  0.2134E+02  0.1642E+02  0.1930E+03  0.1920E+03
      3.581  0.1077E+02  0.2407E+02  0.1937E+03  0.1935E+03
      3.644  0.1775E+02  0.7465E+01  0.1948E+03  0.1940E+03
      3.707  0.2279E+02  0.2891E+02  0.1962E+03  0.1958E+03
      3.769  0.1338E+02  0.1389E+02  0.1971E+03  0.1967E+03
      3.832  0.8291E+01  0.9383E+01  0.1976E+03  0.1973E+03
      3.895  0.1962E+02  0.1419E+02  0.1988E+03  0.1981E+03
      3.958  0.2037E+02  0.2045E+02  0.2001E+03  0.1994E+03
      4.021  0.2053E+02  0.1924E+02  0.2014E+03  0.2006E+03
      4.083  0.2180E+02  0.2294E+02  0.2027E+03  0.2021E+03
      4.146  0.1300E+02  0.1952E+02  0.2036E+03  0.2033E+03
      4.209  0.1088E+02  0.8482E+01  0.2042E+03  0.2038E+03
      4.272  0.1664E+02  0.1692E+02  0.2053E+03  0.2049E+03
      4.335  0.2829E+02  0.2277E+02  0.2071E+03  0.2063E+03
      4.397  0.1431E+02  0.2157E+02  0.2080E+03  0.2077E+03
      4.460  0.1473E+02  0.1457E+02  0.2089E+03  0.2086E+03
      4.523  0.2073E+02  0.1233E+02  0.2102E+03  0.2094E+03
      4.586  0.3392E+02  0.3222E+02  0.2123E+03  0.2114E+03
      4.649  0.1464E+02  0.2368E+02  0.2132E+03  0.2129E+03
      4.711  0.2306E+02  0.1341E+02  0.2147E+03  0.2137E+03
      4.774  0.1901E+02  0.2668E+02  0.2159E+03  0.2154E+03
      4.837  0.3327E+02  0.3062E+02  0.2180E+03  0.2173E+03
      4.900  0.1238E+02  0.2048E+02  0.2188E+03  0.2186E+03
      4.963  0.1464E+02  0.9857E+01  0.2197E+03  0.2192E+03
      5.025  0.1755E+02  0.2102E+02  0.2208E+03  0.2206E+03
      5.088  0.2829E+02  0.2078E+02  0.2226E+03  0.2219E+03
      5.151  0.2176E+02  0.2222E+02  0.2239E+03  0.2233E+03
      5.214  0.2248E+02  0.2639E+02  0.2253E+03  0.2249E+03
      5.277  0.2758E+02  0.2479E+02  0.2271E+03  0.2265E+03
      5.339  0.1941E+02  0.2677E+02  0.2283E+03  0.2282E+03
      5.402  0.5187E+01  0.5753E+01  0.2286E+03  0.2285E+03
      5.465  0.1776E+02  0.1369E+02  0.2297E+03  0.2294E+03
      5.528  0.1560E+02  0.1600E+02  0.2307E+03  0.2304E+03
      5.591  0.9860E+01  0.1266E+02  0.2313E+03  0.2312E+03
      5.653  0.4963E+01  0.7856E+01  0.2316E+03  0.2317E+03
      5.716  0.2183E+01  0.1769E+01  0.2318E+03  0.2318E+03
      5.779  0.2778E+01  0.1669E-01  0.2320E+03  0.2318E+03
      5.842  0.7604E+00  0.3522E+01  0.2320E+03  0.2320E+03
      5.904  0.0000E+00  0.0000E+00  0.2320E+03  0.2320E+03
      5.967  0.0000E+00  0.0000E+00  0.2320E+03  0.2320E+03
      6.030  0.0000E+00  0.0000E+00  0.2320E+03  0.2320E+03
      6.093  0.0000E+00  0.0000E+00  0.2320E+03  0.2320E+03
      6.156  0.0000E+00  0.0000E+00  0.2320E+03  0.2320E+03
      6.218  0.0000E+00  0.0000E+00  0.2320E+03  0.2320E+03
      6.281  0.0000E+00  0.0000E+00  0.2320E+03  0.2320E+03
      6.344  0.0000E+00  0.0000E+00  0.2320E+03  0.2320E+03
      6.407  0.0000E+00  0.0000E+00  0.2320E+03  0.2320E+03
      6.470  0.0000E+00  0.0000E+00  0.2320E+03  0.2320E+03
      6.532  0.0000E+00  0.0000E+00  0.2320E+03  0.2320E+03
      6.595  0.0000E+00  0.0000E+00  0.2320E+03  0.2320E+03
      6.658  0.0000E+00  0.0000E+00  0.2320E+03  0.2320E+03
