Si and Ge interface calculation         
           1
     8.001338    0.000000    0.000000
    -4.000669   12.002007    0.000000
     0.000000    0.000000   11.611744
   Ge
    48
Direct configuration=     1
   0.00569449  0.99430549  0.00000000
   0.17236120  0.82763886  0.24362403
   0.33902791  0.66097212  0.48724809
   0.67236108  0.32763880  0.00000000
   0.83902776  0.16097212  0.24362403
   0.00569451  0.99430543  0.48724809
   0.33902776  0.66097212  0.00000000
   0.50569445  0.49430540  0.24362403
   0.67236120  0.32763875  0.48724809
   0.08902784  0.16097215  0.12181202
   0.25569457  0.99430543  0.36543608
   0.42236128  0.82763875  0.60906023
   0.75569439  0.49430546  0.12181202
   0.92236120  0.32763880  0.36543608
   0.08902788  0.16097209  0.60906023
   0.42236105  0.82763880  0.12181202
   0.58902782  0.66097218  0.36543608
   0.75569451  0.49430546  0.60906023
   0.50569445  0.99430549  0.00000000
   0.67236114  0.82763886  0.24362403
   0.83902788  0.66097212  0.48724809
   0.17236112  0.32763880  0.00000000
   0.33902785  0.16097213  0.24362403
   0.50569457  0.99430543  0.48724809
   0.83902776  0.66097212  0.00000000
   0.00569451  0.49430543  0.24362403
   0.17236114  0.32763875  0.48724809
   0.58902782  0.16097215  0.12181202
   0.75569457  0.99430549  0.36543608
   0.92236131  0.82763880  0.60906023
   0.25569448  0.49430549  0.12181202
   0.42236125  0.32763884  0.36543608
   0.58902800  0.16097212  0.60906023
   0.92236108  0.82763886  0.12181202
   0.08902776  0.66097212  0.36543608
   0.25569451  0.49430543  0.60906023
   0.16659999  0.77256989  0.70302004
   0.05548882  0.05034769  0.78422809
   0.94437766  0.32812548  0.86543614
   0.66659987  0.77256989  0.70302004
   0.55548876  0.05034769  0.78422809
   0.44437760  0.32812548  0.86543614
   0.86104429  0.66145873  0.74362409
   0.74993312  0.93923652  0.82483214
   0.63882190  0.21701431  0.90604019
   0.36104429  0.66145873  0.74362415
   0.24993321  0.93923652  0.82483214
   0.13882208  0.21701431  0.90604019
