Si and Ge interface calculation         
           1
    11.239624    0.000000    0.000000
   -11.239625   15.895229    0.000000
     0.000000    0.000000   22.942791
   Sn
   144
Direct configuration=     1
   0.98202050  0.98202050  0.00000000
   0.73202050  0.73202044  0.09999999
   0.48202038  0.48202026  0.20000003
   0.23202032  0.23202014  0.29999998
   0.98202026  0.98202014  0.40000001
   0.73202026  0.73202002  0.50000006
   0.98202050  0.31535384  0.00000000
   0.73202050  0.06535379  0.09999999
   0.48202038  0.81535363  0.20000003
   0.23202032  0.56535351  0.29999998
   0.98202026  0.31535351  0.40000001
   0.73202026  0.06535339  0.50000006
   0.98202050  0.64868718  0.00000000
   0.73202050  0.39868712  0.09999999
   0.48202038  0.14868700  0.20000003
   0.23202032  0.89868689  0.29999998
   0.98202026  0.64868689  0.40000001
   0.73202026  0.39868677  0.50000006
   0.48202050  0.14868717  0.00000000
   0.23202048  0.89868712  0.09999999
   0.98202038  0.64868700  0.20000000
   0.73202038  0.39868683  0.29999998
   0.48202032  0.14868677  0.40000001
   0.23202026  0.89868665  0.50000006
   0.48202050  0.48202047  0.00000000
   0.23202048  0.23202044  0.09999999
   0.98202038  0.98202032  0.20000000
   0.73202038  0.73202020  0.29999998
   0.48202032  0.48202014  0.40000001
   0.23202026  0.23202008  0.50000006
   0.48202050  0.81535387  0.00000000
   0.23202048  0.56535375  0.09999999
   0.98202038  0.31535369  0.20000000
   0.73202038  0.06535359  0.29999998
   0.48202032  0.81535351  0.40000001
   0.23202026  0.56535339  0.50000006
   0.73202050  0.14868715  0.00000001
   0.48202047  0.89868712  0.10000000
   0.23202039  0.64868700  0.20000003
   0.98202032  0.39868689  0.30000004
   0.73202026  0.14868683  0.40000004
   0.48202026  0.89868677  0.50000006
   0.73202050  0.48202047  0.00000001
   0.48202047  0.23202045  0.10000000
   0.23202039  0.98202032  0.20000003
   0.98202032  0.73202026  0.30000004
   0.73202026  0.48202014  0.40000004
   0.48202026  0.23202002  0.50000006
   0.73202050  0.81535387  0.00000001
   0.48202047  0.56535387  0.10000000
   0.23202039  0.31535372  0.20000003
   0.98202032  0.06535360  0.30000004
   0.73202026  0.81535357  0.40000004
   0.48202026  0.56535345  0.50000006
   0.23202050  0.98202050  0.00000000
   0.98202050  0.73202050  0.10000000
   0.73202038  0.48202032  0.20000003
   0.48202026  0.23202020  0.30000004
   0.23202032  0.98202014  0.40000001
   0.98202026  0.73202002  0.50000006
   0.23202050  0.31535381  0.00000000
   0.98202050  0.06535377  0.10000000
   0.73202038  0.81535363  0.20000003
   0.48202026  0.56535351  0.30000004
   0.23202032  0.31535345  0.40000001
   0.98202026  0.06535339  0.50000006
   0.23202050  0.64868724  0.00000000
   0.98202050  0.39868709  0.10000000
   0.73202038  0.14868699  0.20000003
   0.48202026  0.89868689  0.30000004
   0.23202032  0.64868689  0.40000001
   0.98202026  0.39868677  0.50000006
   0.30336741  0.66067350  0.50000006
   0.88670063  0.57734007  0.60000008
   0.47003382  0.49400663  0.70000005
   0.05336684  0.41067320  0.80000007
   0.63670003  0.32733977  0.90000004
   0.22003329  0.24400637  0.00000012
   0.63670081  0.32734016  0.50000006
   0.22003405  0.24400674  0.60000002
   0.80336720  0.16067331  0.70000005
   0.38670027  0.07733985  0.80000007
   0.97003341  0.99400645  0.90000004
   0.55336654  0.91067302  0.00000012
   0.97003412  0.99400681  0.50000006
   0.55336732  0.91067338  0.60000002
   0.13670051  0.82733995  0.70000005
   0.72003353  0.74400652  0.80000007
   0.30336678  0.66067308  0.90000004
   0.88669992  0.57733965  0.00000012
   0.13670076  0.82734019  0.50000006
   0.72003394  0.74400675  0.60000002
   0.30336714  0.66067332  0.70000005
   0.88670015  0.57733989  0.80000007
   0.47003341  0.49400643  0.90000004
   0.05336654  0.41067305  0.00000012
   0.47003412  0.49400681  0.50000006
   0.05336733  0.41067338  0.60000008
   0.63670051  0.32733995  0.70000005
   0.22003353  0.24400650  0.80000007
   0.80336666  0.16067307  0.90000004
   0.38669992  0.07733969  0.00000012
   0.80336750  0.16067348  0.50000006
   0.38670072  0.07734007  0.60000002
   0.97003388  0.99400663  0.70000005
   0.55336690  0.91067320  0.80000007
   0.13670009  0.82733977  0.90000004
   0.72003329  0.74400634  0.00000012
   0.38670081  0.82734019  0.50000006
   0.97003400  0.74400681  0.60000002
   0.55336714  0.66067332  0.70000005
   0.13670021  0.57733989  0.80000007
   0.72003341  0.49400643  0.90000004
   0.30336666  0.41067302  0.00000012
   0.72003424  0.49400681  0.50000006
   0.30336741  0.41067341  0.60000008
   0.88670057  0.32733998  0.70000005
   0.47003359  0.24400652  0.80000007
   0.05336678  0.16067308  0.90000004
   0.63670003  0.07733965  0.00000012
   0.05336745  0.16067347  0.50000006
   0.63670063  0.07734004  0.60000002
   0.22003382  0.99400663  0.70000005
   0.80336690  0.91067314  0.80000007
   0.38670003  0.82733971  0.90000004
   0.97003341  0.74400634  0.00000012
   0.55336756  0.66067344  0.50000006
   0.13670076  0.57734007  0.60000008
   0.72003388  0.49400663  0.70000011
   0.30336696  0.41067317  0.80000007
   0.88670015  0.32733974  0.90000004
   0.47003329  0.24400632  0.00000012
   0.88670075  0.32734010  0.50000006
   0.47003400  0.24400671  0.60000002
   0.05336712  0.16067326  0.70000005
   0.63670015  0.07733981  0.80000007
   0.22003335  0.99400639  0.90000004
   0.80336654  0.91067290  0.00000012
   0.22003418  0.99400681  0.50000006
   0.80336738  0.91067338  0.60000002
   0.38670051  0.82734001  0.70000005
   0.97003353  0.74400652  0.80000007
   0.55336678  0.66067314  0.90000004
   0.13670015  0.57733965  0.00000012
