 144 144   0   0
  0.2809490E+02  0.1086200E-08  0.1629300E-08  0.2286015E-08  0.5000000E-15
  1.000000000000000E-004
  CAR 
 Si and Ge interface calculation         
      6.78231045     -8.40266381  301      4.02986486      1.00000000
     -8.403  0.0000E+00  0.0000E+00  0.0000E+00  0.0000E+00
     -8.352  0.0000E+00  0.0000E+00  0.0000E+00  0.0000E+00
     -8.301  0.0000E+00  0.0000E+00  0.0000E+00  0.0000E+00
     -8.251  0.0000E+00  0.0000E+00  0.0000E+00  0.0000E+00
     -8.200  0.0000E+00  0.0000E+00  0.0000E+00  0.0000E+00
     -8.150  0.0000E+00  0.0000E+00  0.0000E+00  0.0000E+00
     -8.099  0.0000E+00  0.0000E+00  0.0000E+00  0.0000E+00
     -8.048  0.0000E+00  0.0000E+00  0.0000E+00  0.0000E+00
     -7.998  0.0000E+00  0.0000E+00  0.0000E+00  0.0000E+00
     -7.947  0.0000E+00  0.0000E+00  0.0000E+00  0.0000E+00
     -7.896  0.0000E+00  0.0000E+00  0.0000E+00  0.0000E+00
     -7.846  0.0000E+00  0.0000E+00  0.0000E+00  0.0000E+00
     -7.795  0.0000E+00  0.0000E+00  0.0000E+00  0.0000E+00
     -7.745  0.1723E-04  0.4502E-06  0.8720E-06  0.2279E-07
     -7.694  0.6555E+01  0.6391E+01  0.3318E+00  0.3235E+00
     -7.643  0.3043E-01  0.1941E+00  0.3333E+00  0.3333E+00
     -7.593  0.1697E+02  0.9619E+01  0.1192E+01  0.8202E+00
     -7.542  0.9372E+01  0.1672E+02  0.1667E+01  0.1667E+01
     -7.492  0.2019E+01  0.4250E+00  0.1769E+01  0.1688E+01
     -7.441  0.2432E+02  0.2592E+02  0.3000E+01  0.3000E+01
     -7.390  0.0000E+00  0.0000E+00  0.3000E+01  0.3000E+01
     -7.340  0.0000E+00  0.0000E+00  0.3000E+01  0.3000E+01
     -7.289  0.1571E-02  0.6302E-04  0.3000E+01  0.3000E+01
     -7.238  0.2060E+02  0.1989E+02  0.4043E+01  0.4007E+01
     -7.188  0.5745E+01  0.6452E+01  0.4333E+01  0.4333E+01
     -7.137  0.1962E+02  0.1336E+02  0.5327E+01  0.5010E+01
     -7.087  0.3239E+02  0.3718E+02  0.6966E+01  0.6892E+01
     -7.036  0.6710E+00  0.2141E+01  0.7000E+01  0.7000E+01
     -6.985  0.0000E+00  0.0000E+00  0.7000E+01  0.7000E+01
     -6.935  0.0000E+00  0.0000E+00  0.7000E+01  0.7000E+01
     -6.884  0.0000E+00  0.0000E+00  0.7000E+01  0.7000E+01
     -6.834  0.1403E+01  0.3300E+00  0.7071E+01  0.7017E+01
     -6.783  0.2857E+02  0.2640E+02  0.8517E+01  0.8353E+01
     -6.732  0.3025E+01  0.6201E+01  0.8670E+01  0.8667E+01
     -6.682  0.2919E+02  0.2249E+02  0.1015E+02  0.9805E+01
     -6.631  0.2340E+02  0.3005E+02  0.1133E+02  0.1133E+02
     -6.580  0.2856E+02  0.2481E+02  0.1278E+02  0.1258E+02
     -6.530  0.5009E+02  0.5278E+02  0.1531E+02  0.1525E+02
     -6.479  0.6976E+01  0.8124E+01  0.1567E+02  0.1566E+02
     -6.429  0.9236E-01  0.4144E-01  0.1567E+02  0.1567E+02
     -6.378  0.3842E+02  0.3257E+02  0.1762E+02  0.1732E+02
     -6.327  0.1427E+02  0.2012E+02  0.1834E+02  0.1833E+02
     -6.277  0.5772E+02  0.5192E+02  0.2126E+02  0.2096E+02
     -6.226  0.6906E+02  0.7373E+02  0.2475E+02  0.2469E+02
     -6.176  0.4850E+01  0.6052E+01  0.2500E+02  0.2500E+02
     -6.125  0.4750E-02  0.8182E-04  0.2500E+02  0.2500E+02
     -6.074  0.1446E+02  0.1335E+02  0.2573E+02  0.2568E+02
     -6.024  0.2505E+02  0.2613E+02  0.2700E+02  0.2700E+02
     -5.973  0.2786E+02  0.2321E+02  0.2841E+02  0.2817E+02
     -5.922  0.3838E+02  0.3544E+02  0.3035E+02  0.2997E+02
     -5.872  0.6379E+02  0.5801E+02  0.3358E+02  0.3290E+02
     -5.821  0.7356E+02  0.7232E+02  0.3731E+02  0.3656E+02
     -5.771  0.1140E+03  0.1192E+03  0.4308E+02  0.4260E+02
     -5.720  0.6549E+02  0.6814E+02  0.4639E+02  0.4605E+02
     -5.669  0.1871E+02  0.2439E+02  0.4734E+02  0.4728E+02
     -5.619  0.5158E+02  0.5079E+02  0.4995E+02  0.4985E+02
     -5.568  0.3165E+02  0.2822E+02  0.5155E+02  0.5128E+02
     -5.518  0.4162E+02  0.3743E+02  0.5366E+02  0.5318E+02
     -5.467  0.4541E+02  0.4872E+02  0.5596E+02  0.5564E+02
     -5.416  0.8491E+02  0.8292E+02  0.6025E+02  0.5984E+02
     -5.366  0.6080E+02  0.6687E+02  0.6333E+02  0.6322E+02
     -5.315  0.2040E+02  0.2134E+02  0.6436E+02  0.6430E+02
     -5.264  0.5802E+02  0.5748E+02  0.6730E+02  0.6721E+02
     -5.214  0.4144E+02  0.3434E+02  0.6940E+02  0.6895E+02
     -5.163  0.2859E+02  0.3530E+02  0.7084E+02  0.7074E+02
     -5.113  0.2348E+02  0.2504E+02  0.7203E+02  0.7201E+02
     -5.062  0.7069E+02  0.6807E+02  0.7561E+02  0.7545E+02
     -5.011  0.1717E+02  0.1566E+02  0.7648E+02  0.7624E+02
     -4.961  0.8532E+02  0.7876E+02  0.8080E+02  0.8023E+02
     -4.910  0.1231E+03  0.1278E+03  0.8703E+02  0.8670E+02
     -4.860  0.4212E+02  0.4531E+02  0.8916E+02  0.8899E+02
     -4.809  0.6563E+02  0.6242E+02  0.9249E+02  0.9215E+02
     -4.758  0.5011E+02  0.5353E+02  0.9502E+02  0.9486E+02
     -4.708  0.7468E+02  0.7003E+02  0.9880E+02  0.9840E+02
     -4.657  0.1462E+02  0.2117E+02  0.9954E+02  0.9948E+02
     -4.606  0.2119E+02  0.2134E+02  0.1006E+03  0.1006E+03
     -4.556  0.4481E+02  0.4104E+02  0.1029E+03  0.1026E+03
     -4.505  0.6095E+02  0.6351E+02  0.1060E+03  0.1058E+03
     -4.455  0.4798E+02  0.4689E+02  0.1084E+03  0.1082E+03
     -4.404  0.2802E+02  0.2971E+02  0.1098E+03  0.1097E+03
     -4.353  0.2658E+02  0.2251E+02  0.1112E+03  0.1109E+03
     -4.303  0.3634E+02  0.4217E+02  0.1130E+03  0.1130E+03
     -4.252  0.5426E+02  0.5185E+02  0.1157E+03  0.1156E+03
     -4.201  0.5197E+02  0.4736E+02  0.1184E+03  0.1180E+03
     -4.151  0.5707E+02  0.6068E+02  0.1213E+03  0.1211E+03
     -4.100  0.8993E+01  0.8756E+01  0.1217E+03  0.1215E+03
     -4.050  0.7798E+02  0.6921E+02  0.1257E+03  0.1250E+03
     -3.999  0.5761E+02  0.6779E+02  0.1286E+03  0.1285E+03
     -3.948  0.2049E+02  0.1888E+02  0.1296E+03  0.1294E+03
     -3.898  0.2785E+02  0.2934E+02  0.1310E+03  0.1309E+03
     -3.847  0.3546E+02  0.3369E+02  0.1328E+03  0.1326E+03
     -3.797  0.4142E+02  0.4209E+02  0.1349E+03  0.1347E+03
     -3.746  0.5401E+02  0.5519E+02  0.1377E+03  0.1375E+03
     -3.695  0.1733E+02  0.1609E+02  0.1385E+03  0.1384E+03
     -3.645  0.2701E+02  0.2617E+02  0.1399E+03  0.1397E+03
     -3.594  0.1867E+02  0.1536E+02  0.1408E+03  0.1405E+03
     -3.543  0.4796E+02  0.4779E+02  0.1433E+03  0.1429E+03
     -3.493  0.4677E+02  0.4341E+02  0.1456E+03  0.1451E+03
     -3.442  0.6359E+02  0.6776E+02  0.1489E+03  0.1485E+03
     -3.392  0.4035E+02  0.4037E+02  0.1509E+03  0.1505E+03
     -3.341  0.1880E+02  0.2289E+02  0.1519E+03  0.1517E+03
     -3.290  0.2283E+02  0.2557E+02  0.1530E+03  0.1530E+03
     -3.240  0.4220E+02  0.3599E+02  0.1551E+03  0.1548E+03
     -3.189  0.1082E+02  0.1677E+02  0.1557E+03  0.1557E+03
     -3.139  0.3115E+02  0.2528E+02  0.1573E+03  0.1569E+03
     -3.088  0.3278E+02  0.3538E+02  0.1589E+03  0.1587E+03
     -3.037  0.2463E+02  0.1299E+02  0.1602E+03  0.1594E+03
     -2.987  0.1889E+02  0.3246E+02  0.1611E+03  0.1610E+03
     -2.936  0.3035E+02  0.3211E+02  0.1627E+03  0.1627E+03
     -2.885  0.4982E+02  0.3922E+02  0.1652E+03  0.1647E+03
     -2.835  0.2696E+02  0.3285E+02  0.1666E+03  0.1663E+03
     -2.784  0.4026E+02  0.3981E+02  0.1686E+03  0.1683E+03
     -2.734  0.5973E+02  0.5705E+02  0.1716E+03  0.1712E+03
     -2.683  0.7563E+02  0.7839E+02  0.1754E+03  0.1752E+03
     -2.632  0.6590E+02  0.5811E+02  0.1788E+03  0.1781E+03
     -2.582  0.3045E+02  0.3927E+02  0.1803E+03  0.1801E+03
     -2.531  0.7247E+02  0.7174E+02  0.1840E+03  0.1837E+03
     -2.481  0.5235E+02  0.5357E+02  0.1866E+03  0.1865E+03
     -2.430  0.7104E+02  0.6641E+02  0.1902E+03  0.1898E+03
     -2.379  0.4186E+02  0.4288E+02  0.1923E+03  0.1920E+03
     -2.329  0.5712E+02  0.6166E+02  0.1952E+03  0.1951E+03
     -2.278  0.5408E+02  0.5444E+02  0.1980E+03  0.1979E+03
     -2.227  0.4716E+02  0.4603E+02  0.2004E+03  0.2002E+03
     -2.177  0.7457E+02  0.6472E+02  0.2041E+03  0.2035E+03
     -2.126  0.3670E+02  0.4621E+02  0.2060E+03  0.2058E+03
     -2.076  0.5519E+02  0.5303E+02  0.2088E+03  0.2085E+03
     -2.025  0.6246E+02  0.6492E+02  0.2120E+03  0.2118E+03
     -1.974  0.7046E+02  0.6409E+02  0.2155E+03  0.2150E+03
     -1.924  0.6123E+02  0.6678E+02  0.2186E+03  0.2184E+03
     -1.873  0.4251E+02  0.4045E+02  0.2208E+03  0.2205E+03
     -1.823  0.3761E+02  0.4380E+02  0.2227E+03  0.2227E+03
     -1.772  0.2646E+02  0.2226E+02  0.2240E+03  0.2238E+03
     -1.721  0.1728E+02  0.1793E+02  0.2249E+03  0.2247E+03
     -1.671  0.4617E+02  0.3796E+02  0.2272E+03  0.2266E+03
     -1.620  0.8876E+02  0.8722E+02  0.2317E+03  0.2310E+03
     -1.569  0.3230E+02  0.4540E+02  0.2334E+03  0.2333E+03
     -1.519  0.9018E+01  0.7035E+01  0.2338E+03  0.2337E+03
     -1.468  0.3797E+02  0.3605E+02  0.2357E+03  0.2355E+03
     -1.418  0.3078E+02  0.3230E+02  0.2373E+03  0.2372E+03
     -1.367  0.1988E+02  0.1981E+02  0.2383E+03  0.2382E+03
     -1.316  0.4997E+02  0.4744E+02  0.2408E+03  0.2406E+03
     -1.266  0.5658E+02  0.6032E+02  0.2437E+03  0.2436E+03
     -1.215  0.2500E+02  0.2242E+02  0.2450E+03  0.2447E+03
     -1.164  0.3483E+02  0.3770E+02  0.2467E+03  0.2467E+03
     -1.114  0.5547E+02  0.5207E+02  0.2495E+03  0.2493E+03
     -1.063  0.1006E+02  0.1419E+02  0.2500E+03  0.2500E+03
     -1.013  0.5644E+02  0.4875E+02  0.2529E+03  0.2525E+03
     -0.962  0.2206E+02  0.3010E+02  0.2540E+03  0.2540E+03
     -0.911  0.1307E+02  0.1324E+02  0.2547E+03  0.2547E+03
     -0.861  0.1564E+02  0.1388E+02  0.2555E+03  0.2554E+03
     -0.810  0.1068E+02  0.1246E+02  0.2560E+03  0.2560E+03
     -0.760  0.2672E+02  0.2082E+02  0.2574E+03  0.2571E+03
     -0.709  0.1889E+02  0.2265E+02  0.2583E+03  0.2582E+03
     -0.658  0.6202E+02  0.5688E+02  0.2614E+03  0.2611E+03
     -0.608  0.5156E+02  0.5543E+02  0.2641E+03  0.2639E+03
     -0.557  0.3309E+02  0.3525E+02  0.2657E+03  0.2657E+03
     -0.506  0.1188E+02  0.1311E+02  0.2663E+03  0.2663E+03
     -0.456  0.1379E+02  0.1308E+02  0.2670E+03  0.2670E+03
     -0.405  0.1914E+02  0.1985E+02  0.2680E+03  0.2680E+03
     -0.355  0.5590E+01  0.2359E+01  0.2683E+03  0.2681E+03
     -0.304  0.3841E+02  0.2757E+02  0.2702E+03  0.2695E+03
     -0.253  0.4161E+02  0.5563E+02  0.2723E+03  0.2723E+03
     -0.203  0.1975E+02  0.1963E+02  0.2733E+03  0.2733E+03
     -0.152  0.6577E+01  0.6306E+01  0.2737E+03  0.2736E+03
     -0.102  0.7390E+01  0.2445E+01  0.2740E+03  0.2738E+03
     -0.051  0.4531E+02  0.5070E+02  0.2763E+03  0.2763E+03
     -0.000  0.2368E+02  0.1790E+02  0.2775E+03  0.2772E+03
      0.050  0.2018E+02  0.2412E+02  0.2786E+03  0.2785E+03
      0.101  0.7329E+02  0.6443E+02  0.2823E+03  0.2817E+03
      0.152  0.3753E+02  0.4128E+02  0.2842E+03  0.2838E+03
      0.202  0.9289E+02  0.9045E+02  0.2889E+03  0.2884E+03
      0.253  0.5986E+02  0.6154E+02  0.2919E+03  0.2915E+03
      0.303  0.7131E+02  0.7455E+02  0.2955E+03  0.2953E+03
      0.354  0.2915E+02  0.3124E+02  0.2970E+03  0.2969E+03
      0.405  0.6778E+01  0.6778E+01  0.2973E+03  0.2972E+03
      0.455  0.6738E+02  0.6386E+02  0.3007E+03  0.3004E+03
      0.506  0.7054E+02  0.6850E+02  0.3043E+03  0.3039E+03
      0.556  0.5398E+02  0.5659E+02  0.3070E+03  0.3068E+03
      0.607  0.5696E+02  0.5481E+02  0.3099E+03  0.3095E+03
      0.658  0.6647E+02  0.6987E+02  0.3133E+03  0.3131E+03
      0.708  0.6969E+02  0.6066E+02  0.3168E+03  0.3161E+03
      0.759  0.9052E+02  0.9845E+02  0.3214E+03  0.3211E+03
      0.810  0.9490E+02  0.8355E+02  0.3262E+03  0.3254E+03
      0.860  0.7874E+02  0.8438E+02  0.3302E+03  0.3296E+03
      0.911  0.9117E+02  0.9460E+02  0.3348E+03  0.3344E+03
      0.961  0.7928E+02  0.6908E+02  0.3388E+03  0.3379E+03
      1.012  0.1335E+03  0.1407E+03  0.3456E+03  0.3450E+03
      1.063  0.8943E+02  0.8254E+02  0.3501E+03  0.3492E+03
      1.113  0.1304E+03  0.1416E+03  0.3567E+03  0.3564E+03
      1.164  0.1040E+03  0.9481E+02  0.3620E+03  0.3612E+03
      1.214  0.1133E+03  0.1130E+03  0.3677E+03  0.3669E+03
      1.265  0.7343E+02  0.8134E+02  0.3714E+03  0.3710E+03
      1.316  0.7788E+02  0.7777E+02  0.3754E+03  0.3750E+03
      1.366  0.7715E+02  0.7817E+02  0.3793E+03  0.3789E+03
      1.417  0.8221E+02  0.7083E+02  0.3834E+03  0.3825E+03
      1.468  0.9476E+02  0.1032E+03  0.3882E+03  0.3877E+03
      1.518  0.1062E+03  0.1080E+03  0.3936E+03  0.3932E+03
      1.569  0.1190E+03  0.1171E+03  0.3996E+03  0.3991E+03
      1.619  0.1084E+03  0.9879E+02  0.4051E+03  0.4041E+03
      1.670  0.1091E+03  0.1213E+03  0.4106E+03  0.4103E+03
      1.721  0.7853E+02  0.7934E+02  0.4146E+03  0.4143E+03
      1.771  0.1045E+03  0.1054E+03  0.4199E+03  0.4196E+03
      1.822  0.8387E+02  0.7458E+02  0.4241E+03  0.4234E+03
      1.873  0.1057E+03  0.1119E+03  0.4295E+03  0.4290E+03
      1.923  0.6224E+02  0.6465E+02  0.4326E+03  0.4323E+03
      1.974  0.9428E+02  0.9907E+02  0.4374E+03  0.4373E+03
      2.024  0.8401E+02  0.7750E+02  0.4416E+03  0.4413E+03
      2.075  0.1137E+03  0.1027E+03  0.4474E+03  0.4465E+03
      2.126  0.9941E+02  0.1124E+03  0.4524E+03  0.4521E+03
      2.176  0.8978E+02  0.8402E+02  0.4570E+03  0.4564E+03
      2.227  0.1121E+03  0.1203E+03  0.4627E+03  0.4625E+03
      2.277  0.4842E+02  0.4382E+02  0.4651E+03  0.4647E+03
      2.328  0.1161E+03  0.1175E+03  0.4710E+03  0.4706E+03
      2.379  0.9776E+02  0.9389E+02  0.4759E+03  0.4754E+03
      2.429  0.8274E+02  0.8539E+02  0.4801E+03  0.4797E+03
      2.480  0.7854E+02  0.7694E+02  0.4841E+03  0.4836E+03
      2.531  0.9232E+02  0.8618E+02  0.4888E+03  0.4880E+03
      2.581  0.1059E+03  0.1091E+03  0.4941E+03  0.4935E+03
      2.632  0.9011E+02  0.9235E+02  0.4987E+03  0.4982E+03
      2.682  0.7512E+02  0.7996E+02  0.5025E+03  0.5022E+03
      2.733  0.6428E+02  0.6083E+02  0.5057E+03  0.5053E+03
      2.784  0.7415E+02  0.6634E+02  0.5095E+03  0.5087E+03
      2.834  0.1058E+03  0.1054E+03  0.5149E+03  0.5140E+03
      2.885  0.8414E+02  0.8882E+02  0.5191E+03  0.5185E+03
      2.935  0.7824E+02  0.8507E+02  0.5231E+03  0.5228E+03
      2.986  0.4509E+02  0.4172E+02  0.5254E+03  0.5249E+03
      3.037  0.6961E+02  0.7051E+02  0.5289E+03  0.5285E+03
      3.087  0.6000E+02  0.6236E+02  0.5319E+03  0.5316E+03
      3.138  0.4695E+02  0.4477E+02  0.5343E+03  0.5339E+03
      3.189  0.2969E+02  0.3480E+02  0.5358E+03  0.5357E+03
      3.239  0.4288E+02  0.2957E+02  0.5380E+03  0.5372E+03
      3.290  0.4980E+02  0.5773E+02  0.5405E+03  0.5401E+03
      3.340  0.5787E+02  0.5626E+02  0.5434E+03  0.5429E+03
      3.391  0.5884E+02  0.5720E+02  0.5464E+03  0.5458E+03
      3.442  0.4345E+02  0.4465E+02  0.5486E+03  0.5481E+03
      3.492  0.3417E+02  0.2780E+02  0.5503E+03  0.5495E+03
      3.543  0.4839E+02  0.5954E+02  0.5528E+03  0.5525E+03
      3.593  0.4319E+02  0.3915E+02  0.5550E+03  0.5545E+03
      3.644  0.5339E+02  0.4747E+02  0.5577E+03  0.5569E+03
      3.695  0.6003E+02  0.5552E+02  0.5607E+03  0.5597E+03
      3.745  0.4418E+02  0.5115E+02  0.5629E+03  0.5623E+03
      3.796  0.4964E+02  0.4929E+02  0.5654E+03  0.5648E+03
      3.847  0.6255E+02  0.6452E+02  0.5686E+03  0.5681E+03
      3.897  0.2022E+02  0.2538E+02  0.5696E+03  0.5693E+03
      3.948  0.4091E+02  0.2778E+02  0.5717E+03  0.5707E+03
      3.998  0.5028E+02  0.5840E+02  0.5743E+03  0.5737E+03
      4.049  0.4333E+02  0.4440E+02  0.5764E+03  0.5759E+03
      4.100  0.4623E+02  0.4609E+02  0.5788E+03  0.5783E+03
      4.150  0.4486E+02  0.5175E+02  0.5811E+03  0.5809E+03
      4.201  0.2967E+02  0.1688E+02  0.5826E+03  0.5818E+03
      4.251  0.5977E+02  0.6521E+02  0.5856E+03  0.5851E+03
      4.302  0.2929E+02  0.3810E+02  0.5871E+03  0.5870E+03
      4.353  0.3384E+02  0.2271E+02  0.5888E+03  0.5881E+03
      4.403  0.3925E+02  0.4166E+02  0.5908E+03  0.5902E+03
      4.454  0.3812E+02  0.4299E+02  0.5927E+03  0.5924E+03
      4.505  0.2445E+02  0.1933E+02  0.5939E+03  0.5934E+03
      4.555  0.4151E+02  0.4706E+02  0.5960E+03  0.5958E+03
      4.606  0.4588E+02  0.4686E+02  0.5984E+03  0.5981E+03
      4.656  0.3356E+02  0.2722E+02  0.6001E+03  0.5995E+03
      4.707  0.5209E+02  0.6020E+02  0.6027E+03  0.6026E+03
      4.758  0.4942E+02  0.4457E+02  0.6052E+03  0.6048E+03
      4.808  0.4632E+02  0.3999E+02  0.6075E+03  0.6069E+03
      4.859  0.6131E+02  0.6580E+02  0.6106E+03  0.6102E+03
      4.909  0.6150E+02  0.6142E+02  0.6138E+03  0.6133E+03
      4.960  0.8268E+02  0.6804E+02  0.6179E+03  0.6167E+03
      5.011  0.4835E+02  0.6529E+02  0.6204E+03  0.6200E+03
      5.061  0.4472E+02  0.4636E+02  0.6226E+03  0.6224E+03
      5.112  0.5442E+02  0.4572E+02  0.6254E+03  0.6247E+03
      5.163  0.4673E+02  0.5052E+02  0.6278E+03  0.6273E+03
      5.213  0.4507E+02  0.4781E+02  0.6300E+03  0.6297E+03
      5.264  0.6578E+02  0.6222E+02  0.6334E+03  0.6328E+03
      5.314  0.8340E+02  0.8483E+02  0.6376E+03  0.6371E+03
      5.365  0.7922E+02  0.7647E+02  0.6416E+03  0.6410E+03
      5.416  0.7143E+02  0.7818E+02  0.6452E+03  0.6450E+03
      5.466  0.6335E+02  0.6323E+02  0.6484E+03  0.6482E+03
      5.517  0.7602E+02  0.7015E+02  0.6523E+03  0.6517E+03
      5.568  0.1092E+03  0.1016E+03  0.6578E+03  0.6568E+03
      5.618  0.9505E+02  0.1101E+03  0.6626E+03  0.6624E+03
      5.669  0.6838E+02  0.6778E+02  0.6661E+03  0.6659E+03
      5.719  0.9062E+02  0.8504E+02  0.6707E+03  0.6702E+03
      5.770  0.7978E+02  0.8351E+02  0.6747E+03  0.6744E+03
      5.821  0.7366E+02  0.7230E+02  0.6784E+03  0.6780E+03
      5.871  0.5006E+02  0.5144E+02  0.6810E+03  0.6806E+03
      5.922  0.1124E+03  0.1144E+03  0.6867E+03  0.6864E+03
      5.972  0.8934E+02  0.7644E+02  0.6912E+03  0.6903E+03
      6.023  0.5255E+02  0.5882E+02  0.6938E+03  0.6933E+03
      6.074  0.4227E+02  0.3697E+02  0.6960E+03  0.6952E+03
      6.124  0.4216E+00  0.1671E+02  0.6960E+03  0.6960E+03
      6.175  0.0000E+00  0.0000E+00  0.6960E+03  0.6960E+03
      6.226  0.0000E+00  0.0000E+00  0.6960E+03  0.6960E+03
      6.276  0.0000E+00  0.0000E+00  0.6960E+03  0.6960E+03
      6.327  0.0000E+00  0.0000E+00  0.6960E+03  0.6960E+03
      6.377  0.0000E+00  0.0000E+00  0.6960E+03  0.6960E+03
      6.428  0.0000E+00  0.0000E+00  0.6960E+03  0.6960E+03
      6.479  0.0000E+00  0.0000E+00  0.6960E+03  0.6960E+03
      6.529  0.0000E+00  0.0000E+00  0.6960E+03  0.6960E+03
      6.580  0.0000E+00  0.0000E+00  0.6960E+03  0.6960E+03
      6.630  0.0000E+00  0.0000E+00  0.6960E+03  0.6960E+03
      6.681  0.0000E+00  0.0000E+00  0.6960E+03  0.6960E+03
      6.732  0.0000E+00  0.0000E+00  0.6960E+03  0.6960E+03
      6.782  0.0000E+00  0.0000E+00  0.6960E+03  0.6960E+03
