 264 264   0   0
  0.2774202E+02  0.1958175E-08  0.1958175E-08  0.1910025E-08  0.5000000E-15
  1.000000000000000E-004
  CAR 
 Si and Ge interface calculation         
      6.63931853     -9.10813614  301      4.01909988      1.00000000
     -9.108  0.0000E+00  0.0000E+00  0.0000E+00  0.0000E+00
     -9.056  0.0000E+00  0.0000E+00  0.0000E+00  0.0000E+00
     -9.003  0.0000E+00  0.0000E+00  0.0000E+00  0.0000E+00
     -8.951  0.0000E+00  0.0000E+00  0.0000E+00  0.0000E+00
     -8.898  0.0000E+00  0.0000E+00  0.0000E+00  0.0000E+00
     -8.846  0.0000E+00  0.0000E+00  0.0000E+00  0.0000E+00
     -8.793  0.0000E+00  0.0000E+00  0.0000E+00  0.0000E+00
     -8.741  0.0000E+00  0.0000E+00  0.0000E+00  0.0000E+00
     -8.688  0.0000E+00  0.0000E+00  0.0000E+00  0.0000E+00
     -8.636  0.0000E+00  0.0000E+00  0.0000E+00  0.0000E+00
     -8.583  0.0000E+00  0.0000E+00  0.0000E+00  0.0000E+00
     -8.531  0.0000E+00  0.0000E+00  0.0000E+00  0.0000E+00
     -8.478  0.0000E+00  0.0000E+00  0.0000E+00  0.0000E+00
     -8.426  0.1088E-04  0.4430E-05  0.5710E-06  0.2325E-06
     -8.373  0.1351E+02  0.1265E+02  0.7089E+00  0.6639E+00
     -8.321  0.2460E+02  0.2545E+02  0.2000E+01  0.2000E+01
     -8.268  0.4094E-03  0.1784E-03  0.2000E+01  0.2000E+01
     -8.216  0.1818E+02  0.1786E+02  0.2954E+01  0.2937E+01
     -8.163  0.1076E+02  0.1096E+02  0.3519E+01  0.3512E+01
     -8.111  0.2161E+02  0.2119E+02  0.4653E+01  0.4625E+01
     -8.058  0.6610E+01  0.7149E+01  0.5000E+01  0.5000E+01
     -8.006  0.1451E+01  0.1034E+01  0.5076E+01  0.5054E+01
     -7.953  0.3301E+02  0.3266E+02  0.6809E+01  0.6768E+01
     -7.901  0.1450E+02  0.1479E+02  0.7570E+01  0.7545E+01
     -7.848  0.2350E+02  0.2273E+02  0.8803E+01  0.8738E+01
     -7.796  0.1402E+02  0.1497E+02  0.9539E+01  0.9524E+01
     -7.743  0.1829E+02  0.1856E+02  0.1050E+02  0.1050E+02
     -7.691  0.1896E+02  0.1890E+02  0.1149E+02  0.1149E+02
     -7.638  0.9828E+00  0.7571E+00  0.1155E+02  0.1153E+02
     -7.586  0.1955E+02  0.1929E+02  0.1257E+02  0.1254E+02
     -7.533  0.4578E+02  0.4594E+02  0.1498E+02  0.1495E+02
     -7.481  0.1001E+02  0.1041E+02  0.1550E+02  0.1550E+02
     -7.428  0.2618E+02  0.2550E+02  0.1687E+02  0.1684E+02
     -7.376  0.2390E+01  0.3068E+01  0.1700E+02  0.1700E+02
     -7.323  0.2851E+02  0.2847E+02  0.1850E+02  0.1849E+02
     -7.271  0.2691E+02  0.2462E+02  0.1991E+02  0.1979E+02
     -7.218  0.3242E+02  0.3302E+02  0.2161E+02  0.2152E+02
     -7.166  0.3995E+02  0.4070E+02  0.2371E+02  0.2366E+02
     -7.113  0.3302E+02  0.3201E+02  0.2544E+02  0.2534E+02
     -7.061  0.3218E+02  0.3262E+02  0.2713E+02  0.2705E+02
     -7.008  0.2063E+02  0.2116E+02  0.2821E+02  0.2816E+02
     -6.956  0.3125E+02  0.3129E+02  0.2985E+02  0.2980E+02
     -6.903  0.3754E+02  0.3720E+02  0.3182E+02  0.3175E+02
     -6.851  0.5345E+02  0.5401E+02  0.3463E+02  0.3459E+02
     -6.799  0.4772E+02  0.4775E+02  0.3713E+02  0.3710E+02
     -6.746  0.5641E+02  0.5520E+02  0.4010E+02  0.3999E+02
     -6.694  0.3833E+02  0.3765E+02  0.4211E+02  0.4197E+02
     -6.641  0.2651E+02  0.2912E+02  0.4350E+02  0.4350E+02
     -6.589  0.3175E+02  0.2984E+02  0.4517E+02  0.4507E+02
     -6.536  0.5154E+02  0.5178E+02  0.4787E+02  0.4778E+02
     -6.484  0.2391E+02  0.2334E+02  0.4913E+02  0.4901E+02
     -6.431  0.4883E+02  0.4954E+02  0.5169E+02  0.5161E+02
     -6.379  0.6112E+02  0.6038E+02  0.5490E+02  0.5478E+02
     -6.326  0.4935E+02  0.5105E+02  0.5749E+02  0.5746E+02
     -6.274  0.4136E+02  0.4096E+02  0.5966E+02  0.5961E+02
     -6.221  0.8241E+02  0.8258E+02  0.6399E+02  0.6394E+02
     -6.169  0.6142E+02  0.5934E+02  0.6721E+02  0.6706E+02
     -6.116  0.5522E+02  0.5756E+02  0.7011E+02  0.7008E+02
     -6.064  0.7382E+02  0.7009E+02  0.7398E+02  0.7376E+02
     -6.011  0.8501E+02  0.8554E+02  0.7845E+02  0.7825E+02
     -5.959  0.6968E+02  0.7117E+02  0.8210E+02  0.8198E+02
     -5.906  0.6162E+02  0.6155E+02  0.8534E+02  0.8522E+02
     -5.854  0.7409E+02  0.7201E+02  0.8923E+02  0.8900E+02
     -5.801  0.7642E+02  0.7659E+02  0.9324E+02  0.9302E+02
     -5.749  0.7659E+02  0.7779E+02  0.9726E+02  0.9710E+02
     -5.696  0.7673E+02  0.7680E+02  0.1013E+03  0.1011E+03
     -5.644  0.7550E+02  0.7386E+02  0.1052E+03  0.1050E+03
     -5.591  0.8249E+02  0.8516E+02  0.1096E+03  0.1095E+03
     -5.539  0.6253E+02  0.6257E+02  0.1129E+03  0.1128E+03
     -5.486  0.4867E+02  0.4751E+02  0.1154E+03  0.1153E+03
     -5.434  0.7011E+02  0.7082E+02  0.1191E+03  0.1190E+03
     -5.381  0.8255E+02  0.8068E+02  0.1234E+03  0.1232E+03
     -5.329  0.8079E+02  0.8228E+02  0.1277E+03  0.1275E+03
     -5.276  0.7708E+02  0.7554E+02  0.1317E+03  0.1315E+03
     -5.224  0.7106E+02  0.7276E+02  0.1354E+03  0.1353E+03
     -5.171  0.6256E+02  0.6200E+02  0.1387E+03  0.1386E+03
     -5.119  0.8651E+02  0.8594E+02  0.1433E+03  0.1431E+03
     -5.066  0.5681E+02  0.5732E+02  0.1463E+03  0.1461E+03
     -5.014  0.8947E+02  0.8895E+02  0.1509E+03  0.1508E+03
     -4.961  0.7301E+02  0.7408E+02  0.1548E+03  0.1546E+03
     -4.909  0.5663E+02  0.5631E+02  0.1578E+03  0.1576E+03
     -4.856  0.6590E+02  0.6525E+02  0.1612E+03  0.1610E+03
     -4.804  0.8487E+02  0.8475E+02  0.1657E+03  0.1655E+03
     -4.751  0.1221E+03  0.1200E+03  0.1721E+03  0.1718E+03
     -4.699  0.1246E+03  0.1262E+03  0.1786E+03  0.1784E+03
     -4.646  0.9703E+02  0.9792E+02  0.1837E+03  0.1835E+03
     -4.594  0.9441E+02  0.9215E+02  0.1887E+03  0.1884E+03
     -4.541  0.7954E+02  0.7844E+02  0.1928E+03  0.1925E+03
     -4.489  0.1141E+03  0.1128E+03  0.1988E+03  0.1984E+03
     -4.436  0.9402E+02  0.9401E+02  0.2038E+03  0.2033E+03
     -4.384  0.7696E+02  0.8089E+02  0.2078E+03  0.2076E+03
     -4.331  0.6922E+02  0.6873E+02  0.2114E+03  0.2112E+03
     -4.279  0.7423E+02  0.7328E+02  0.2153E+03  0.2150E+03
     -4.226  0.8488E+02  0.8561E+02  0.2198E+03  0.2195E+03
     -4.174  0.1068E+03  0.1054E+03  0.2254E+03  0.2251E+03
     -4.121  0.8222E+02  0.8395E+02  0.2297E+03  0.2295E+03
     -4.069  0.6395E+02  0.6406E+02  0.2331E+03  0.2328E+03
     -4.016  0.8383E+02  0.8271E+02  0.2375E+03  0.2372E+03
     -3.964  0.6629E+02  0.6652E+02  0.2409E+03  0.2407E+03
     -3.911  0.2668E+02  0.2940E+02  0.2423E+03  0.2422E+03
     -3.859  0.5510E+02  0.5136E+02  0.2452E+03  0.2449E+03
     -3.806  0.6094E+02  0.6232E+02  0.2484E+03  0.2482E+03
     -3.754  0.3810E+02  0.3900E+02  0.2504E+03  0.2502E+03
     -3.702  0.6218E+02  0.6180E+02  0.2537E+03  0.2535E+03
     -3.649  0.9390E+02  0.8972E+02  0.2586E+03  0.2582E+03
     -3.597  0.8082E+02  0.8305E+02  0.2629E+03  0.2625E+03
     -3.544  0.4955E+02  0.5147E+02  0.2655E+03  0.2652E+03
     -3.492  0.8912E+02  0.8763E+02  0.2702E+03  0.2698E+03
     -3.439  0.6992E+02  0.6974E+02  0.2738E+03  0.2735E+03
     -3.387  0.7237E+02  0.7135E+02  0.2776E+03  0.2773E+03
     -3.334  0.8987E+02  0.9339E+02  0.2823E+03  0.2822E+03
     -3.282  0.6553E+02  0.6122E+02  0.2858E+03  0.2854E+03
     -3.229  0.8346E+02  0.8716E+02  0.2902E+03  0.2899E+03
     -3.177  0.5650E+02  0.5816E+02  0.2931E+03  0.2930E+03
     -3.124  0.8961E+02  0.8733E+02  0.2978E+03  0.2976E+03
     -3.072  0.7586E+02  0.7225E+02  0.3018E+03  0.3014E+03
     -3.019  0.6386E+02  0.6586E+02  0.3052E+03  0.3048E+03
     -2.967  0.7470E+02  0.7475E+02  0.3091E+03  0.3088E+03
     -2.914  0.1017E+03  0.1021E+03  0.3144E+03  0.3141E+03
     -2.862  0.1027E+03  0.1011E+03  0.3198E+03  0.3194E+03
     -2.809  0.8546E+02  0.8749E+02  0.3243E+03  0.3240E+03
     -2.757  0.9606E+02  0.9468E+02  0.3293E+03  0.3290E+03
     -2.704  0.1029E+03  0.1027E+03  0.3347E+03  0.3344E+03
     -2.652  0.9827E+02  0.1012E+03  0.3399E+03  0.3397E+03
     -2.599  0.1029E+03  0.9991E+02  0.3453E+03  0.3449E+03
     -2.547  0.1130E+03  0.1135E+03  0.3512E+03  0.3509E+03
     -2.494  0.1119E+03  0.1098E+03  0.3571E+03  0.3567E+03
     -2.442  0.9891E+02  0.1017E+03  0.3623E+03  0.3620E+03
     -2.389  0.9894E+02  0.9675E+02  0.3675E+03  0.3671E+03
     -2.337  0.9048E+02  0.9451E+02  0.3722E+03  0.3720E+03
     -2.284  0.1167E+03  0.1127E+03  0.3784E+03  0.3780E+03
     -2.232  0.7848E+02  0.8323E+02  0.3825E+03  0.3823E+03
     -2.179  0.3599E+02  0.3757E+02  0.3844E+03  0.3843E+03
     -2.127  0.3051E+02  0.2763E+02  0.3860E+03  0.3857E+03
     -2.074  0.7537E+02  0.7603E+02  0.3899E+03  0.3897E+03
     -2.022  0.8324E+02  0.8144E+02  0.3943E+03  0.3940E+03
     -1.969  0.9341E+02  0.9442E+02  0.3992E+03  0.3990E+03
     -1.917  0.8161E+02  0.8073E+02  0.4035E+03  0.4032E+03
     -1.864  0.1021E+03  0.1037E+03  0.4088E+03  0.4086E+03
     -1.812  0.6189E+02  0.6104E+02  0.4121E+03  0.4118E+03
     -1.759  0.9943E+02  0.9603E+02  0.4173E+03  0.4169E+03
     -1.707  0.1059E+03  0.1060E+03  0.4229E+03  0.4225E+03
     -1.654  0.8261E+02  0.8468E+02  0.4272E+03  0.4269E+03
     -1.602  0.6458E+02  0.6501E+02  0.4306E+03  0.4303E+03
     -1.549  0.1188E+03  0.1211E+03  0.4368E+03  0.4367E+03
     -1.497  0.5168E+02  0.4732E+02  0.4396E+03  0.4392E+03
     -1.444  0.4506E+02  0.4893E+02  0.4419E+03  0.4417E+03
     -1.392  0.5718E+02  0.5488E+02  0.4449E+03  0.4446E+03
     -1.339  0.7143E+02  0.6986E+02  0.4487E+03  0.4483E+03
     -1.287  0.4036E+02  0.4556E+02  0.4508E+03  0.4507E+03
     -1.234  0.6315E+02  0.5910E+02  0.4541E+03  0.4538E+03
     -1.182  0.5437E+02  0.5883E+02  0.4570E+03  0.4569E+03
     -1.129  0.5951E+02  0.5908E+02  0.4601E+03  0.4600E+03
     -1.077  0.5209E+02  0.4970E+02  0.4628E+03  0.4626E+03
     -1.024  0.5113E+02  0.5068E+02  0.4655E+03  0.4652E+03
     -0.972  0.3604E+02  0.3945E+02  0.4674E+03  0.4673E+03
     -0.919  0.3159E+02  0.2929E+02  0.4690E+03  0.4688E+03
     -0.867  0.7009E+02  0.7133E+02  0.4727E+03  0.4726E+03
     -0.814  0.7201E+02  0.7053E+02  0.4765E+03  0.4763E+03
     -0.762  0.4649E+02  0.4987E+02  0.4789E+03  0.4789E+03
     -0.709  0.5481E+02  0.4998E+02  0.4818E+03  0.4815E+03
     -0.657  0.8387E+02  0.8786E+02  0.4862E+03  0.4861E+03
     -0.605  0.3680E+02  0.3691E+02  0.4882E+03  0.4881E+03
     -0.552  0.2329E+02  0.2362E+02  0.4894E+03  0.4893E+03
     -0.500  0.1823E+02  0.1868E+02  0.4903E+03  0.4903E+03
     -0.447  0.3542E+02  0.3503E+02  0.4922E+03  0.4921E+03
     -0.395  0.3246E+02  0.3190E+02  0.4939E+03  0.4938E+03
     -0.342  0.6582E+02  0.6437E+02  0.4974E+03  0.4972E+03
     -0.290  0.7116E+02  0.7222E+02  0.5011E+03  0.5010E+03
     -0.237  0.8195E+02  0.8058E+02  0.5054E+03  0.5052E+03
     -0.185  0.1016E+03  0.1002E+03  0.5107E+03  0.5105E+03
     -0.132  0.1054E+03  0.1054E+03  0.5163E+03  0.5160E+03
     -0.080  0.1302E+03  0.1292E+03  0.5231E+03  0.5228E+03
     -0.027  0.9777E+02  0.9998E+02  0.5282E+03  0.5280E+03
      0.025  0.1155E+03  0.1123E+03  0.5343E+03  0.5339E+03
      0.078  0.1163E+03  0.1198E+03  0.5404E+03  0.5402E+03
      0.130  0.1213E+03  0.1192E+03  0.5468E+03  0.5465E+03
      0.183  0.1086E+03  0.1105E+03  0.5525E+03  0.5523E+03
      0.235  0.5586E+02  0.5621E+02  0.5554E+03  0.5552E+03
      0.288  0.1016E+03  0.9800E+02  0.5607E+03  0.5604E+03
      0.340  0.9564E+02  0.9951E+02  0.5657E+03  0.5656E+03
      0.393  0.9084E+02  0.8635E+02  0.5705E+03  0.5701E+03
      0.445  0.9473E+02  0.1002E+03  0.5755E+03  0.5754E+03
      0.498  0.7561E+02  0.7491E+02  0.5795E+03  0.5793E+03
      0.550  0.1241E+03  0.1208E+03  0.5860E+03  0.5856E+03
      0.603  0.1390E+03  0.1400E+03  0.5933E+03  0.5930E+03
      0.655  0.1054E+03  0.1045E+03  0.5988E+03  0.5985E+03
      0.708  0.1590E+03  0.1594E+03  0.6071E+03  0.6068E+03
      0.760  0.1264E+03  0.1258E+03  0.6138E+03  0.6134E+03
      0.813  0.1295E+03  0.1306E+03  0.6206E+03  0.6203E+03
      0.865  0.8520E+02  0.8446E+02  0.6250E+03  0.6247E+03
      0.918  0.1006E+03  0.1010E+03  0.6303E+03  0.6300E+03
      0.970  0.1307E+03  0.1297E+03  0.6372E+03  0.6368E+03
      1.023  0.9282E+02  0.9206E+02  0.6421E+03  0.6417E+03
      1.075  0.1628E+03  0.1609E+03  0.6506E+03  0.6501E+03
      1.128  0.1524E+03  0.1558E+03  0.6586E+03  0.6583E+03
      1.180  0.1877E+03  0.1853E+03  0.6685E+03  0.6680E+03
      1.233  0.1918E+03  0.1918E+03  0.6785E+03  0.6781E+03
      1.285  0.1551E+03  0.1522E+03  0.6867E+03  0.6861E+03
      1.338  0.2097E+03  0.2106E+03  0.6977E+03  0.6971E+03
      1.390  0.1512E+03  0.1528E+03  0.7056E+03  0.7052E+03
      1.443  0.1397E+03  0.1408E+03  0.7129E+03  0.7126E+03
      1.495  0.1806E+03  0.1765E+03  0.7224E+03  0.7218E+03
      1.548  0.1902E+03  0.1915E+03  0.7324E+03  0.7319E+03
      1.600  0.2086E+03  0.2084E+03  0.7434E+03  0.7428E+03
      1.653  0.1685E+03  0.1700E+03  0.7522E+03  0.7517E+03
      1.705  0.1990E+03  0.1982E+03  0.7626E+03  0.7621E+03
      1.758  0.1902E+03  0.1871E+03  0.7726E+03  0.7720E+03
      1.810  0.1685E+03  0.1711E+03  0.7815E+03  0.7809E+03
      1.863  0.1529E+03  0.1541E+03  0.7895E+03  0.7890E+03
      1.915  0.1787E+03  0.1762E+03  0.7989E+03  0.7983E+03
      1.968  0.2133E+03  0.2157E+03  0.8101E+03  0.8096E+03
      2.020  0.1594E+03  0.1598E+03  0.8184E+03  0.8180E+03
      2.073  0.2062E+03  0.2033E+03  0.8293E+03  0.8287E+03
      2.125  0.1747E+03  0.1752E+03  0.8384E+03  0.8379E+03
      2.178  0.1894E+03  0.1933E+03  0.8484E+03  0.8480E+03
      2.230  0.1330E+03  0.1277E+03  0.8554E+03  0.8547E+03
      2.283  0.1808E+03  0.1832E+03  0.8649E+03  0.8643E+03
      2.335  0.1348E+03  0.1321E+03  0.8719E+03  0.8713E+03
      2.388  0.1846E+03  0.1823E+03  0.8816E+03  0.8808E+03
      2.440  0.1818E+03  0.1904E+03  0.8912E+03  0.8908E+03
      2.492  0.1220E+03  0.1195E+03  0.8976E+03  0.8971E+03
      2.545  0.1437E+03  0.1439E+03  0.9051E+03  0.9046E+03
      2.597  0.1245E+03  0.1254E+03  0.9116E+03  0.9112E+03
      2.650  0.1463E+03  0.1444E+03  0.9193E+03  0.9188E+03
      2.702  0.1188E+03  0.1210E+03  0.9256E+03  0.9252E+03
      2.755  0.1480E+03  0.1386E+03  0.9333E+03  0.9324E+03
      2.807  0.1480E+03  0.1561E+03  0.9411E+03  0.9406E+03
      2.860  0.1411E+03  0.1348E+03  0.9485E+03  0.9477E+03
      2.912  0.1573E+03  0.1609E+03  0.9568E+03  0.9562E+03
      2.965  0.1079E+03  0.1075E+03  0.9624E+03  0.9618E+03
      3.017  0.1378E+03  0.1365E+03  0.9697E+03  0.9690E+03
      3.070  0.1238E+03  0.1268E+03  0.9762E+03  0.9756E+03
      3.122  0.1083E+03  0.1114E+03  0.9818E+03  0.9815E+03
      3.175  0.1204E+03  0.1151E+03  0.9882E+03  0.9875E+03
      3.227  0.1052E+03  0.1022E+03  0.9937E+03  0.9929E+03
      3.280  0.1089E+03  0.1161E+03  0.9994E+03  0.9990E+03
      3.332  0.1086E+03  0.1079E+03  0.1005E+04  0.1005E+04
      3.385  0.9338E+02  0.9846E+02  0.1010E+04  0.1010E+04
      3.437  0.6530E+02  0.5769E+02  0.1013E+04  0.1013E+04
      3.490  0.1161E+03  0.1158E+03  0.1020E+04  0.1019E+04
      3.542  0.9217E+02  0.9166E+02  0.1024E+04  0.1024E+04
      3.595  0.9107E+02  0.8630E+02  0.1029E+04  0.1028E+04
      3.647  0.8266E+02  0.9196E+02  0.1033E+04  0.1033E+04
      3.700  0.6903E+02  0.6411E+02  0.1037E+04  0.1036E+04
      3.752  0.3636E+02  0.4187E+02  0.1039E+04  0.1039E+04
      3.805  0.5936E+02  0.6100E+02  0.1042E+04  0.1042E+04
      3.857  0.3299E+02  0.3257E+02  0.1044E+04  0.1044E+04
      3.910  0.4897E+02  0.4635E+02  0.1046E+04  0.1046E+04
      3.962  0.7460E+02  0.7424E+02  0.1050E+04  0.1050E+04
      4.015  0.1060E+03  0.8729E+02  0.1056E+04  0.1054E+04
      4.067  0.8305E+02  0.9369E+02  0.1060E+04  0.1059E+04
      4.120  0.9710E+02  0.9934E+02  0.1065E+04  0.1065E+04
      4.172  0.9963E+02  0.1031E+03  0.1071E+04  0.1070E+04
      4.225  0.7878E+02  0.7663E+02  0.1075E+04  0.1074E+04
      4.277  0.1022E+03  0.9884E+02  0.1080E+04  0.1079E+04
      4.330  0.1141E+03  0.1181E+03  0.1086E+04  0.1085E+04
      4.382  0.1152E+03  0.1132E+03  0.1092E+04  0.1091E+04
      4.435  0.8540E+02  0.8416E+02  0.1097E+04  0.1096E+04
      4.487  0.1368E+03  0.1395E+03  0.1104E+04  0.1103E+04
      4.540  0.9323E+02  0.9527E+02  0.1109E+04  0.1108E+04
      4.592  0.1290E+03  0.1208E+03  0.1115E+04  0.1114E+04
      4.645  0.1063E+03  0.1132E+03  0.1121E+04  0.1120E+04
      4.697  0.1001E+03  0.9989E+02  0.1126E+04  0.1126E+04
      4.750  0.9506E+02  0.9743E+02  0.1131E+04  0.1131E+04
      4.802  0.1220E+03  0.1162E+03  0.1138E+04  0.1137E+04
      4.855  0.1268E+03  0.1282E+03  0.1144E+04  0.1144E+04
      4.907  0.1138E+03  0.1204E+03  0.1150E+04  0.1150E+04
      4.960  0.9997E+02  0.9772E+02  0.1156E+04  0.1155E+04
      5.012  0.1350E+03  0.1297E+03  0.1163E+04  0.1162E+04
      5.065  0.1323E+03  0.1354E+03  0.1170E+04  0.1169E+04
      5.117  0.1035E+03  0.1093E+03  0.1175E+04  0.1175E+04
      5.170  0.9957E+02  0.9710E+02  0.1180E+04  0.1180E+04
      5.222  0.1270E+03  0.1270E+03  0.1187E+04  0.1186E+04
      5.275  0.8842E+02  0.8900E+02  0.1192E+04  0.1191E+04
      5.327  0.1200E+03  0.1185E+03  0.1198E+04  0.1197E+04
      5.380  0.1273E+03  0.1289E+03  0.1205E+04  0.1204E+04
      5.432  0.1224E+03  0.1213E+03  0.1211E+04  0.1210E+04
      5.485  0.1452E+03  0.1442E+03  0.1219E+04  0.1218E+04
      5.537  0.1544E+03  0.1540E+03  0.1227E+04  0.1226E+04
      5.589  0.1398E+03  0.1379E+03  0.1234E+04  0.1233E+04
      5.642  0.1341E+03  0.1392E+03  0.1241E+04  0.1241E+04
      5.694  0.1231E+03  0.1195E+03  0.1248E+04  0.1247E+04
      5.747  0.1228E+03  0.1264E+03  0.1254E+04  0.1254E+04
      5.799  0.1114E+03  0.1080E+03  0.1260E+04  0.1259E+04
      5.852  0.1417E+03  0.1464E+03  0.1267E+04  0.1267E+04
      5.904  0.8057E+02  0.8217E+02  0.1272E+04  0.1271E+04
      5.957  0.9311E+01  0.1482E+02  0.1272E+04  0.1272E+04
      6.009  0.0000E+00  0.0000E+00  0.1272E+04  0.1272E+04
      6.062  0.0000E+00  0.0000E+00  0.1272E+04  0.1272E+04
      6.114  0.0000E+00  0.0000E+00  0.1272E+04  0.1272E+04
      6.167  0.0000E+00  0.0000E+00  0.1272E+04  0.1272E+04
      6.219  0.0000E+00  0.0000E+00  0.1272E+04  0.1272E+04
      6.272  0.0000E+00  0.0000E+00  0.1272E+04  0.1272E+04
      6.324  0.0000E+00  0.0000E+00  0.1272E+04  0.1272E+04
      6.377  0.0000E+00  0.0000E+00  0.1272E+04  0.1272E+04
      6.429  0.0000E+00  0.0000E+00  0.1272E+04  0.1272E+04
      6.482  0.0000E+00  0.0000E+00  0.1272E+04  0.1272E+04
      6.534  0.0000E+00  0.0000E+00  0.1272E+04  0.1272E+04
      6.587  0.0000E+00  0.0000E+00  0.1272E+04  0.1272E+04
      6.639  0.0000E+00  0.0000E+00  0.1272E+04  0.1272E+04
