 168 168   0   0
  0.2759767E+02  0.1131560E-08  0.1959920E-08  0.2560422E-08  0.5000000E-15
  1.000000000000000E-004
  CAR 
 Si and Ge interface calculation         
      6.37025011     -9.87354775  301      3.41876270      1.00000000
     -9.874  0.0000E+00  0.0000E+00  0.0000E+00  0.0000E+00
     -9.819  0.0000E+00  0.0000E+00  0.0000E+00  0.0000E+00
     -9.765  0.0000E+00  0.0000E+00  0.0000E+00  0.0000E+00
     -9.711  0.0000E+00  0.0000E+00  0.0000E+00  0.0000E+00
     -9.657  0.0000E+00  0.0000E+00  0.0000E+00  0.0000E+00
     -9.603  0.0000E+00  0.0000E+00  0.0000E+00  0.0000E+00
     -9.549  0.0000E+00  0.0000E+00  0.0000E+00  0.0000E+00
     -9.495  0.0000E+00  0.0000E+00  0.0000E+00  0.0000E+00
     -9.440  0.0000E+00  0.0000E+00  0.0000E+00  0.0000E+00
     -9.386  0.0000E+00  0.0000E+00  0.0000E+00  0.0000E+00
     -9.332  0.0000E+00  0.0000E+00  0.0000E+00  0.0000E+00
     -9.278  0.0000E+00  0.0000E+00  0.0000E+00  0.0000E+00
     -9.224  0.0000E+00  0.0000E+00  0.0000E+00  0.0000E+00
     -9.170  0.3385E-05  0.4173E-07  0.1833E-06  0.2260E-08
     -9.116  0.6140E+01  0.6009E+01  0.3324E+00  0.3254E+00
     -9.061  0.1652E-01  0.1473E+00  0.3333E+00  0.3333E+00
     -9.007  0.2356E+02  0.2030E+02  0.1609E+01  0.1432E+01
     -8.953  0.1338E+02  0.1664E+02  0.2333E+01  0.2333E+01
     -8.899  0.6138E+01  0.6009E+01  0.2666E+01  0.2659E+01
     -8.845  0.9390E+01  0.4325E+01  0.3174E+01  0.2893E+01
     -8.791  0.3983E+02  0.4468E+02  0.5331E+01  0.5312E+01
     -8.736  0.2475E+02  0.2442E+02  0.6671E+01  0.6634E+01
     -8.682  0.3086E+02  0.2698E+02  0.8341E+01  0.8095E+01
     -8.628  0.2215E+02  0.2134E+02  0.9541E+01  0.9250E+01
     -8.574  0.5368E+02  0.5038E+02  0.1245E+02  0.1198E+02
     -8.520  0.1751E+02  0.2533E+02  0.1340E+02  0.1335E+02
     -8.466  0.2258E+02  0.2244E+02  0.1462E+02  0.1456E+02
     -8.412  0.1423E+02  0.1450E+02  0.1539E+02  0.1535E+02
     -8.357  0.3890E+02  0.3616E+02  0.1749E+02  0.1731E+02
     -8.303  0.3985E+01  0.6943E+01  0.1771E+02  0.1768E+02
     -8.249  0.2704E+02  0.1969E+02  0.1917E+02  0.1875E+02
     -8.195  0.3997E+02  0.4707E+02  0.2134E+02  0.2130E+02
     -8.141  0.1225E+02  0.1296E+02  0.2200E+02  0.2200E+02
     -8.087  0.1843E+02  0.1846E+02  0.2300E+02  0.2300E+02
     -8.033  0.3349E+00  0.5061E-01  0.2302E+02  0.2300E+02
     -7.978  0.1205E+02  0.1227E+02  0.2367E+02  0.2367E+02
     -7.924  0.4459E+02  0.3839E+02  0.2609E+02  0.2575E+02
     -7.870  0.5123E+01  0.1091E+02  0.2636E+02  0.2634E+02
     -7.816  0.3117E+02  0.2866E+02  0.2805E+02  0.2789E+02
     -7.762  0.2724E+02  0.2730E+02  0.2953E+02  0.2937E+02
     -7.708  0.1018E+02  0.9989E+01  0.3008E+02  0.2991E+02
     -7.654  0.4693E+02  0.4763E+02  0.3262E+02  0.3249E+02
     -7.599  0.3578E+02  0.3398E+02  0.3456E+02  0.3433E+02
     -7.545  0.2585E+02  0.2525E+02  0.3595E+02  0.3569E+02
     -7.491  0.5396E+02  0.5452E+02  0.3888E+02  0.3865E+02
     -7.437  0.1199E+02  0.1414E+02  0.3953E+02  0.3941E+02
     -7.383  0.8964E+01  0.1090E+02  0.4001E+02  0.4000E+02
     -7.329  0.3117E+02  0.3086E+02  0.4170E+02  0.4167E+02
     -7.275  0.3712E+02  0.3338E+02  0.4371E+02  0.4348E+02
     -7.220  0.4571E+02  0.4286E+02  0.4618E+02  0.4580E+02
     -7.166  0.4832E+02  0.5042E+02  0.4880E+02  0.4853E+02
     -7.112  0.5221E+02  0.5166E+02  0.5163E+02  0.5133E+02
     -7.058  0.3168E+02  0.3701E+02  0.5334E+02  0.5333E+02
     -7.004  0.3414E+02  0.2938E+02  0.5519E+02  0.5492E+02
     -6.950  0.4651E+02  0.4604E+02  0.5771E+02  0.5742E+02
     -6.896  0.5763E+02  0.5903E+02  0.6083E+02  0.6061E+02
     -6.841  0.3575E+02  0.3510E+02  0.6277E+02  0.6251E+02
     -6.787  0.4921E+02  0.5075E+02  0.6543E+02  0.6526E+02
     -6.733  0.3581E+02  0.3840E+02  0.6737E+02  0.6734E+02
     -6.679  0.4509E+02  0.3911E+02  0.6981E+02  0.6946E+02
     -6.625  0.3196E+02  0.3421E+02  0.7154E+02  0.7131E+02
     -6.571  0.4994E+02  0.5174E+02  0.7425E+02  0.7411E+02
     -6.516  0.3773E+02  0.3778E+02  0.7629E+02  0.7616E+02
     -6.462  0.2562E+02  0.2791E+02  0.7768E+02  0.7767E+02
     -6.408  0.3726E+02  0.3667E+02  0.7969E+02  0.7965E+02
     -6.354  0.5260E+02  0.4917E+02  0.8254E+02  0.8232E+02
     -6.300  0.7123E+02  0.6716E+02  0.8640E+02  0.8595E+02
     -6.246  0.4159E+02  0.4632E+02  0.8865E+02  0.8846E+02
     -6.192  0.5688E+02  0.5136E+02  0.9173E+02  0.9124E+02
     -6.137  0.3586E+02  0.4477E+02  0.9367E+02  0.9367E+02
     -6.083  0.5448E+02  0.4783E+02  0.9662E+02  0.9626E+02
     -6.029  0.4904E+02  0.5392E+02  0.9928E+02  0.9918E+02
     -5.975  0.2595E+02  0.2138E+02  0.1007E+03  0.1003E+03
     -5.921  0.3628E+02  0.4173E+02  0.1026E+03  0.1026E+03
     -5.867  0.1270E+02  0.1178E+02  0.1033E+03  0.1032E+03
     -5.813  0.4496E+02  0.4093E+02  0.1058E+03  0.1054E+03
     -5.758  0.4117E+02  0.4684E+02  0.1080E+03  0.1080E+03
     -5.704  0.4326E+02  0.4000E+02  0.1103E+03  0.1101E+03
     -5.650  0.4740E+02  0.4491E+02  0.1129E+03  0.1126E+03
     -5.596  0.8586E+01  0.1410E+02  0.1134E+03  0.1133E+03
     -5.542  0.3910E+02  0.3677E+02  0.1155E+03  0.1153E+03
     -5.488  0.4511E+02  0.4298E+02  0.1179E+03  0.1177E+03
     -5.434  0.8993E+02  0.8514E+02  0.1228E+03  0.1223E+03
     -5.379  0.2569E+02  0.2937E+02  0.1242E+03  0.1239E+03
     -5.325  0.7511E+02  0.7064E+02  0.1283E+03  0.1277E+03
     -5.271  0.3716E+02  0.4309E+02  0.1303E+03  0.1300E+03
     -5.217  0.6270E+02  0.6553E+02  0.1337E+03  0.1336E+03
     -5.163  0.5609E+02  0.4753E+02  0.1367E+03  0.1361E+03
     -5.109  0.6373E+02  0.6823E+02  0.1402E+03  0.1398E+03
     -5.055  0.5106E+02  0.4448E+02  0.1429E+03  0.1422E+03
     -5.000  0.5692E+02  0.6907E+02  0.1460E+03  0.1460E+03
     -4.946  0.6373E+02  0.5761E+02  0.1494E+03  0.1491E+03
     -4.892  0.4201E+02  0.4499E+02  0.1517E+03  0.1515E+03
     -4.838  0.3059E+02  0.3305E+02  0.1534E+03  0.1533E+03
     -4.784  0.6818E+02  0.5871E+02  0.1571E+03  0.1565E+03
     -4.730  0.7561E+02  0.8350E+02  0.1612E+03  0.1610E+03
     -4.676  0.5314E+02  0.4644E+02  0.1640E+03  0.1635E+03
     -4.621  0.3617E+02  0.4433E+02  0.1660E+03  0.1659E+03
     -4.567  0.4001E+02  0.3780E+02  0.1682E+03  0.1680E+03
     -4.513  0.4806E+02  0.4659E+02  0.1708E+03  0.1705E+03
     -4.459  0.6163E+02  0.5723E+02  0.1741E+03  0.1736E+03
     -4.405  0.3284E+02  0.3832E+02  0.1759E+03  0.1757E+03
     -4.351  0.8532E+02  0.8463E+02  0.1805E+03  0.1803E+03
     -4.297  0.5163E+02  0.4837E+02  0.1833E+03  0.1829E+03
     -4.242  0.4964E+02  0.5600E+02  0.1860E+03  0.1859E+03
     -4.188  0.3644E+02  0.3522E+02  0.1880E+03  0.1878E+03
     -4.134  0.2525E+02  0.2405E+02  0.1893E+03  0.1891E+03
     -4.080  0.5038E+02  0.5037E+02  0.1921E+03  0.1919E+03
     -4.026  0.5806E+02  0.5934E+02  0.1952E+03  0.1951E+03
     -3.972  0.4774E+02  0.4834E+02  0.1978E+03  0.1977E+03
     -3.917  0.6110E+02  0.5906E+02  0.2011E+03  0.2009E+03
     -3.863  0.6635E+02  0.6653E+02  0.2047E+03  0.2045E+03
     -3.809  0.4099E+02  0.4191E+02  0.2069E+03  0.2068E+03
     -3.755  0.3956E+02  0.4006E+02  0.2090E+03  0.2089E+03
     -3.701  0.7114E+02  0.6402E+02  0.2129E+03  0.2124E+03
     -3.647  0.4343E+02  0.4975E+02  0.2153E+03  0.2151E+03
     -3.593  0.7105E+02  0.6947E+02  0.2191E+03  0.2188E+03
     -3.538  0.5185E+02  0.5118E+02  0.2219E+03  0.2216E+03
     -3.484  0.2810E+02  0.2817E+02  0.2234E+03  0.2231E+03
     -3.430  0.4235E+02  0.4257E+02  0.2257E+03  0.2255E+03
     -3.376  0.5448E+02  0.5903E+02  0.2287E+03  0.2286E+03
     -3.322  0.4503E+02  0.3657E+02  0.2311E+03  0.2306E+03
     -3.268  0.2305E+02  0.2821E+02  0.2324E+03  0.2322E+03
     -3.214  0.9101E+02  0.8549E+02  0.2373E+03  0.2368E+03
     -3.159  0.3986E+02  0.4497E+02  0.2394E+03  0.2392E+03
     -3.105  0.2795E+02  0.2579E+02  0.2410E+03  0.2406E+03
     -3.051  0.2336E+02  0.2772E+02  0.2422E+03  0.2421E+03
     -2.997  0.2929E+02  0.2696E+02  0.2438E+03  0.2436E+03
     -2.943  0.5731E+02  0.5775E+02  0.2469E+03  0.2467E+03
     -2.889  0.3313E+02  0.3252E+02  0.2487E+03  0.2485E+03
     -2.835  0.5412E+02  0.5442E+02  0.2516E+03  0.2514E+03
     -2.780  0.3337E+02  0.3382E+02  0.2534E+03  0.2532E+03
     -2.726  0.6654E+02  0.6571E+02  0.2570E+03  0.2568E+03
     -2.672  0.5328E+02  0.5178E+02  0.2599E+03  0.2596E+03
     -2.618  0.5934E+02  0.5740E+02  0.2631E+03  0.2627E+03
     -2.564  0.8240E+02  0.8249E+02  0.2676E+03  0.2672E+03
     -2.510  0.4413E+02  0.5135E+02  0.2700E+03  0.2700E+03
     -2.456  0.5788E+02  0.5601E+02  0.2731E+03  0.2730E+03
     -2.401  0.9999E+01  0.1248E+02  0.2737E+03  0.2737E+03
     -2.347  0.5497E+02  0.5091E+02  0.2766E+03  0.2764E+03
     -2.293  0.6787E+02  0.6730E+02  0.2803E+03  0.2801E+03
     -2.239  0.5268E+02  0.4890E+02  0.2832E+03  0.2827E+03
     -2.185  0.2855E+02  0.3471E+02  0.2847E+03  0.2846E+03
     -2.131  0.1535E+02  0.1170E+02  0.2856E+03  0.2852E+03
     -2.077  0.3943E+02  0.4037E+02  0.2877E+03  0.2874E+03
     -2.022  0.2485E+02  0.2943E+02  0.2890E+03  0.2890E+03
     -1.968  0.2382E+02  0.2352E+02  0.2903E+03  0.2903E+03
     -1.914  0.3394E+02  0.2547E+02  0.2922E+03  0.2917E+03
     -1.860  0.5419E+02  0.5667E+02  0.2951E+03  0.2947E+03
     -1.806  0.4307E+02  0.4603E+02  0.2974E+03  0.2972E+03
     -1.752  0.2311E+02  0.2637E+02  0.2987E+03  0.2987E+03
     -1.698  0.4073E+02  0.3876E+02  0.3009E+03  0.3007E+03
     -1.643  0.2897E+02  0.2994E+02  0.3024E+03  0.3024E+03
     -1.589  0.3610E+02  0.3324E+02  0.3044E+03  0.3042E+03
     -1.535  0.5448E+02  0.5464E+02  0.3074E+03  0.3071E+03
     -1.481  0.5765E+01  0.9948E+01  0.3077E+03  0.3077E+03
     -1.427  0.2158E+02  0.1311E+02  0.3088E+03  0.3084E+03
     -1.373  0.4326E+02  0.4733E+02  0.3112E+03  0.3109E+03
     -1.318  0.3174E+02  0.2825E+02  0.3129E+03  0.3125E+03
     -1.264  0.2038E+02  0.2828E+02  0.3140E+03  0.3140E+03
     -1.210  0.2449E+02  0.2392E+02  0.3153E+03  0.3153E+03
     -1.156  0.2560E+02  0.2160E+02  0.3167E+03  0.3165E+03
     -1.102  0.1963E+02  0.2306E+02  0.3178E+03  0.3177E+03
     -1.048  0.1061E+02  0.8922E+01  0.3184E+03  0.3182E+03
     -0.994  0.1604E+02  0.1507E+02  0.3192E+03  0.3190E+03
     -0.939  0.2655E+02  0.2973E+02  0.3207E+03  0.3206E+03
     -0.885  0.1123E+02  0.9015E+01  0.3213E+03  0.3211E+03
     -0.831  0.1447E+01  0.4134E+01  0.3213E+03  0.3213E+03
     -0.777  0.1242E+02  0.1235E+02  0.3220E+03  0.3220E+03
     -0.723  0.3697E+02  0.3312E+02  0.3240E+03  0.3238E+03
     -0.669  0.5282E+02  0.5087E+02  0.3269E+03  0.3266E+03
     -0.615  0.2444E+02  0.2422E+02  0.3282E+03  0.3279E+03
     -0.560  0.9108E+02  0.9297E+02  0.3331E+03  0.3329E+03
     -0.506  0.3097E+02  0.2730E+02  0.3348E+03  0.3344E+03
     -0.452  0.7468E+02  0.7178E+02  0.3389E+03  0.3383E+03
     -0.398  0.6239E+02  0.6653E+02  0.3422E+03  0.3419E+03
     -0.344  0.7690E+02  0.7056E+02  0.3464E+03  0.3457E+03
     -0.290  0.1009E+03  0.1103E+03  0.3519E+03  0.3517E+03
     -0.236  0.6662E+02  0.6102E+02  0.3555E+03  0.3550E+03
     -0.181  0.7162E+02  0.7664E+02  0.3593E+03  0.3591E+03
     -0.127  0.6737E+02  0.6453E+02  0.3630E+03  0.3626E+03
     -0.073  0.5842E+02  0.5348E+02  0.3662E+03  0.3655E+03
     -0.019  0.1157E+03  0.1234E+03  0.3724E+03  0.3722E+03
      0.035  0.4709E+02  0.4510E+02  0.3750E+03  0.3746E+03
      0.089  0.6518E+02  0.6668E+02  0.3785E+03  0.3782E+03
      0.143  0.9034E+02  0.8612E+02  0.3834E+03  0.3829E+03
      0.198  0.7887E+02  0.8052E+02  0.3877E+03  0.3873E+03
      0.252  0.9155E+02  0.9626E+02  0.3926E+03  0.3925E+03
      0.306  0.4918E+02  0.4262E+02  0.3953E+03  0.3948E+03
      0.360  0.1288E+03  0.1270E+03  0.4023E+03  0.4017E+03
      0.414  0.9834E+02  0.1007E+03  0.4076E+03  0.4071E+03
      0.468  0.9297E+02  0.8782E+02  0.4126E+03  0.4119E+03
      0.522  0.1132E+03  0.1191E+03  0.4187E+03  0.4183E+03
      0.577  0.1089E+03  0.1092E+03  0.4246E+03  0.4242E+03
      0.631  0.1003E+03  0.9561E+02  0.4301E+03  0.4294E+03
      0.685  0.1286E+03  0.1269E+03  0.4370E+03  0.4363E+03
      0.739  0.1566E+03  0.1633E+03  0.4455E+03  0.4451E+03
      0.793  0.1213E+03  0.1138E+03  0.4521E+03  0.4513E+03
      0.847  0.1387E+03  0.1397E+03  0.4596E+03  0.4588E+03
      0.902  0.1041E+03  0.1081E+03  0.4652E+03  0.4647E+03
      0.956  0.7180E+02  0.7364E+02  0.4691E+03  0.4687E+03
      1.010  0.8234E+02  0.8029E+02  0.4736E+03  0.4730E+03
      1.064  0.8872E+02  0.9445E+02  0.4784E+03  0.4781E+03
      1.118  0.1099E+03  0.9761E+02  0.4843E+03  0.4834E+03
      1.172  0.1138E+03  0.1238E+03  0.4905E+03  0.4901E+03
      1.226  0.1006E+03  0.9707E+02  0.4959E+03  0.4954E+03
      1.281  0.1730E+03  0.1710E+03  0.5053E+03  0.5046E+03
      1.335  0.8290E+02  0.8282E+02  0.5098E+03  0.5091E+03
      1.389  0.1025E+03  0.1064E+03  0.5153E+03  0.5149E+03
      1.443  0.1007E+03  0.1015E+03  0.5208E+03  0.5204E+03
      1.497  0.1527E+03  0.1446E+03  0.5291E+03  0.5282E+03
      1.551  0.1002E+03  0.1081E+03  0.5345E+03  0.5341E+03
      1.605  0.9568E+02  0.9418E+02  0.5397E+03  0.5392E+03
      1.660  0.1256E+03  0.1218E+03  0.5465E+03  0.5458E+03
      1.714  0.9970E+02  0.1003E+03  0.5519E+03  0.5512E+03
      1.768  0.1067E+03  0.1040E+03  0.5576E+03  0.5568E+03
      1.822  0.1259E+03  0.1304E+03  0.5645E+03  0.5639E+03
      1.876  0.1192E+03  0.1269E+03  0.5709E+03  0.5708E+03
      1.930  0.5424E+02  0.4972E+02  0.5739E+03  0.5734E+03
      1.984  0.1130E+03  0.1078E+03  0.5800E+03  0.5793E+03
      2.039  0.8773E+02  0.9187E+02  0.5847E+03  0.5843E+03
      2.093  0.8771E+02  0.8693E+02  0.5895E+03  0.5890E+03
      2.147  0.1037E+03  0.1029E+03  0.5951E+03  0.5945E+03
      2.201  0.9443E+02  0.9931E+02  0.6002E+03  0.5999E+03
      2.255  0.5812E+02  0.5324E+02  0.6034E+03  0.6028E+03
      2.309  0.9301E+02  0.9122E+02  0.6084E+03  0.6077E+03
      2.363  0.7017E+02  0.7628E+02  0.6122E+03  0.6119E+03
      2.418  0.4893E+02  0.4957E+02  0.6148E+03  0.6145E+03
      2.472  0.9989E+02  0.9316E+02  0.6202E+03  0.6196E+03
      2.526  0.1036E+03  0.1088E+03  0.6259E+03  0.6255E+03
      2.580  0.8520E+02  0.7924E+02  0.6305E+03  0.6298E+03
      2.634  0.3590E+02  0.4755E+02  0.6324E+03  0.6323E+03
      2.688  0.5569E+02  0.4113E+02  0.6354E+03  0.6346E+03
      2.742  0.7513E+02  0.8370E+02  0.6395E+03  0.6391E+03
      2.797  0.6176E+02  0.6646E+02  0.6428E+03  0.6427E+03
      2.851  0.7967E+02  0.7583E+02  0.6472E+03  0.6468E+03
      2.905  0.3989E+02  0.4393E+02  0.6493E+03  0.6492E+03
      2.959  0.2691E+02  0.1779E+02  0.6508E+03  0.6502E+03
      3.013  0.7108E+02  0.7802E+02  0.6546E+03  0.6544E+03
      3.067  0.1433E+02  0.1770E+02  0.6554E+03  0.6553E+03
      3.121  0.7035E+02  0.6568E+02  0.6592E+03  0.6589E+03
      3.176  0.3019E+02  0.3264E+02  0.6608E+03  0.6607E+03
      3.230  0.3996E+02  0.3569E+02  0.6630E+03  0.6626E+03
      3.284  0.6612E+02  0.6955E+02  0.6666E+03  0.6664E+03
      3.338  0.4791E+02  0.4339E+02  0.6692E+03  0.6687E+03
      3.392  0.2832E+02  0.3624E+02  0.6707E+03  0.6707E+03
      3.446  0.2356E+02  0.1745E+02  0.6720E+03  0.6716E+03
      3.501  0.1753E+02  0.1778E+02  0.6729E+03  0.6726E+03
      3.555  0.4277E+02  0.4458E+02  0.6752E+03  0.6750E+03
      3.609  0.5075E+02  0.5406E+02  0.6780E+03  0.6779E+03
      3.663  0.3016E+02  0.2193E+02  0.6796E+03  0.6791E+03
      3.717  0.4328E+02  0.4662E+02  0.6820E+03  0.6816E+03
      3.771  0.2278E+02  0.2379E+02  0.6832E+03  0.6829E+03
      3.825  0.1462E+02  0.1977E+02  0.6840E+03  0.6840E+03
      3.880  0.1231E+02  0.1246E+02  0.6847E+03  0.6847E+03
      3.934  0.6279E+01  0.6204E+01  0.6850E+03  0.6850E+03
      3.988  0.1318E+02  0.1252E+02  0.6857E+03  0.6857E+03
      4.042  0.1717E+02  0.1628E+02  0.6866E+03  0.6866E+03
      4.096  0.3454E+02  0.3239E+02  0.6885E+03  0.6883E+03
      4.150  0.3259E+02  0.3370E+02  0.6903E+03  0.6901E+03
      4.204  0.4543E+02  0.3599E+02  0.6927E+03  0.6921E+03
      4.259  0.2320E+02  0.3539E+02  0.6940E+03  0.6940E+03
      4.313  0.1151E+02  0.7496E+01  0.6946E+03  0.6944E+03
      4.367  0.4550E+02  0.4008E+02  0.6971E+03  0.6966E+03
      4.421  0.4966E+02  0.4958E+02  0.6998E+03  0.6993E+03
      4.475  0.5210E+02  0.5951E+02  0.7026E+03  0.7025E+03
      4.529  0.4639E+02  0.4709E+02  0.7051E+03  0.7050E+03
      4.583  0.6516E+02  0.6260E+02  0.7086E+03  0.7084E+03
      4.638  0.8651E+02  0.8389E+02  0.7133E+03  0.7130E+03
      4.692  0.8838E+02  0.8708E+02  0.7181E+03  0.7177E+03
      4.746  0.8944E+02  0.9522E+02  0.7230E+03  0.7228E+03
      4.800  0.4659E+02  0.4299E+02  0.7255E+03  0.7252E+03
      4.854  0.8722E+02  0.8627E+02  0.7302E+03  0.7298E+03
      4.908  0.1023E+03  0.9991E+02  0.7357E+03  0.7352E+03
      4.962  0.8379E+02  0.8505E+02  0.7403E+03  0.7398E+03
      5.017  0.9386E+02  0.9164E+02  0.7454E+03  0.7448E+03
      5.071  0.1289E+03  0.1339E+03  0.7523E+03  0.7521E+03
      5.125  0.1146E+03  0.1103E+03  0.7585E+03  0.7580E+03
      5.179  0.1167E+03  0.1184E+03  0.7649E+03  0.7644E+03
      5.233  0.7462E+02  0.7846E+02  0.7689E+03  0.7687E+03
      5.287  0.1009E+03  0.9404E+02  0.7744E+03  0.7738E+03
      5.341  0.1207E+03  0.1265E+03  0.7809E+03  0.7806E+03
      5.396  0.8988E+02  0.8580E+02  0.7858E+03  0.7853E+03
      5.450  0.1185E+03  0.1203E+03  0.7922E+03  0.7918E+03
      5.504  0.1326E+03  0.1328E+03  0.7994E+03  0.7990E+03
      5.558  0.9917E+02  0.9574E+02  0.8047E+03  0.8042E+03
      5.612  0.4446E+02  0.5543E+02  0.8071E+03  0.8072E+03
      5.666  0.1597E+02  0.1534E+02  0.8080E+03  0.8080E+03
      5.720  0.0000E+00  0.0000E+00  0.8080E+03  0.8080E+03
      5.775  0.0000E+00  0.0000E+00  0.8080E+03  0.8080E+03
      5.829  0.0000E+00  0.0000E+00  0.8080E+03  0.8080E+03
      5.883  0.0000E+00  0.0000E+00  0.8080E+03  0.8080E+03
      5.937  0.0000E+00  0.0000E+00  0.8080E+03  0.8080E+03
      5.991  0.0000E+00  0.0000E+00  0.8080E+03  0.8080E+03
      6.045  0.0000E+00  0.0000E+00  0.8080E+03  0.8080E+03
      6.100  0.0000E+00  0.0000E+00  0.8080E+03  0.8080E+03
      6.154  0.0000E+00  0.0000E+00  0.8080E+03  0.8080E+03
      6.208  0.0000E+00  0.0000E+00  0.8080E+03  0.8080E+03
      6.262  0.0000E+00  0.0000E+00  0.8080E+03  0.8080E+03
      6.316  0.0000E+00  0.0000E+00  0.8080E+03  0.8080E+03
      6.370  0.0000E+00  0.0000E+00  0.8080E+03  0.8080E+03
