Si and Ge interface calculation         
           1
    16.293001    0.000000    0.000000
   -10.862000   12.144086    0.000000
     0.000000    0.000000    8.192404
   Si   C 
    36    84
Direct configuration=     1
   0.97435850  0.98290563  0.00000000
   0.67435843  0.78290558  0.14823598
   0.37435842  0.58290553  0.29647195
   0.30769178  0.98290563  0.00000000
   0.00769173  0.78290558  0.14823598
   0.70769167  0.58290553  0.29647195
   0.64102507  0.98290563  0.00000000
   0.34102503  0.78290558  0.14823598
   0.04102499  0.58290553  0.29647195
   0.15769197  0.63290560  0.07411784
   0.85769194  0.43290553  0.22235382
   0.55769193  0.23290551  0.37058976
   0.49102521  0.63290560  0.07411784
   0.19102515  0.43290553  0.22235382
   0.89102519  0.23290551  0.37058976
   0.82435846  0.63290560  0.07411784
   0.52435839  0.43290553  0.22235382
   0.22435850  0.23290551  0.37058976
   0.14102516  0.48290560  0.00000000
   0.84102511  0.28290549  0.14823598
   0.54102510  0.08290543  0.29647195
   0.47435844  0.48290560  0.00000000
   0.17435838  0.28290549  0.14823598
   0.87435836  0.08290543  0.29647195
   0.80769169  0.48290560  0.00000000
   0.50769168  0.28290549  0.14823598
   0.20769163  0.08290543  0.29647195
   0.99102521  0.13290566  0.07411785
   0.69102514  0.93290561  0.22235382
   0.39102519  0.73290557  0.37058976
   0.32435846  0.13290566  0.07411785
   0.02435841  0.93290561  0.22235382
   0.72435844  0.73290557  0.37058976
   0.65769166  0.13290566  0.07411785
   0.35769162  0.93290561  0.22235382
   0.05769165  0.73290557  0.37058976
   0.73282254  0.31584168  0.75831014
   0.96139395  0.37298429  0.56360275
   0.84710825  0.84441304  0.66095650
   0.58996534  0.03012741  0.75831014
   0.81853682  0.08727002  0.56360275
   0.70425105  0.55869877  0.66095650
   0.44710818  0.74441314  0.75831014
   0.67567962  0.80155575  0.56360275
   0.56139386  0.27298450  0.66095650
   0.30425110  0.45869887  0.75831014
   0.53282255  0.51584148  0.56360275
   0.41853681  0.98727024  0.66095650
   0.16139398  0.17298460  0.75831014
   0.38996541  0.23012710  0.56360275
   0.27567968  0.70155597  0.66095650
   0.01853681  0.88727033  0.75831014
   0.24710825  0.94441289  0.56360275
   0.13282251  0.41584158  0.66095650
   0.87567973  0.60155606  0.75831014
   0.10425115  0.65869862  0.56360275
   0.98996544  0.13012743  0.66095650
   0.78282261  0.76584172  0.80698693
   0.01139402  0.82298422  0.61227953
   0.89710838  0.29441309  0.70963323
   0.63996541  0.48012745  0.80698693
   0.86853677  0.53727007  0.61227953
   0.75425106  0.00869870  0.70963323
   0.49710834  0.19441271  0.80698693
   0.72567970  0.25155544  0.61227959
   0.61139405  0.72298420  0.70963323
   0.35425118  0.90869868  0.80698693
   0.58282256  0.96584129  0.61227959
   0.46853682  0.43726993  0.70963323
   0.21139397  0.62298441  0.80698693
   0.43996543  0.68012714  0.61227953
   0.32567966  0.15155578  0.70963323
   0.06853700  0.33727038  0.80698693
   0.29710838  0.39441299  0.61227953
   0.18282266  0.86584163  0.70963323
   0.92567968  0.05155563  0.80698693
   0.15425116  0.10869837  0.61227953
   0.03996539  0.58012700  0.70963323
   0.80425101  0.95869887  0.75831014
   0.03282261  0.01584148  0.56360275
   0.91853672  0.48727012  0.66095650
   0.66139382  0.67298460  0.75831014
   0.88996530  0.73012722  0.56360281
   0.77567953  0.20155597  0.66095650
   0.51853675  0.38727021  0.75831014
   0.74710822  0.44441283  0.56360275
   0.63282251  0.91584170  0.66095650
   0.37567961  0.10155594  0.75831014
   0.60425115  0.15869856  0.56360275
   0.48996535  0.63012731  0.66095650
   0.23282255  0.81584179  0.75831014
   0.46139398  0.87298429  0.56360275
   0.34710821  0.34441304  0.66095650
   0.08996534  0.53012729  0.75831014
   0.31853682  0.58727002  0.56360281
   0.20425114  0.05869877  0.66095650
   0.94710827  0.24441302  0.75831014
   0.17567968  0.30155563  0.56360281
   0.06139409  0.77298462  0.66095650
   0.85425115  0.40869868  0.80698693
   0.08282268  0.46584129  0.61227953
   0.96853685  0.93726993  0.70963323
   0.71139401  0.12298465  0.80698693
   0.93996531  0.18012714  0.61227953
   0.82567966  0.65155590  0.70963323
   0.56853688  0.83726990  0.80698693
   0.79710823  0.89441252  0.61227953
   0.68282253  0.36584115  0.70963323
   0.42567971  0.55155575  0.80698693
   0.65425116  0.60869837  0.61227953
   0.53996551  0.08012712  0.70963323
   0.28282258  0.26584160  0.80698693
   0.51139402  0.32298422  0.61227953
   0.39710832  0.79441285  0.70963323
   0.13996543  0.98012745  0.80698693
   0.36853686  0.03727007  0.61227953
   0.25425115  0.50869882  0.70963323
   0.99710840  0.69441295  0.80698693
   0.22567981  0.75155544  0.61227953
   0.11139417  0.22298431  0.70963317
