  96  96   0   0
  0.2243693E+02  0.1265123E-08  0.1265123E-08  0.1373516E-08  0.5000000E-15
  1.000000000000000E-004
  CAR 
 Si and Ge interface calculation         
      6.60280451    -11.17050049  301      3.70136517      1.00000000
    -11.171  0.0000E+00  0.0000E+00  0.0000E+00  0.0000E+00
    -11.111  0.0000E+00  0.0000E+00  0.0000E+00  0.0000E+00
    -11.052  0.0000E+00  0.0000E+00  0.0000E+00  0.0000E+00
    -10.993  0.0000E+00  0.0000E+00  0.0000E+00  0.0000E+00
    -10.934  0.0000E+00  0.0000E+00  0.0000E+00  0.0000E+00
    -10.874  0.0000E+00  0.0000E+00  0.0000E+00  0.0000E+00
    -10.815  0.0000E+00  0.0000E+00  0.0000E+00  0.0000E+00
    -10.756  0.0000E+00  0.0000E+00  0.0000E+00  0.0000E+00
    -10.697  0.0000E+00  0.0000E+00  0.0000E+00  0.0000E+00
    -10.637  0.0000E+00  0.0000E+00  0.0000E+00  0.0000E+00
    -10.578  0.0000E+00  0.0000E+00  0.0000E+00  0.0000E+00
    -10.519  0.0000E+00  0.0000E+00  0.0000E+00  0.0000E+00
    -10.460  0.0000E+00  0.0000E+00  0.0000E+00  0.0000E+00
    -10.400  0.9123E-07  0.3695E-10  0.5405E-08  0.2189E-11
    -10.341  0.6223E+01  0.2323E+01  0.3687E+00  0.1376E+00
    -10.282  0.3718E+02  0.3879E+02  0.2571E+01  0.2435E+01
    -10.223  0.2410E+02  0.2605E+02  0.3999E+01  0.3979E+01
    -10.163  0.0000E+00  0.3506E+00  0.4000E+01  0.4000E+01
    -10.104  0.3416E+01  0.5111E+00  0.4202E+01  0.4030E+01
    -10.045  0.1909E+02  0.2199E+02  0.5333E+01  0.5333E+01
     -9.986  0.1171E+02  0.2211E+01  0.6027E+01  0.5464E+01
     -9.926  0.2205E+02  0.3155E+02  0.7333E+01  0.7333E+01
     -9.867  0.1008E+00  0.3708E-02  0.7339E+01  0.7334E+01
     -9.808  0.2240E+02  0.2249E+02  0.8667E+01  0.8666E+01
     -9.749  0.0000E+00  0.1241E-01  0.8667E+01  0.8667E+01
     -9.689  0.0000E+00  0.0000E+00  0.8667E+01  0.8667E+01
     -9.630  0.0000E+00  0.0000E+00  0.8667E+01  0.8667E+01
     -9.571  0.4099E-01  0.5680E-03  0.8669E+01  0.8667E+01
     -9.512  0.3643E+02  0.3362E+02  0.1083E+02  0.1066E+02
     -9.452  0.1979E+02  0.2263E+02  0.1200E+02  0.1200E+02
     -9.393  0.0000E+00  0.0000E+00  0.1200E+02  0.1200E+02
     -9.334  0.0000E+00  0.0000E+00  0.1200E+02  0.1200E+02
     -9.275  0.1577E-07  0.9753E-11  0.1200E+02  0.1200E+02
     -9.215  0.2210E+02  0.1907E+02  0.1331E+02  0.1313E+02
     -9.156  0.4059E+00  0.3434E+01  0.1333E+02  0.1333E+02
     -9.097  0.2795E+01  0.4542E+00  0.1350E+02  0.1336E+02
     -9.038  0.3123E+02  0.2872E+02  0.1535E+02  0.1506E+02
     -8.978  0.1099E+02  0.1583E+02  0.1600E+02  0.1600E+02
     -8.919  0.0000E+00  0.0000E+00  0.1600E+02  0.1600E+02
     -8.860  0.0000E+00  0.0000E+00  0.1600E+02  0.1600E+02
     -8.801  0.0000E+00  0.0000E+00  0.1600E+02  0.1600E+02
     -8.741  0.0000E+00  0.0000E+00  0.1600E+02  0.1600E+02
     -8.682  0.4643E-02  0.4978E-04  0.1600E+02  0.1600E+02
     -8.623  0.9405E+01  0.9176E+01  0.1656E+02  0.1654E+02
     -8.564  0.1634E+02  0.1538E+02  0.1753E+02  0.1745E+02
     -8.505  0.8112E+01  0.9159E+01  0.1801E+02  0.1800E+02
     -8.445  0.1294E+02  0.1241E+02  0.1877E+02  0.1873E+02
     -8.386  0.1890E+02  0.1610E+02  0.1989E+02  0.1969E+02
     -8.327  0.2411E+02  0.2471E+02  0.2132E+02  0.2115E+02
     -8.268  0.1443E+02  0.1491E+02  0.2218E+02  0.2203E+02
     -8.208  0.2183E+02  0.1986E+02  0.2347E+02  0.2321E+02
     -8.149  0.9652E+01  0.1236E+02  0.2404E+02  0.2394E+02
     -8.090  0.2013E+02  0.1956E+02  0.2523E+02  0.2510E+02
     -8.031  0.1604E+02  0.1460E+02  0.2618E+02  0.2597E+02
     -7.971  0.2005E+02  0.2291E+02  0.2737E+02  0.2732E+02
     -7.912  0.3399E+02  0.2856E+02  0.2939E+02  0.2902E+02
     -7.853  0.2391E+02  0.2747E+02  0.3080E+02  0.3064E+02
     -7.794  0.2862E+02  0.2646E+02  0.3250E+02  0.3221E+02
     -7.734  0.1484E+02  0.1620E+02  0.3338E+02  0.3317E+02
     -7.675  0.1573E+02  0.1711E+02  0.3431E+02  0.3419E+02
     -7.616  0.1397E+02  0.1555E+02  0.3514E+02  0.3511E+02
     -7.557  0.1871E+02  0.1681E+02  0.3625E+02  0.3610E+02
     -7.497  0.2219E+02  0.2139E+02  0.3756E+02  0.3737E+02
     -7.438  0.1413E+02  0.1641E+02  0.3840E+02  0.3834E+02
     -7.379  0.1733E+02  0.1437E+02  0.3943E+02  0.3919E+02
     -7.320  0.3773E+02  0.3454E+02  0.4166E+02  0.4124E+02
     -7.260  0.3609E+02  0.3827E+02  0.4380E+02  0.4351E+02
     -7.201  0.3010E+02  0.2838E+02  0.4558E+02  0.4519E+02
     -7.142  0.2839E+02  0.2968E+02  0.4727E+02  0.4695E+02
     -7.083  0.1588E+02  0.1999E+02  0.4821E+02  0.4813E+02
     -7.023  0.2181E+02  0.1786E+02  0.4950E+02  0.4919E+02
     -6.964  0.3065E+02  0.3140E+02  0.5131E+02  0.5105E+02
     -6.905  0.2587E+02  0.2573E+02  0.5285E+02  0.5257E+02
     -6.846  0.1795E+02  0.2067E+02  0.5391E+02  0.5380E+02
     -6.786  0.2338E+02  0.2265E+02  0.5530E+02  0.5514E+02
     -6.727  0.3133E+02  0.3178E+02  0.5715E+02  0.5702E+02
     -6.668  0.3563E+02  0.3174E+02  0.5926E+02  0.5890E+02
     -6.609  0.2465E+02  0.2829E+02  0.6072E+02  0.6058E+02
     -6.549  0.3082E+02  0.3074E+02  0.6255E+02  0.6240E+02
     -6.490  0.2676E+02  0.2615E+02  0.6413E+02  0.6395E+02
     -6.431  0.2402E+02  0.2689E+02  0.6556E+02  0.6554E+02
     -6.372  0.2175E+02  0.1889E+02  0.6685E+02  0.6666E+02
     -6.312  0.1680E+02  0.1624E+02  0.6784E+02  0.6763E+02
     -6.253  0.4578E+02  0.4280E+02  0.7055E+02  0.7016E+02
     -6.194  0.1827E+02  0.2124E+02  0.7164E+02  0.7142E+02
     -6.135  0.2551E+02  0.2621E+02  0.7315E+02  0.7297E+02
     -6.075  0.3644E+02  0.3413E+02  0.7531E+02  0.7499E+02
     -6.016  0.1970E+02  0.2056E+02  0.7647E+02  0.7621E+02
     -5.957  0.3340E+02  0.3390E+02  0.7845E+02  0.7822E+02
     -5.898  0.2102E+02  0.2434E+02  0.7970E+02  0.7966E+02
     -5.839  0.3474E+02  0.3032E+02  0.8176E+02  0.8146E+02
     -5.779  0.2992E+02  0.3032E+02  0.8353E+02  0.8326E+02
     -5.720  0.2285E+02  0.2608E+02  0.8488E+02  0.8480E+02
     -5.661  0.1896E+02  0.1368E+02  0.8601E+02  0.8561E+02
     -5.602  0.2548E+02  0.2648E+02  0.8752E+02  0.8718E+02
     -5.542  0.1631E+02  0.1693E+02  0.8848E+02  0.8818E+02
     -5.483  0.2129E+02  0.2453E+02  0.8974E+02  0.8964E+02
     -5.424  0.1461E+02  0.1435E+02  0.9061E+02  0.9049E+02
     -5.365  0.1658E+02  0.1593E+02  0.9159E+02  0.9143E+02
     -5.305  0.2657E+02  0.2572E+02  0.9317E+02  0.9296E+02
     -5.246  0.2365E+02  0.2131E+02  0.9457E+02  0.9422E+02
     -5.187  0.3085E+02  0.3284E+02  0.9639E+02  0.9616E+02
     -5.128  0.3203E+02  0.2870E+02  0.9829E+02  0.9786E+02
     -5.068  0.1366E+02  0.1609E+02  0.9910E+02  0.9882E+02
     -5.009  0.2247E+02  0.2426E+02  0.1004E+03  0.1003E+03
     -4.950  0.2742E+02  0.2611E+02  0.1021E+03  0.1018E+03
     -4.891  0.2444E+02  0.2505E+02  0.1035E+03  0.1033E+03
     -4.831  0.1848E+02  0.1628E+02  0.1046E+03  0.1043E+03
     -4.772  0.2276E+02  0.2580E+02  0.1059E+03  0.1058E+03
     -4.713  0.1572E+02  0.1695E+02  0.1069E+03  0.1068E+03
     -4.654  0.2594E+02  0.2667E+02  0.1084E+03  0.1084E+03
     -4.594  0.5405E+01  0.4856E+01  0.1087E+03  0.1087E+03
     -4.535  0.2662E+02  0.2353E+02  0.1103E+03  0.1100E+03
     -4.476  0.3219E+02  0.3046E+02  0.1122E+03  0.1119E+03
     -4.417  0.2635E+02  0.2393E+02  0.1138E+03  0.1133E+03
     -4.357  0.1673E+02  0.2507E+02  0.1148E+03  0.1148E+03
     -4.298  0.2607E+02  0.1788E+02  0.1163E+03  0.1158E+03
     -4.239  0.2970E+02  0.3201E+02  0.1181E+03  0.1177E+03
     -4.180  0.3567E+02  0.3622E+02  0.1202E+03  0.1199E+03
     -4.120  0.2849E+02  0.3205E+02  0.1219E+03  0.1218E+03
     -4.061  0.2784E+02  0.2423E+02  0.1235E+03  0.1232E+03
     -4.002  0.2608E+02  0.2921E+02  0.1251E+03  0.1249E+03
     -3.943  0.1332E+02  0.1454E+02  0.1259E+03  0.1258E+03
     -3.883  0.2064E+02  0.1865E+02  0.1271E+03  0.1269E+03
     -3.824  0.1852E+02  0.1610E+02  0.1282E+03  0.1278E+03
     -3.765  0.1891E+02  0.2317E+02  0.1293E+03  0.1292E+03
     -3.706  0.2999E+02  0.2899E+02  0.1311E+03  0.1309E+03
     -3.646  0.1862E+02  0.1756E+02  0.1322E+03  0.1320E+03
     -3.587  0.1670E+02  0.1660E+02  0.1332E+03  0.1330E+03
     -3.528  0.3126E+02  0.2929E+02  0.1350E+03  0.1347E+03
     -3.469  0.1520E+02  0.1812E+02  0.1359E+03  0.1358E+03
     -3.409  0.2830E+02  0.2556E+02  0.1376E+03  0.1373E+03
     -3.350  0.3093E+02  0.3442E+02  0.1394E+03  0.1393E+03
     -3.291  0.2448E+02  0.1867E+02  0.1409E+03  0.1404E+03
     -3.232  0.2297E+02  0.2414E+02  0.1422E+03  0.1419E+03
     -3.173  0.2620E+02  0.2997E+02  0.1438E+03  0.1436E+03
     -3.113  0.2543E+02  0.2230E+02  0.1453E+03  0.1450E+03
     -3.054  0.3510E+02  0.3104E+02  0.1474E+03  0.1468E+03
     -2.995  0.2543E+02  0.3477E+02  0.1489E+03  0.1489E+03
     -2.936  0.3033E+02  0.2610E+02  0.1507E+03  0.1504E+03
     -2.876  0.2695E+02  0.2407E+02  0.1523E+03  0.1518E+03
     -2.817  0.4208E+02  0.4473E+02  0.1548E+03  0.1545E+03
     -2.758  0.2273E+02  0.2055E+02  0.1561E+03  0.1557E+03
     -2.699  0.4134E+02  0.4172E+02  0.1586E+03  0.1582E+03
     -2.639  0.2907E+02  0.3179E+02  0.1603E+03  0.1600E+03
     -2.580  0.3025E+02  0.2947E+02  0.1621E+03  0.1618E+03
     -2.521  0.4419E+02  0.4415E+02  0.1647E+03  0.1644E+03
     -2.462  0.3016E+02  0.3001E+02  0.1665E+03  0.1662E+03
     -2.402  0.1916E+02  0.2126E+02  0.1676E+03  0.1674E+03
     -2.343  0.2542E+02  0.2256E+02  0.1691E+03  0.1688E+03
     -2.284  0.2239E+02  0.2422E+02  0.1705E+03  0.1702E+03
     -2.225  0.2866E+02  0.2772E+02  0.1722E+03  0.1719E+03
     -2.165  0.2023E+02  0.2218E+02  0.1734E+03  0.1732E+03
     -2.106  0.1278E+02  0.1523E+02  0.1741E+03  0.1741E+03
     -2.047  0.1646E+02  0.1407E+02  0.1751E+03  0.1749E+03
     -1.988  0.1442E+02  0.1366E+02  0.1759E+03  0.1757E+03
     -1.928  0.2850E+02  0.2692E+02  0.1776E+03  0.1773E+03
     -1.869  0.1423E+02  0.1912E+02  0.1785E+03  0.1784E+03
     -1.810  0.2432E+02  0.1971E+02  0.1799E+03  0.1796E+03
     -1.751  0.2040E+02  0.2187E+02  0.1811E+03  0.1809E+03
     -1.691  0.1639E+02  0.1799E+02  0.1821E+03  0.1820E+03
     -1.632  0.3342E+02  0.3275E+02  0.1841E+03  0.1839E+03
     -1.573  0.2530E+02  0.2589E+02  0.1856E+03  0.1854E+03
     -1.514  0.1732E+02  0.1737E+02  0.1866E+03  0.1865E+03
     -1.454  0.1799E+02  0.1484E+02  0.1877E+03  0.1874E+03
     -1.395  0.7832E+01  0.1270E+02  0.1881E+03  0.1881E+03
     -1.336  0.2936E+02  0.2251E+02  0.1899E+03  0.1894E+03
     -1.277  0.3349E+02  0.3687E+02  0.1919E+03  0.1916E+03
     -1.217  0.3283E+02  0.3114E+02  0.1938E+03  0.1935E+03
     -1.158  0.2511E+02  0.2646E+02  0.1953E+03  0.1950E+03
     -1.099  0.3312E+02  0.3059E+02  0.1973E+03  0.1969E+03
     -1.040  0.1952E+02  0.2416E+02  0.1984E+03  0.1983E+03
     -0.980  0.1469E+02  0.1335E+02  0.1993E+03  0.1991E+03
     -0.921  0.8938E+01  0.1188E+02  0.1998E+03  0.1998E+03
     -0.862  0.1828E+02  0.1394E+02  0.2009E+03  0.2006E+03
     -0.803  0.2460E+02  0.2573E+02  0.2023E+03  0.2021E+03
     -0.743  0.4615E+02  0.4335E+02  0.2051E+03  0.2047E+03
     -0.684  0.2742E+02  0.3088E+02  0.2067E+03  0.2065E+03
     -0.625  0.4455E+02  0.4512E+02  0.2093E+03  0.2092E+03
     -0.566  0.3423E+02  0.3049E+02  0.2114E+03  0.2110E+03
     -0.507  0.4705E+02  0.4354E+02  0.2142E+03  0.2136E+03
     -0.447  0.3185E+02  0.3256E+02  0.2160E+03  0.2155E+03
     -0.388  0.3312E+02  0.3937E+02  0.2180E+03  0.2178E+03
     -0.329  0.3230E+02  0.3324E+02  0.2199E+03  0.2198E+03
     -0.270  0.3783E+02  0.3448E+02  0.2222E+03  0.2219E+03
     -0.210  0.3693E+02  0.3775E+02  0.2244E+03  0.2241E+03
     -0.151  0.4094E+02  0.3638E+02  0.2268E+03  0.2263E+03
     -0.092  0.3354E+02  0.3712E+02  0.2288E+03  0.2285E+03
     -0.033  0.3928E+02  0.4088E+02  0.2311E+03  0.2309E+03
      0.027  0.3169E+02  0.3243E+02  0.2330E+03  0.2328E+03
      0.086  0.3714E+02  0.3841E+02  0.2352E+03  0.2351E+03
      0.145  0.4073E+02  0.3571E+02  0.2376E+03  0.2372E+03
      0.204  0.4195E+02  0.4231E+02  0.2401E+03  0.2397E+03
      0.264  0.5042E+02  0.5079E+02  0.2431E+03  0.2427E+03
      0.323  0.4581E+02  0.4538E+02  0.2458E+03  0.2454E+03
      0.382  0.4603E+02  0.4504E+02  0.2485E+03  0.2481E+03
      0.441  0.3948E+02  0.3924E+02  0.2508E+03  0.2504E+03
      0.501  0.4462E+02  0.4422E+02  0.2535E+03  0.2530E+03
      0.560  0.4194E+02  0.4094E+02  0.2560E+03  0.2554E+03
      0.619  0.3866E+02  0.4397E+02  0.2583E+03  0.2580E+03
      0.678  0.4406E+02  0.3999E+02  0.2609E+03  0.2604E+03
      0.738  0.4679E+02  0.4704E+02  0.2636E+03  0.2632E+03
      0.797  0.4390E+02  0.4636E+02  0.2662E+03  0.2659E+03
      0.856  0.4755E+02  0.4378E+02  0.2691E+03  0.2685E+03
      0.915  0.5123E+02  0.5604E+02  0.2721E+03  0.2719E+03
      0.975  0.4598E+02  0.4171E+02  0.2748E+03  0.2743E+03
      1.034  0.5476E+02  0.5750E+02  0.2781E+03  0.2777E+03
      1.093  0.4268E+02  0.4305E+02  0.2806E+03  0.2803E+03
      1.152  0.4396E+02  0.4262E+02  0.2832E+03  0.2828E+03
      1.212  0.4844E+02  0.5322E+02  0.2861E+03  0.2860E+03
      1.271  0.4076E+02  0.3651E+02  0.2885E+03  0.2881E+03
      1.330  0.3886E+02  0.3955E+02  0.2908E+03  0.2905E+03
      1.389  0.5034E+02  0.4869E+02  0.2938E+03  0.2934E+03
      1.449  0.4309E+02  0.4630E+02  0.2963E+03  0.2961E+03
      1.508  0.2834E+02  0.2512E+02  0.2980E+03  0.2976E+03
      1.567  0.4134E+02  0.4403E+02  0.3004E+03  0.3002E+03
      1.626  0.4308E+02  0.3862E+02  0.3030E+03  0.3025E+03
      1.686  0.4691E+02  0.4415E+02  0.3058E+03  0.3051E+03
      1.745  0.5050E+02  0.5819E+02  0.3088E+03  0.3085E+03
      1.804  0.4624E+02  0.4504E+02  0.3115E+03  0.3112E+03
      1.863  0.3175E+02  0.3239E+02  0.3134E+03  0.3131E+03
      1.923  0.4011E+02  0.3842E+02  0.3158E+03  0.3154E+03
      1.982  0.3458E+02  0.3752E+02  0.3178E+03  0.3176E+03
      2.041  0.4546E+02  0.3943E+02  0.3205E+03  0.3200E+03
      2.100  0.4098E+02  0.4476E+02  0.3229E+03  0.3226E+03
      2.159  0.3938E+02  0.3385E+02  0.3253E+03  0.3246E+03
      2.219  0.3719E+02  0.4165E+02  0.3275E+03  0.3271E+03
      2.278  0.3799E+02  0.3639E+02  0.3297E+03  0.3292E+03
      2.337  0.2982E+02  0.2983E+02  0.3315E+03  0.3310E+03
      2.396  0.4755E+02  0.4864E+02  0.3343E+03  0.3339E+03
      2.456  0.3254E+02  0.3051E+02  0.3362E+03  0.3357E+03
      2.515  0.4567E+02  0.4753E+02  0.3389E+03  0.3385E+03
      2.574  0.4059E+02  0.3951E+02  0.3413E+03  0.3409E+03
      2.633  0.3500E+02  0.3653E+02  0.3434E+03  0.3430E+03
      2.693  0.2799E+02  0.2881E+02  0.3451E+03  0.3447E+03
      2.752  0.4856E+02  0.4395E+02  0.3480E+03  0.3473E+03
      2.811  0.4083E+02  0.4315E+02  0.3504E+03  0.3499E+03
      2.870  0.4288E+02  0.3949E+02  0.3529E+03  0.3522E+03
      2.930  0.3718E+02  0.3673E+02  0.3551E+03  0.3544E+03
      2.989  0.3149E+02  0.3748E+02  0.3570E+03  0.3566E+03
      3.048  0.4147E+02  0.3761E+02  0.3594E+03  0.3589E+03
      3.107  0.3239E+02  0.3510E+02  0.3614E+03  0.3609E+03
      3.167  0.4064E+02  0.3877E+02  0.3638E+03  0.3632E+03
      3.226  0.3470E+02  0.3955E+02  0.3658E+03  0.3656E+03
      3.285  0.2820E+02  0.2309E+02  0.3675E+03  0.3669E+03
      3.344  0.3450E+02  0.3682E+02  0.3695E+03  0.3691E+03
      3.404  0.4257E+02  0.4045E+02  0.3721E+03  0.3715E+03
      3.463  0.3409E+02  0.3739E+02  0.3741E+03  0.3737E+03
      3.522  0.3257E+02  0.3113E+02  0.3760E+03  0.3756E+03
      3.581  0.4322E+02  0.3688E+02  0.3786E+03  0.3778E+03
      3.641  0.4309E+02  0.4503E+02  0.3811E+03  0.3804E+03
      3.700  0.4430E+02  0.4179E+02  0.3837E+03  0.3829E+03
      3.759  0.5183E+02  0.5342E+02  0.3868E+03  0.3861E+03
      3.818  0.3706E+02  0.4155E+02  0.3890E+03  0.3885E+03
      3.878  0.4577E+02  0.4224E+02  0.3917E+03  0.3910E+03
      3.937  0.4235E+02  0.4762E+02  0.3942E+03  0.3939E+03
      3.996  0.2800E+02  0.2687E+02  0.3959E+03  0.3955E+03
      4.055  0.3838E+02  0.3716E+02  0.3982E+03  0.3977E+03
      4.115  0.4097E+02  0.4279E+02  0.4006E+03  0.4002E+03
      4.174  0.3923E+02  0.3728E+02  0.4029E+03  0.4024E+03
      4.233  0.3326E+02  0.3571E+02  0.4049E+03  0.4045E+03
      4.292  0.4577E+02  0.4134E+02  0.4076E+03  0.4070E+03
      4.352  0.3675E+02  0.4149E+02  0.4098E+03  0.4094E+03
      4.411  0.2671E+02  0.2848E+02  0.4114E+03  0.4111E+03
      4.470  0.4462E+02  0.3855E+02  0.4140E+03  0.4134E+03
      4.529  0.2922E+02  0.3202E+02  0.4157E+03  0.4153E+03
      4.588  0.3686E+02  0.3413E+02  0.4179E+03  0.4173E+03
      4.648  0.3201E+02  0.3890E+02  0.4198E+03  0.4196E+03
      4.707  0.3862E+02  0.3298E+02  0.4221E+03  0.4216E+03
      4.766  0.3887E+02  0.3859E+02  0.4244E+03  0.4239E+03
      4.825  0.2328E+02  0.2716E+02  0.4258E+03  0.4255E+03
      4.885  0.3870E+02  0.3862E+02  0.4281E+03  0.4278E+03
      4.944  0.3361E+02  0.3194E+02  0.4301E+03  0.4297E+03
      5.003  0.2671E+02  0.3054E+02  0.4317E+03  0.4315E+03
      5.062  0.4579E+02  0.4397E+02  0.4344E+03  0.4341E+03
      5.122  0.3883E+02  0.3851E+02  0.4367E+03  0.4363E+03
      5.181  0.4099E+02  0.4010E+02  0.4391E+03  0.4387E+03
      5.240  0.3521E+02  0.3279E+02  0.4412E+03  0.4407E+03
      5.299  0.6292E+02  0.6016E+02  0.4449E+03  0.4442E+03
      5.359  0.3403E+02  0.3654E+02  0.4469E+03  0.4464E+03
      5.418  0.5178E+02  0.4867E+02  0.4500E+03  0.4493E+03
      5.477  0.5768E+02  0.5937E+02  0.4534E+03  0.4528E+03
      5.536  0.3509E+02  0.3986E+02  0.4555E+03  0.4552E+03
      5.596  0.4181E+02  0.4150E+02  0.4580E+03  0.4576E+03
      5.655  0.4651E+02  0.4544E+02  0.4607E+03  0.4603E+03
      5.714  0.3441E+02  0.3645E+02  0.4628E+03  0.4625E+03
      5.773  0.2062E+02  0.2212E+02  0.4640E+03  0.4638E+03
      5.833  0.2586E+00  0.3747E+01  0.4640E+03  0.4640E+03
      5.892  0.0000E+00  0.0000E+00  0.4640E+03  0.4640E+03
      5.951  0.0000E+00  0.0000E+00  0.4640E+03  0.4640E+03
      6.010  0.0000E+00  0.0000E+00  0.4640E+03  0.4640E+03
      6.070  0.0000E+00  0.0000E+00  0.4640E+03  0.4640E+03
      6.129  0.0000E+00  0.0000E+00  0.4640E+03  0.4640E+03
      6.188  0.0000E+00  0.0000E+00  0.4640E+03  0.4640E+03
      6.247  0.0000E+00  0.0000E+00  0.4640E+03  0.4640E+03
      6.307  0.0000E+00  0.0000E+00  0.4640E+03  0.4640E+03
      6.366  0.0000E+00  0.0000E+00  0.4640E+03  0.4640E+03
      6.425  0.0000E+00  0.0000E+00  0.4640E+03  0.4640E+03
      6.484  0.0000E+00  0.0000E+00  0.4640E+03  0.4640E+03
      6.544  0.0000E+00  0.0000E+00  0.4640E+03  0.4640E+03
      6.603  0.0000E+00  0.0000E+00  0.4640E+03  0.4640E+03
