 120 120   0   0
  0.2169524E+02  0.7680595E-09  0.1629300E-08  0.2080414E-08  0.5000000E-15
  1.000000000000000E-004
  CAR 
 Si and Ge interface calculation         
      7.91850484     -8.53187327  301      4.86129942      1.00000000
     -8.532  0.0000E+00  0.0000E+00  0.0000E+00  0.0000E+00
     -8.477  0.0000E+00  0.0000E+00  0.0000E+00  0.0000E+00
     -8.422  0.0000E+00  0.0000E+00  0.0000E+00  0.0000E+00
     -8.367  0.0000E+00  0.0000E+00  0.0000E+00  0.0000E+00
     -8.313  0.0000E+00  0.0000E+00  0.0000E+00  0.0000E+00
     -8.258  0.0000E+00  0.0000E+00  0.0000E+00  0.0000E+00
     -8.203  0.0000E+00  0.0000E+00  0.0000E+00  0.0000E+00
     -8.148  0.0000E+00  0.0000E+00  0.0000E+00  0.0000E+00
     -8.093  0.0000E+00  0.0000E+00  0.0000E+00  0.0000E+00
     -8.038  0.0000E+00  0.0000E+00  0.0000E+00  0.0000E+00
     -7.984  0.0000E+00  0.0000E+00  0.0000E+00  0.0000E+00
     -7.929  0.0000E+00  0.0000E+00  0.0000E+00  0.0000E+00
     -7.874  0.0000E+00  0.0000E+00  0.0000E+00  0.0000E+00
     -7.819  0.9142E-06  0.3000E-08  0.5013E-07  0.1645E-09
     -7.764  0.4138E+01  0.3219E+01  0.2269E+00  0.1765E+00
     -7.709  0.4212E+00  0.1340E+01  0.2500E+00  0.2500E+00
     -7.655  0.9457E+01  0.7650E+01  0.7685E+00  0.6695E+00
     -7.600  0.8780E+01  0.1059E+02  0.1250E+01  0.1250E+01
     -7.545  0.5079E+01  0.2778E+01  0.1529E+01  0.1402E+01
     -7.490  0.1544E+02  0.1774E+02  0.2375E+01  0.2375E+01
     -7.435  0.7794E+01  0.7081E+01  0.2802E+01  0.2763E+01
     -7.380  0.9459E+01  0.8377E+01  0.3321E+01  0.3223E+01
     -7.326  0.1419E+02  0.1230E+02  0.4099E+01  0.3897E+01
     -7.271  0.1778E+02  0.1942E+02  0.5074E+01  0.4962E+01
     -7.216  0.2769E+02  0.2827E+02  0.6592E+01  0.6513E+01
     -7.161  0.2089E+02  0.2158E+02  0.7738E+01  0.7696E+01
     -7.106  0.1884E+02  0.1870E+02  0.8771E+01  0.8722E+01
     -7.051  0.1989E+02  0.1976E+02  0.9862E+01  0.9805E+01
     -6.997  0.1788E+02  0.1333E+02  0.1084E+02  0.1054E+02
     -6.942  0.3122E+02  0.3371E+02  0.1255E+02  0.1238E+02
     -6.887  0.1834E+02  0.1833E+02  0.1356E+02  0.1339E+02
     -6.832  0.3778E+02  0.3631E+02  0.1563E+02  0.1538E+02
     -6.777  0.1851E+02  0.2082E+02  0.1665E+02  0.1652E+02
     -6.722  0.1606E+02  0.1731E+02  0.1753E+02  0.1747E+02
     -6.667  0.2056E+02  0.2048E+02  0.1865E+02  0.1859E+02
     -6.613  0.2499E+02  0.2227E+02  0.2002E+02  0.1982E+02
     -6.558  0.3143E+02  0.3246E+02  0.2175E+02  0.2160E+02
     -6.503  0.2333E+02  0.2374E+02  0.2303E+02  0.2290E+02
     -6.448  0.3706E+02  0.3610E+02  0.2506E+02  0.2488E+02
     -6.393  0.2914E+02  0.3087E+02  0.2666E+02  0.2657E+02
     -6.338  0.2091E+02  0.1923E+02  0.2780E+02  0.2762E+02
     -6.284  0.2118E+02  0.2330E+02  0.2897E+02  0.2890E+02
     -6.229  0.4169E+02  0.3829E+02  0.3125E+02  0.3100E+02
     -6.174  0.1849E+02  0.2041E+02  0.3226E+02  0.3212E+02
     -6.119  0.3600E+02  0.3470E+02  0.3424E+02  0.3402E+02
     -6.064  0.4468E+02  0.4474E+02  0.3669E+02  0.3648E+02
     -6.009  0.3444E+02  0.3170E+02  0.3858E+02  0.3822E+02
     -5.955  0.2824E+02  0.3071E+02  0.4013E+02  0.3990E+02
     -5.900  0.2790E+02  0.2877E+02  0.4166E+02  0.4148E+02
     -5.845  0.4064E+02  0.4060E+02  0.4388E+02  0.4370E+02
     -5.790  0.3527E+02  0.3214E+02  0.4582E+02  0.4547E+02
     -5.735  0.4327E+02  0.4692E+02  0.4819E+02  0.4804E+02
     -5.680  0.3717E+02  0.3577E+02  0.5023E+02  0.5000E+02
     -5.626  0.3942E+02  0.4240E+02  0.5239E+02  0.5232E+02
     -5.571  0.2291E+02  0.1819E+02  0.5365E+02  0.5332E+02
     -5.516  0.5004E+02  0.5138E+02  0.5639E+02  0.5614E+02
     -5.461  0.5158E+02  0.4987E+02  0.5922E+02  0.5887E+02
     -5.406  0.4106E+02  0.4520E+02  0.6147E+02  0.6135E+02
     -5.351  0.5028E+02  0.4842E+02  0.6423E+02  0.6401E+02
     -5.297  0.4401E+02  0.4425E+02  0.6664E+02  0.6643E+02
     -5.242  0.3313E+02  0.3266E+02  0.6846E+02  0.6823E+02
     -5.187  0.4017E+02  0.4226E+02  0.7066E+02  0.7054E+02
     -5.132  0.4494E+02  0.4266E+02  0.7313E+02  0.7288E+02
     -5.077  0.4080E+02  0.4239E+02  0.7536E+02  0.7521E+02
     -5.022  0.3430E+02  0.3483E+02  0.7724E+02  0.7712E+02
     -4.968  0.5845E+02  0.5793E+02  0.8045E+02  0.8029E+02
     -4.913  0.2686E+02  0.2747E+02  0.8192E+02  0.8180E+02
     -4.858  0.3406E+02  0.3252E+02  0.8379E+02  0.8358E+02
     -4.803  0.3414E+02  0.3378E+02  0.8566E+02  0.8544E+02
     -4.748  0.3032E+02  0.2792E+02  0.8732E+02  0.8697E+02
     -4.693  0.3348E+02  0.3650E+02  0.8916E+02  0.8897E+02
     -4.639  0.3022E+02  0.3028E+02  0.9082E+02  0.9063E+02
     -4.584  0.2462E+02  0.2584E+02  0.9217E+02  0.9204E+02
     -4.529  0.4318E+02  0.3945E+02  0.9454E+02  0.9421E+02
     -4.474  0.3681E+02  0.3860E+02  0.9655E+02  0.9632E+02
     -4.419  0.5361E+02  0.5537E+02  0.9949E+02  0.9936E+02
     -4.364  0.3278E+02  0.3381E+02  0.1013E+03  0.1012E+03
     -4.310  0.3386E+02  0.3222E+02  0.1031E+03  0.1030E+03
     -4.255  0.2978E+02  0.2936E+02  0.1048E+03  0.1046E+03
     -4.200  0.3175E+02  0.3222E+02  0.1065E+03  0.1064E+03
     -4.145  0.2026E+02  0.2035E+02  0.1076E+03  0.1075E+03
     -4.090  0.2765E+02  0.2792E+02  0.1091E+03  0.1090E+03
     -4.035  0.2399E+02  0.2420E+02  0.1105E+03  0.1103E+03
     -3.981  0.7513E+01  0.9837E+01  0.1109E+03  0.1109E+03
     -3.926  0.1081E+02  0.7898E+01  0.1115E+03  0.1113E+03
     -3.871  0.3112E+02  0.3028E+02  0.1132E+03  0.1130E+03
     -3.816  0.1621E+02  0.1600E+02  0.1141E+03  0.1138E+03
     -3.761  0.6479E+01  0.9842E+01  0.1144E+03  0.1144E+03
     -3.706  0.2049E+02  0.1723E+02  0.1155E+03  0.1153E+03
     -3.652  0.2564E+02  0.2836E+02  0.1169E+03  0.1169E+03
     -3.597  0.1838E+02  0.1754E+02  0.1180E+03  0.1178E+03
     -3.542  0.9726E+01  0.1003E+02  0.1185E+03  0.1184E+03
     -3.487  0.2422E+02  0.2351E+02  0.1198E+03  0.1197E+03
     -3.432  0.1375E+02  0.1486E+02  0.1206E+03  0.1205E+03
     -3.377  0.2005E+02  0.1830E+02  0.1217E+03  0.1215E+03
     -3.323  0.1778E+02  0.1733E+02  0.1226E+03  0.1225E+03
     -3.268  0.2792E+02  0.2920E+02  0.1242E+03  0.1241E+03
     -3.213  0.1427E+02  0.1498E+02  0.1250E+03  0.1249E+03
     -3.158  0.2992E+02  0.2688E+02  0.1266E+03  0.1263E+03
     -3.103  0.3110E+02  0.2777E+02  0.1283E+03  0.1279E+03
     -3.048  0.3354E+02  0.3823E+02  0.1301E+03  0.1300E+03
     -2.994  0.2199E+02  0.2104E+02  0.1314E+03  0.1311E+03
     -2.939  0.2039E+02  0.2253E+02  0.1325E+03  0.1324E+03
     -2.884  0.2551E+02  0.2465E+02  0.1339E+03  0.1337E+03
     -2.829  0.2849E+02  0.2319E+02  0.1354E+03  0.1350E+03
     -2.774  0.2780E+02  0.3133E+02  0.1370E+03  0.1367E+03
     -2.719  0.3918E+02  0.3688E+02  0.1391E+03  0.1387E+03
     -2.665  0.3527E+02  0.3715E+02  0.1410E+03  0.1408E+03
     -2.610  0.3523E+02  0.3694E+02  0.1430E+03  0.1428E+03
     -2.555  0.2156E+02  0.2163E+02  0.1442E+03  0.1440E+03
     -2.500  0.5457E+02  0.5147E+02  0.1471E+03  0.1468E+03
     -2.445  0.6107E+02  0.5802E+02  0.1505E+03  0.1500E+03
     -2.390  0.5097E+02  0.5310E+02  0.1533E+03  0.1529E+03
     -2.336  0.5778E+02  0.5771E+02  0.1565E+03  0.1560E+03
     -2.281  0.7632E+02  0.7767E+02  0.1606E+03  0.1603E+03
     -2.226  0.5024E+02  0.4626E+02  0.1634E+03  0.1628E+03
     -2.171  0.5311E+02  0.6121E+02  0.1663E+03  0.1662E+03
     -2.116  0.5208E+02  0.4860E+02  0.1692E+03  0.1689E+03
     -2.061  0.3223E+02  0.3236E+02  0.1709E+03  0.1706E+03
     -2.007  0.3822E+02  0.3705E+02  0.1730E+03  0.1727E+03
     -1.952  0.3880E+02  0.4133E+02  0.1752E+03  0.1749E+03
     -1.897  0.4500E+02  0.4051E+02  0.1776E+03  0.1772E+03
     -1.842  0.3817E+02  0.4168E+02  0.1797E+03  0.1794E+03
     -1.787  0.3197E+02  0.3387E+02  0.1815E+03  0.1813E+03
     -1.732  0.2905E+02  0.2755E+02  0.1831E+03  0.1828E+03
     -1.678  0.2677E+02  0.2982E+02  0.1845E+03  0.1844E+03
     -1.623  0.3052E+02  0.2647E+02  0.1862E+03  0.1859E+03
     -1.568  0.3070E+02  0.3046E+02  0.1879E+03  0.1876E+03
     -1.513  0.4223E+02  0.4606E+02  0.1902E+03  0.1901E+03
     -1.458  0.3587E+02  0.3026E+02  0.1922E+03  0.1918E+03
     -1.403  0.3073E+02  0.3362E+02  0.1939E+03  0.1936E+03
     -1.349  0.3262E+02  0.3660E+02  0.1956E+03  0.1956E+03
     -1.294  0.3763E+02  0.3390E+02  0.1977E+03  0.1975E+03
     -1.239  0.9843E+01  0.1396E+02  0.1982E+03  0.1982E+03
     -1.184  0.1026E+02  0.6846E+01  0.1988E+03  0.1986E+03
     -1.129  0.1899E+02  0.1968E+02  0.1999E+03  0.1997E+03
     -1.074  0.2375E+02  0.2091E+02  0.2012E+03  0.2008E+03
     -1.020  0.2778E+02  0.3167E+02  0.2027E+03  0.2026E+03
     -0.965  0.2243E+02  0.2012E+02  0.2039E+03  0.2037E+03
     -0.910  0.2702E+02  0.2612E+02  0.2054E+03  0.2051E+03
     -0.855  0.1493E+02  0.1924E+02  0.2062E+03  0.2062E+03
     -0.800  0.1396E+02  0.1238E+02  0.2070E+03  0.2068E+03
     -0.745  0.2005E+02  0.1961E+02  0.2081E+03  0.2079E+03
     -0.691  0.1058E+02  0.1147E+02  0.2087E+03  0.2085E+03
     -0.636  0.3040E+02  0.2597E+02  0.2103E+03  0.2100E+03
     -0.581  0.2016E+02  0.2062E+02  0.2114E+03  0.2111E+03
     -0.526  0.1934E+02  0.1997E+02  0.2125E+03  0.2122E+03
     -0.471  0.5120E+02  0.5213E+02  0.2153E+03  0.2150E+03
     -0.416  0.2644E+02  0.2524E+02  0.2167E+03  0.2164E+03
     -0.362  0.1860E+02  0.2292E+02  0.2178E+03  0.2177E+03
     -0.307  0.1356E+02  0.1465E+02  0.2185E+03  0.2185E+03
     -0.252  0.9039E+01  0.8610E+01  0.2190E+03  0.2190E+03
     -0.197  0.2563E+02  0.2460E+02  0.2204E+03  0.2203E+03
     -0.142  0.1238E+02  0.1228E+02  0.2211E+03  0.2210E+03
     -0.087  0.1436E+02  0.1275E+02  0.2219E+03  0.2217E+03
     -0.033  0.8096E+01  0.1033E+02  0.2223E+03  0.2223E+03
      0.022  0.2180E+02  0.1874E+02  0.2235E+03  0.2233E+03
      0.077  0.1391E+02  0.1776E+02  0.2243E+03  0.2243E+03
      0.132  0.1402E+02  0.1134E+02  0.2250E+03  0.2249E+03
      0.187  0.2162E+02  0.2094E+02  0.2262E+03  0.2260E+03
      0.242  0.4877E+02  0.4768E+02  0.2289E+03  0.2286E+03
      0.296  0.6527E+02  0.5833E+02  0.2325E+03  0.2318E+03
      0.351  0.4274E+02  0.5150E+02  0.2348E+03  0.2347E+03
      0.406  0.3057E+02  0.3143E+02  0.2365E+03  0.2364E+03
      0.461  0.3200E+02  0.2986E+02  0.2383E+03  0.2380E+03
      0.516  0.6506E+02  0.6462E+02  0.2418E+03  0.2416E+03
      0.571  0.6301E+02  0.5673E+02  0.2453E+03  0.2447E+03
      0.626  0.4431E+02  0.5172E+02  0.2477E+03  0.2475E+03
      0.680  0.6067E+02  0.5569E+02  0.2510E+03  0.2506E+03
      0.735  0.4702E+02  0.4886E+02  0.2536E+03  0.2532E+03
      0.790  0.7222E+02  0.6680E+02  0.2576E+03  0.2569E+03
      0.845  0.8652E+02  0.8872E+02  0.2623E+03  0.2618E+03
      0.900  0.6180E+02  0.6658E+02  0.2657E+03  0.2654E+03
      0.955  0.7645E+02  0.7436E+02  0.2699E+03  0.2695E+03
      1.009  0.4369E+02  0.4031E+02  0.2723E+03  0.2717E+03
      1.064  0.3279E+02  0.3694E+02  0.2741E+03  0.2737E+03
      1.119  0.8961E+02  0.8802E+02  0.2790E+03  0.2786E+03
      1.174  0.6720E+02  0.6769E+02  0.2827E+03  0.2823E+03
      1.229  0.6939E+02  0.6684E+02  0.2865E+03  0.2859E+03
      1.284  0.8127E+02  0.8218E+02  0.2910E+03  0.2904E+03
      1.338  0.8029E+02  0.7778E+02  0.2954E+03  0.2947E+03
      1.393  0.7392E+02  0.7863E+02  0.2994E+03  0.2990E+03
      1.448  0.4527E+02  0.4582E+02  0.3019E+03  0.3015E+03
      1.503  0.9749E+02  0.8615E+02  0.3072E+03  0.3063E+03
      1.558  0.6781E+02  0.8034E+02  0.3110E+03  0.3107E+03
      1.613  0.4013E+02  0.3642E+02  0.3132E+03  0.3127E+03
      1.667  0.7381E+02  0.7842E+02  0.3172E+03  0.3170E+03
      1.722  0.8603E+02  0.8671E+02  0.3219E+03  0.3217E+03
      1.777  0.7997E+02  0.7438E+02  0.3263E+03  0.3258E+03
      1.832  0.8603E+02  0.8445E+02  0.3310E+03  0.3304E+03
      1.887  0.9986E+02  0.1006E+03  0.3365E+03  0.3359E+03
      1.942  0.8331E+02  0.8274E+02  0.3411E+03  0.3405E+03
      1.996  0.6825E+02  0.6851E+02  0.3448E+03  0.3442E+03
      2.051  0.6545E+02  0.7042E+02  0.3484E+03  0.3481E+03
      2.106  0.5776E+02  0.5822E+02  0.3516E+03  0.3513E+03
      2.161  0.6319E+02  0.5926E+02  0.3550E+03  0.3545E+03
      2.216  0.7632E+02  0.8036E+02  0.3592E+03  0.3589E+03
      2.271  0.8319E+02  0.7326E+02  0.3638E+03  0.3630E+03
      2.325  0.7200E+02  0.8345E+02  0.3677E+03  0.3675E+03
      2.380  0.5669E+02  0.5284E+02  0.3708E+03  0.3704E+03
      2.435  0.6945E+02  0.6986E+02  0.3746E+03  0.3743E+03
      2.490  0.6275E+02  0.6059E+02  0.3781E+03  0.3776E+03
      2.545  0.9106E+02  0.9348E+02  0.3831E+03  0.3827E+03
      2.600  0.7189E+02  0.6956E+02  0.3870E+03  0.3865E+03
      2.654  0.6932E+02  0.6795E+02  0.3908E+03  0.3903E+03
      2.709  0.5971E+02  0.6554E+02  0.3941E+03  0.3939E+03
      2.764  0.5686E+02  0.5836E+02  0.3972E+03  0.3971E+03
      2.819  0.6472E+02  0.5543E+02  0.4008E+03  0.4001E+03
      2.874  0.4089E+02  0.4633E+02  0.4030E+03  0.4026E+03
      2.929  0.5133E+02  0.4967E+02  0.4058E+03  0.4054E+03
      2.983  0.7337E+02  0.7404E+02  0.4098E+03  0.4094E+03
      3.038  0.7233E+02  0.6794E+02  0.4138E+03  0.4131E+03
      3.093  0.6604E+02  0.6197E+02  0.4174E+03  0.4165E+03
      3.148  0.7249E+02  0.6892E+02  0.4214E+03  0.4203E+03
      3.203  0.5212E+02  0.6487E+02  0.4243E+03  0.4239E+03
      3.258  0.6362E+02  0.6483E+02  0.4277E+03  0.4274E+03
      3.312  0.7776E+02  0.6587E+02  0.4320E+03  0.4310E+03
      3.367  0.7206E+02  0.7535E+02  0.4360E+03  0.4352E+03
      3.422  0.4767E+02  0.5714E+02  0.4386E+03  0.4383E+03
      3.477  0.6405E+02  0.5718E+02  0.4421E+03  0.4414E+03
      3.532  0.5662E+02  0.5989E+02  0.4452E+03  0.4447E+03
      3.587  0.3871E+02  0.4404E+02  0.4473E+03  0.4471E+03
      3.641  0.4542E+02  0.4135E+02  0.4498E+03  0.4494E+03
      3.696  0.4419E+02  0.4495E+02  0.4522E+03  0.4519E+03
      3.751  0.4425E+02  0.4608E+02  0.4547E+03  0.4544E+03
      3.806  0.3126E+02  0.3094E+02  0.4564E+03  0.4561E+03
      3.861  0.4087E+02  0.3982E+02  0.4586E+03  0.4583E+03
      3.916  0.2530E+02  0.2597E+02  0.4600E+03  0.4597E+03
      3.970  0.2875E+02  0.3152E+02  0.4616E+03  0.4614E+03
      4.025  0.4193E+02  0.3688E+02  0.4639E+03  0.4635E+03
      4.080  0.3555E+02  0.3960E+02  0.4658E+03  0.4656E+03
      4.135  0.2026E+02  0.2042E+02  0.4669E+03  0.4667E+03
      4.190  0.2138E+02  0.1837E+02  0.4681E+03  0.4678E+03
      4.245  0.2317E+02  0.2051E+02  0.4694E+03  0.4689E+03
      4.299  0.2994E+02  0.2587E+02  0.4710E+03  0.4703E+03
      4.354  0.1719E+02  0.2730E+02  0.4720E+03  0.4718E+03
      4.409  0.1661E+02  0.1955E+02  0.4729E+03  0.4729E+03
      4.464  0.1163E+02  0.1939E+00  0.4735E+03  0.4729E+03
      4.519  0.1844E+02  0.1705E+02  0.4745E+03  0.4738E+03
      4.574  0.1737E+02  0.1962E+02  0.4755E+03  0.4749E+03
      4.628  0.1237E+02  0.1184E+02  0.4762E+03  0.4755E+03
      4.683  0.7391E+01  0.1133E+02  0.4766E+03  0.4762E+03
      4.738  0.1688E+02  0.8484E+01  0.4775E+03  0.4766E+03
      4.793  0.1358E+02  0.1544E+02  0.4782E+03  0.4775E+03
      4.848  0.3810E+02  0.1484E+02  0.4803E+03  0.4783E+03
      4.903  0.2018E+02  0.3646E+02  0.4814E+03  0.4803E+03
      4.957  0.1976E+02  0.2686E+02  0.4825E+03  0.4818E+03
      5.012  0.2776E+02  0.1994E+02  0.4840E+03  0.4829E+03
      5.067  0.3116E+02  0.2976E+02  0.4857E+03  0.4845E+03
      5.122  0.3440E+02  0.3027E+02  0.4876E+03  0.4861E+03
      5.177  0.3096E+02  0.3493E+02  0.4893E+03  0.4881E+03
      5.232  0.5174E+02  0.3136E+02  0.4922E+03  0.4898E+03
      5.286  0.2792E+02  0.5350E+02  0.4937E+03  0.4927E+03
      5.341  0.2546E+02  0.2633E+02  0.4951E+03  0.4942E+03
      5.396  0.4434E+02  0.5140E+02  0.4975E+03  0.4970E+03
      5.451  0.3308E+02  0.3256E+02  0.4993E+03  0.4988E+03
      5.506  0.3767E+02  0.4169E+02  0.5014E+03  0.5010E+03
      5.561  0.3496E+02  0.3226E+02  0.5033E+03  0.5028E+03
      5.615  0.4652E+02  0.4393E+02  0.5059E+03  0.5052E+03
      5.670  0.4271E+02  0.4603E+02  0.5082E+03  0.5077E+03
      5.725  0.3821E+02  0.3589E+02  0.5103E+03  0.5097E+03
      5.780  0.5374E+02  0.4968E+02  0.5133E+03  0.5124E+03
      5.835  0.6050E+02  0.5955E+02  0.5166E+03  0.5157E+03
      5.890  0.3616E+02  0.4433E+02  0.5186E+03  0.5181E+03
      5.944  0.4946E+02  0.4874E+02  0.5213E+03  0.5208E+03
      5.999  0.6953E+02  0.6528E+02  0.5251E+03  0.5244E+03
      6.054  0.5658E+02  0.6062E+02  0.5282E+03  0.5277E+03
      6.109  0.3996E+02  0.4046E+02  0.5304E+03  0.5299E+03
      6.164  0.4688E+02  0.4351E+02  0.5329E+03  0.5323E+03
      6.219  0.4329E+02  0.4721E+02  0.5353E+03  0.5349E+03
      6.273  0.5312E+02  0.5174E+02  0.5382E+03  0.5377E+03
      6.328  0.6651E+02  0.6448E+02  0.5419E+03  0.5413E+03
      6.383  0.3657E+02  0.3680E+02  0.5439E+03  0.5433E+03
      6.438  0.4565E+02  0.4506E+02  0.5464E+03  0.5458E+03
      6.493  0.6287E+02  0.6540E+02  0.5498E+03  0.5494E+03
      6.548  0.5845E+02  0.5700E+02  0.5530E+03  0.5525E+03
      6.602  0.7200E+02  0.6797E+02  0.5570E+03  0.5562E+03
      6.657  0.5574E+02  0.6225E+02  0.5600E+03  0.5596E+03
      6.712  0.4450E+02  0.4644E+02  0.5625E+03  0.5622E+03
      6.767  0.4358E+02  0.4122E+02  0.5649E+03  0.5644E+03
      6.822  0.3914E+02  0.4012E+02  0.5670E+03  0.5666E+03
      6.877  0.4028E+02  0.4295E+02  0.5692E+03  0.5690E+03
      6.931  0.5063E+02  0.4926E+02  0.5720E+03  0.5717E+03
      6.986  0.2879E+02  0.3240E+02  0.5736E+03  0.5735E+03
      7.041  0.1225E+02  0.1440E+02  0.5743E+03  0.5743E+03
      7.096  0.2121E+02  0.1724E+02  0.5754E+03  0.5752E+03
      7.151  0.9049E+01  0.1165E+02  0.5759E+03  0.5758E+03
      7.206  0.1625E+01  0.3016E+01  0.5760E+03  0.5760E+03
      7.260  0.0000E+00  0.0000E+00  0.5760E+03  0.5760E+03
      7.315  0.0000E+00  0.0000E+00  0.5760E+03  0.5760E+03
      7.370  0.0000E+00  0.0000E+00  0.5760E+03  0.5760E+03
      7.425  0.0000E+00  0.0000E+00  0.5760E+03  0.5760E+03
      7.480  0.0000E+00  0.0000E+00  0.5760E+03  0.5760E+03
      7.535  0.0000E+00  0.0000E+00  0.5760E+03  0.5760E+03
      7.589  0.0000E+00  0.0000E+00  0.5760E+03  0.5760E+03
      7.644  0.0000E+00  0.0000E+00  0.5760E+03  0.5760E+03
      7.699  0.0000E+00  0.0000E+00  0.5760E+03  0.5760E+03
      7.754  0.0000E+00  0.0000E+00  0.5760E+03  0.5760E+03
      7.809  0.0000E+00  0.0000E+00  0.5760E+03  0.5760E+03
      7.864  0.0000E+00  0.0000E+00  0.5760E+03  0.5760E+03
      7.919  0.0000E+00  0.0000E+00  0.5760E+03  0.5760E+03
