<?xml version="1.0" encoding="ISO-8859-1"?>
<modeling>
 <generator>
  <i name="program" type="string">vasp </i>
  <i name="version" type="string">6.4.3  </i>
  <i name="subversion" type="string">19Mar24 (build Oct 22 2024 11:23:12) complex                          parallel </i>
  <i name="platform" type="string">LinuxIFC </i>
  <i name="date" type="string">2025 03 27 </i>
  <i name="time" type="string">22:05:27 </i>
 </generator>
 <incar>
  <i type="string" name="SYSTEM">Si and Ge interface calculation</i>
  <i type="int" name="ISTART">     0</i>
  <i type="string" name="ALGO">VeryFast</i>
  <i type="int" name="ICHARG">     2</i>
  <i type="int" name="NELM">    60</i>
  <i type="int" name="IBRION">     2</i>
  <i name="EDIFF">      0.00000100</i>
  <i name="EDIFFG">     -0.01000000</i>
  <i type="int" name="NSW">    20</i>
  <i type="int" name="ISIF">     3</i>
  <i name="ENCUT">    600.00000000</i>
  <i name="POTIM">      0.50000000</i>
  <i type="string" name="LREAL">A</i>
  <i type="int" name="ISMEAR">     0</i>
  <i name="SIGMA">      0.05000000</i>
 </incar>
 <primitive_cell>
  <structure name="primitive_cell" >
   <crystal>
    <varray name="basis" >
     <v>       6.78998557       0.00000000       0.00000000 </v>
     <v>       1.13166426       3.75330574       0.00000000 </v>
     <v>       0.00000000       0.00000000      15.87999950 </v>
    </varray>
    <i name="volume">    404.70006931 </i>
    <varray name="rec_basis" >
     <v>       0.14727572      -0.04440530       0.00000000 </v>
     <v>       0.00000000       0.26643180       0.00000000 </v>
     <v>       0.00000000       0.00000000       0.06297229 </v>
    </varray>
   </crystal>
   <varray name="positions" >
    <v>       0.04545455       0.00000000       0.00000000 </v>
    <v>       0.95454545       0.54545455       0.07732399 </v>
    <v>       0.59090909       0.72727273       0.10309866 </v>
    <v>       0.50000000       0.27272727       0.18042265 </v>
    <v>       0.13636364       0.45454545       0.20619731 </v>
    <v>       0.04545455       0.00000000       0.28352130 </v>
    <v>       0.68181818       0.18181818       0.30929597 </v>
    <v>       0.59090909       0.72727273       0.38661996 </v>
    <v>       0.22727273       0.90909091       0.41239462 </v>
    <v>       0.13636364       0.45454545       0.48971861 </v>
    <v>       0.04545455       0.00000000       0.48971861 </v>
    <v>       0.95454545       0.54545455       0.57028936 </v>
    <v>       0.59090909       0.72727273       0.59714627 </v>
    <v>       0.50000000       0.27272727       0.67771702 </v>
    <v>       0.13636364       0.45454545       0.70457393 </v>
    <v>       0.04545455       0.00000000       0.78514468 </v>
    <v>       0.68181818       0.18181818       0.81200159 </v>
    <v>       0.59090909       0.72727273       0.89257234 </v>
    <v>       0.22727273       0.90909091       0.91942925 </v>
    <v>       0.13636364       0.45454545       0.00000000 </v>
   </varray>
  </structure>
  <varray name="primitive_index" >
   <v type="int" >        1 </v>
   <v type="int" >        2 </v>
   <v type="int" >        3 </v>
   <v type="int" >        4 </v>
   <v type="int" >        5 </v>
   <v type="int" >        6 </v>
   <v type="int" >        7 </v>
   <v type="int" >        8 </v>
   <v type="int" >        9 </v>
   <v type="int" >       10 </v>
   <v type="int" >       11 </v>
   <v type="int" >       12 </v>
   <v type="int" >       13 </v>
   <v type="int" >       14 </v>
   <v type="int" >       15 </v>
   <v type="int" >       16 </v>
   <v type="int" >       17 </v>
   <v type="int" >       18 </v>
   <v type="int" >       19 </v>
   <v type="int" >       20 </v>
  </varray>
 </primitive_cell>
 <kpoints>
  <generation param="Gamma">
   <v type="int" name="divisions">       4        4        4 </v>
   <v name="usershift">      0.00000000       0.00000000       0.00000000 </v>
   <v name="genvec1">      0.25000000      -0.00000000       0.00000000 </v>
   <v name="genvec2">      0.00000000       0.25000000       0.00000000 </v>
   <v name="genvec3">      0.00000000       0.00000000       0.25000000 </v>
   <v name="shift">      0.00000000       0.00000000       0.00000000 </v>
  </generation>
  <varray name="kpointlist" >
   <v>       0.00000000       0.00000000       0.00000000 </v>
   <v>       0.25000000       0.00000000       0.00000000 </v>
   <v>       0.50000000       0.00000000       0.00000000 </v>
   <v>       0.00000000       0.25000000       0.00000000 </v>
   <v>       0.50000000       0.25000000       0.00000000 </v>
   <v>       0.00000000       0.50000000       0.00000000 </v>
   <v>       0.25000000       0.50000000       0.00000000 </v>
   <v>       0.00000000       0.00000000       0.25000000 </v>
   <v>       0.25000000       0.00000000       0.25000000 </v>
   <v>      -0.25000000      -0.00000000       0.25000000 </v>
   <v>       0.50000000       0.00000000       0.25000000 </v>
   <v>       0.00000000       0.25000000       0.25000000 </v>
   <v>       0.00000000      -0.25000000       0.25000000 </v>
   <v>       0.50000000       0.25000000       0.25000000 </v>
   <v>       0.50000000      -0.25000000       0.25000000 </v>
   <v>       0.00000000       0.50000000       0.25000000 </v>
   <v>       0.25000000       0.50000000       0.25000000 </v>
   <v>       0.00000000       0.00000000       0.50000000 </v>
   <v>       0.25000000       0.00000000       0.50000000 </v>
   <v>       0.50000000       0.00000000       0.50000000 </v>
   <v>       0.00000000       0.25000000       0.50000000 </v>
   <v>       0.50000000       0.25000000       0.50000000 </v>
   <v>       0.00000000       0.50000000       0.50000000 </v>
   <v>       0.25000000       0.50000000       0.50000000 </v>
  </varray>
  <varray name="weights" >
   <v>       0.01562500 </v>
   <v>       0.03125000 </v>
   <v>       0.01562500 </v>
   <v>       0.06250000 </v>
   <v>       0.06250000 </v>
   <v>       0.03125000 </v>
   <v>       0.03125000 </v>
   <v>       0.03125000 </v>
   <v>       0.03125000 </v>
   <v>       0.03125000 </v>
   <v>       0.03125000 </v>
   <v>       0.06250000 </v>
   <v>       0.06250000 </v>
   <v>       0.06250000 </v>
   <v>       0.06250000 </v>
   <v>       0.06250000 </v>
   <v>       0.06250000 </v>
   <v>       0.01562500 </v>
   <v>       0.03125000 </v>
   <v>       0.01562500 </v>
   <v>       0.06250000 </v>
   <v>       0.06250000 </v>
   <v>       0.03125000 </v>
   <v>       0.03125000 </v>
  </varray>
 </kpoints>
 <parameters>
  <separator name="general" >
   <i type="string" name="SYSTEM">Si and Ge interface calculation</i>
   <i type="logical" name="LCOMPAT"> F  </i>
  </separator>
  <separator name="electronic" >
   <i type="string" name="PREC">normal</i>
   <i name="ENMAX">    600.00000000</i>
   <i name="ENAUG">    385.84300000</i>
   <i name="EDIFF">      0.00000100</i>
   <i type="int" name="IALGO">    48</i>
   <i type="int" name="IWAVPR">    11</i>
   <i type="int" name="NBANDS">    51</i>
   <i type="int" name="NBANDSLOW">    -1</i>
   <i type="int" name="NBANDSHIGH">    -1</i>
   <i name="NELECT">     80.00000000</i>
   <i type="int" name="TURBO">     0</i>
   <i type="int" name="IRESTART">     0</i>
   <i type="int" name="NREBOOT">     0</i>
   <i type="int" name="NMIN">     0</i>
   <i name="EREF">      0.00000000</i>
   <separator name="electronic smearing" >
    <i type="int" name="ISMEAR">     0</i>
    <i name="SIGMA">      0.05000000</i>
    <i name="KSPACING">      0.50000000</i>
    <i type="logical" name="KGAMMA"> T  </i>
    <i type="logical" name="KBLOWUP"> T  </i>
   </separator>
   <separator name="electronic projectors" >
    <i type="logical" name="LREAL"> T  </i>
    <v name="ROPT">     -0.00050000     -0.00050000</v>
    <i type="int" name="LMAXPAW">  -100</i>
    <i type="int" name="LMAXMIX">     2</i>
    <i type="logical" name="NLSPLINE"> F  </i>
   </separator>
   <separator name="electronic startup" >
    <i type="int" name="ISTART">     0</i>
    <i type="int" name="ICHARG">     2</i>
    <i type="int" name="INIWAV">     1</i>
   </separator>
   <separator name="electronic spin" >
    <i type="int" name="ISPIN">     1</i>
    <i type="logical" name="LNONCOLLINEAR"> F  </i>
    <v name="MAGMOM">      1.00000000      1.00000000      1.00000000      1.00000000      1.00000000      1.00000000      1.00000000      1.00000000      1.00000000      1.00000000      1.00000000      1.00000000      1.00000000      1.00000000      1.00000000      1.00000000      1.00000000      1.00000000      1.00000000      1.00000000
</v>
    <i name="NUPDOWN">     -1.00000000</i>
    <i type="logical" name="LSORBIT"> F  </i>
    <v name="SAXIS">      0.00000000      0.00000000      1.00000000</v>
    <i type="logical" name="LSPIRAL"> F  </i>
    <v name="QSPIRAL">      0.00000000      0.00000000      0.00000000</v>
    <i type="logical" name="LZEROZ"> F  </i>
   </separator>
   <separator name="electronic exchange-correlation" >
    <i type="logical" name="LASPH"> F  </i>
   </separator>
   <separator name="electronic convergence" >
    <i type="int" name="NELM">    60</i>
    <i type="int" name="NELMDL">   -12</i>
    <i type="int" name="NELMIN">     2</i>
    <i name="ENINI">    600.00000000</i>
    <separator name="electronic convergence detail" >
     <i type="logical" name="LDIAG"> T  </i>
     <i type="logical" name="LSUBROT"> F  </i>
     <i name="WEIMIN">      0.00100000</i>
     <i name="EBREAK">      0.00000000</i>
     <i name="DEPER">      0.30000000</i>
     <i type="int" name="NRMM">     4</i>
     <i name="TIME">      0.40000000</i>
    </separator>
   </separator>
   <separator name="electronic mixer" >
    <i name="AMIX">      0.40000000</i>
    <i name="BMIX">      1.00000000</i>
    <i name="AMIN">      0.10000000</i>
    <i name="AMIX_MAG">      1.60000000</i>
    <i name="BMIX_MAG">      1.00000000</i>
    <separator name="electronic mixer details" >
     <i type="int" name="IMIX">     4</i>
     <i type="logical" name="MIXFIRST"> F  </i>
     <i type="int" name="MAXMIX">   -45</i>
     <i name="WC">    100.00000000</i>
     <i type="int" name="INIMIX">     1</i>
     <i type="int" name="MIXPRE">     1</i>
     <i type="int" name="MREMOVE">     5</i>
    </separator>
   </separator>
   <separator name="electronic dipolcorrection" >
    <i type="logical" name="LDIPOL"> F  </i>
    <i type="logical" name="LMONO"> F  </i>
    <i type="int" name="IDIPOL">     0</i>
    <i name="EPSILON">      1.00000000</i>
    <v name="DIPOL">   -100.00000000   -100.00000000   -100.00000000</v>
    <i name="EFIELD">      0.00000000</i>
    <i type="logical" name="LVACPOTAV"> F  </i>
   </separator>
  </separator>
  <separator name="grids" >
   <i type="int" name="NGX">    42</i>
   <i type="int" name="NGY">    24</i>
   <i type="int" name="NGZ">    96</i>
   <i type="int" name="NGXF">    84</i>
   <i type="int" name="NGYF">    48</i>
   <i type="int" name="NGZF">   192</i>
   <i type="logical" name="ADDGRID"> F  </i>
  </separator>
  <separator name="ionic" >
   <i type="int" name="NSW">    20</i>
   <i type="int" name="IBRION">     2</i>
   <i type="int" name="MDALGO">     0</i>
   <i type="int" name="ISIF">     3</i>
   <i name="PSTRESS">      0.00000000</i>
   <i name="EDIFFG">     -0.01000000</i>
   <i type="int" name="NFREE">     1</i>
   <i name="POTIM">      0.50000000</i>
   <i name="SMASS">     -3.00000000</i>
   <i name="SCALEE">      1.00000000</i>
  </separator>
  <separator name="ionic md" >
   <i name="TEBEG">      0.00010000</i>
   <i name="TEEND">      0.00010000</i>
   <i type="int" name="NBLOCK">     1</i>
   <i type="int" name="KBLOCK">    20</i>
   <i type="int" name="NPACO">   256</i>
   <i name="APACO">     10.00000000</i>
  </separator>
  <separator name="symmetry" >
   <i type="int" name="ISYM">     2</i>
   <i name="SYMPREC">      0.00001000</i>
  </separator>
  <separator name="dos" >
   <i type="int" name="LORBIT">     0</i>
   <v name="RWIGS">     -1.00000000     -1.00000000</v>
   <i type="int" name="NEDOS">   301</i>
   <i name="EMIN">     10.00000000</i>
   <i name="EMAX">    -10.00000000</i>
   <i name="EFERMI">      0.00000000</i>
  </separator>
  <separator name="writing" >
   <i type="int" name="NWRITE">     2</i>
   <i type="logical" name="LWAVE"> T  </i>
   <i type="logical" name="LDOWNSAMPLE"> F  </i>
   <i type="logical" name="LCHARG"> T  </i>
   <i type="logical" name="LPARD"> F  </i>
   <i type="logical" name="LVTOT"> F  </i>
   <i type="logical" name="LVHAR"> F  </i>
   <i type="logical" name="LELF"> F  </i>
   <i type="logical" name="LOPTICS"> F  </i>
   <v name="STM">      0.00000000      0.00000000      0.00000000      0.00000000      0.00000000      0.00000000      0.00000000</v>
  </separator>
  <separator name="performance" >
   <i type="int" name="NPAR">     1</i>
   <i type="int" name="NSIM">     4</i>
   <i type="int" name="NBLK">    -1</i>
   <i type="logical" name="LPLANE"> T  </i>
   <i type="logical" name="LSCALAPACK"> T  </i>
   <i type="logical" name="LSCAAWARE"> F  </i>
   <i type="logical" name="LSCALU"> F  </i>
   <i type="logical" name="LASYNC"> F  </i>
   <i type="logical" name="LORBITALREAL"> F  </i>
  </separator>
  <separator name="miscellaneous" >
   <i type="int" name="IDIOT">     3</i>
   <i type="int" name="PHON_NSTRUCT">    -1</i>
   <i type="logical" name="LMUSIC"> F  </i>
   <v name="POMASS">     28.08500000     72.61000000</v>
   <v name="DARWINR">      0.00000000      0.00000000</v>
   <v name="DARWINV">      1.00000000      1.00000000</v>
   <i type="logical" name="LCORR"> T  </i>
  </separator>
  <i type="logical" name="GGA_COMPAT"> T  </i>
  <i type="logical" name="LBERRY"> F  </i>
  <i type="int" name="ICORELEVEL">     0</i>
  <i type="logical" name="LDAU"> F  </i>
  <i type="int" name="I_CONSTRAINED_M">     0</i>
  <separator name="electronic exchange-correlation" >
   <i type="string" name="GGA    ">PE</i>
   <i type="string" name="XC_C">1</i>
   <i type="int" name="VOSKOWN">     0</i>
   <i type="logical" name="LHFCALC"> F  </i>
   <i type="string" name="PRECFOCK"></i>
   <i type="logical" name="LSYMGRAD"> F  </i>
   <i type="logical" name="LHFONE"> F  </i>
   <i type="logical" name="LRHFCALC"> F  </i>
   <i type="logical" name="LTHOMAS"> F  </i>
   <i type="logical" name="LMODELHF"> F  </i>
   <i type="logical" name="LFOCKACE"> F  </i>
   <i name="ENCUT4O">     -1.00000000</i>
   <i type="int" name="EXXOEP">     0</i>
   <i type="int" name="FOURORBIT">     0</i>
   <i name="AEXX">      0.00000000</i>
   <i name="HFALPHA">      0.00000000</i>
   <i name="MCALPHA">      0.00000000</i>
   <i name="ALDAX">      1.00000000</i>
   <i name="AGGAX">      1.00000000</i>
   <i name="AMGGAX">      1.00000000</i>
   <i name="ALDAC">      1.00000000</i>
   <i name="AGGAC">      1.00000000</i>
   <i name="AMGGAC">      1.00000000</i>
   <i type="int" name="NKREDX">     1</i>
   <i type="int" name="NKREDY">     1</i>
   <i type="int" name="NKREDZ">     1</i>
   <i type="logical" name="SHIFTRED"> F  </i>
   <i type="logical" name="ODDONLY"> F  </i>
   <i type="logical" name="EVENONLY"> F  </i>
   <i type="int" name="LMAXFOCK">     0</i>
   <i type="int" name="NMAXFOCKAE">     0</i>
   <i type="logical" name="LFOCKAEDFT"> F  </i>
   <i name="HFSCREEN">      0.00000000</i>
   <i name="HFSCREENC">      0.00000000</i>
   <i type="int" name="NBANDSGWLOW">     0</i>
  </separator>
  <separator name="vdW DFT" >
   <i type="logical" name="LUSE_VDW"> F  </i>
   <i type="int" name="IVDW_NL">    -1</i>
   <i type="logical" name="LSPIN_VDW"> F  </i>
   <i name="ZAB_VDW">     -0.84910000</i>
   <i name="GAMMA_VDW">      1.39626340</i>
   <i name="ALPHA_VDW">      0.00000000</i>
   <i name="PARAM1">      0.12340000</i>
   <i name="PARAM2">      1.00000000</i>
   <i name="BPARAM">      6.30000000</i>
   <i name="CPARAM">      0.00930000</i>
  </separator>
  <separator name="model GW" >
   <i type="int" name="MODEL_GW">     0</i>
   <i name="MODEL_EPS0">     12.14100208</i>
   <i name="MODEL_ALPHA">      1.00000000</i>
  </separator>
  <separator name="linear response parameters" >
   <i type="logical" name="LEPSILON"> F  </i>
   <i type="logical" name="LRPA"> F  </i>
   <i type="logical" name="LNABLA"> F  </i>
   <i type="logical" name="LVEL"> F  </i>
   <i name="CSHIFT">      0.10000000</i>
   <i name="OMEGAMAX">     -1.00000000</i>
   <i name="DEG_THRESHOLD">      0.00200000</i>
   <i name="RTIME">     -0.10000000</i>
   <i name="WPLASMAI">      0.00000000</i>
   <v name="DFIELD">      0.00000000      0.00000000      0.00000000</v>
   <v name="WPLASMA">      0.00000000      0.00000000      0.00000000      0.00000000      0.00000000      0.00000000      0.00000000      0.00000000      0.00000000</v>
  </separator>
  <separator name="orbital magnetization" >
   <i type="logical" name="NUCIND"> F  </i>
   <v name="MAGPOS">      0.00000000      0.00000000      0.00000000</v>
   <i type="logical" name="LNICSALL"> T  </i>
   <i type="logical" name="ORBITALMAG"> F  </i>
   <i type="logical" name="LMAGBLOCH"> F  </i>
   <i type="logical" name="LCHIMAG"> F  </i>
   <i type="logical" name="LGAUGE"> T  </i>
   <i type="int" name="MAGATOM">     0</i>
   <v name="MAGDIPOL">      0.00000000      0.00000000      0.00000000</v>
   <v name="AVECCONST">      0.00000000      0.00000000      0.00000000</v>
  </separator>
  <separator name="response functions" >
   <i type="logical" name="LALL_IN_ONE"> F  </i>
   <i type="int" name="IALL_IN_ONE">    -1</i>
   <i type="int" name="NBANDS_WAVE">    -1</i>
   <i type="logical" name="LFINITE_TEMPERATURE"> F  </i>
   <i type="logical" name="LADDER"> F  </i>
   <i type="logical" name="LRPAFORCE"> F  </i>
   <i type="logical" name="LFXC"> F  </i>
   <i type="logical" name="LHARTREE"> T  </i>
   <i type="int" name="IBSE">     0</i>
   <v type="int" name="KPOINT">    -1     0     0     0</v>
   <i type="logical" name="LTCTC"> F  </i>
   <i type="logical" name="LTCTE"> F  </i>
   <i type="logical" name="LTETE"> F  </i>
   <i type="logical" name="LTRIPLET"> F  </i>
   <i type="logical" name="LFXCEPS"> F  </i>
   <i type="logical" name="LFXHEG"> F  </i>
   <i type="int" name="NATURALO">     2</i>
   <i type="logical" name="LHOLEGF"> F  </i>
   <i type="logical" name="L2ORDER"> F  </i>
   <i type="logical" name="LDMP1"> F  </i>
   <i type="logical" name="LMP2LT"> F  </i>
   <i type="logical" name="LSMP2LT"> F  </i>
   <i type="logical" name="LGWLF"> F  </i>
   <i name="ENCUTGW">     -1.60000002</i>
   <i name="ENCUTGWSOFT">     -1.60000002</i>
   <i name="ENCUTLF">     -1.00000000</i>
   <i type="logical" name="ESF_SPLINES"> F  </i>
   <i name="ESF_CONV">      0.01000000</i>
   <i type="int" name="ESF_NINTER">    15</i>
   <i type="int" name="LMAXMP2">    -1</i>
   <i name="SCISSOR">      0.00000000</i>
   <i type="int" name="NOMEGA">     0</i>
   <i type="int" name="NOMEGAR">     0</i>
   <i type="int" name="NBANDSGW">    -1</i>
   <i type="int" name="NBANDSO">    -1</i>
   <i type="int" name="NBANDSV">    -1</i>
   <i type="int" name="NELMGW">     1</i>
   <i type="int" name="NELMHF">     1</i>
   <i type="int" name="DIM">     3</i>
   <i type="int" name="IESPILON">     4</i>
   <i type="int" name="ANTIRES">     0</i>
   <i name="OMEGAMAX">    -30.00000000</i>
   <i name="OMEGAMIN">    -30.00000000</i>
   <i name="OMEGATL">   -200.00000000</i>
   <i type="int" name="OMEGAGRID">     0</i>
   <i name="CSHIFT">     -0.10000000</i>
   <i type="logical" name="LSELFENERGY"> F  </i>
   <i type="logical" name="LSPECTRAL"> F  </i>
   <i type="logical" name="LSPECTRALGW"> F  </i>
   <i type="logical" name="LSINGLES"> F  </i>
   <i type="logical" name="LFERMIGW"> F  </i>
   <i type="logical" name="ODDONLYGW"> F  </i>
   <i type="logical" name="EVENONLYGW"> F  </i>
   <i type="int" name="NKREDLFX">     1</i>
   <i type="int" name="NKREDLFY">     1</i>
   <i type="int" name="NKREDLFZ">     1</i>
   <i type="int" name="MAXMEM">  2800</i>
   <i type="int" name="TELESCOPE">     0</i>
   <i type="int" name="NTAUPAR">    -1</i>
   <i type="int" name="NOMEGAPAR">    -1</i>
   <i name="DAMP_NEWTON">      0.80000001</i>
   <i name="LAMBDA">      1.00000000</i>
  </separator>
  <separator name="External order field" >
   <i name="OFIELD_KAPPA">      0.00000000</i>
   <v name="OFIELD_K">      0.00000000      0.00000000      0.00000000</v>
   <i name="OFIELD_Q6_NEAR">      0.00000000</i>
   <i name="OFIELD_Q6_FAR">      0.00000000</i>
   <i name="OFIELD_A">      0.00000000</i>
  </separator>
  <separator name="optional k-points parameters" >
   <i type="int" name="KPOINTS_OPT_MODE">     1</i>
   <i type="logical" name="LKPOINTS_OPT"> F  </i>
  </separator>
 </parameters>
 <atominfo>
  <atoms>      20 </atoms>
  <types>       2 </types>
  <array name="atoms" >
   <dimension dim="1">ion</dimension>
   <field type="string">element</field>
   <field type="int">atomtype</field>
   <set>
    <rc><c>Si</c><c>   1</c></rc>
    <rc><c>Si</c><c>   1</c></rc>
    <rc><c>Si</c><c>   1</c></rc>
    <rc><c>Si</c><c>   1</c></rc>
    <rc><c>Si</c><c>   1</c></rc>
    <rc><c>Si</c><c>   1</c></rc>
    <rc><c>Si</c><c>   1</c></rc>
    <rc><c>Si</c><c>   1</c></rc>
    <rc><c>Si</c><c>   1</c></rc>
    <rc><c>Si</c><c>   1</c></rc>
    <rc><c>Ge</c><c>   2</c></rc>
    <rc><c>Ge</c><c>   2</c></rc>
    <rc><c>Ge</c><c>   2</c></rc>
    <rc><c>Ge</c><c>   2</c></rc>
    <rc><c>Ge</c><c>   2</c></rc>
    <rc><c>Ge</c><c>   2</c></rc>
    <rc><c>Ge</c><c>   2</c></rc>
    <rc><c>Ge</c><c>   2</c></rc>
    <rc><c>Ge</c><c>   2</c></rc>
    <rc><c>Ge</c><c>   2</c></rc>
   </set>
  </array>
  <array name="atomtypes" >
   <dimension dim="1">type</dimension>
   <field type="int">atomspertype</field>
   <field type="string">element</field>
   <field>mass</field>
   <field>valence</field>
   <field type="string">pseudopotential</field>
   <set>
    <rc><c>  10</c><c>Si</c><c>     28.08500000</c><c>      4.00000000</c><c>  PAW_PBE Si 05Jan2001                  </c></rc>
    <rc><c>  10</c><c>Ge</c><c>     72.61000000</c><c>      4.00000000</c><c>  PAW_PBE Ge 05Jan2001                  </c></rc>
   </set>
  </array>
 </atominfo>
 <structure name="initialpos" >
  <crystal>
   <varray name="basis" >
    <v>       6.78998557       0.00000000       0.00000000 </v>
    <v>       1.13166426       3.75330574       0.00000000 </v>
    <v>       0.00000000       0.00000000      15.87999950 </v>
   </varray>
   <i name="volume">    404.70006931 </i>
   <varray name="rec_basis" >
    <v>       0.14727572      -0.04440530       0.00000000 </v>
    <v>       0.00000000       0.26643180       0.00000000 </v>
    <v>       0.00000000       0.00000000       0.06297229 </v>
   </varray>
  </crystal>
  <varray name="positions" >
   <v>       0.04545455       0.00000000       0.00000000 </v>
   <v>       0.95454545       0.54545455       0.07732399 </v>
   <v>       0.59090909       0.72727273       0.10309866 </v>
   <v>       0.50000000       0.27272727       0.18042265 </v>
   <v>       0.13636364       0.45454545       0.20619731 </v>
   <v>       0.04545455       0.00000000       0.28352130 </v>
   <v>       0.68181818       0.18181818       0.30929597 </v>
   <v>       0.59090909       0.72727273       0.38661996 </v>
   <v>       0.22727273       0.90909091       0.41239462 </v>
   <v>       0.13636364       0.45454545       0.48971861 </v>
   <v>       0.04545455       0.00000000       0.48971861 </v>
   <v>       0.95454545       0.54545455       0.57028936 </v>
   <v>       0.59090909       0.72727273       0.59714627 </v>
   <v>       0.50000000       0.27272727       0.67771702 </v>
   <v>       0.13636364       0.45454545       0.70457393 </v>
   <v>       0.04545455       0.00000000       0.78514468 </v>
   <v>       0.68181818       0.18181818       0.81200159 </v>
   <v>       0.59090909       0.72727273       0.89257234 </v>
   <v>       0.22727273       0.90909091       0.91942925 </v>
   <v>       0.13636364       0.45454545       0.00000000 </v>
  </varray>
 </structure>
 <calculation>
  <scstep>
   <time name="diag">    2.33    2.37</time>
   <time name="diis">    4.76    4.78</time>
   <time name="orth">    0.25    0.25</time>
   <time name="total">    7.63    7.69</time>
   <energy>
    <i name="alphaZ">    111.09236882 </i>
    <i name="ewald">  -2105.48878550 </i>
    <i name="hartreedc">   -211.33765718 </i>
    <i name="XCdc">   -164.95306707 </i>
    <i name="pawpsdc">   1762.68994814 </i>
    <i name="pawaedc">  -1441.88142837 </i>
    <i name="eentropy">     -0.00385568 </i>
    <i name="bandstr">    635.12775029 </i>
    <i name="atom">   2080.62436032 </i>
    <i name="e_fr_energy">    665.86963375 </i>
    <i name="e_wo_entrp">    665.87348944 </i>
    <i name="e_0_energy">    665.87156160 </i>
   </energy>
  </scstep>
  <scstep>
   <time name="diag">    2.32    2.33</time>
   <time name="diis">    4.74    4.76</time>
   <time name="orth">    0.25    0.25</time>
   <time name="total">    7.31    7.34</time>
   <energy>
    <i name="e_fr_energy">    136.58972916 </i>
    <i name="e_wo_entrp">    136.59635621 </i>
    <i name="e_0_energy">    136.59304268 </i>
   </energy>
  </scstep>
  <scstep>
   <time name="diag">    2.32    2.33</time>
   <time name="diis">    4.73    4.76</time>
   <time name="orth">    0.25    0.25</time>
   <time name="total">    7.30    7.34</time>
   <energy>
    <i name="e_fr_energy">     -1.35874792 </i>
    <i name="e_wo_entrp">     -1.35251690 </i>
    <i name="e_0_energy">     -1.35563241 </i>
   </energy>
  </scstep>
  <scstep>
   <time name="diag">    2.32    2.33</time>
   <time name="diis">    4.74    4.76</time>
   <time name="orth">    0.25    0.25</time>
   <time name="total">    7.31    7.34</time>
   <energy>
    <i name="e_fr_energy">    -39.26200537 </i>
    <i name="e_wo_entrp">    -39.25455427 </i>
    <i name="e_0_energy">    -39.25827982 </i>
   </energy>
  </scstep>
  <scstep>
   <time name="diag">    2.32    2.33</time>
   <time name="diis">    4.73    4.75</time>
   <time name="orth">    0.25    0.25</time>
   <time name="total">    7.30    7.34</time>
   <energy>
    <i name="e_fr_energy">    -55.76831987 </i>
    <i name="e_wo_entrp">    -55.76293815 </i>
    <i name="e_0_energy">    -55.76562901 </i>
   </energy>
  </scstep>
  <scstep>
   <time name="diag">    2.32    2.33</time>
   <time name="diis">    4.73    4.76</time>
   <time name="orth">    0.25    0.25</time>
   <time name="total">    7.31    7.34</time>
   <energy>
    <i name="e_fr_energy">    -62.58401151 </i>
    <i name="e_wo_entrp">    -62.57903395 </i>
    <i name="e_0_energy">    -62.58152273 </i>
   </energy>
  </scstep>
  <scstep>
   <time name="diag">    2.32    2.33</time>
   <time name="diis">    4.73    4.75</time>
   <time name="orth">    0.25    0.25</time>
   <time name="total">    7.30    7.33</time>
   <energy>
    <i name="e_fr_energy">    -65.72812317 </i>
    <i name="e_wo_entrp">    -65.72356033 </i>
    <i name="e_0_energy">    -65.72584175 </i>
   </energy>
  </scstep>
  <scstep>
   <time name="diag">    2.32    2.33</time>
   <time name="diis">    4.73    4.75</time>
   <time name="orth">    0.25    0.25</time>
   <time name="total">    7.30    7.34</time>
   <energy>
    <i name="e_fr_energy">    -67.27081782 </i>
    <i name="e_wo_entrp">    -67.26519275 </i>
    <i name="e_0_energy">    -67.26800529 </i>
   </energy>
  </scstep>
  <scstep>
   <time name="diag">    2.32    2.33</time>
   <time name="diis">    9.42    9.57</time>
   <time name="orth">    0.25    0.25</time>
   <time name="total">   11.99   12.16</time>
   <energy>
    <i name="e_fr_energy">    -68.82399864 </i>
    <i name="e_wo_entrp">    -68.81563375 </i>
    <i name="e_0_energy">    -68.81981620 </i>
   </energy>
  </scstep>
  <scstep>
   <time name="diag">    2.32    2.33</time>
   <time name="diis">    9.48    9.52</time>
   <time name="orth">    0.25    0.25</time>
   <time name="total">   12.04   12.10</time>
   <energy>
    <i name="e_fr_energy">    -69.05996095 </i>
    <i name="e_wo_entrp">    -69.05169373 </i>
    <i name="e_0_energy">    -69.05582734 </i>
   </energy>
  </scstep>
  <scstep>
   <time name="diag">    2.32    2.33</time>
   <time name="diis">    9.90    9.94</time>
   <time name="orth">    0.25    0.25</time>
   <time name="total">   12.46   12.52</time>
   <energy>
    <i name="e_fr_energy">    -69.10263299 </i>
    <i name="e_wo_entrp">    -69.09348979 </i>
    <i name="e_0_energy">    -69.09806139 </i>
   </energy>
  </scstep>
  <scstep>
   <time name="diag">    2.32    2.33</time>
   <time name="diis">    9.85    9.90</time>
   <time name="orth">    0.25    0.25</time>
   <time name="total">   13.36   13.42</time>
   <energy>
    <i name="e_fr_energy">    -69.11102675 </i>
    <i name="e_wo_entrp">    -69.10069015 </i>
    <i name="e_0_energy">    -69.10585845 </i>
   </energy>
  </scstep>
  <scstep>
   <time name="diag">    2.32    2.33</time>
   <time name="diis">   14.69   14.76</time>
   <time name="orth">    0.25    0.25</time>
   <time name="total">   18.50   18.79</time>
   <energy>
    <i name="e_fr_energy">    -64.58775340 </i>
    <i name="e_wo_entrp">    -64.58018576 </i>
    <i name="e_0_energy">    -64.58396958 </i>
   </energy>
  </scstep>
  <scstep>
   <time name="diag">    2.32    2.33</time>
   <time name="diis">   12.68   12.74</time>
   <time name="orth">    0.25    0.25</time>
   <time name="total">   16.47   16.58</time>
   <energy>
    <i name="e_fr_energy">    -63.87498245 </i>
    <i name="e_wo_entrp">    -63.86355128 </i>
    <i name="e_0_energy">    -63.86926687 </i>
   </energy>
  </scstep>
  <scstep>
   <time name="diag">    2.32    2.33</time>
   <time name="diis">   12.07   12.13</time>
   <time name="orth">    0.25    0.25</time>
   <time name="total">   15.87   15.95</time>
   <energy>
    <i name="e_fr_energy">    -63.61979202 </i>
    <i name="e_wo_entrp">    -63.60173932 </i>
    <i name="e_0_energy">    -63.61076567 </i>
   </energy>
  </scstep>
  <scstep>
   <time name="diag">    2.32    2.33</time>
   <time name="diis">    8.41    8.45</time>
   <time name="orth">    0.25    0.25</time>
   <time name="total">   12.20   12.26</time>
   <energy>
    <i name="e_fr_energy">    -63.57042191 </i>
    <i name="e_wo_entrp">    -63.54822983 </i>
    <i name="e_0_energy">    -63.55932587 </i>
   </energy>
  </scstep>
  <scstep>
   <time name="diag">    2.32    2.33</time>
   <time name="diis">    8.25    8.29</time>
   <time name="orth">    0.25    0.25</time>
   <time name="total">   12.04   12.10</time>
   <energy>
    <i name="e_fr_energy">    -63.56727197 </i>
    <i name="e_wo_entrp">    -63.54511443 </i>
    <i name="e_0_energy">    -63.55619320 </i>
   </energy>
  </scstep>
  <scstep>
   <time name="diag">    2.32    2.33</time>
   <time name="diis">    8.31    8.35</time>
   <time name="orth">    0.25    0.25</time>
   <time name="total">   12.11   12.16</time>
   <energy>
    <i name="e_fr_energy">    -63.56682401 </i>
    <i name="e_wo_entrp">    -63.54526082 </i>
    <i name="e_0_energy">    -63.55604242 </i>
   </energy>
  </scstep>
  <scstep>
   <time name="diag">    2.32    2.33</time>
   <time name="diis">    8.52    8.56</time>
   <time name="orth">    0.25    0.25</time>
   <time name="total">   12.33   12.38</time>
   <energy>
    <i name="e_fr_energy">    -63.56696151 </i>
    <i name="e_wo_entrp">    -63.54514224 </i>
    <i name="e_0_energy">    -63.55605187 </i>
   </energy>
  </scstep>
  <scstep>
   <time name="diag">    2.32    2.33</time>
   <time name="diis">    8.91    8.95</time>
   <time name="orth">    0.25    0.25</time>
   <time name="total">   12.71   12.77</time>
   <energy>
    <i name="e_fr_energy">    -63.56701419 </i>
    <i name="e_wo_entrp">    -63.54517345 </i>
    <i name="e_0_energy">    -63.55609382 </i>
   </energy>
  </scstep>
  <scstep>
   <time name="diag">    2.32    2.33</time>
   <time name="diis">    8.63    8.67</time>
   <time name="orth">    0.25    0.25</time>
   <time name="total">   12.43   12.49</time>
   <energy>
    <i name="e_fr_energy">    -63.56701793 </i>
    <i name="e_wo_entrp">    -63.54519083 </i>
    <i name="e_0_energy">    -63.55610438 </i>
   </energy>
  </scstep>
  <scstep>
   <time name="diag">    2.32    2.33</time>
   <time name="diis">    8.26    8.30</time>
   <time name="orth">    0.25    0.25</time>
   <time name="total">   12.06   12.11</time>
   <energy>
    <i name="e_fr_energy">    -63.56702033 </i>
    <i name="e_wo_entrp">    -63.54519043 </i>
    <i name="e_0_energy">    -63.55610538 </i>
   </energy>
  </scstep>
  <scstep>
   <time name="diag">    2.32    2.33</time>
   <time name="diis">    5.72    5.75</time>
   <time name="orth">    0.25    0.25</time>
   <time name="total">    8.57    8.61</time>
   <energy>
    <i name="alphaZ">    111.09236882 </i>
    <i name="ewald">  -2105.48878550 </i>
    <i name="hartreedc">   -256.74909666 </i>
    <i name="XCdc">   -158.77401524 </i>
    <i name="pawpsdc">   8817.41806743 </i>
    <i name="pawaedc">  -8501.74816568 </i>
    <i name="eentropy">     -0.02182851 </i>
    <i name="bandstr">    -49.91992524 </i>
    <i name="atom">   2080.62436032 </i>
    <i name="e_fr_energy">    -63.56702026 </i>
    <i name="e_wo_entrp">    -63.54519175 </i>
    <i name="e_0_energy">    -63.55610600 </i>
   </energy>
  </scstep>
  <structure>
   <crystal>
    <varray name="basis" >
     <v>       6.78998557       0.00000000       0.00000000 </v>
     <v>       1.13166426       3.75330574       0.00000000 </v>
     <v>       0.00000000       0.00000000      15.87999950 </v>
    </varray>
    <i name="volume">    404.70006931 </i>
    <varray name="rec_basis" >
     <v>       0.14727572      -0.04440530       0.00000000 </v>
     <v>       0.00000000       0.26643180       0.00000000 </v>
     <v>       0.00000000       0.00000000       0.06297229 </v>
    </varray>
   </crystal>
   <varray name="positions" >
    <v>       0.04545455       0.00000000       0.00000000 </v>
    <v>       0.95454545       0.54545455       0.07732399 </v>
    <v>       0.59090909       0.72727273       0.10309866 </v>
    <v>       0.50000000       0.27272727       0.18042265 </v>
    <v>       0.13636364       0.45454545       0.20619731 </v>
    <v>       0.04545455       0.00000000       0.28352130 </v>
    <v>       0.68181818       0.18181818       0.30929597 </v>
    <v>       0.59090909       0.72727273       0.38661996 </v>
    <v>       0.22727273       0.90909091       0.41239462 </v>
    <v>       0.13636364       0.45454545       0.48971861 </v>
    <v>       0.04545455       0.00000000       0.48971861 </v>
    <v>       0.95454545       0.54545455       0.57028936 </v>
    <v>       0.59090909       0.72727273       0.59714627 </v>
    <v>       0.50000000       0.27272727       0.67771702 </v>
    <v>       0.13636364       0.45454545       0.70457393 </v>
    <v>       0.04545455       0.00000000       0.78514468 </v>
    <v>       0.68181818       0.18181818       0.81200159 </v>
    <v>       0.59090909       0.72727273       0.89257234 </v>
    <v>       0.22727273       0.90909091       0.91942925 </v>
    <v>       0.13636364       0.45454545       0.00000000 </v>
   </varray>
  </structure>
  <varray name="forces" >
   <v>     -16.39613396       4.94362040      14.88090220 </v>
   <v>     -15.78852851       4.76042046      17.44878290 </v>
   <v>       0.16349358      -0.04929517      -0.69315033 </v>
   <v>      -0.06095925       0.01837990      -0.36733609 </v>
   <v>       0.16418780      -0.04950448       0.40501614 </v>
   <v>      -0.16418780       0.04950448      -0.40501614 </v>
   <v>       0.06095925      -0.01837990       0.36733609 </v>
   <v>      -0.16349358       0.04929517       0.69315033 </v>
   <v>      15.78852851      -4.76042046     -17.44878290 </v>
   <v>      16.39613396      -4.94362040     -14.88090220 </v>
   <v>     -18.38457649       5.54315838      15.46242956 </v>
   <v>     -13.18290009       3.97479393      16.21836106 </v>
   <v>      -0.54044003       0.16294880      -1.43174852 </v>
   <v>       0.30983129      -0.09341765      -0.11222734 </v>
   <v>      -0.12801144       0.03859690       0.25630579 </v>
   <v>       0.12801144      -0.03859690      -0.25630579 </v>
   <v>      -0.30983129       0.09341765       0.11222734 </v>
   <v>       0.54044003      -0.16294880       1.43174852 </v>
   <v>      13.18290009      -3.97479393     -16.21836106 </v>
   <v>      18.38457649      -5.54315838     -15.46242956 </v>
  </varray>
  <varray name="stress" >
   <v>     313.33859848     -12.03343407    -278.78106493 </v>
   <v>     -12.03343407     277.05642961      84.05565373 </v>
   <v>    -278.78106504      84.05565376     358.86572988 </v>
  </varray>
  <energy>
   <i name="e_fr_energy">    -63.56702026 </i>
   <i name="e_wo_entrp">    -63.54519175 </i>
   <i name="e_0_energy">    -63.55610600 </i>
  </energy>
  <time name="totalsc">  271.69  273.33</time>
 </calculation>
 <calculation>
  <scstep>
   <time name="diag">    2.32    2.33</time>
   <time name="diis">   11.52   11.57</time>
   <time name="orth">    0.25    0.25</time>
   <time name="total">   15.30   15.37</time>
   <energy>
    <i name="alphaZ">     66.94248221 </i>
    <i name="ewald">  -1786.26034815 </i>
    <i name="hartreedc">   -276.53837637 </i>
    <i name="XCdc">   -174.30966476 </i>
    <i name="pawpsdc">   8818.04766612 </i>
    <i name="pawaedc">  -8502.37774740 </i>
    <i name="eentropy">     -0.01645648 </i>
    <i name="bandstr">   -268.73943384 </i>
    <i name="atom">   2080.62436032 </i>
    <i name="e_fr_energy">    -42.62751835 </i>
    <i name="e_wo_entrp">    -42.61106187 </i>
    <i name="e_0_energy">    -42.61929011 </i>
   </energy>
  </scstep>
  <scstep>
   <time name="diag">    2.32    2.33</time>
   <time name="diis">   11.62   11.67</time>
   <time name="orth">    0.25    0.25</time>
   <time name="total">   15.40   15.47</time>
   <energy>
    <i name="e_fr_energy">    -58.22448844 </i>
    <i name="e_wo_entrp">    -58.21440751 </i>
    <i name="e_0_energy">    -58.21944798 </i>
   </energy>
  </scstep>
  <scstep>
   <time name="diag">    2.32    2.33</time>
   <time name="diis">   10.49   10.54</time>
   <time name="orth">    0.25    0.25</time>
   <time name="total">   14.30   14.37</time>
   <energy>
    <i name="e_fr_energy">    -70.39502646 </i>
    <i name="e_wo_entrp">    -70.37874057 </i>
    <i name="e_0_energy">    -70.38688351 </i>
   </energy>
  </scstep>
  <scstep>
   <time name="diag">    2.32    2.33</time>
   <time name="diis">    8.70    8.74</time>
   <time name="orth">    0.25    0.25</time>
   <time name="total">   12.49   12.55</time>
   <energy>
    <i name="e_fr_energy">    -68.17782486 </i>
    <i name="e_wo_entrp">    -68.16858473 </i>
    <i name="e_0_energy">    -68.17320480 </i>
   </energy>
  </scstep>
  <scstep>
   <time name="diag">    2.31    2.32</time>
   <time name="diis">    8.48    8.52</time>
   <time name="orth">    0.25    0.25</time>
   <time name="total">   12.27   12.32</time>
   <energy>
    <i name="e_fr_energy">    -70.72517877 </i>
    <i name="e_wo_entrp">    -70.71503378 </i>
    <i name="e_0_energy">    -70.72010628 </i>
   </energy>
  </scstep>
  <scstep>
   <time name="diag">    2.32    2.33</time>
   <time name="diis">    8.11    8.15</time>
   <time name="orth">    0.25    0.25</time>
   <time name="total">   11.91   11.97</time>
   <energy>
    <i name="e_fr_energy">    -69.26465985 </i>
    <i name="e_wo_entrp">    -69.25007507 </i>
    <i name="e_0_energy">    -69.25736746 </i>
   </energy>
  </scstep>
  <scstep>
   <time name="diag">    2.32    2.33</time>
   <time name="diis">    8.24    8.27</time>
   <time name="orth">    0.25    0.25</time>
   <time name="total">   12.04   12.10</time>
   <energy>
    <i name="e_fr_energy">    -69.45418323 </i>
    <i name="e_wo_entrp">    -69.43780763 </i>
    <i name="e_0_energy">    -69.44599543 </i>
   </energy>
  </scstep>
  <scstep>
   <time name="diag">    2.32    2.33</time>
   <time name="diis">    8.34    8.38</time>
   <time name="orth">    0.25    0.25</time>
   <time name="total">   12.15   12.20</time>
   <energy>
    <i name="e_fr_energy">    -69.24984643 </i>
    <i name="e_wo_entrp">    -69.23193399 </i>
    <i name="e_0_energy">    -69.24089021 </i>
   </energy>
  </scstep>
  <scstep>
   <time name="diag">    2.32    2.33</time>
   <time name="diis">    8.54    8.58</time>
   <time name="orth">    0.25    0.25</time>
   <time name="total">   12.35   12.40</time>
   <energy>
    <i name="e_fr_energy">    -69.19830872 </i>
    <i name="e_wo_entrp">    -69.17872278 </i>
    <i name="e_0_energy">    -69.18851575 </i>
   </energy>
  </scstep>
  <scstep>
   <time name="diag">    2.32    2.33</time>
   <time name="diis">    8.59    8.63</time>
   <time name="orth">    0.25    0.25</time>
   <time name="total">   12.40   12.45</time>
   <energy>
    <i name="e_fr_energy">    -69.20302310 </i>
    <i name="e_wo_entrp">    -69.18148025 </i>
    <i name="e_0_energy">    -69.19225168 </i>
   </energy>
  </scstep>
  <scstep>
   <time name="diag">    2.32    2.33</time>
   <time name="diis">    9.56    9.60</time>
   <time name="orth">    0.25    0.25</time>
   <time name="total">   13.36   13.42</time>
   <energy>
    <i name="e_fr_energy">    -69.21504209 </i>
    <i name="e_wo_entrp">    -69.19340022 </i>
    <i name="e_0_energy">    -69.20422115 </i>
   </energy>
  </scstep>
  <scstep>
   <time name="diag">    2.32    2.33</time>
   <time name="diis">    8.88    8.92</time>
   <time name="orth">    0.25    0.25</time>
   <time name="total">   12.69   12.74</time>
   <energy>
    <i name="e_fr_energy">    -69.21655551 </i>
    <i name="e_wo_entrp">    -69.19404184 </i>
    <i name="e_0_energy">    -69.20529867 </i>
   </energy>
  </scstep>
  <scstep>
   <time name="diag">    2.32    2.33</time>
   <time name="diis">    8.33    8.37</time>
   <time name="orth">    0.25    0.25</time>
   <time name="total">   12.14   12.19</time>
   <energy>
    <i name="e_fr_energy">    -69.21660788 </i>
    <i name="e_wo_entrp">    -69.19472244 </i>
    <i name="e_0_energy">    -69.20566516 </i>
   </energy>
  </scstep>
  <scstep>
   <time name="diag">    2.32    2.33</time>
   <time name="diis">    8.26    8.29</time>
   <time name="orth">    0.25    0.25</time>
   <time name="total">   12.06   12.11</time>
   <energy>
    <i name="e_fr_energy">    -69.21674835 </i>
    <i name="e_wo_entrp">    -69.19467914 </i>
    <i name="e_0_energy">    -69.20571374 </i>
   </energy>
  </scstep>
  <scstep>
   <time name="diag">    2.32    2.33</time>
   <time name="diis">    9.74    9.79</time>
   <time name="orth">    0.25    0.25</time>
   <time name="total">   13.55   13.61</time>
   <energy>
    <i name="e_fr_energy">    -69.21687070 </i>
    <i name="e_wo_entrp">    -69.19489814 </i>
    <i name="e_0_energy">    -69.20588442 </i>
   </energy>
  </scstep>
  <scstep>
   <time name="diag">    2.32    2.33</time>
   <time name="diis">    8.88    8.92</time>
   <time name="orth">    0.25    0.25</time>
   <time name="total">   12.69   12.74</time>
   <energy>
    <i name="e_fr_energy">    -69.21692791 </i>
    <i name="e_wo_entrp">    -69.19491935 </i>
    <i name="e_0_energy">    -69.20592363 </i>
   </energy>
  </scstep>
  <scstep>
   <time name="diag">    2.32    2.33</time>
   <time name="diis">    8.18    8.21</time>
   <time name="orth">    0.25    0.25</time>
   <time name="total">   11.99   12.04</time>
   <energy>
    <i name="e_fr_energy">    -69.21694427 </i>
    <i name="e_wo_entrp">    -69.19493164 </i>
    <i name="e_0_energy">    -69.20593796 </i>
   </energy>
  </scstep>
  <scstep>
   <time name="diag">    2.32    2.33</time>
   <time name="diis">    7.35    7.39</time>
   <time name="orth">    0.25    0.25</time>
   <time name="total">   11.16   11.21</time>
   <energy>
    <i name="e_fr_energy">    -69.21695667 </i>
    <i name="e_wo_entrp">    -69.19493382 </i>
    <i name="e_0_energy">    -69.20594524 </i>
   </energy>
  </scstep>
  <scstep>
   <time name="diag">    2.32    2.33</time>
   <time name="diis">    6.25    6.27</time>
   <time name="orth">    0.25    0.25</time>
   <time name="total">   10.06   10.10</time>
   <energy>
    <i name="e_fr_energy">    -69.21696084 </i>
    <i name="e_wo_entrp">    -69.19493650 </i>
    <i name="e_0_energy">    -69.20594867 </i>
   </energy>
  </scstep>
  <scstep>
   <time name="diag">    2.32    2.33</time>
   <time name="diis">    5.27    5.30</time>
   <time name="orth">    0.25    0.25</time>
   <time name="total">    9.08    9.12</time>
   <energy>
    <i name="e_fr_energy">    -69.21696193 </i>
    <i name="e_wo_entrp">    -69.19493926 </i>
    <i name="e_0_energy">    -69.20595060 </i>
   </energy>
  </scstep>
  <scstep>
   <time name="diag">    2.32    2.33</time>
   <time name="diis">    4.96    4.98</time>
   <time name="orth">    0.25    0.25</time>
   <time name="total">    7.79    7.83</time>
   <energy>
    <i name="alphaZ">     66.94248221 </i>
    <i name="ewald">  -1786.26034815 </i>
    <i name="hartreedc">   -324.44621859 </i>
    <i name="XCdc">   -178.21952815 </i>
    <i name="pawpsdc">   4140.23120596 </i>
    <i name="pawaedc">  -3820.86805468 </i>
    <i name="eentropy">     -0.02202402 </i>
    <i name="bandstr">   -247.19883726 </i>
    <i name="atom">   2080.62436032 </i>
    <i name="e_fr_energy">    -69.21696235 </i>
    <i name="e_wo_entrp">    -69.19493833 </i>
    <i name="e_0_energy">    -69.20595034 </i>
   </energy>
  </scstep>
  <structure>
   <crystal>
    <varray name="basis" >
     <v>       8.08628891      -0.04978314      -1.15333645 </v>
     <v>       1.32019615       4.37859528      -0.00000000 </v>
     <v>      -2.69735216       0.81328228      19.35221255 </v>
    </varray>
    <i name="volume">    671.60774259 </i>
    <varray name="rec_basis" >
     <v>       0.12616815      -0.03804113       0.01918427 </v>
     <v>       0.00003786       0.22837233      -0.00959214 </v>
     <v>       0.00751926      -0.00226714       0.05281701 </v>
    </varray>
   </crystal>
   <varray name="positions" >
    <v>       0.91837011       0.06354222       0.04520745 </v>
    <v>       0.83217050       0.60664202       0.13033253 </v>
    <v>       0.59217631       0.72663912       0.10099290 </v>
    <v>       0.49952751       0.27296352       0.17930670 </v>
    <v>       0.13763624       0.45390915       0.20742773 </v>
    <v>       0.04418195       0.00063630       0.28229088 </v>
    <v>       0.68229067       0.18158194       0.31041192 </v>
    <v>       0.58964187       0.72790634       0.38872572 </v>
    <v>       0.34964769       0.84790343       0.35938608 </v>
    <v>       0.26344807       0.39100324       0.44451117 </v>
    <v>       0.90295794       0.07124830       0.53669271 </v>
    <v>       0.85236640       0.59654407       0.61955994 </v>
    <v>       0.58672021       0.72936717       0.59279669 </v>
    <v>       0.50240146       0.27152654       0.67737608 </v>
    <v>       0.13537144       0.45504156       0.70535258 </v>
    <v>       0.04644675       0.99950390       0.78436604 </v>
    <v>       0.67941672       0.18301891       0.81234254 </v>
    <v>       0.59509798       0.72517828       0.89692192 </v>
    <v>       0.32945178       0.85800138       0.87015868 </v>
    <v>       0.27886025       0.38329715       0.95302590 </v>
   </varray>
  </structure>
  <varray name="forces" >
   <v>      -0.80072861       0.24142876       0.92643418 </v>
   <v>      13.14951819      -3.96472891       1.24705338 </v>
   <v>     -12.82610566       3.86721636      -1.22915107 </v>
   <v>       0.06383140      -0.01924589       0.13546361 </v>
   <v>      -0.39566913       0.11929873       0.51886842 </v>
   <v>       0.39566913      -0.11929873      -0.51886842 </v>
   <v>      -0.06383140       0.01924589      -0.13546361 </v>
   <v>      12.82610566      -3.86721636       1.22915107 </v>
   <v>     -13.14951819       3.96472891      -1.24705338 </v>
   <v>       0.80072861      -0.24142876      -0.92643418 </v>
   <v>      -0.42147865       0.12708059       0.39744760 </v>
   <v>       7.19771815      -2.17019368      -0.24586083 </v>
   <v>      -8.29834342       2.50204468      -0.39184483 </v>
   <v>      -0.16362593       0.04933507       0.01542739 </v>
   <v>       0.95988649      -0.28941667       1.09017710 </v>
   <v>      -0.95988649       0.28941667      -1.09017710 </v>
   <v>       0.16362593      -0.04933507      -0.01542739 </v>
   <v>       8.29834342      -2.50204468       0.39184483 </v>
   <v>      -7.19771815       2.17019368       0.24586083 </v>
   <v>       0.42147865      -0.12708059      -0.39744760 </v>
  </varray>
  <varray name="stress" >
   <v>     109.21928052     -59.81872860      49.49469860 </v>
   <v>     -59.81872860     -71.14097241     -14.92321313 </v>
   <v>      49.49469864     -14.92321314     -58.58349173 </v>
  </varray>
  <energy>
   <i name="e_fr_energy">    -69.21696235 </i>
   <i name="e_wo_entrp">    -69.19493833 </i>
   <i name="e_0_energy">    -69.20595034 </i>
  </energy>
  <time name="totalsc">  273.43  274.64</time>
 </calculation>
 <calculation>
  <scstep>
   <time name="diag">    2.32    2.32</time>
   <time name="diis">    7.75    7.79</time>
   <time name="orth">    0.25    0.25</time>
   <time name="total">   11.57   11.62</time>
   <energy>
    <i name="alphaZ">     70.35073118 </i>
    <i name="ewald">  -1848.82062798 </i>
    <i name="hartreedc">   -305.37651525 </i>
    <i name="XCdc">   -176.94246514 </i>
    <i name="pawpsdc">   4140.24076051 </i>
    <i name="pawaedc">  -3820.87760832 </i>
    <i name="eentropy">     -0.01363179 </i>
    <i name="bandstr">   -211.94108101 </i>
    <i name="atom">   2080.62436032 </i>
    <i name="e_fr_energy">    -72.75607748 </i>
    <i name="e_wo_entrp">    -72.74244568 </i>
    <i name="e_0_energy">    -72.74926158 </i>
   </energy>
  </scstep>
  <scstep>
   <time name="diag">    2.31    2.32</time>
   <time name="diis">    7.77    7.80</time>
   <time name="orth">    0.25    0.25</time>
   <time name="total">   11.58   11.63</time>
   <energy>
    <i name="e_fr_energy">    -72.75181451 </i>
    <i name="e_wo_entrp">    -72.73737163 </i>
    <i name="e_0_energy">    -72.74459307 </i>
   </energy>
  </scstep>
  <scstep>
   <time name="diag">    2.32    2.33</time>
   <time name="diis">    8.14    8.18</time>
   <time name="orth">    0.25    0.25</time>
   <time name="total">   11.96   12.01</time>
   <energy>
    <i name="e_fr_energy">    -72.74729626 </i>
    <i name="e_wo_entrp">    -72.73085795 </i>
    <i name="e_0_energy">    -72.73907711 </i>
   </energy>
  </scstep>
  <scstep>
   <time name="diag">    2.31    2.32</time>
   <time name="diis">    8.51    8.55</time>
   <time name="orth">    0.25    0.25</time>
   <time name="total">   12.32   12.37</time>
   <energy>
    <i name="e_fr_energy">    -72.70832343 </i>
    <i name="e_wo_entrp">    -72.69226597 </i>
    <i name="e_0_energy">    -72.70029470 </i>
   </energy>
  </scstep>
  <scstep>
   <time name="diag">    2.31    2.32</time>
   <time name="diis">    8.20    8.24</time>
   <time name="orth">    0.25    0.25</time>
   <time name="total">   12.01   12.06</time>
   <energy>
    <i name="e_fr_energy">    -72.69248941 </i>
    <i name="e_wo_entrp">    -72.67615045 </i>
    <i name="e_0_energy">    -72.68431993 </i>
   </energy>
  </scstep>
  <scstep>
   <time name="diag">    2.31    2.32</time>
   <time name="diis">    7.75    7.78</time>
   <time name="orth">    0.25    0.25</time>
   <time name="total">   11.56   11.61</time>
   <energy>
    <i name="e_fr_energy">    -72.68401314 </i>
    <i name="e_wo_entrp">    -72.66726366 </i>
    <i name="e_0_energy">    -72.67563840 </i>
   </energy>
  </scstep>
  <scstep>
   <time name="diag">    2.31    2.32</time>
   <time name="diis">    8.08    8.11</time>
   <time name="orth">    0.25    0.25</time>
   <time name="total">   11.89   11.94</time>
   <energy>
    <i name="e_fr_energy">    -72.68356768 </i>
    <i name="e_wo_entrp">    -72.66676880 </i>
    <i name="e_0_energy">    -72.67516824 </i>
   </energy>
  </scstep>
  <scstep>
   <time name="diag">    2.31    2.32</time>
   <time name="diis">    8.56    8.60</time>
   <time name="orth">    0.25    0.25</time>
   <time name="total">   12.37   12.43</time>
   <energy>
    <i name="e_fr_energy">    -72.68358641 </i>
    <i name="e_wo_entrp">    -72.66682864 </i>
    <i name="e_0_energy">    -72.67520753 </i>
   </energy>
  </scstep>
  <scstep>
   <time name="diag">    2.31    2.32</time>
   <time name="diis">    8.40    8.44</time>
   <time name="orth">    0.25    0.25</time>
   <time name="total">   12.21   12.26</time>
   <energy>
    <i name="e_fr_energy">    -72.68363970 </i>
    <i name="e_wo_entrp">    -72.66692255 </i>
    <i name="e_0_energy">    -72.67528113 </i>
   </energy>
  </scstep>
  <scstep>
   <time name="diag">    2.31    2.32</time>
   <time name="diis">    8.70    8.74</time>
   <time name="orth">    0.25    0.25</time>
   <time name="total">   12.51   12.56</time>
   <energy>
    <i name="e_fr_energy">    -72.68365238 </i>
    <i name="e_wo_entrp">    -72.66691502 </i>
    <i name="e_0_energy">    -72.67528370 </i>
   </energy>
  </scstep>
  <scstep>
   <time name="diag">    2.31    2.32</time>
   <time name="diis">    8.19    8.23</time>
   <time name="orth">    0.25    0.25</time>
   <time name="total">   12.00   12.06</time>
   <energy>
    <i name="e_fr_energy">    -72.68365093 </i>
    <i name="e_wo_entrp">    -72.66691089 </i>
    <i name="e_0_energy">    -72.67528091 </i>
   </energy>
  </scstep>
  <scstep>
   <time name="diag">    2.31    2.32</time>
   <time name="diis">    8.18    8.21</time>
   <time name="orth">    0.25    0.25</time>
   <time name="total">   11.99   12.04</time>
   <energy>
    <i name="e_fr_energy">    -72.68365205 </i>
    <i name="e_wo_entrp">    -72.66691347 </i>
    <i name="e_0_energy">    -72.67528276 </i>
   </energy>
  </scstep>
  <scstep>
   <time name="diag">    2.31    2.32</time>
   <time name="diis">    5.68    5.71</time>
   <time name="orth">    0.25    0.25</time>
   <time name="total">    8.52    8.56</time>
   <energy>
    <i name="alphaZ">     70.35073118 </i>
    <i name="ewald">  -1848.82062798 </i>
    <i name="hartreedc">   -289.37088834 </i>
    <i name="XCdc">   -177.15807601 </i>
    <i name="pawpsdc">   4148.91711999 </i>
    <i name="pawaedc">  -3829.51114754 </i>
    <i name="eentropy">     -0.01673510 </i>
    <i name="bandstr">   -227.69838868 </i>
    <i name="atom">   2080.62436032 </i>
    <i name="e_fr_energy">    -72.68365215 </i>
    <i name="e_wo_entrp">    -72.66691705 </i>
    <i name="e_0_energy">    -72.67528460 </i>
   </energy>
  </scstep>
  <structure>
   <crystal>
    <varray name="basis" >
     <v>       7.94414206      -0.04432415      -1.02686671 </v>
     <v>       1.29952258       4.31002881      -0.00000000 </v>
     <v>      -2.40157254       0.72410136      18.97146513 </v>
    </varray>
    <i name="volume">    639.07067639 </i>
    <varray name="rec_basis" >
     <v>       0.12794760      -0.03857765       0.01766915 </v>
     <v>       0.00015231       0.23197109      -0.00883457 </v>
     <v>       0.00692541      -0.00208809       0.05366712 </v>
    </varray>
   </crystal>
   <varray name="positions" >
    <v>       0.92879818       0.05832818       0.04176112 </v>
    <v>       0.84189555       0.60177950       0.12614236 </v>
    <v>       0.59212761       0.72666347       0.10117947 </v>
    <v>       0.49960918       0.27292268       0.17941198 </v>
    <v>       0.13747558       0.45398948       0.20730744 </v>
    <v>       0.04434260       0.00055597       0.28241117 </v>
    <v>       0.68220900       0.18162277       0.31030663 </v>
    <v>       0.58969057       0.72788199       0.38853914 </v>
    <v>       0.33992263       0.85276596       0.36357625 </v>
    <v>       0.25302000       0.39621727       0.44795749 </v>
    <v>       0.91477480       0.06533987       0.53317019 </v>
    <v>       0.86031913       0.59256771       0.61560049 </v>
    <v>       0.58725901       0.72909777       0.59322018 </v>
    <v>       0.50218726       0.27163364       0.67739399 </v>
    <v>       0.13543863       0.45500796       0.70528652 </v>
    <v>       0.04637955       0.99953750       0.78443209 </v>
    <v>       0.67963092       0.18291181       0.81232462 </v>
    <v>       0.59455917       0.72544769       0.89649843 </v>
    <v>       0.32149905       0.86197775       0.87411813 </v>
    <v>       0.26704338       0.38920558       0.95654842 </v>
   </varray>
  </structure>
  <varray name="forces" >
   <v>      -0.70937529       0.21388470       0.80086377 </v>
   <v>      10.69898263      -3.22586464       0.17638260 </v>
   <v>     -10.58720775       3.19216324      -0.27802451 </v>
   <v>       0.00402515      -0.00121363       0.06402179 </v>
   <v>      -0.17362990       0.05235139       0.63544016 </v>
   <v>       0.17362990      -0.05235139      -0.63544016 </v>
   <v>      -0.00402515       0.00121363      -0.06402179 </v>
   <v>      10.58720775      -3.19216324       0.27802451 </v>
   <v>     -10.69898263       3.22586464      -0.17638260 </v>
   <v>       0.70937529      -0.21388470      -0.80086377 </v>
   <v>      -0.30489633       0.09192970       0.18892530 </v>
   <v>       6.08679312      -1.83523718      -0.78869966 </v>
   <v>      -7.34105445       2.21341120       0.04359513 </v>
   <v>      -0.26353443       0.07945862      -0.02117009 </v>
   <v>       1.08887230      -0.32830735       1.18332398 </v>
   <v>      -1.08887230       0.32830735      -1.18332398 </v>
   <v>       0.26353443      -0.07945862       0.02117009 </v>
   <v>       7.34105445      -2.21341120      -0.04359513 </v>
   <v>      -6.08679312       1.83523718       0.78869966 </v>
   <v>       0.30489633      -0.09192970      -0.18892530 </v>
  </varray>
  <varray name="stress" >
   <v>      91.17744793     -55.60378868      44.88031703 </v>
   <v>     -55.60378868     -76.47428295     -13.53192473 </v>
   <v>      44.88031689     -13.53192469     -58.00051719 </v>
  </varray>
  <energy>
   <i name="e_fr_energy">    -72.68365215 </i>
   <i name="e_wo_entrp">    -72.66691705 </i>
   <i name="e_0_energy">    -72.67528460 </i>
  </energy>
  <time name="totalsc">  168.76  169.50</time>
 </calculation>
 <calculation>
  <scstep>
   <time name="diag">    2.32    2.33</time>
   <time name="diis">    7.78    7.81</time>
   <time name="orth">    0.25    0.25</time>
   <time name="total">   11.59   11.64</time>
   <energy>
    <i name="alphaZ">     73.48905044 </i>
    <i name="ewald">  -1901.39618620 </i>
    <i name="hartreedc">   -274.82032650 </i>
    <i name="XCdc">   -176.00405793 </i>
    <i name="pawpsdc">   4149.12128334 </i>
    <i name="pawaedc">  -3829.71503749 </i>
    <i name="eentropy">     -0.01291231 </i>
    <i name="bandstr">   -196.88837762 </i>
    <i name="atom">   2080.62436032 </i>
    <i name="e_fr_energy">    -75.60220395 </i>
    <i name="e_wo_entrp">    -75.58929165 </i>
    <i name="e_0_energy">    -75.59574780 </i>
   </energy>
  </scstep>
  <scstep>
   <time name="diag">    2.31    2.32</time>
   <time name="diis">    7.75    7.79</time>
   <time name="orth">    0.25    0.25</time>
   <time name="total">   11.56   11.61</time>
   <energy>
    <i name="e_fr_energy">    -75.59924694 </i>
    <i name="e_wo_entrp">    -75.58714900 </i>
    <i name="e_0_energy">    -75.59319797 </i>
   </energy>
  </scstep>
  <scstep>
   <time name="diag">    2.31    2.32</time>
   <time name="diis">    8.09    8.13</time>
   <time name="orth">    0.25    0.25</time>
   <time name="total">   11.89   11.95</time>
   <energy>
    <i name="e_fr_energy">    -75.57298345 </i>
    <i name="e_wo_entrp">    -75.55984427 </i>
    <i name="e_0_energy">    -75.56641386 </i>
   </energy>
  </scstep>
  <scstep>
   <time name="diag">    2.32    2.33</time>
   <time name="diis">    8.74    8.78</time>
   <time name="orth">    0.25    0.25</time>
   <time name="total">   12.55   12.61</time>
   <energy>
    <i name="e_fr_energy">    -75.57135427 </i>
    <i name="e_wo_entrp">    -75.56019139 </i>
    <i name="e_0_energy">    -75.56577283 </i>
   </energy>
  </scstep>
  <scstep>
   <time name="diag">    2.32    2.33</time>
   <time name="diis">    7.99    8.02</time>
   <time name="orth">    0.25    0.25</time>
   <time name="total">   11.80   11.85</time>
   <energy>
    <i name="e_fr_energy">    -75.55920767 </i>
    <i name="e_wo_entrp">    -75.54643591 </i>
    <i name="e_0_energy">    -75.55282179 </i>
   </energy>
  </scstep>
  <scstep>
   <time name="diag">    2.32    2.33</time>
   <time name="diis">    7.76    7.80</time>
   <time name="orth">    0.25    0.25</time>
   <time name="total">   11.58   11.63</time>
   <energy>
    <i name="e_fr_energy">    -75.55511211 </i>
    <i name="e_wo_entrp">    -75.54262461 </i>
    <i name="e_0_energy">    -75.54886836 </i>
   </energy>
  </scstep>
  <scstep>
   <time name="diag">    2.32    2.32</time>
   <time name="diis">    8.14    8.17</time>
   <time name="orth">    0.25    0.25</time>
   <time name="total">   11.95   12.00</time>
   <energy>
    <i name="e_fr_energy">    -75.55490149 </i>
    <i name="e_wo_entrp">    -75.54230518 </i>
    <i name="e_0_energy">    -75.54860334 </i>
   </energy>
  </scstep>
  <scstep>
   <time name="diag">    2.31    2.32</time>
   <time name="diis">    8.32    8.36</time>
   <time name="orth">    0.25    0.25</time>
   <time name="total">   12.13   12.18</time>
   <energy>
    <i name="e_fr_energy">    -75.55493498 </i>
    <i name="e_wo_entrp">    -75.54235446 </i>
    <i name="e_0_energy">    -75.54864472 </i>
   </energy>
  </scstep>
  <scstep>
   <time name="diag">    2.32    2.33</time>
   <time name="diis">    8.56    8.59</time>
   <time name="orth">    0.25    0.25</time>
   <time name="total">   12.37   12.42</time>
   <energy>
    <i name="e_fr_energy">    -75.55494973 </i>
    <i name="e_wo_entrp">    -75.54235979 </i>
    <i name="e_0_energy">    -75.54865476 </i>
   </energy>
  </scstep>
  <scstep>
   <time name="diag">    2.31    2.32</time>
   <time name="diis">    8.94    8.98</time>
   <time name="orth">    0.25    0.25</time>
   <time name="total">   12.75   12.81</time>
   <energy>
    <i name="e_fr_energy">    -75.55495347 </i>
    <i name="e_wo_entrp">    -75.54236508 </i>
    <i name="e_0_energy">    -75.54865928 </i>
   </energy>
  </scstep>
  <scstep>
   <time name="diag">    2.32    2.33</time>
   <time name="diis">    8.18    8.21</time>
   <time name="orth">    0.25    0.25</time>
   <time name="total">   11.99   12.05</time>
   <energy>
    <i name="e_fr_energy">    -75.55495373 </i>
    <i name="e_wo_entrp">    -75.54236553 </i>
    <i name="e_0_energy">    -75.54865963 </i>
   </energy>
  </scstep>
  <scstep>
   <time name="diag">    2.31    2.32</time>
   <time name="diis">    5.41    5.43</time>
   <time name="orth">    0.25    0.25</time>
   <time name="total">    8.25    8.29</time>
   <energy>
    <i name="alphaZ">     73.48905044 </i>
    <i name="ewald">  -1901.39618620 </i>
    <i name="hartreedc">   -261.65185486 </i>
    <i name="XCdc">   -176.13833367 </i>
    <i name="pawpsdc">   4175.86145662 </i>
    <i name="pawaedc">  -3856.44172375 </i>
    <i name="eentropy">     -0.01258786 </i>
    <i name="bandstr">   -209.88913447 </i>
    <i name="atom">   2080.62436032 </i>
    <i name="e_fr_energy">    -75.55495343 </i>
    <i name="e_wo_entrp">    -75.54236557 </i>
    <i name="e_0_energy">    -75.54865950 </i>
   </energy>
  </scstep>
  <structure>
   <crystal>
    <varray name="basis" >
     <v>       7.82205625      -0.03963557      -0.91824552 </v>
     <v>       1.28176666       4.25113907      -0.00000000 </v>
     <v>      -2.14753600       0.64750647      18.64445222 </v>
    </varray>
    <i name="volume">    611.77942961 </i>
    <varray name="rec_basis" >
     <v>       0.12955676      -0.03906283       0.01627944 </v>
     <v>       0.00023606       0.23515990      -0.00813972 </v>
     <v>       0.00638071      -0.00192386       0.05443703 </v>
    </varray>
   </crystal>
   <varray name="positions" >
    <v>       0.93800160       0.05372648       0.03869543 </v>
    <v>       0.85050749       0.59747353       0.12242967 </v>
    <v>       0.59207957       0.72668749       0.10134288 </v>
    <v>       0.49967733       0.27288861       0.17950364 </v>
    <v>       0.13733895       0.45405780       0.20720305 </v>
    <v>       0.04447924       0.00048765       0.28251557 </v>
    <v>       0.68214086       0.18165684       0.31021497 </v>
    <v>       0.58973861       0.72785797       0.38837574 </v>
    <v>       0.33131069       0.85707193       0.36728894 </v>
    <v>       0.24381659       0.40081898       0.45102318 </v>
    <v>       0.92519256       0.06013099       0.53003096 </v>
    <v>       0.86737742       0.58903856       0.61209838 </v>
    <v>       0.58771669       0.72886893       0.59358785 </v>
    <v>       0.50199978       0.27172738       0.67741072 </v>
    <v>       0.13549924       0.45497765       0.70522842 </v>
    <v>       0.04631895       0.99956780       0.78449020 </v>
    <v>       0.67981840       0.18281807       0.81230789 </v>
    <v>       0.59410150       0.72567652       0.89613077 </v>
    <v>       0.31444076       0.86550689       0.87762023 </v>
    <v>       0.25662562       0.39441446       0.95968765 </v>
   </varray>
  </structure>
  <varray name="forces" >
   <v>      -0.58992333       0.17786858       0.66882522 </v>
   <v>       8.78508382      -2.64880243      -0.44763318 </v>
   <v>      -8.89364142       2.68153378       0.29187745 </v>
   <v>      -0.07224137       0.02178159      -0.03235103 </v>
   <v>       0.02261762      -0.00681947       0.74578302 </v>
   <v>      -0.02261762       0.00681947      -0.74578302 </v>
   <v>       0.07224137      -0.02178159       0.03235103 </v>
   <v>       8.89364142      -2.68153378      -0.29187745 </v>
   <v>      -8.78508382       2.64880243       0.44763318 </v>
   <v>       0.58992333      -0.17786858      -0.66882522 </v>
   <v>      -0.15620409       0.04709731      -0.04184768 </v>
   <v>       5.23663880      -1.57890601      -1.11526355 </v>
   <v>      -6.57827515       1.98342459       0.25560848 </v>
   <v>      -0.33270353       0.10031389      -0.09269061 </v>
   <v>       1.14212841      -0.34436467       1.29899099 </v>
   <v>      -1.14212841       0.34436467      -1.29899099 </v>
   <v>       0.33270353      -0.10031389       0.09269061 </v>
   <v>       6.57827515      -1.98342459      -0.25560848 </v>
   <v>      -5.23663880       1.57890601       1.11526355 </v>
   <v>       0.15620409      -0.04709731       0.04184768 </v>
  </varray>
  <varray name="stress" >
   <v>      75.82842431     -51.96985376      42.40125406 </v>
   <v>     -51.96985376     -80.86658053     -12.78445912 </v>
   <v>      42.40125403     -12.78445911     -56.07069078 </v>
  </varray>
  <energy>
   <i name="e_fr_energy">    -75.55495343 </i>
   <i name="e_wo_entrp">    -75.54236557 </i>
   <i name="e_0_energy">    -75.54865950 </i>
  </energy>
  <time name="totalsc">  156.82  157.50</time>
 </calculation>
 <calculation>
  <scstep>
   <time name="diag">    2.32    2.33</time>
   <time name="diis">    8.26    8.29</time>
   <time name="orth">    0.25    0.25</time>
   <time name="total">   12.07   12.13</time>
   <energy>
    <i name="alphaZ">     89.37950559 </i>
    <i name="ewald">  -2093.04332682 </i>
    <i name="hartreedc">   -231.37565250 </i>
    <i name="XCdc">   -170.38003700 </i>
    <i name="pawpsdc">   4175.99793517 </i>
    <i name="pawaedc">  -3856.57808088 </i>
    <i name="eentropy">     -0.02656387 </i>
    <i name="bandstr">    -78.60764658 </i>
    <i name="atom">   2080.62436032 </i>
    <i name="e_fr_energy">    -84.00950656 </i>
    <i name="e_wo_entrp">    -83.98294268 </i>
    <i name="e_0_energy">    -83.99622462 </i>
   </energy>
  </scstep>
  <scstep>
   <time name="diag">    2.31    2.32</time>
   <time name="diis">    8.34    8.37</time>
   <time name="orth">    0.25    0.25</time>
   <time name="total">   12.14   12.19</time>
   <energy>
    <i name="e_fr_energy">    -88.36408669 </i>
    <i name="e_wo_entrp">    -88.35113367 </i>
    <i name="e_0_energy">    -88.35761018 </i>
   </energy>
  </scstep>
  <scstep>
   <time name="diag">    2.31    2.32</time>
   <time name="diis">    8.26    8.29</time>
   <time name="orth">    0.25    0.25</time>
   <time name="total">   12.06   12.11</time>
   <energy>
    <i name="e_fr_energy">    -86.70774994 </i>
    <i name="e_wo_entrp">    -86.69797433 </i>
    <i name="e_0_energy">    -86.70286214 </i>
   </energy>
  </scstep>
  <scstep>
   <time name="diag">    2.31    2.32</time>
   <time name="diis">    7.93    7.96</time>
   <time name="orth">    0.25    0.25</time>
   <time name="total">   11.73   11.78</time>
   <energy>
    <i name="e_fr_energy">    -85.68489009 </i>
    <i name="e_wo_entrp">    -85.67408552 </i>
    <i name="e_0_energy">    -85.67948780 </i>
   </energy>
  </scstep>
  <scstep>
   <time name="diag">    2.31    2.32</time>
   <time name="diis">    8.44    8.48</time>
   <time name="orth">    0.25    0.25</time>
   <time name="total">   12.25   12.30</time>
   <energy>
    <i name="e_fr_energy">    -85.65173518 </i>
    <i name="e_wo_entrp">    -85.64104121 </i>
    <i name="e_0_energy">    -85.64638819 </i>
   </energy>
  </scstep>
  <scstep>
   <time name="diag">    2.31    2.32</time>
   <time name="diis">    8.36    8.39</time>
   <time name="orth">    0.25    0.25</time>
   <time name="total">   12.16   12.21</time>
   <energy>
    <i name="e_fr_energy">    -85.61542190 </i>
    <i name="e_wo_entrp">    -85.60426943 </i>
    <i name="e_0_energy">    -85.60984566 </i>
   </energy>
  </scstep>
  <scstep>
   <time name="diag">    2.31    2.32</time>
   <time name="diis">    8.57    8.61</time>
   <time name="orth">    0.25    0.25</time>
   <time name="total">   12.39   12.44</time>
   <energy>
    <i name="e_fr_energy">    -85.61428745 </i>
    <i name="e_wo_entrp">    -85.60314754 </i>
    <i name="e_0_energy">    -85.60871749 </i>
   </energy>
  </scstep>
  <scstep>
   <time name="diag">    2.31    2.32</time>
   <time name="diis">    8.13    8.17</time>
   <time name="orth">    0.25    0.25</time>
   <time name="total">   11.94   11.99</time>
   <energy>
    <i name="e_fr_energy">    -85.61206605 </i>
    <i name="e_wo_entrp">    -85.60092207 </i>
    <i name="e_0_energy">    -85.60649406 </i>
   </energy>
  </scstep>
  <scstep>
   <time name="diag">    2.31    2.32</time>
   <time name="diis">    9.00    9.05</time>
   <time name="orth">    0.25    0.25</time>
   <time name="total">   12.81   12.87</time>
   <energy>
    <i name="e_fr_energy">    -85.61247719 </i>
    <i name="e_wo_entrp">    -85.60135036 </i>
    <i name="e_0_energy">    -85.60691378 </i>
   </energy>
  </scstep>
  <scstep>
   <time name="diag">    2.31    2.32</time>
   <time name="diis">    8.62    8.66</time>
   <time name="orth">    0.25    0.25</time>
   <time name="total">   12.43   12.49</time>
   <energy>
    <i name="e_fr_energy">    -85.61245400 </i>
    <i name="e_wo_entrp">    -85.60133204 </i>
    <i name="e_0_energy">    -85.60689302 </i>
   </energy>
  </scstep>
  <scstep>
   <time name="diag">    2.31    2.32</time>
   <time name="diis">    9.04    9.08</time>
   <time name="orth">    0.25    0.25</time>
   <time name="total">   12.85   12.91</time>
   <energy>
    <i name="e_fr_energy">    -85.61246536 </i>
    <i name="e_wo_entrp">    -85.60134262 </i>
    <i name="e_0_energy">    -85.60690399 </i>
   </energy>
  </scstep>
  <scstep>
   <time name="diag">    2.31    2.32</time>
   <time name="diis">    8.38    8.42</time>
   <time name="orth">    0.25    0.25</time>
   <time name="total">   12.19   12.25</time>
   <energy>
    <i name="e_fr_energy">    -85.61246630 </i>
    <i name="e_wo_entrp">    -85.60134205 </i>
    <i name="e_0_energy">    -85.60690417 </i>
   </energy>
  </scstep>
  <scstep>
   <time name="diag">    2.31    2.32</time>
   <time name="diis">    7.00    7.03</time>
   <time name="orth">    0.25    0.25</time>
   <time name="total">    9.84    9.88</time>
   <energy>
    <i name="alphaZ">     89.37950559 </i>
    <i name="ewald">  -2093.04332682 </i>
    <i name="hartreedc">   -186.52586060 </i>
    <i name="XCdc">   -170.13935673 </i>
    <i name="pawpsdc">   4683.75609798 </i>
    <i name="pawaedc">  -4364.65237340 </i>
    <i name="eentropy">     -0.01112409 </i>
    <i name="bandstr">   -125.00038897 </i>
    <i name="atom">   2080.62436032 </i>
    <i name="e_fr_energy">    -85.61246671 </i>
    <i name="e_wo_entrp">    -85.60134262 </i>
    <i name="e_0_energy">    -85.60690467 </i>
   </energy>
  </scstep>
  <structure>
   <crystal>
    <varray name="basis" >
     <v>       7.30602091      -0.01981779      -0.45912276 </v>
     <v>       1.20671546       4.00222240      -0.00000000 </v>
     <v>      -1.07376800       0.32375323      17.26222586 </v>
    </varray>
    <i name="volume">    503.01340405 </i>
    <varray name="rec_basis" >
     <v>       0.13734677      -0.04141161       0.00932010 </v>
     <v>       0.00038460       0.24974522      -0.00466005 </v>
     <v>       0.00365301      -0.00110142       0.05817784 </v>
    </varray>
   </crystal>
   <varray name="positions" >
    <v>       0.97785273       0.03380091       0.02533018 </v>
    <v>       0.88790661       0.57877397       0.10629864 </v>
    <v>       0.59185252       0.72680102       0.10204567 </v>
    <v>       0.49995763       0.27274846       0.17989582 </v>
    <v>       0.13676667       0.45434394       0.20675768 </v>
    <v>       0.04505151       0.00020152       0.28296093 </v>
    <v>       0.68186055       0.18179700       0.30982280 </v>
    <v>       0.58996567       0.72774444       0.38767295 </v>
    <v>       0.29391158       0.87577148       0.38341998 </v>
    <v>       0.20396545       0.42074455       0.46438843 </v>
    <v>       0.97025905       0.03759775       0.51632357 </v>
    <v>       0.89808884       0.57368285       0.59690536 </v>
    <v>       0.58963121       0.72791167       0.59515690 </v>
    <v>       0.50119390       0.27213032       0.67748663 </v>
    <v>       0.13576656       0.45484399       0.70497758 </v>
    <v>       0.04605162       0.99970146       0.78474104 </v>
    <v>       0.68062428       0.18241513       0.81223198 </v>
    <v>       0.59218698       0.72663378       0.89456172 </v>
    <v>       0.28372934       0.88086260       0.89281326 </v>
    <v>       0.21155913       0.41694771       0.97339504 </v>
   </varray>
  </structure>
  <varray name="forces" >
   <v>      -0.21082581       0.06356637       0.13217132 </v>
   <v>       3.56306417      -1.07430427      -1.17491378 </v>
   <v>      -4.16512019       1.25583099       1.08737807 </v>
   <v>      -0.34335937       0.10352675      -0.54854586 </v>
   <v>       0.45449194      -0.13703448       0.98906525 </v>
   <v>      -0.45449194       0.13703448      -0.98906525 </v>
   <v>       0.34335937      -0.10352675       0.54854586 </v>
   <v>       4.16512019      -1.25583099      -1.08737807 </v>
   <v>      -3.56306417       1.07430427       1.17491378 </v>
   <v>       0.21082581      -0.06356637      -0.13217132 </v>
   <v>       0.26294955      -0.07928227      -0.93419256 </v>
   <v>       2.88553342      -0.87002106      -0.90449466 </v>
   <v>      -4.19953683       1.26620800       0.43381940 </v>
   <v>      -0.43268011       0.13045796      -0.40218573 </v>
   <v>       0.93847222      -0.28296002       1.25301401 </v>
   <v>      -0.93847222       0.28296002      -1.25301401 </v>
   <v>       0.43268011      -0.13045796       0.40218573 </v>
   <v>       4.19953683      -1.26620800      -0.43381940 </v>
   <v>      -2.88553342       0.87002106       0.90449466 </v>
   <v>      -0.26294955       0.07928227       0.93419256 </v>
  </varray>
  <varray name="stress" >
   <v>      45.07120059     -37.54845958      27.36952847 </v>
   <v>     -37.54845958     -68.14166476      -8.25222333 </v>
   <v>      27.36952816      -8.25222324     -24.53378126 </v>
  </varray>
  <energy>
   <i name="e_fr_energy">    -85.61246671 </i>
   <i name="e_wo_entrp">    -85.60134262 </i>
   <i name="e_0_energy">    -85.60690467 </i>
  </energy>
  <time name="totalsc">  173.62  174.39</time>
 </calculation>
 <calculation>
  <scstep>
   <time name="diag">    2.31    2.32</time>
   <time name="diis">    8.01    8.04</time>
   <time name="orth">    0.25    0.25</time>
   <time name="total">   11.81   11.86</time>
   <energy>
    <i name="alphaZ">     99.34232840 </i>
    <i name="ewald">  -2159.27929439 </i>
    <i name="hartreedc">   -200.02370740 </i>
    <i name="XCdc">   -166.28293718 </i>
    <i name="pawpsdc">   4682.91861062 </i>
    <i name="pawaedc">  -4363.81490316 </i>
    <i name="eentropy">     -0.00390579 </i>
    <i name="bandstr">    -61.60556514 </i>
    <i name="atom">   2080.62436032 </i>
    <i name="e_fr_energy">    -88.12501372 </i>
    <i name="e_wo_entrp">    -88.12110792 </i>
    <i name="e_0_energy">    -88.12306082 </i>
   </energy>
  </scstep>
  <scstep>
   <time name="diag">    2.32    2.33</time>
   <time name="diis">    8.20    8.23</time>
   <time name="orth">    0.25    0.25</time>
   <time name="total">   12.01   12.06</time>
   <energy>
    <i name="e_fr_energy">    -88.55186156 </i>
    <i name="e_wo_entrp">    -88.54682354 </i>
    <i name="e_0_energy">    -88.54934255 </i>
   </energy>
  </scstep>
  <scstep>
   <time name="diag">    2.32    2.33</time>
   <time name="diis">    8.54    8.58</time>
   <time name="orth">    0.25    0.25</time>
   <time name="total">   12.35   12.40</time>
   <energy>
    <i name="e_fr_energy">    -88.36621792 </i>
    <i name="e_wo_entrp">    -88.36090575 </i>
    <i name="e_0_energy">    -88.36356184 </i>
   </energy>
  </scstep>
  <scstep>
   <time name="diag">    2.32    2.33</time>
   <time name="diis">    8.28    8.32</time>
   <time name="orth">    0.25    0.25</time>
   <time name="total">   12.09   12.14</time>
   <energy>
    <i name="e_fr_energy">    -88.27357060 </i>
    <i name="e_wo_entrp">    -88.26817247 </i>
    <i name="e_0_energy">    -88.27087154 </i>
   </energy>
  </scstep>
  <scstep>
   <time name="diag">    2.32    2.33</time>
   <time name="diis">    8.41    8.45</time>
   <time name="orth">    0.25    0.25</time>
   <time name="total">   12.23   12.28</time>
   <energy>
    <i name="e_fr_energy">    -88.26779201 </i>
    <i name="e_wo_entrp">    -88.26219395 </i>
    <i name="e_0_energy">    -88.26499298 </i>
   </energy>
  </scstep>
  <scstep>
   <time name="diag">    2.32    2.33</time>
   <time name="diis">    8.79    8.83</time>
   <time name="orth">    0.25    0.25</time>
   <time name="total">   12.61   12.66</time>
   <energy>
    <i name="e_fr_energy">    -88.26466653 </i>
    <i name="e_wo_entrp">    -88.25920661 </i>
    <i name="e_0_energy">    -88.26193657 </i>
   </energy>
  </scstep>
  <scstep>
   <time name="diag">    2.31    2.32</time>
   <time name="diis">    8.73    8.77</time>
   <time name="orth">    0.25    0.25</time>
   <time name="total">   12.53   12.59</time>
   <energy>
    <i name="e_fr_energy">    -88.26527293 </i>
    <i name="e_wo_entrp">    -88.25977270 </i>
    <i name="e_0_energy">    -88.26252282 </i>
   </energy>
  </scstep>
  <scstep>
   <time name="diag">    2.31    2.32</time>
   <time name="diis">    8.05    8.09</time>
   <time name="orth">    0.25    0.25</time>
   <time name="total">   11.86   11.91</time>
   <energy>
    <i name="e_fr_energy">    -88.26518228 </i>
[...]
       <r>    1.6216    1.0000 </r>
       <r>    1.6403    1.0000 </r>
       <r>    1.8746    1.0000 </r>
       <r>    1.9612    1.0000 </r>
       <r>    2.2542    1.0000 </r>
       <r>    2.2919    1.0000 </r>
       <r>    2.8019    1.0000 </r>
       <r>    2.9692    1.0000 </r>
       <r>    3.0295    1.0000 </r>
       <r>    3.0819    1.0000 </r>
       <r>    3.3409    1.0000 </r>
       <r>    3.4662    1.0000 </r>
       <r>    3.8213    1.0000 </r>
       <r>    4.1716    1.0000 </r>
       <r>    4.5503    1.0000 </r>
       <r>    4.5583    1.0000 </r>
       <r>    5.4372    0.0000 </r>
       <r>    5.6881    0.0000 </r>
       <r>    5.8993    0.0000 </r>
       <r>    6.1117    0.0000 </r>
       <r>    6.3350    0.0000 </r>
       <r>    6.7058    0.0000 </r>
       <r>    6.9345    0.0000 </r>
       <r>    7.2600    0.0000 </r>
       <r>    7.5735    0.0000 </r>
      </set>
      <set comment="kpoint 24">
       <r>   -5.6794    1.0000 </r>
       <r>   -5.6435    1.0000 </r>
       <r>   -5.3045    1.0000 </r>
       <r>   -5.2813    1.0000 </r>
       <r>   -4.7803    1.0000 </r>
       <r>   -4.6129    1.0000 </r>
       <r>   -4.0857    1.0000 </r>
       <r>   -3.9704    1.0000 </r>
       <r>   -3.7035    1.0000 </r>
       <r>   -3.6193    1.0000 </r>
       <r>   -3.2220    1.0000 </r>
       <r>   -3.2136    1.0000 </r>
       <r>   -2.9727    1.0000 </r>
       <r>   -2.8358    1.0000 </r>
       <r>   -2.3384    1.0000 </r>
       <r>   -2.2206    1.0000 </r>
       <r>   -1.7049    1.0000 </r>
       <r>   -1.6825    1.0000 </r>
       <r>   -1.1810    1.0000 </r>
       <r>   -0.8512    1.0000 </r>
       <r>    0.4751    1.0000 </r>
       <r>    0.5083    1.0000 </r>
       <r>    0.6537    1.0000 </r>
       <r>    0.7538    1.0000 </r>
       <r>    1.1687    1.0000 </r>
       <r>    1.3014    1.0000 </r>
       <r>    1.5769    1.0000 </r>
       <r>    1.6441    1.0000 </r>
       <r>    2.0455    1.0000 </r>
       <r>    2.0665    1.0000 </r>
       <r>    2.4019    1.0000 </r>
       <r>    2.5844    1.0000 </r>
       <r>    2.7625    1.0000 </r>
       <r>    2.7895    1.0000 </r>
       <r>    3.0266    1.0000 </r>
       <r>    3.0422    1.0000 </r>
       <r>    3.3045    1.0000 </r>
       <r>    3.5196    1.0000 </r>
       <r>    3.9708    1.0000 </r>
       <r>    3.9937    1.0000 </r>
       <r>    4.4571    1.0000 </r>
       <r>    4.6352    0.9832 </r>
       <r>    5.2413    0.0000 </r>
       <r>    5.3247    0.0000 </r>
       <r>    6.0429    0.0000 </r>
       <r>    6.0591    0.0000 </r>
       <r>    6.6106    0.0000 </r>
       <r>    6.7491    0.0000 </r>
       <r>    7.0941    0.0000 </r>
       <r>    7.3189    0.0000 </r>
       <r>    7.3651    0.0000 </r>
      </set>
     </set>
    </set>
   </array>
  </eigenvalues>
  <separator name="orbital magnetization" >
   <v name="MAGDIPOLOUT">      0.00000000      0.00000000      0.00000000</v>
  </separator>
  <dos>
   <i name="efermi">      4.71036528 </i>
   <total>
    <array>
     <dimension dim="1">gridpoints</dimension>
     <dimension dim="2">spin</dimension>
     <field>energy</field>
     <field>total</field>
     <field>integrated</field>
     <set>
      <set comment="spin 1">
       <r>    -8.3993     0.0000     0.0000 </r>
       <r>    -8.3426     0.0000     0.0000 </r>
       <r>    -8.2859     0.0000     0.0000 </r>
       <r>    -8.2292     0.0000     0.0000 </r>
       <r>    -8.1726     0.0000     0.0000 </r>
       <r>    -8.1159     0.0000     0.0000 </r>
       <r>    -8.0592     0.0000     0.0000 </r>
       <r>    -8.0026     0.0000     0.0000 </r>
       <r>    -7.9459     0.0000     0.0000 </r>
       <r>    -7.8892     0.0000     0.0000 </r>
       <r>    -7.8326     0.0000     0.0000 </r>
       <r>    -7.7759     0.0000     0.0000 </r>
       <r>    -7.7192     0.0029     0.0002 </r>
       <r>    -7.6626     0.1287     0.0075 </r>
       <r>    -7.6059     0.7857     0.0520 </r>
       <r>    -7.5492     0.9848     0.1078 </r>
       <r>    -7.4926     0.8326     0.1550 </r>
       <r>    -7.4359     1.7975     0.2568 </r>
       <r>    -7.3792     2.8601     0.4189 </r>
       <r>    -7.3226     1.9169     0.5275 </r>
       <r>    -7.2659     1.3538     0.6042 </r>
       <r>    -7.2092     1.6137     0.6957 </r>
       <r>    -7.1526     0.8720     0.7451 </r>
       <r>    -7.0959     0.9506     0.7990 </r>
       <r>    -7.0392     4.2175     1.0380 </r>
       <r>    -6.9826     4.9416     1.3180 </r>
       <r>    -6.9259     3.6736     1.5262 </r>
       <r>    -6.8692     3.7716     1.7399 </r>
       <r>    -6.8126     3.3922     1.9321 </r>
       <r>    -6.7559     1.6985     2.0284 </r>
       <r>    -6.6992     3.5499     2.2296 </r>
       <r>    -6.6426     4.4900     2.4840 </r>
       <r>    -6.5859     3.9862     2.7099 </r>
       <r>    -6.5292     5.0502     2.9961 </r>
       <r>    -6.4725     4.9598     3.2771 </r>
       <r>    -6.4159     2.5533     3.4218 </r>
       <r>    -6.3592     1.8523     3.5268 </r>
       <r>    -6.3025     1.2142     3.5956 </r>
       <r>    -6.2459     1.4159     3.6758 </r>
       <r>    -6.1892     1.8715     3.7819 </r>
       <r>    -6.1325     2.6618     3.9327 </r>
       <r>    -6.0759     3.5684     4.1349 </r>
       <r>    -6.0192     1.9310     4.2444 </r>
       <r>    -5.9625     1.6047     4.3353 </r>
       <r>    -5.9059     2.6782     4.4870 </r>
       <r>    -5.8492     7.0400     4.8860 </r>
       <r>    -5.7925     9.2747     5.4116 </r>
       <r>    -5.7359     8.7668     5.9084 </r>
       <r>    -5.6792     7.9327     6.3579 </r>
       <r>    -5.6225    10.4443     6.9497 </r>
       <r>    -5.5659    13.7161     7.7270 </r>
       <r>    -5.5092     7.0607     8.1271 </r>
       <r>    -5.4525     5.2893     8.4269 </r>
       <r>    -5.3959     4.7497     8.6960 </r>
       <r>    -5.3392     5.2490     8.9935 </r>
       <r>    -5.2825     6.2846     9.3496 </r>
       <r>    -5.2259     5.9397     9.6862 </r>
       <r>    -5.1692     4.5726     9.9453 </r>
       <r>    -5.1125     5.1392    10.2365 </r>
       <r>    -5.0559     4.2505    10.4774 </r>
       <r>    -4.9992     3.8855    10.6976 </r>
       <r>    -4.9425     4.7094    10.9644 </r>
       <r>    -4.8858     5.8287    11.2947 </r>
       <r>    -4.8292     5.3258    11.5965 </r>
       <r>    -4.7725     9.8250    12.1533 </r>
       <r>    -4.7158    11.4983    12.8049 </r>
       <r>    -4.6592     5.9736    13.1434 </r>
       <r>    -4.6025     3.7602    13.3565 </r>
       <r>    -4.5458     7.0628    13.7567 </r>
       <r>    -4.4892     5.3987    14.0626 </r>
       <r>    -4.4325     2.9031    14.2272 </r>
       <r>    -4.3758     3.8827    14.4472 </r>
       <r>    -4.3192     2.5637    14.5925 </r>
       <r>    -4.2625     5.7507    14.9183 </r>
       <r>    -4.2058     6.5405    15.2890 </r>
       <r>    -4.1492     3.8590    15.5077 </r>
       <r>    -4.0925     4.5510    15.7656 </r>
       <r>    -4.0358     3.2713    15.9509 </r>
       <r>    -3.9792     2.8516    16.1125 </r>
       <r>    -3.9225     3.1190    16.2893 </r>
       <r>    -3.8658     4.3443    16.5355 </r>
       <r>    -3.8092     4.7360    16.8038 </r>
       <r>    -3.7525     5.5614    17.1190 </r>
       <r>    -3.6958     8.3160    17.5902 </r>
       <r>    -3.6392     8.9182    18.0956 </r>
       <r>    -3.5825     6.5069    18.4643 </r>
       <r>    -3.5258     3.5042    18.6629 </r>
       <r>    -3.4692     1.6568    18.7568 </r>
       <r>    -3.4125     2.1543    18.8789 </r>
       <r>    -3.3558     2.7442    19.0344 </r>
       <r>    -3.2992     6.6323    19.4102 </r>
       <r>    -3.2425    11.6180    20.0686 </r>
       <r>    -3.1858     7.5348    20.4956 </r>
       <r>    -3.1291     3.7376    20.7074 </r>
       <r>    -3.0725     2.8335    20.8679 </r>
       <r>    -3.0158     5.0175    21.1523 </r>
       <r>    -2.9591    12.3723    21.8534 </r>
       <r>    -2.9025    10.1355    22.4277 </r>
       <r>    -2.8458     7.3527    22.8444 </r>
       <r>    -2.7891     5.2186    23.1401 </r>
       <r>    -2.7325     7.8559    23.5853 </r>
       <r>    -2.6758     6.5420    23.9560 </r>
       <r>    -2.6191     3.2109    24.1380 </r>
       <r>    -2.5625     2.5115    24.2803 </r>
       <r>    -2.5058     4.8587    24.5556 </r>
       <r>    -2.4491     7.9021    25.0034 </r>
       <r>    -2.3925     6.7258    25.3846 </r>
       <r>    -2.3358     7.9638    25.8359 </r>
       <r>    -2.2791     4.8236    26.1092 </r>
       <r>    -2.2225     5.9047    26.4438 </r>
       <r>    -2.1658    12.8294    27.1708 </r>
       <r>    -2.1091     8.8988    27.6751 </r>
       <r>    -2.0525     5.3199    27.9766 </r>
       <r>    -1.9958     3.6711    28.1846 </r>
       <r>    -1.9391     3.8617    28.4034 </r>
       <r>    -1.8825     4.4057    28.6531 </r>
       <r>    -1.8258     4.4281    28.9040 </r>
       <r>    -1.7691     4.0986    29.1363 </r>
       <r>    -1.7125     7.8864    29.5832 </r>
       <r>    -1.6558    11.0104    30.2071 </r>
       <r>    -1.5991     8.1236    30.6675 </r>
       <r>    -1.5424     5.3936    30.9731 </r>
       <r>    -1.4858     3.5019    31.1716 </r>
       <r>    -1.4291     3.5885    31.3749 </r>
       <r>    -1.3724     3.6825    31.5836 </r>
       <r>    -1.3158     4.4824    31.8376 </r>
       <r>    -1.2591     4.3964    32.0867 </r>
       <r>    -1.2024     4.2844    32.3295 </r>
       <r>    -1.1458     5.8497    32.6610 </r>
       <r>    -1.0891     7.8347    33.1050 </r>
       <r>    -1.0324     8.4059    33.5813 </r>
       <r>    -0.9758     5.3058    33.8820 </r>
       <r>    -0.9191     3.2875    34.0683 </r>
       <r>    -0.8624     3.2655    34.2533 </r>
       <r>    -0.8058     2.5074    34.3954 </r>
       <r>    -0.7491     2.5952    34.5425 </r>
       <r>    -0.6924     4.0118    34.7698 </r>
       <r>    -0.6358     6.2178    35.1222 </r>
       <r>    -0.5791     6.1448    35.4704 </r>
       <r>    -0.5224     2.3992    35.6064 </r>
       <r>    -0.4658     1.6626    35.7006 </r>
       <r>    -0.4091     2.0919    35.8191 </r>
       <r>    -0.3524     1.3463    35.8954 </r>
       <r>    -0.2958     3.8281    36.1123 </r>
       <r>    -0.2391     7.4866    36.5366 </r>
       <r>    -0.1824     4.9483    36.8170 </r>
       <r>    -0.1258     2.4755    36.9573 </r>
       <r>    -0.0691     2.4648    37.0970 </r>
       <r>    -0.0124     3.0512    37.2699 </r>
       <r>     0.0442     4.7206    37.5374 </r>
       <r>     0.1009     2.6853    37.6895 </r>
       <r>     0.1576     1.2983    37.7631 </r>
       <r>     0.2143     2.2772    37.8922 </r>
       <r>     0.2709     4.3698    38.1398 </r>
       <r>     0.3276    10.9700    38.7614 </r>
       <r>     0.3843    11.8845    39.4349 </r>
       <r>     0.4409     8.6911    39.9274 </r>
       <r>     0.4976     3.9260    40.1499 </r>
       <r>     0.5543     4.6443    40.4131 </r>
       <r>     0.6109     8.3614    40.8869 </r>
       <r>     0.6676    11.8131    41.5563 </r>
       <r>     0.7243    12.4079    42.2594 </r>
       <r>     0.7809     9.6672    42.8073 </r>
       <r>     0.8376     7.4909    43.2317 </r>
       <r>     0.8943     5.2993    43.5320 </r>
       <r>     0.9509     4.5751    43.7913 </r>
       <r>     1.0076     5.4798    44.1018 </r>
       <r>     1.0643     7.2015    44.5099 </r>
       <r>     1.1209     9.8270    45.0668 </r>
       <r>     1.1776    12.3626    45.7674 </r>
       <r>     1.2343    11.8427    46.4385 </r>
       <r>     1.2909    11.5602    47.0935 </r>
       <r>     1.3476    11.6754    47.7552 </r>
       <r>     1.4043     5.7247    48.0796 </r>
       <r>     1.4609     7.0002    48.4763 </r>
       <r>     1.5176    11.5104    49.1285 </r>
       <r>     1.5743    12.5956    49.8423 </r>
       <r>     1.6309    12.9679    50.5772 </r>
       <r>     1.6876    12.6675    51.2950 </r>
       <r>     1.7443    13.9248    52.0841 </r>
       <r>     1.8010    10.4724    52.6775 </r>
       <r>     1.8576    11.9287    53.3535 </r>
       <r>     1.9143    10.8574    53.9688 </r>
       <r>     1.9710     8.5660    54.4542 </r>
       <r>     2.0276     7.1493    54.8593 </r>
       <r>     2.0843     9.3566    55.3895 </r>
       <r>     2.1410    10.7646    55.9995 </r>
       <r>     2.1976     7.0419    56.3986 </r>
       <r>     2.2543     9.5082    56.9374 </r>
       <r>     2.3110    10.0731    57.5082 </r>
       <r>     2.3676    11.7444    58.1738 </r>
       <r>     2.4243     8.3500    58.6469 </r>
       <r>     2.4810     5.6300    58.9660 </r>
       <r>     2.5376     8.0489    59.4221 </r>
       <r>     2.5943    10.9273    60.0413 </r>
       <r>     2.6510    11.2391    60.6782 </r>
       <r>     2.7076    10.3529    61.2649 </r>
       <r>     2.7643     9.8290    61.8219 </r>
       <r>     2.8210    12.5081    62.5307 </r>
       <r>     2.8776     9.1858    63.0512 </r>
       <r>     2.9343    10.9041    63.6691 </r>
       <r>     2.9910    10.0745    64.2400 </r>
       <r>     3.0476    11.1832    64.8738 </r>
       <r>     3.1043     9.7211    65.4246 </r>
       <r>     3.1610     8.9894    65.9340 </r>
       <r>     3.2176     8.4866    66.4150 </r>
       <r>     3.2743     9.6992    66.9646 </r>
       <r>     3.3310    14.6259    67.7934 </r>
       <r>     3.3876    12.4421    68.4985 </r>
       <r>     3.4443    11.7831    69.1662 </r>
       <r>     3.5010    11.0233    69.7908 </r>
       <r>     3.5577     8.8408    70.2918 </r>
       <r>     3.6143     8.6722    70.7833 </r>
       <r>     3.6710    12.1134    71.4697 </r>
       <r>     3.7277    11.4717    72.1198 </r>
       <r>     3.7843     9.6613    72.6673 </r>
       <r>     3.8410    10.0396    73.2362 </r>
       <r>     3.8977     9.7883    73.7909 </r>
       <r>     3.9543     8.4574    74.2701 </r>
       <r>     4.0110    10.4083    74.8600 </r>
       <r>     4.0677    10.8097    75.4725 </r>
       <r>     4.1243     8.9894    75.9819 </r>
       <r>     4.1810     7.3731    76.3997 </r>
       <r>     4.2377     5.2772    76.6988 </r>
       <r>     4.2943     5.5450    77.0130 </r>
       <r>     4.3510     8.9616    77.5208 </r>
       <r>     4.4077     8.0770    77.9786 </r>
       <r>     4.4643     5.8841    78.3120 </r>
       <r>     4.5210     6.3491    78.6718 </r>
       <r>     4.5777     8.9697    79.1801 </r>
       <r>     4.6343     6.3246    79.5385 </r>
       <r>     4.6910     5.6598    79.8592 </r>
       <r>     4.7477     8.6313    80.3483 </r>
       <r>     4.8043    10.3071    80.9324 </r>
       <r>     4.8610     8.3389    81.4049 </r>
       <r>     4.9177     5.0304    81.6900 </r>
       <r>     4.9743     5.4784    82.0005 </r>
       <r>     5.0310     6.5966    82.3743 </r>
       <r>     5.0877     6.6469    82.7509 </r>
       <r>     5.1444     7.2540    83.1620 </r>
       <r>     5.2010     4.5360    83.4190 </r>
       <r>     5.2577     5.7585    83.7454 </r>
       <r>     5.3144     4.7843    84.0165 </r>
       <r>     5.3710     5.2564    84.3144 </r>
       <r>     5.4277     5.0376    84.5998 </r>
       <r>     5.4844     7.9169    85.0485 </r>
       <r>     5.5410     8.0515    85.5047 </r>
       <r>     5.5977     7.2054    85.9130 </r>
       <r>     5.6544     7.3523    86.3297 </r>
       <r>     5.7110    10.8011    86.9417 </r>
       <r>     5.7677     7.3027    87.3556 </r>
       <r>     5.8244     3.7438    87.5677 </r>
       <r>     5.8810     3.6682    87.7756 </r>
       <r>     5.9377     5.6914    88.0981 </r>
       <r>     5.9944     6.4525    88.4638 </r>
       <r>     6.0510     6.1877    88.8144 </r>
       <r>     6.1077     8.3023    89.2849 </r>
       <r>     6.1644    10.5703    89.8839 </r>
       <r>     6.2210    12.9297    90.6166 </r>
       <r>     6.2777     9.6636    91.1642 </r>
       <r>     6.3344     8.1722    91.6273 </r>
       <r>     6.3910     6.5366    91.9977 </r>
       <r>     6.4477     8.5227    92.4807 </r>
       <r>     6.5044     9.7179    93.0313 </r>
       <r>     6.5610     8.1514    93.4933 </r>
       <r>     6.6177    11.8186    94.1630 </r>
       <r>     6.6744    12.9222    94.8953 </r>
       <r>     6.7310    10.3319    95.4808 </r>
       <r>     6.7877     6.0645    95.8244 </r>
       <r>     6.8444     6.3227    96.1827 </r>
       <r>     6.9011    10.3962    96.7718 </r>
       <r>     6.9577    10.3239    97.3569 </r>
       <r>     7.0144     8.7311    97.8517 </r>
       <r>     7.0711     6.9078    98.2431 </r>
       <r>     7.1277     6.9437    98.6366 </r>
       <r>     7.1844     7.0786    99.0377 </r>
       <r>     7.2411     8.3181    99.5091 </r>
       <r>     7.2977     9.2609   100.0339 </r>
       <r>     7.3544     8.2834   100.5033 </r>
       <r>     7.4111     5.8200   100.8331 </r>
       <r>     7.4677     3.5422   101.0338 </r>
       <r>     7.5244     4.1001   101.2662 </r>
       <r>     7.5811     5.7676   101.5930 </r>
       <r>     7.6377     4.0717   101.8237 </r>
       <r>     7.6944     0.8603   101.8725 </r>
       <r>     7.7511     0.0757   101.8768 </r>
       <r>     7.8077     0.5862   101.9100 </r>
       <r>     7.8644     1.2488   101.9808 </r>
       <r>     7.9211     0.3298   101.9995 </r>
       <r>     7.9777     0.0096   102.0000 </r>
       <r>     8.0344     0.0000   102.0000 </r>
       <r>     8.0911     0.0000   102.0000 </r>
       <r>     8.1477     0.0000   102.0000 </r>
       <r>     8.2044     0.0000   102.0000 </r>
       <r>     8.2611     0.0000   102.0000 </r>
       <r>     8.3177     0.0000   102.0000 </r>
       <r>     8.3744     0.0000   102.0000 </r>
       <r>     8.4311     0.0000   102.0000 </r>
       <r>     8.4877     0.0000   102.0000 </r>
       <r>     8.5444     0.0000   102.0000 </r>
       <r>     8.6011     0.0000   102.0000 </r>
      </set>
     </set>
    </array>
   </total>
  </dos>
 </calculation>
 <structure name="finalpos" >
  <crystal>
   <varray name="basis" >
    <v>       6.81173444       0.04585000       0.10514543 </v>
    <v>       1.16063361       3.84938621       0.00000000 </v>
    <v>       0.21979855      -0.06627176      16.21625107 </v>
   </varray>
   <i name="volume">    424.24626631 </i>
   <varray name="rec_basis" >
    <v>       0.14713768      -0.04436368      -0.00217564 </v>
    <v>      -0.00176898       0.26031504       0.00108782 </v>
    <v>      -0.00095403       0.00028765       0.06168064 </v>
   </varray>
  </crystal>
  <varray name="positions" >
   <v>       0.92934110       0.05805672       0.01094171 </v>
   <v>       0.93633855       0.55455800       0.09398963 </v>
   <v>       0.56903345       0.73821055       0.09811699 </v>
   <v>       0.50011181       0.27267137       0.17853838 </v>
   <v>       0.14142065       0.45201695       0.21042616 </v>
   <v>       0.04039754       0.00252851       0.27929245 </v>
   <v>       0.68170637       0.18187409       0.31118024 </v>
   <v>       0.61278474       0.71633491       0.39160162 </v>
   <v>       0.24547963       0.89998746       0.39572899 </v>
   <v>       0.25247708       0.39648873       0.47877690 </v>
   <v>       0.89860087       0.07342684       0.48606399 </v>
   <v>       0.95246918       0.54649268       0.58195522 </v>
   <v>       0.54806447       0.74869504       0.56112786 </v>
   <v>       0.53157768       0.25693843       0.66719484 </v>
   <v>       0.15637225       0.44454115       0.70614709 </v>
   <v>       0.02544594       0.01000431       0.78357152 </v>
   <v>       0.65024050       0.19760702       0.82252378 </v>
   <v>       0.63375372       0.70585041       0.92859076 </v>
   <v>       0.22934900       0.90805277       0.90776340 </v>
   <v>       0.28321731       0.38111862       0.00365463 </v>
  </varray>
 </structure>
</modeling>
