Si and Ge interface calculation         
           1
     6.789986    0.000000    0.000000
     1.131664    3.753306    0.000000
     0.000000    0.000000   15.879999
   Si   Ge
    10    10
Direct configuration=     1
   0.04545455  0.00000000  0.00000000
   0.95454545  0.54545455  0.07732399
   0.59090909  0.72727273  0.10309866
   0.50000000  0.27272727  0.18042265
   0.13636364  0.45454545  0.20619731
   0.04545455  0.00000000  0.28352130
   0.68181818  0.18181818  0.30929597
   0.59090909  0.72727273  0.38661996
   0.22727273  0.90909091  0.41239462
   0.13636364  0.45454545  0.48971861
   0.04545455  0.00000000  0.48971861
   0.95454545  0.54545455  0.57028936
   0.59090909  0.72727273  0.59714627
   0.50000000  0.27272727  0.67771702
   0.13636364  0.45454545  0.70457393
   0.04545455  0.00000000  0.78514468
   0.68181818  0.18181818  0.81200159
   0.59090909  0.72727273  0.89257234
   0.22727273  0.90909091  0.91942925
   0.13636364  0.45454545  0.00000000
Si and Ge interface calculation         
           1
     8.086289   -0.049783   -1.153336
     1.320196    4.378595   -0.000000
    -2.697352    0.813282   19.352213
   Si   Ge
    10    10
Direct configuration=     2
   0.91837011  0.06354222  0.04520745
   0.83217050  0.60664202  0.13033253
   0.59217631  0.72663912  0.10099290
   0.49952751  0.27296352  0.17930670
   0.13763624  0.45390915  0.20742773
   0.04418195  0.00063630  0.28229088
   0.68229067  0.18158194  0.31041192
   0.58964187  0.72790634  0.38872572
   0.34964769  0.84790343  0.35938608
   0.26344807  0.39100324  0.44451117
   0.90295794  0.07124830  0.53669271
   0.85236640  0.59654407  0.61955994
   0.58672021  0.72936717  0.59279669
   0.50240146  0.27152654  0.67737608
   0.13537144  0.45504156  0.70535258
   0.04644675  0.99950390  0.78436604
   0.67941672  0.18301891  0.81234254
   0.59509798  0.72517828  0.89692192
   0.32945178  0.85800138  0.87015868
   0.27886025  0.38329715  0.95302590
Si and Ge interface calculation         
           1
     7.944142   -0.044324   -1.026867
     1.299523    4.310029   -0.000000
    -2.401573    0.724101   18.971465
   Si   Ge
    10    10
Direct configuration=     3
   0.92879818  0.05832818  0.04176112
   0.84189555  0.60177950  0.12614236
   0.59212761  0.72666347  0.10117947
   0.49960918  0.27292268  0.17941198
   0.13747558  0.45398948  0.20730744
   0.04434260  0.00055597  0.28241117
   0.68220900  0.18162277  0.31030663
   0.58969057  0.72788199  0.38853914
   0.33992263  0.85276596  0.36357625
   0.25302000  0.39621727  0.44795749
   0.91477480  0.06533987  0.53317019
   0.86031913  0.59256771  0.61560049
   0.58725901  0.72909777  0.59322018
   0.50218726  0.27163364  0.67739399
   0.13543863  0.45500796  0.70528652
   0.04637955  0.99953750  0.78443209
   0.67963092  0.18291181  0.81232462
   0.59455917  0.72544769  0.89649843
   0.32149905  0.86197775  0.87411813
   0.26704338  0.38920558  0.95654842
Si and Ge interface calculation         
           1
     7.822056   -0.039636   -0.918246
     1.281767    4.251139   -0.000000
    -2.147536    0.647506   18.644452
   Si   Ge
    10    10
Direct configuration=     4
   0.93800160  0.05372648  0.03869543
   0.85050749  0.59747353  0.12242967
   0.59207957  0.72668749  0.10134288
   0.49967733  0.27288861  0.17950364
   0.13733895  0.45405780  0.20720305
   0.04447924  0.00048765  0.28251557
   0.68214086  0.18165684  0.31021497
   0.58973861  0.72785797  0.38837574
   0.33131069  0.85707193  0.36728894
   0.24381659  0.40081898  0.45102318
   0.92519256  0.06013099  0.53003096
   0.86737742  0.58903856  0.61209838
   0.58771669  0.72886893  0.59358785
   0.50199978  0.27172738  0.67741072
   0.13549924  0.45497765  0.70522842
   0.04631895  0.99956780  0.78449020
   0.67981840  0.18281807  0.81230789
   0.59410150  0.72567652  0.89613077
   0.31444076  0.86550689  0.87762023
   0.25662562  0.39441446  0.95968765
Si and Ge interface calculation         
           1
     7.306021   -0.019818   -0.459123
     1.206715    4.002222   -0.000000
    -1.073768    0.323753   17.262226
   Si   Ge
    10    10
Direct configuration=     5
   0.97785273  0.03380091  0.02533018
   0.88790661  0.57877397  0.10629864
   0.59185252  0.72680102  0.10204567
   0.49995763  0.27274846  0.17989582
   0.13676667  0.45434394  0.20675768
   0.04505151  0.00020152  0.28296093
   0.68186055  0.18179700  0.30982280
   0.58996567  0.72774444  0.38767295
   0.29391158  0.87577148  0.38341998
   0.20396545  0.42074455  0.46438843
   0.97025905  0.03759775  0.51632357
   0.89808884  0.57368285  0.59690536
   0.58963121  0.72791167  0.59515690
   0.50119390  0.27213032  0.67748663
   0.13576656  0.45484399  0.70497758
   0.04605162  0.99970146  0.78474104
   0.68062428  0.18241513  0.81223198
   0.59218698  0.72663378  0.89456172
   0.28372934  0.88086260  0.89281326
   0.21155913  0.41694771  0.97339504
Si and Ge interface calculation         
           1
     7.048003   -0.009909   -0.229561
     1.169190    3.877764   -0.000000
    -0.536884    0.161877   16.571113
   Si   Ge
    10    10
Direct configuration=     6
   0.00011068  0.02267193  0.01764454
   0.90906056  0.56819699  0.09715522
   0.59167932  0.72688761  0.10242663
   0.50007821  0.27268817  0.18010336
   0.13649420  0.45448017  0.20652514
   0.04532398  0.00006528  0.28319347
   0.68173997  0.18185729  0.30961526
   0.59013886  0.72765784  0.38729198
   0.27275762  0.88634846  0.39256339
   0.18170750  0.43187352  0.47207408
   0.99532580  0.02506437  0.50838915
   0.91560410  0.56492522  0.58834960
   0.59053689  0.72745883  0.59597741
   0.50075818  0.27234818  0.67753747
   0.13592780  0.45476337  0.70483929
   0.04589038  0.99978208  0.78487932
   0.68106000  0.18219727  0.81218115
   0.59128129  0.72708663  0.89374121
   0.26621408  0.88962023  0.90136902
   0.18649238  0.42948108  0.98132946
Si and Ge interface calculation         
           1
     6.959814   -0.006522   -0.151098
     1.156364    3.835225   -0.000000
    -0.353379    0.106548   16.334893
   Si   Ge
    10    10
Direct configuration=     7
   0.00820089  0.01862683  0.01480935
   0.91679958  0.56432748  0.09380658
   0.59160763  0.72692346  0.10256292
   0.50011525  0.27266965  0.18017663
   0.13640406  0.45452524  0.20644367
   0.04541412  0.00002021  0.28327494
   0.68170293  0.18187581  0.30954199
   0.59021056  0.72762199  0.38715569
   0.26501860  0.89021797  0.39591203
   0.17361729  0.43591863  0.47490927
   0.00441729  0.02051863  0.50545266
   0.92203877  0.56170789  0.58522658
   0.59083521  0.72730967  0.59626511
   0.50060252  0.27242601  0.67755754
   0.13598866  0.45473295  0.70478937
   0.04582953  0.99981251  0.78492924
   0.68121566  0.18211944  0.81216108
   0.59098297  0.72723579  0.89345351
   0.25977942  0.89283756  0.90449203
   0.17740089  0.43402683  0.98426596
Si and Ge interface calculation         
           1
     7.016422   -0.008696   -0.201463
     1.164597    3.862530   -0.000000
    -0.471170    0.142063   16.486521
   Si   Ge
    10    10
Direct configuration=     8
   0.00289174  0.02128140  0.01667942
   0.91170947  0.56687254  0.09600986
   0.59165667  0.72689894  0.10247398
   0.50009249  0.27268103  0.18012904
   0.13646119  0.45449668  0.20649644
   0.04535699  0.00004878  0.28322218
   0.68172569  0.18186443  0.30958957
   0.59016151  0.72764652  0.38724463
   0.27010871  0.88767292  0.39370875
   0.17892644  0.43326405  0.47303919
   0.99845554  0.02349950  0.50739170
   0.91780048  0.56382703  0.58727906
   0.59064648  0.72740403  0.59607871
   0.50070405  0.27237525  0.67754400
   0.13594821  0.45475317  0.70482206
   0.04586998  0.99979228  0.78489656
   0.68111413  0.18217021  0.81217461
   0.59117170  0.72714142  0.89363990
   0.26401771  0.89071842  0.90243956
   0.18336264  0.43104595  0.98232692
Si and Ge interface calculation         
           1
     7.009802   -0.008442   -0.195573
     1.163634    3.859337   -0.000000
    -0.457395    0.137910   16.468789
   Si   Ge
    10    10
Direct configuration=     9
   0.00350382  0.02097536  0.01646453
   0.91229545  0.56657955  0.09575628
   0.59165117  0.72690169  0.10248427
   0.50009523  0.27267966  0.18013456
   0.13645445  0.45450005  0.20649030
   0.04536373  0.00004541  0.28322831
   0.68172295  0.18186580  0.30958405
   0.59016702  0.72764377  0.38723434
   0.26952273  0.88796591  0.39396233
   0.17831436  0.43357009  0.47325408
   0.99914319  0.02315568  0.50716904
   0.91828794  0.56358330  0.58704266
   0.59066876  0.72739289  0.59610038
   0.50069230  0.27238112  0.67754554
   0.13595283  0.45475086  0.70481828
   0.04586535  0.99979460  0.78490033
   0.68112588  0.18216433  0.81217308
   0.59114942  0.72715256  0.89361824
   0.26353024  0.89096215  0.90267596
   0.18267500  0.43138977  0.98254958
Si and Ge interface calculation         
           1
     7.284531   -0.070597   -0.149564
     1.175065    3.897249    0.000000
    -0.364632    0.109941   16.606830
   Si   Ge
    10    10
Direct configuration=    10
   0.99490867  0.02527294  0.01832372
   0.92294053  0.56125701  0.09524884
   0.57653183  0.73446136  0.10297423
   0.49890585  0.27327435  0.17871469
   0.13956829  0.45294313  0.20847339
   0.04224989  0.00160233  0.28124522
   0.68291233  0.18127111  0.31100393
   0.60528635  0.72008410  0.38674439
   0.25887765  0.89328845  0.39446977
   0.18690952  0.42927251  0.47139490
   0.99208372  0.02668541  0.50621706
   0.93128364  0.55708545  0.58793054
   0.57033128  0.73756163  0.59466854
   0.50007228  0.27269113  0.67639268
   0.13980697  0.45282379  0.70679711
   0.04201121  0.00172167  0.78292151
   0.68174590  0.18185432  0.81332593
   0.61148690  0.71698382  0.89505007
   0.25053454  0.89746000  0.90178807
   0.18973447  0.42786004  0.98350156
Si and Ge interface calculation         
           1
     7.284092   -0.070497   -0.149638
     1.175046    3.897188    0.000000
    -0.364781    0.109986   16.606609
   Si   Ge
    10    10
Direct configuration=    11
   0.99492191  0.02526632  0.01832072
   0.92292417  0.56126519  0.09524970
   0.57655507  0.73444974  0.10297337
   0.49890765  0.27327345  0.17871694
   0.13956355  0.45294550  0.20847026
   0.04225463  0.00159996  0.28124835
   0.68291053  0.18127201  0.31100168
   0.60526311  0.72009572  0.38674524
   0.25889401  0.89328027  0.39446892
   0.18689627  0.42927914  0.47139789
   0.99209454  0.02668000  0.50621853
   0.93126369  0.55709543  0.58792920
   0.57036249  0.73754603  0.59467071
   0.50007321  0.27269067  0.67639451
   0.13980109  0.45282673  0.70679399
   0.04201709  0.00171873  0.78292463
   0.68174497  0.18185479  0.81332410
   0.61145569  0.71699943  0.89504790
   0.25055449  0.89745003  0.90178941
   0.18972364  0.42786545  0.98350008
Si and Ge interface calculation         
           1
     7.177016   -0.032356   -0.057800
     1.178284    3.907925    0.000000
    -0.151614    0.045713   16.532331
   Si   Ge
    10    10
Direct configuration=    12
   0.98919308  0.02813073  0.01893779
   0.92520976  0.56012239  0.09461086
   0.57384796  0.73580329  0.10285187
   0.49694888  0.27425283  0.17855476
   0.14169684  0.45187885  0.20978307
   0.04012134  0.00266660  0.27993554
   0.68486931  0.18029262  0.31116386
   0.60797022  0.71874216  0.38686674
   0.25660842  0.89442306  0.39510775
   0.19262511  0.42641472  0.47078083
   0.98675783  0.02934836  0.50412771
   0.93404331  0.55570562  0.58823764
   0.56439071  0.74053192  0.59225807
   0.49868455  0.27338500  0.67642141
   0.14422543  0.45061456  0.70859722
   0.03759275  0.00393090  0.78112139
   0.68313363  0.18116046  0.81329720
   0.61742747  0.71401354  0.89746054
   0.24777487  0.89883984  0.90148098
   0.19506035  0.42519710  0.98559091
Si and Ge interface calculation         
           1
     7.014454    0.025550    0.081628
     1.183199    3.924226    0.000000
     0.172014   -0.051864   16.419562
   Si   Ge
    10    10
Direct configuration=    13
   0.98032299  0.03256578  0.01992653
   0.92876783  0.55834336  0.09361766
   0.56967672  0.73788891  0.10268919
   0.49393434  0.27576010  0.17832381
   0.14492432  0.45026511  0.21176709
   0.03689386  0.00428034  0.27795153
   0.68788384  0.17878535  0.31139481
   0.61214146  0.71665654  0.38702942
   0.25305036  0.89620210  0.39610096
   0.20149519  0.42197968  0.46979209
   0.97862542  0.03341456  0.50098408
   0.93831729  0.55356863  0.58868475
   0.55529413  0.74508021  0.58862903
   0.49654048  0.27445703  0.67647402
   0.15096410  0.44724522  0.71130995
   0.03085409  0.00730023  0.77840867
   0.68527771  0.18008842  0.81324459
   0.62652405  0.70946525  0.90108959
   0.24350089  0.90097683  0.90103387
   0.20319277  0.42113089  0.98873453
Si and Ge interface calculation         
           1
     6.947759    0.062661    0.103975
     1.192597    3.955396    0.000000
     0.223935   -0.067519   16.293892
   Si   Ge
    10    10
Direct configuration=    14
   0.97206277  0.03669589  0.01960037
   0.93064216  0.55740619  0.09484952
   0.56777616  0.73883919  0.10194988
   0.49440210  0.27552622  0.17875740
   0.14320219  0.45112618  0.21209244
   0.03861600  0.00341927  0.27762617
   0.68741609  0.17901923  0.31096122
   0.61404202  0.71570626  0.38776874
   0.25117602  0.89713926  0.39486909
   0.20975541  0.41784957  0.47011824
   0.96765836  0.03889809  0.49877807
   0.94216548  0.55164453  0.58955535
   0.55069220  0.74738117  0.58529447
   0.50139153  0.27203151  0.67619567
   0.15001732  0.44771861  0.71234193
   0.03180086  0.00682684  0.77737668
   0.68042665  0.18251395  0.81352294
   0.63112598  0.70716428  0.90442414
   0.23965270  0.90290092  0.90016327
   0.21415982  0.41564736  0.99094055
Si and Ge interface calculation         
           1
     6.787033    0.152094    0.157830
     1.215245    4.030513    0.000000
     0.349058   -0.105245   15.991042
   Si   Ge
    10    10
Direct configuration=    15
   0.95193848  0.04675803  0.01883701
   0.93518503  0.55513476  0.09783471
   0.56315937  0.74114759  0.10016098
   0.49553323  0.27496066  0.17980878
   0.13899856  0.45322799  0.21288858
   0.04281962  0.00131746  0.27683004
   0.68628495  0.17958480  0.30990983
   0.61865882  0.71339786  0.38955763
   0.24663316  0.89941069  0.39188390
   0.22987970  0.40778742  0.47088160
   0.94097552  0.05223951  0.49345870
   0.95152615  0.54696420  0.59165630
   0.53954475  0.75295490  0.57721218
   0.51321968  0.26611743  0.67550279
   0.14768892  0.44888281  0.71485150
   0.03412926  0.00566264  0.77486711
   0.66859851  0.18842802  0.81421583
   0.64227343  0.70159056  0.91250644
   0.23029203  0.90758126  0.89806231
   0.24084266  0.40230594  0.99625991
Si and Ge interface calculation         
           1
     6.783064    0.127869    0.176159
     1.201193    3.983906    0.000000
     0.393643   -0.118688   15.951183
   Si   Ge
    10    10
Direct configuration=    16
   0.94134221  0.05205617  0.01694047
   0.93413584  0.55565935  0.09829548
   0.56324024  0.74110715  0.09901294
   0.49906668  0.27319393  0.17950342
   0.13584043  0.45480706  0.21401406
   0.04597775  0.99973840  0.27570456
   0.68275150  0.18135152  0.31021520
   0.61857794  0.71343830  0.39070568
   0.24768234  0.89888610  0.39142314
   0.24047597  0.40248929  0.47277815
   0.92348305  0.06098575  0.49136494
   0.95179344  0.54683055  0.58915066
   0.53956970  0.75294242  0.57225817
   0.52060075  0.26242690  0.67306914
   0.14926035  0.44809710  0.71510678
   0.03255783  0.00644836  0.77461183
   0.66121743  0.19211856  0.81664947
   0.64224848  0.70160303  0.91746044
   0.23002474  0.90771490  0.90056795
   0.25833514  0.39355971  0.99835367
Si and Ge interface calculation         
           1
     6.780206    0.110420    0.189360
     1.191071    3.950337    0.000000
     0.425755   -0.128370   15.922474
   Si   Ge
    10    10
Direct configuration=    17
   0.93372352  0.05586551  0.01557968
   0.93337803  0.55603826  0.09862907
   0.56330457  0.74107499  0.09818385
   0.50161220  0.27192117  0.17927999
   0.13356076  0.45594689  0.21482938
   0.04825742  0.99859856  0.27488924
   0.68020598  0.18262428  0.31043862
   0.61851361  0.71347047  0.39153476
   0.24844015  0.89850720  0.39108955
   0.24809466  0.39867994  0.47413893
   0.91090049  0.06727703  0.48986744
   0.95199919  0.54672768  0.58734110
   0.53961398  0.75292028  0.56868081
   0.52592767  0.25976344  0.67130570
   0.15039034  0.44753210  0.71528982
   0.03142784  0.00701335  0.77442879
   0.65589051  0.19478202  0.81841291
   0.64220420  0.70162517  0.92103781
   0.22981899  0.90781778  0.90237752
   0.27091769  0.38726843  0.99985117
Si and Ge interface calculation         
           1
     6.758300    0.098750    0.178084
     1.180969    3.916832    0.000000
     0.395428   -0.119226   16.013490
   Si   Ge
    10    10
Direct configuration=    18
   0.93124377  0.05710539  0.01395531
   0.93277865  0.55633795  0.09668113
   0.56583869  0.73980793  0.09786673
   0.49950502  0.27297476  0.17891228
   0.13882895  0.45331280  0.21327680
   0.04298923  0.00123266  0.27644181
   0.68231316  0.18157069  0.31080634
   0.61597949  0.71473753  0.39185189
   0.24903953  0.89820751  0.39303748
   0.25057441  0.39744007  0.47576331
   0.90518050  0.07013702  0.48858486
   0.95165964  0.54689746  0.58490921
   0.54260820  0.75142317  0.56571527
   0.52699367  0.25923044  0.66953176
   0.15573101  0.44486177  0.71143789
   0.02608718  0.00968368  0.77828072
   0.65482451  0.19531502  0.82018686
   0.63920999  0.70312228  0.92400335
   0.23015855  0.90764800  0.90480940
   0.27663768  0.38440843  0.00113376
Si and Ge interface calculation         
           1
     6.746871    0.092661    0.172200
     1.175699    3.899351    0.000000
     0.379605   -0.114455   16.060980
   Si   Ge
    10    10
Direct configuration=    19
   0.92994195  0.05775630  0.01311175
   0.93245969  0.55649743  0.09567039
   0.56716361  0.73914547  0.09770310
   0.49840158  0.27352648  0.17872078
   0.14158085  0.45193685  0.21247322
   0.04023733  0.00260861  0.27724540
   0.68341660  0.18101897  0.31099784
   0.61465457  0.71539999  0.39201552
   0.24935849  0.89804803  0.39404823
   0.25187623  0.39678916  0.47660686
   0.90218441  0.07163507  0.48791747
   0.95147528  0.54698963  0.58364749
   0.54416651  0.75064402  0.56417787
   0.52754648  0.25895403  0.66861186
   0.15851448  0.44347003  0.70944149
   0.02330370  0.01107542  0.78027712
   0.65427170  0.19559142  0.82110676
   0.63765167  0.70390144  0.92554074
   0.23034290  0.90755582  0.90607112
   0.27963377  0.38291039  0.00180114
Si and Ge interface calculation         
           1
     6.811734    0.045850    0.105145
     1.160634    3.849386    0.000000
     0.219799   -0.066272   16.216251
   Si   Ge
    10    10
Direct configuration=    20
   0.92934110  0.05805672  0.01094171
   0.93633855  0.55455800  0.09398963
   0.56903345  0.73821055  0.09811699
   0.50011181  0.27267137  0.17853838
   0.14142065  0.45201695  0.21042616
   0.04039754  0.00252851  0.27929245
   0.68170637  0.18187409  0.31118024
   0.61278474  0.71633491  0.39160162
   0.24547963  0.89998746  0.39572899
   0.25247708  0.39648873  0.47877690
   0.89860087  0.07342684  0.48606399
   0.95246918  0.54649268  0.58195522
   0.54806447  0.74869504  0.56112786
   0.53157768  0.25693843  0.66719484
   0.15637225  0.44454115  0.70614709
   0.02544594  0.01000431  0.78357152
   0.65024050  0.19760702  0.82252378
   0.63375372  0.70585041  0.92859076
   0.22934900  0.90805277  0.90776340
   0.28321731  0.38111862  0.00365463
