<?xml version="1.0" encoding="ISO-8859-1"?>
<modeling>
 <generator>
  <i name="program" type="string">vasp </i>
  <i name="version" type="string">6.4.3  </i>
  <i name="subversion" type="string">19Mar24 (build Oct 22 2024 11:23:12) complex                          parallel </i>
  <i name="platform" type="string">LinuxIFC </i>
  <i name="date" type="string">2025 06 08 </i>
  <i name="time" type="string">15:16:48 </i>
 </generator>
 <incar>
  <i type="string" name="SYSTEM">Si and Ge interface calculation</i>
  <i type="int" name="ISTART">     0</i>
  <i type="logical" name="ADDGRID"> T  </i>
  <i type="int" name="ISPIN">     2</i>
  <i name="AMIX">      0.60000000</i>
  <i type="int" name="ICHARG">     2</i>
  <i type="int" name="NELM">   100</i>
  <i name="EDIFF">      0.00000010</i>
  <i name="ENCUT">    700.00000000</i>
  <i name="ENAUG">    900.00000000</i>
  <i type="int" name="NBANDS">   288</i>
  <i name="NUPDOWN">      1.00000000</i>
  <i name="NELECT">    480.00000000</i>
  <i type="string" name="LREAL">AUTO</i>
  <i type="int" name="ISMEAR">     0</i>
  <i name="SIGMA">      0.01000000</i>
  <i type="int" name="LMAXMIX">     6</i>
  <i type="logical" name="LWAVE"> F  </i>
  <i type="logical" name="LVTOT"> F  </i>
  <i type="logical" name="LVHAR"> T  </i>
  <i type="logical" name="LASPH"> T  </i>
  <i type="logical" name="LMIXTAU"> T  </i>
 </incar>
 <primitive_cell>
  <structure name="primitive_cell" >
   <crystal>
    <varray name="basis" >
     <v>      16.29300118       0.00000000       0.00000000 </v>
     <v>       0.00000000      17.17432976       0.00000000 </v>
     <v>       0.00000000       0.00000026      10.60054684 </v>
    </varray>
    <i name="volume">   2966.25959091 </i>
    <varray name="rec_basis" >
     <v>       0.06137605       0.00000000       0.00000000 </v>
     <v>       0.00000000       0.05822644      -0.00000000 </v>
     <v>       0.00000000       0.00000000       0.09433476 </v>
    </varray>
   </crystal>
   <varray name="positions" >
    <v>       0.13037890       0.82620466       0.40503472 </v>
    <v>       0.96371245       0.07620391       0.00000006 </v>
    <v>       0.79704571       0.42620403       0.08100699 </v>
    <v>       0.63037908       0.77620417       0.16201389 </v>
    <v>       0.46371227       0.12620449       0.24302086 </v>
    <v>       0.29704553       0.47620463       0.32402781 </v>
    <v>       0.46371227       0.82620466       0.40503472 </v>
    <v>       0.29704580       0.07620391       0.00000006 </v>
    <v>       0.13037908       0.42620403       0.08100699 </v>
    <v>       0.96371239       0.77620417       0.16201389 </v>
    <v>       0.79704559       0.12620449       0.24302086 </v>
    <v>       0.63037884       0.47620463       0.32402781 </v>
    <v>       0.79704559       0.82620466       0.40503472 </v>
    <v>       0.63037914       0.07620391       0.00000006 </v>
    <v>       0.46371242       0.42620403       0.08100699 </v>
    <v>       0.29704577       0.77620417       0.16201389 </v>
    <v>       0.13037898       0.12620449       0.24302086 </v>
    <v>       0.96371222       0.47620463       0.32402781 </v>
    <v>       0.21371222       0.57620478       0.40503463 </v>
    <v>       0.04704577       0.82620400       0.00000000 </v>
    <v>       0.88037908       0.17620420       0.08100697 </v>
    <v>       0.71371233       0.52620447       0.16201381 </v>
    <v>       0.54704559       0.87620461       0.24302079 </v>
    <v>       0.38037896       0.22620463       0.32402769 </v>
    <v>       0.54704559       0.57620478       0.40503463 </v>
    <v>       0.38037908       0.82620400       0.00000000 </v>
    <v>       0.21371238       0.17620420       0.08100697 </v>
    <v>       0.04704569       0.52620447       0.16201381 </v>
    <v>       0.88037896       0.87620461       0.24302079 </v>
    <v>       0.71371233       0.22620463       0.32402769 </v>
    <v>       0.88037890       0.57620478       0.40503463 </v>
    <v>       0.71371239       0.82620400       0.00000000 </v>
    <v>       0.54704571       0.17620420       0.08100697 </v>
    <v>       0.38037899       0.52620447       0.16201381 </v>
    <v>       0.21371223       0.87620461       0.24302079 </v>
    <v>       0.04704558       0.22620463       0.32402769 </v>
    <v>       0.13037890       0.32620478       0.40503472 </v>
    <v>       0.96371239       0.57620400       0.00000002 </v>
    <v>       0.79704571       0.92620414       0.08100694 </v>
    <v>       0.63037902       0.27620423       0.16201381 </v>
    <v>       0.46371227       0.62620449       0.24302086 </v>
    <v>       0.29704565       0.97620463       0.32402769 </v>
    <v>       0.46371227       0.32620478       0.40503472 </v>
    <v>       0.29704577       0.57620400       0.00000002 </v>
    <v>       0.13037905       0.92620414       0.08100694 </v>
    <v>       0.96371239       0.27620423       0.16201381 </v>
    <v>       0.79704559       0.62620449       0.24302086 </v>
    <v>       0.63037896       0.97620463       0.32402769 </v>
    <v>       0.79704559       0.32620478       0.40503472 </v>
    <v>       0.63037914       0.57620400       0.00000002 </v>
    <v>       0.46371239       0.92620414       0.08100694 </v>
    <v>       0.29704574       0.27620423       0.16201381 </v>
    <v>       0.13037898       0.62620449       0.24302086 </v>
    <v>       0.96371233       0.97620463       0.32402769 </v>
    <v>       0.21371222       0.07620478       0.40503460 </v>
    <v>       0.04704577       0.32620391       0.00000006 </v>
    <v>       0.88037908       0.67620403       0.08100695 </v>
    <v>       0.71371239       0.02620423       0.16201384 </v>
    <v>       0.54704559       0.37620449       0.24302079 </v>
    <v>       0.38037884       0.72620475       0.32402769 </v>
    <v>       0.54704559       0.07620478       0.40503460 </v>
    <v>       0.38037911       0.32620391       0.00000006 </v>
    <v>       0.21371241       0.67620403       0.08100695 </v>
    <v>       0.04704573       0.02620423       0.16201384 </v>
    <v>       0.88037896       0.37620449       0.24302079 </v>
    <v>       0.71371222       0.72620475       0.32402769 </v>
    <v>       0.88037896       0.07620478       0.40503460 </v>
    <v>       0.71371245       0.32620391       0.00000006 </v>
    <v>       0.54704577       0.67620403       0.08100695 </v>
    <v>       0.38037908       0.02620423       0.16201384 </v>
    <v>       0.21371229       0.37620449       0.24302079 </v>
    <v>       0.04704554       0.72620475       0.32402769 </v>
    <v>       0.70953399       0.98604769       0.54526639 </v>
    <v>       0.33453402       0.59715873       0.60816675 </v>
    <v>       0.95953405       0.20826984       0.67106712 </v>
    <v>       0.58453411       0.81938094       0.73396754 </v>
    <v>       0.20953417       0.43049198       0.79686785 </v>
    <v>       0.83453399       0.04160285       0.85976827 </v>
    <v>       0.20953405       0.98604769       0.54526639 </v>
    <v>       0.83453411       0.59715873       0.60816675 </v>
    <v>       0.45953405       0.20826977       0.67106712 </v>
    <v>       0.08453417       0.81938094       0.73396754 </v>
    <v>       0.70953423       0.43049198       0.79686785 </v>
    <v>       0.33453411       0.04160285       0.85976833 </v>
    <v>       0.08453393       0.73604763       0.54526639 </v>
    <v>       0.70953405       0.34715873       0.60816681 </v>
    <v>       0.33453408       0.95826977       0.67106718 </v>
    <v>       0.95953417       0.56938094       0.73396760 </v>
    <v>       0.58453429       0.18049204       0.79686791 </v>
    <v>       0.20953393       0.79160291       0.85976827 </v>
    <v>       0.58453399       0.73604763       0.54526639 </v>
    <v>       0.20953405       0.34715867       0.60816675 </v>
    <v>       0.83453405       0.95826972       0.67106712 </v>
    <v>       0.45953411       0.56938088       0.73396760 </v>
    <v>       0.08453417       0.18049192       0.79686785 </v>
    <v>       0.70953399       0.79160279       0.85976827 </v>
    <v>       0.83453399       0.73604763       0.54526639 </v>
    <v>       0.45953399       0.34715870       0.60816675 </v>
    <v>       0.08453405       0.95826972       0.67106712 </v>
    <v>       0.70953411       0.56938088       0.73396760 </v>
    <v>       0.33453423       0.18049198       0.79686785 </v>
    <v>       0.95953399       0.79160279       0.85976827 </v>
    <v>       0.33453399       0.73604763       0.54526639 </v>
    <v>       0.95953405       0.34715873       0.60816675 </v>
    <v>       0.58453405       0.95826977       0.67106712 </v>
    <v>       0.20953417       0.56938088       0.73396760 </v>
    <v>       0.83453423       0.18049198       0.79686785 </v>
    <v>       0.45953411       0.79160291       0.85976833 </v>
    <v>       0.95953393       0.98604769       0.54526639 </v>
    <v>       0.58453399       0.59715873       0.60816675 </v>
    <v>       0.20953393       0.20826984       0.67106712 </v>
    <v>       0.83453411       0.81938082       0.73396754 </v>
    <v>       0.45953423       0.43049198       0.79686785 </v>
    <v>       0.08453393       0.04160285       0.85976827 </v>
    <v>       0.45953399       0.98604769       0.54526639 </v>
    <v>       0.08453405       0.59715873       0.60816675 </v>
    <v>       0.70953411       0.20826984       0.67106718 </v>
    <v>       0.33453417       0.81938094       0.73396760 </v>
    <v>       0.95953423       0.43049198       0.79686785 </v>
    <v>       0.58453399       0.04160285       0.85976833 </v>
   </varray>
  </structure>
  <varray name="primitive_index" >
   <v type="int" >        1 </v>
   <v type="int" >        2 </v>
   <v type="int" >        3 </v>
   <v type="int" >        4 </v>
   <v type="int" >        5 </v>
   <v type="int" >        6 </v>
   <v type="int" >        7 </v>
   <v type="int" >        8 </v>
   <v type="int" >        9 </v>
   <v type="int" >       10 </v>
   <v type="int" >       11 </v>
   <v type="int" >       12 </v>
   <v type="int" >       13 </v>
   <v type="int" >       14 </v>
   <v type="int" >       15 </v>
   <v type="int" >       16 </v>
   <v type="int" >       17 </v>
   <v type="int" >       18 </v>
   <v type="int" >       19 </v>
   <v type="int" >       20 </v>
   <v type="int" >       21 </v>
   <v type="int" >       22 </v>
   <v type="int" >       23 </v>
   <v type="int" >       24 </v>
   <v type="int" >       25 </v>
   <v type="int" >       26 </v>
   <v type="int" >       27 </v>
   <v type="int" >       28 </v>
   <v type="int" >       29 </v>
   <v type="int" >       30 </v>
   <v type="int" >       31 </v>
   <v type="int" >       32 </v>
   <v type="int" >       33 </v>
   <v type="int" >       34 </v>
   <v type="int" >       35 </v>
   <v type="int" >       36 </v>
   <v type="int" >       37 </v>
   <v type="int" >       38 </v>
   <v type="int" >       39 </v>
   <v type="int" >       40 </v>
   <v type="int" >       41 </v>
   <v type="int" >       42 </v>
   <v type="int" >       43 </v>
   <v type="int" >       44 </v>
   <v type="int" >       45 </v>
   <v type="int" >       46 </v>
   <v type="int" >       47 </v>
   <v type="int" >       48 </v>
   <v type="int" >       49 </v>
   <v type="int" >       50 </v>
   <v type="int" >       51 </v>
   <v type="int" >       52 </v>
   <v type="int" >       53 </v>
   <v type="int" >       54 </v>
   <v type="int" >       55 </v>
   <v type="int" >       56 </v>
   <v type="int" >       57 </v>
   <v type="int" >       58 </v>
   <v type="int" >       59 </v>
   <v type="int" >       60 </v>
   <v type="int" >       61 </v>
   <v type="int" >       62 </v>
   <v type="int" >       63 </v>
   <v type="int" >       64 </v>
   <v type="int" >       65 </v>
   <v type="int" >       66 </v>
   <v type="int" >       67 </v>
   <v type="int" >       68 </v>
   <v type="int" >       69 </v>
   <v type="int" >       70 </v>
   <v type="int" >       71 </v>
   <v type="int" >       72 </v>
   <v type="int" >       73 </v>
   <v type="int" >       74 </v>
   <v type="int" >       75 </v>
   <v type="int" >       76 </v>
   <v type="int" >       77 </v>
   <v type="int" >       78 </v>
   <v type="int" >       79 </v>
   <v type="int" >       80 </v>
   <v type="int" >       81 </v>
   <v type="int" >       82 </v>
   <v type="int" >       83 </v>
   <v type="int" >       84 </v>
   <v type="int" >       85 </v>
   <v type="int" >       86 </v>
   <v type="int" >       87 </v>
   <v type="int" >       88 </v>
   <v type="int" >       89 </v>
   <v type="int" >       90 </v>
   <v type="int" >       91 </v>
   <v type="int" >       92 </v>
   <v type="int" >       93 </v>
   <v type="int" >       94 </v>
   <v type="int" >       95 </v>
   <v type="int" >       96 </v>
   <v type="int" >       97 </v>
   <v type="int" >       98 </v>
   <v type="int" >       99 </v>
   <v type="int" >      100 </v>
   <v type="int" >      101 </v>
   <v type="int" >      102 </v>
   <v type="int" >      103 </v>
   <v type="int" >      104 </v>
   <v type="int" >      105 </v>
   <v type="int" >      106 </v>
   <v type="int" >      107 </v>
   <v type="int" >      108 </v>
   <v type="int" >      109 </v>
   <v type="int" >      110 </v>
   <v type="int" >      111 </v>
   <v type="int" >      112 </v>
   <v type="int" >      113 </v>
   <v type="int" >      114 </v>
   <v type="int" >      115 </v>
   <v type="int" >      116 </v>
   <v type="int" >      117 </v>
   <v type="int" >      118 </v>
   <v type="int" >      119 </v>
   <v type="int" >      120 </v>
  </varray>
 </primitive_cell>
 <kpoints>
  <generation param="Gamma">
   <v type="int" name="divisions">       2        2        3 </v>
   <v name="usershift">      0.00000000       0.00000000       0.00000000 </v>
   <v name="genvec1">      0.50000000       0.00000000       0.00000000 </v>
   <v name="genvec2">      0.00000000       0.50000000      -0.00000000 </v>
   <v name="genvec3">      0.00000000       0.00000000       0.33333333 </v>
   <v name="shift">      0.00000000       0.00000000       0.00000000 </v>
  </generation>
  <varray name="kpointlist" >
   <v>       0.00000000       0.00000000       0.00000000 </v>
   <v>       0.50000000       0.00000000       0.00000000 </v>
   <v>       0.00000000       0.50000000      -0.00000000 </v>
   <v>       0.50000000       0.50000000      -0.00000000 </v>
   <v>       0.00000000       0.00000000       0.33333333 </v>
   <v>       0.50000000       0.00000000       0.33333333 </v>
   <v>       0.00000000       0.50000000       0.33333333 </v>
   <v>       0.50000000       0.50000000       0.33333333 </v>
  </varray>
  <varray name="weights" >
   <v>       0.08333333 </v>
   <v>       0.08333333 </v>
   <v>       0.08333333 </v>
   <v>       0.08333333 </v>
   <v>       0.16666667 </v>
   <v>       0.16666667 </v>
   <v>       0.16666667 </v>
   <v>       0.16666667 </v>
  </varray>
 </kpoints>
 <parameters>
  <separator name="general" >
   <i type="string" name="SYSTEM">Si and Ge interface calculation</i>
   <i type="logical" name="LCOMPAT"> F  </i>
  </separator>
  <separator name="electronic" >
   <i type="string" name="PREC">normal</i>
   <i name="ENMAX">    700.00000000</i>
   <i name="ENAUG">    900.00000000</i>
   <i name="EDIFF">      0.00000010</i>
   <i type="int" name="IALGO">    38</i>
   <i type="int" name="IWAVPR">    10</i>
   <i type="int" name="NBANDS">   288</i>
   <i type="int" name="NBANDSLOW">    -1</i>
   <i type="int" name="NBANDSHIGH">    -1</i>
   <i name="NELECT">    480.00000000</i>
   <i type="int" name="TURBO">     0</i>
   <i type="int" name="IRESTART">     0</i>
   <i type="int" name="NREBOOT">     0</i>
   <i type="int" name="NMIN">     0</i>
   <i name="EREF">      0.00000000</i>
   <separator name="electronic smearing" >
    <i type="int" name="ISMEAR">     0</i>
    <i name="SIGMA">      0.01000000</i>
    <i name="KSPACING">      0.50000000</i>
    <i type="logical" name="KGAMMA"> T  </i>
    <i type="logical" name="KBLOWUP"> T  </i>
   </separator>
   <separator name="electronic projectors" >
    <i type="logical" name="LREAL"> T  </i>
    <v name="ROPT">     -0.00050000     -0.00050000</v>
    <i type="int" name="LMAXPAW">  -100</i>
    <i type="int" name="LMAXMIX">     6</i>
    <i type="logical" name="NLSPLINE"> F  </i>
   </separator>
   <separator name="electronic startup" >
    <i type="int" name="ISTART">     0</i>
    <i type="int" name="ICHARG">     2</i>
    <i type="int" name="INIWAV">     1</i>
   </separator>
   <separator name="electronic spin" >
    <i type="int" name="ISPIN">     2</i>
    <i type="logical" name="LNONCOLLINEAR"> F  </i>
    <v name="MAGMOM">      0.00833333      0.00833333      0.00833333      0.00833333      0.00833333      0.00833333      0.00833333      0.00833333      0.00833333      0.00833333      0.00833333      0.00833333      0.00833333      0.00833333      0.00833333      0.00833333      0.00833333      0.00833333      0.00833333      0.00833333
      0.00833333      0.00833333      0.00833333      0.00833333      0.00833333      0.00833333      0.00833333      0.00833333      0.00833333      0.00833333      0.00833333      0.00833333      0.00833333      0.00833333      0.00833333      0.00833333      0.00833333      0.00833333      0.00833333      0.00833333
      0.00833333      0.00833333      0.00833333      0.00833333      0.00833333      0.00833333      0.00833333      0.00833333      0.00833333      0.00833333      0.00833333      0.00833333      0.00833333      0.00833333      0.00833333      0.00833333      0.00833333      0.00833333      0.00833333      0.00833333
      0.00833333      0.00833333      0.00833333      0.00833333      0.00833333      0.00833333      0.00833333      0.00833333      0.00833333      0.00833333      0.00833333      0.00833333      0.00833333      0.00833333      0.00833333      0.00833333      0.00833333      0.00833333      0.00833333      0.00833333
      0.00833333      0.00833333      0.00833333      0.00833333      0.00833333      0.00833333      0.00833333      0.00833333      0.00833333      0.00833333      0.00833333      0.00833333      0.00833333      0.00833333      0.00833333      0.00833333      0.00833333      0.00833333      0.00833333      0.00833333
      0.00833333      0.00833333      0.00833333      0.00833333      0.00833333      0.00833333      0.00833333      0.00833333      0.00833333      0.00833333      0.00833333      0.00833333      0.00833333      0.00833333      0.00833333      0.00833333      0.00833333      0.00833333      0.00833333      0.00833333
</v>
    <i name="NUPDOWN">      1.00000000</i>
    <i type="logical" name="LSORBIT"> F  </i>
    <v name="SAXIS">      0.00000000      0.00000000      1.00000000</v>
    <i type="logical" name="LSPIRAL"> F  </i>
    <v name="QSPIRAL">      0.00000000      0.00000000      0.00000000</v>
    <i type="logical" name="LZEROZ"> F  </i>
   </separator>
   <separator name="electronic exchange-correlation" >
    <i type="logical" name="LASPH"> T  </i>
   </separator>
   <separator name="electronic convergence" >
    <i type="int" name="NELM">   100</i>
    <i type="int" name="NELMDL">    -5</i>
    <i type="int" name="NELMIN">     2</i>
    <i name="ENINI">    700.00000000</i>
    <separator name="electronic convergence detail" >
     <i type="logical" name="LDIAG"> T  </i>
     <i type="logical" name="LSUBROT"> F  </i>
     <i name="WEIMIN">      0.00000000</i>
     <i name="EBREAK">      0.00000000</i>
     <i name="DEPER">      0.30000000</i>
     <i type="int" name="NRMM">     4</i>
     <i name="TIME">      0.40000000</i>
    </separator>
   </separator>
   <separator name="electronic mixer" >
    <i name="AMIX">      0.60000000</i>
    <i name="BMIX">      1.00000000</i>
    <i name="AMIN">      0.10000000</i>
    <i name="AMIX_MAG">      2.40000000</i>
    <i name="BMIX_MAG">      1.00000000</i>
    <separator name="electronic mixer details" >
     <i type="int" name="IMIX">     4</i>
     <i type="logical" name="MIXFIRST"> F  </i>
     <i type="int" name="MAXMIX">   -45</i>
     <i name="WC">    100.00000000</i>
     <i type="int" name="INIMIX">     1</i>
     <i type="int" name="MIXPRE">     1</i>
     <i type="int" name="MREMOVE">     5</i>
    </separator>
   </separator>
   <separator name="electronic dipolcorrection" >
    <i type="logical" name="LDIPOL"> F  </i>
    <i type="logical" name="LMONO"> F  </i>
    <i type="int" name="IDIPOL">     0</i>
    <i name="EPSILON">      1.00000000</i>
    <v name="DIPOL">   -100.00000000   -100.00000000   -100.00000000</v>
    <i name="EFIELD">      0.00000000</i>
    <i type="logical" name="LVACPOTAV"> F  </i>
   </separator>
  </separator>
  <separator name="grids" >
   <i type="int" name="NGX">   108</i>
   <i type="int" name="NGY">   112</i>
   <i type="int" name="NGZ">    70</i>
   <i type="int" name="NGXF">   216</i>
   <i type="int" name="NGYF">   224</i>
   <i type="int" name="NGZF">   140</i>
   <i type="logical" name="ADDGRID"> T  </i>
  </separator>
  <separator name="ionic" >
   <i type="int" name="NSW">     0</i>
   <i type="int" name="IBRION">    -1</i>
   <i type="int" name="MDALGO">     0</i>
   <i type="int" name="ISIF">     2</i>
   <i name="PSTRESS">      0.00000000</i>
   <i name="EDIFFG">      0.00000100</i>
   <i type="int" name="NFREE">     0</i>
   <i name="POTIM">      0.50000000</i>
   <i name="SMASS">     -3.00000000</i>
   <i name="SCALEE">      1.00000000</i>
  </separator>
  <separator name="ionic md" >
   <i name="TEBEG">      0.00010000</i>
   <i name="TEEND">      0.00010000</i>
   <i type="int" name="NBLOCK">     1</i>
   <i type="int" name="KBLOCK">     1</i>
   <i type="int" name="NPACO">   256</i>
   <i name="APACO">     10.00000000</i>
  </separator>
  <separator name="symmetry" >
   <i type="int" name="ISYM">     2</i>
   <i name="SYMPREC">      0.00001000</i>
  </separator>
  <separator name="dos" >
   <i type="int" name="LORBIT">     0</i>
   <v name="RWIGS">     -1.00000000     -1.00000000</v>
   <i type="int" name="NEDOS">   301</i>
   <i name="EMIN">     10.00000000</i>
   <i name="EMAX">    -10.00000000</i>
   <i name="EFERMI">      0.00000000</i>
  </separator>
  <separator name="writing" >
   <i type="int" name="NWRITE">     2</i>
   <i type="logical" name="LWAVE"> F  </i>
   <i type="logical" name="LDOWNSAMPLE"> F  </i>
   <i type="logical" name="LCHARG"> T  </i>
   <i type="logical" name="LPARD"> F  </i>
   <i type="logical" name="LVTOT"> F  </i>
   <i type="logical" name="LVHAR"> T  </i>
   <i type="logical" name="LELF"> F  </i>
   <i type="logical" name="LOPTICS"> F  </i>
   <v name="STM">      0.00000000      0.00000000      0.00000000      0.00000000      0.00000000      0.00000000      0.00000000</v>
  </separator>
  <separator name="performance" >
   <i type="int" name="NPAR">     4</i>
   <i type="int" name="NSIM">     4</i>
   <i type="int" name="NBLK">    -1</i>
   <i type="logical" name="LPLANE"> T  </i>
   <i type="logical" name="LSCALAPACK"> T  </i>
   <i type="logical" name="LSCAAWARE"> F  </i>
   <i type="logical" name="LSCALU"> F  </i>
   <i type="logical" name="LASYNC"> F  </i>
   <i type="logical" name="LORBITALREAL"> F  </i>
  </separator>
  <separator name="miscellaneous" >
   <i type="int" name="IDIOT">     3</i>
   <i type="int" name="PHON_NSTRUCT">    -1</i>
   <i type="logical" name="LMUSIC"> F  </i>
   <v name="POMASS">     28.08500000     72.61000000</v>
   <v name="DARWINR">      0.00000000      0.00000000</v>
   <v name="DARWINV">      1.00000000      1.00000000</v>
   <i type="logical" name="LCORR"> T  </i>
  </separator>
  <i type="logical" name="GGA_COMPAT"> T  </i>
  <i type="logical" name="LBERRY"> F  </i>
  <i type="int" name="ICORELEVEL">     0</i>
  <i type="logical" name="LDAU"> F  </i>
  <i type="int" name="I_CONSTRAINED_M">     0</i>
  <separator name="electronic exchange-correlation" >
   <i type="string" name="GGA    ">PE</i>
   <i type="string" name="XC_C">1</i>
   <i type="int" name="VOSKOWN">     0</i>
   <i type="logical" name="LHFCALC"> F  </i>
   <i type="string" name="PRECFOCK"></i>
   <i type="logical" name="LSYMGRAD"> F  </i>
   <i type="logical" name="LHFONE"> F  </i>
   <i type="logical" name="LRHFCALC"> F  </i>
   <i type="logical" name="LTHOMAS"> F  </i>
   <i type="logical" name="LMODELHF"> F  </i>
   <i type="logical" name="LFOCKACE"> F  </i>
   <i name="ENCUT4O">     -1.00000000</i>
   <i type="int" name="EXXOEP">     0</i>
   <i type="int" name="FOURORBIT">     0</i>
   <i name="AEXX">      0.00000000</i>
   <i name="HFALPHA">      0.00000000</i>
   <i name="MCALPHA">      0.00000000</i>
   <i name="ALDAX">      1.00000000</i>
   <i name="AGGAX">      1.00000000</i>
   <i name="AMGGAX">      1.00000000</i>
   <i name="ALDAC">      1.00000000</i>
   <i name="AGGAC">      1.00000000</i>
   <i name="AMGGAC">      1.00000000</i>
   <i type="int" name="NKREDX">     1</i>
   <i type="int" name="NKREDY">     1</i>
   <i type="int" name="NKREDZ">     1</i>
   <i type="logical" name="SHIFTRED"> F  </i>
   <i type="logical" name="ODDONLY"> F  </i>
   <i type="logical" name="EVENONLY"> F  </i>
   <i type="int" name="LMAXFOCK">     0</i>
   <i type="int" name="NMAXFOCKAE">     0</i>
   <i type="logical" name="LFOCKAEDFT"> F  </i>
   <i name="HFSCREEN">      0.00000000</i>
   <i name="HFSCREENC">      0.00000000</i>
   <i type="int" name="NBANDSGWLOW">     0</i>
  </separator>
  <separator name="vdW DFT" >
   <i type="logical" name="LUSE_VDW"> F  </i>
   <i type="int" name="IVDW_NL">    -1</i>
   <i type="logical" name="LSPIN_VDW"> F  </i>
   <i name="ZAB_VDW">     -0.84910000</i>
   <i name="GAMMA_VDW">      1.39626340</i>
   <i name="ALPHA_VDW">      0.00000000</i>
   <i name="PARAM1">      0.12340000</i>
   <i name="PARAM2">      1.00000000</i>
   <i name="BPARAM">      6.30000000</i>
   <i name="CPARAM">      0.00930000</i>
  </separator>
  <separator name="model GW" >
   <i type="int" name="MODEL_GW">     0</i>
   <i name="MODEL_EPS0">     14.83129795</i>
   <i name="MODEL_ALPHA">      1.00000000</i>
  </separator>
  <separator name="linear response parameters" >
   <i type="logical" name="LEPSILON"> F  </i>
   <i type="logical" name="LRPA"> F  </i>
   <i type="logical" name="LNABLA"> F  </i>
   <i type="logical" name="LVEL"> F  </i>
   <i name="CSHIFT">      0.10000000</i>
   <i name="OMEGAMAX">     -1.00000000</i>
   <i name="DEG_THRESHOLD">      0.00200000</i>
   <i name="RTIME">     -0.10000000</i>
   <i name="WPLASMAI">      0.00000000</i>
   <v name="DFIELD">      0.00000000      0.00000000      0.00000000</v>
   <v name="WPLASMA">      0.00000000      0.00000000      0.00000000      0.00000000      0.00000000      0.00000000      0.00000000      0.00000000      0.00000000</v>
  </separator>
  <separator name="orbital magnetization" >
   <i type="logical" name="NUCIND"> F  </i>
   <v name="MAGPOS">      0.00000000      0.00000000      0.00000000</v>
   <i type="logical" name="LNICSALL"> T  </i>
   <i type="logical" name="ORBITALMAG"> F  </i>
   <i type="logical" name="LMAGBLOCH"> F  </i>
   <i type="logical" name="LCHIMAG"> F  </i>
   <i type="logical" name="LGAUGE"> T  </i>
   <i type="int" name="MAGATOM">     0</i>
   <v name="MAGDIPOL">      0.00000000      0.00000000      0.00000000</v>
   <v name="AVECCONST">      0.00000000      0.00000000      0.00000000</v>
  </separator>
  <separator name="response functions" >
   <i type="logical" name="LALL_IN_ONE"> F  </i>
   <i type="int" name="IALL_IN_ONE">    -1</i>
   <i type="int" name="NBANDS_WAVE">    -1</i>
   <i type="logical" name="LFINITE_TEMPERATURE"> F  </i>
   <i type="logical" name="LADDER"> F  </i>
   <i type="logical" name="LRPAFORCE"> F  </i>
   <i type="logical" name="LFXC"> F  </i>
   <i type="logical" name="LHARTREE"> T  </i>
   <i type="int" name="IBSE">     0</i>
   <v type="int" name="KPOINT">    -1     0     0     0</v>
   <i type="logical" name="LTCTC"> F  </i>
   <i type="logical" name="LTCTE"> F  </i>
   <i type="logical" name="LTETE"> F  </i>
   <i type="logical" name="LTRIPLET"> F  </i>
   <i type="logical" name="LFXCEPS"> F  </i>
   <i type="logical" name="LFXHEG"> F  </i>
   <i type="int" name="NATURALO">     2</i>
   <i type="logical" name="LHOLEGF"> F  </i>
   <i type="logical" name="L2ORDER"> F  </i>
   <i type="logical" name="LDMP1"> F  </i>
   <i type="logical" name="LMP2LT"> F  </i>
   <i type="logical" name="LSMP2LT"> F  </i>
   <i type="logical" name="LGWLF"> F  </i>
   <i name="ENCUTGW">     -1.60000002</i>
   <i name="ENCUTGWSOFT">     -1.60000002</i>
   <i name="ENCUTLF">     -1.00000000</i>
   <i type="logical" name="ESF_SPLINES"> F  </i>
   <i name="ESF_CONV">      0.01000000</i>
   <i type="int" name="ESF_NINTER">    15</i>
   <i type="int" name="LMAXMP2">    -1</i>
   <i name="SCISSOR">      0.00000000</i>
   <i type="int" name="NOMEGA">     0</i>
   <i type="int" name="NOMEGAR">     0</i>
   <i type="int" name="NBANDSGW">    -1</i>
   <i type="int" name="NBANDSO">    -1</i>
   <i type="int" name="NBANDSV">    -1</i>
   <i type="int" name="NELMGW">     1</i>
   <i type="int" name="NELMHF">     1</i>
   <i type="int" name="DIM">     3</i>
   <i type="int" name="IESPILON">     4</i>
   <i type="int" name="ANTIRES">     0</i>
   <i name="OMEGAMAX">    -30.00000000</i>
   <i name="OMEGAMIN">    -30.00000000</i>
   <i name="OMEGATL">   -200.00000000</i>
   <i type="int" name="OMEGAGRID">     0</i>
   <i name="CSHIFT">     -0.10000000</i>
   <i type="logical" name="LSELFENERGY"> F  </i>
   <i type="logical" name="LSPECTRAL"> F  </i>
   <i type="logical" name="LSPECTRALGW"> F  </i>
   <i type="logical" name="LSINGLES"> F  </i>
   <i type="logical" name="LFERMIGW"> F  </i>
   <i type="logical" name="ODDONLYGW"> F  </i>
   <i type="logical" name="EVENONLYGW"> F  </i>
   <i type="int" name="NKREDLFX">     1</i>
   <i type="int" name="NKREDLFY">     1</i>
   <i type="int" name="NKREDLFZ">     1</i>
   <i type="int" name="MAXMEM">  2800</i>
   <i type="int" name="TELESCOPE">     0</i>
   <i type="int" name="NTAUPAR">    -1</i>
   <i type="int" name="NOMEGAPAR">    -1</i>
   <i name="DAMP_NEWTON">      0.80000001</i>
   <i name="LAMBDA">      1.00000000</i>
  </separator>
  <separator name="External order field" >
   <i name="OFIELD_KAPPA">      0.00000000</i>
   <v name="OFIELD_K">      0.00000000      0.00000000      0.00000000</v>
   <i name="OFIELD_Q6_NEAR">      0.00000000</i>
   <i name="OFIELD_Q6_FAR">      0.00000000</i>
   <i name="OFIELD_A">      0.00000000</i>
  </separator>
  <separator name="optional k-points parameters" >
   <i type="int" name="KPOINTS_OPT_MODE">     1</i>
   <i type="logical" name="LKPOINTS_OPT"> F  </i>
  </separator>
 </parameters>
 <atominfo>
  <atoms>     120 </atoms>
  <types>       2 </types>
  <array name="atoms" >
   <dimension dim="1">ion</dimension>
   <field type="string">element</field>
   <field type="int">atomtype</field>
   <set>
    <rc><c>Si</c><c>   1</c></rc>
    <rc><c>Si</c><c>   1</c></rc>
    <rc><c>Si</c><c>   1</c></rc>
    <rc><c>Si</c><c>   1</c></rc>
    <rc><c>Si</c><c>   1</c></rc>
    <rc><c>Si</c><c>   1</c></rc>
    <rc><c>Si</c><c>   1</c></rc>
    <rc><c>Si</c><c>   1</c></rc>
    <rc><c>Si</c><c>   1</c></rc>
    <rc><c>Si</c><c>   1</c></rc>
    <rc><c>Si</c><c>   1</c></rc>
    <rc><c>Si</c><c>   1</c></rc>
    <rc><c>Si</c><c>   1</c></rc>
    <rc><c>Si</c><c>   1</c></rc>
    <rc><c>Si</c><c>   1</c></rc>
    <rc><c>Si</c><c>   1</c></rc>
    <rc><c>Si</c><c>   1</c></rc>
    <rc><c>Si</c><c>   1</c></rc>
    <rc><c>Si</c><c>   1</c></rc>
    <rc><c>Si</c><c>   1</c></rc>
    <rc><c>Si</c><c>   1</c></rc>
    <rc><c>Si</c><c>   1</c></rc>
    <rc><c>Si</c><c>   1</c></rc>
    <rc><c>Si</c><c>   1</c></rc>
    <rc><c>Si</c><c>   1</c></rc>
    <rc><c>Si</c><c>   1</c></rc>
    <rc><c>Si</c><c>   1</c></rc>
    <rc><c>Si</c><c>   1</c></rc>
    <rc><c>Si</c><c>   1</c></rc>
    <rc><c>Si</c><c>   1</c></rc>
    <rc><c>Si</c><c>   1</c></rc>
    <rc><c>Si</c><c>   1</c></rc>
    <rc><c>Si</c><c>   1</c></rc>
    <rc><c>Si</c><c>   1</c></rc>
    <rc><c>Si</c><c>   1</c></rc>
    <rc><c>Si</c><c>   1</c></rc>
    <rc><c>Si</c><c>   1</c></rc>
    <rc><c>Si</c><c>   1</c></rc>
    <rc><c>Si</c><c>   1</c></rc>
    <rc><c>Si</c><c>   1</c></rc>
    <rc><c>Si</c><c>   1</c></rc>
    <rc><c>Si</c><c>   1</c></rc>
    <rc><c>Si</c><c>   1</c></rc>
    <rc><c>Si</c><c>   1</c></rc>
    <rc><c>Si</c><c>   1</c></rc>
    <rc><c>Si</c><c>   1</c></rc>
    <rc><c>Si</c><c>   1</c></rc>
    <rc><c>Si</c><c>   1</c></rc>
    <rc><c>Si</c><c>   1</c></rc>
    <rc><c>Si</c><c>   1</c></rc>
    <rc><c>Si</c><c>   1</c></rc>
    <rc><c>Si</c><c>   1</c></rc>
    <rc><c>Si</c><c>   1</c></rc>
    <rc><c>Si</c><c>   1</c></rc>
    <rc><c>Si</c><c>   1</c></rc>
    <rc><c>Si</c><c>   1</c></rc>
    <rc><c>Si</c><c>   1</c></rc>
    <rc><c>Si</c><c>   1</c></rc>
    <rc><c>Si</c><c>   1</c></rc>
    <rc><c>Si</c><c>   1</c></rc>
    <rc><c>Si</c><c>   1</c></rc>
    <rc><c>Si</c><c>   1</c></rc>
    <rc><c>Si</c><c>   1</c></rc>
    <rc><c>Si</c><c>   1</c></rc>
    <rc><c>Si</c><c>   1</c></rc>
    <rc><c>Si</c><c>   1</c></rc>
    <rc><c>Si</c><c>   1</c></rc>
    <rc><c>Si</c><c>   1</c></rc>
    <rc><c>Si</c><c>   1</c></rc>
    <rc><c>Si</c><c>   1</c></rc>
    <rc><c>Si</c><c>   1</c></rc>
    <rc><c>Si</c><c>   1</c></rc>
    <rc><c>Ge</c><c>   2</c></rc>
    <rc><c>Ge</c><c>   2</c></rc>
    <rc><c>Ge</c><c>   2</c></rc>
    <rc><c>Ge</c><c>   2</c></rc>
    <rc><c>Ge</c><c>   2</c></rc>
    <rc><c>Ge</c><c>   2</c></rc>
    <rc><c>Ge</c><c>   2</c></rc>
    <rc><c>Ge</c><c>   2</c></rc>
    <rc><c>Ge</c><c>   2</c></rc>
    <rc><c>Ge</c><c>   2</c></rc>
    <rc><c>Ge</c><c>   2</c></rc>
    <rc><c>Ge</c><c>   2</c></rc>
    <rc><c>Ge</c><c>   2</c></rc>
    <rc><c>Ge</c><c>   2</c></rc>
    <rc><c>Ge</c><c>   2</c></rc>
    <rc><c>Ge</c><c>   2</c></rc>
    <rc><c>Ge</c><c>   2</c></rc>
    <rc><c>Ge</c><c>   2</c></rc>
    <rc><c>Ge</c><c>   2</c></rc>
    <rc><c>Ge</c><c>   2</c></rc>
    <rc><c>Ge</c><c>   2</c></rc>
    <rc><c>Ge</c><c>   2</c></rc>
    <rc><c>Ge</c><c>   2</c></rc>
    <rc><c>Ge</c><c>   2</c></rc>
    <rc><c>Ge</c><c>   2</c></rc>
    <rc><c>Ge</c><c>   2</c></rc>
    <rc><c>Ge</c><c>   2</c></rc>
    <rc><c>Ge</c><c>   2</c></rc>
    <rc><c>Ge</c><c>   2</c></rc>
    <rc><c>Ge</c><c>   2</c></rc>
    <rc><c>Ge</c><c>   2</c></rc>
    <rc><c>Ge</c><c>   2</c></rc>
    <rc><c>Ge</c><c>   2</c></rc>
    <rc><c>Ge</c><c>   2</c></rc>
    <rc><c>Ge</c><c>   2</c></rc>
    <rc><c>Ge</c><c>   2</c></rc>
    <rc><c>Ge</c><c>   2</c></rc>
    <rc><c>Ge</c><c>   2</c></rc>
    <rc><c>Ge</c><c>   2</c></rc>
    <rc><c>Ge</c><c>   2</c></rc>
    <rc><c>Ge</c><c>   2</c></rc>
    <rc><c>Ge</c><c>   2</c></rc>
    <rc><c>Ge</c><c>   2</c></rc>
    <rc><c>Ge</c><c>   2</c></rc>
    <rc><c>Ge</c><c>   2</c></rc>
    <rc><c>Ge</c><c>   2</c></rc>
    <rc><c>Ge</c><c>   2</c></rc>
    <rc><c>Ge</c><c>   2</c></rc>
   </set>
  </array>
  <array name="atomtypes" >
   <dimension dim="1">type</dimension>
   <field type="int">atomspertype</field>
   <field type="string">element</field>
   <field>mass</field>
   <field>valence</field>
   <field type="string">pseudopotential</field>
   <set>
    <rc><c>  72</c><c>Si</c><c>     28.08500000</c><c>      4.00000000</c><c>  PAW_PBE Si 05Jan2001                  </c></rc>
    <rc><c>  48</c><c>Ge</c><c>     72.61000000</c><c>      4.00000000</c><c>  PAW_PBE Ge 05Jan2001                  </c></rc>
   </set>
  </array>
 </atominfo>
 <structure name="initialpos" >
  <crystal>
   <varray name="basis" >
    <v>      16.29300118       0.00000000       0.00000000 </v>
    <v>       0.00000000      17.17432976       0.00000000 </v>
    <v>       0.00000000       0.00000026      10.60054684 </v>
   </varray>
   <i name="volume">   2966.25959091 </i>
   <varray name="rec_basis" >
    <v>       0.06137605       0.00000000       0.00000000 </v>
    <v>       0.00000000       0.05822644      -0.00000000 </v>
    <v>       0.00000000       0.00000000       0.09433476 </v>
   </varray>
  </crystal>
  <varray name="positions" >
   <v>       0.13037890       0.82620466       0.40503472 </v>
   <v>       0.96371245       0.07620391       0.00000006 </v>
   <v>       0.79704571       0.42620403       0.08100699 </v>
   <v>       0.63037908       0.77620417       0.16201389 </v>
   <v>       0.46371227       0.12620449       0.24302086 </v>
   <v>       0.29704553       0.47620463       0.32402781 </v>
   <v>       0.46371227       0.82620466       0.40503472 </v>
   <v>       0.29704580       0.07620391       0.00000006 </v>
   <v>       0.13037908       0.42620403       0.08100699 </v>
   <v>       0.96371239       0.77620417       0.16201389 </v>
   <v>       0.79704559       0.12620449       0.24302086 </v>
   <v>       0.63037884       0.47620463       0.32402781 </v>
   <v>       0.79704559       0.82620466       0.40503472 </v>
   <v>       0.63037914       0.07620391       0.00000006 </v>
   <v>       0.46371242       0.42620403       0.08100699 </v>
   <v>       0.29704577       0.77620417       0.16201389 </v>
   <v>       0.13037898       0.12620449       0.24302086 </v>
   <v>       0.96371222       0.47620463       0.32402781 </v>
   <v>       0.21371222       0.57620478       0.40503463 </v>
   <v>       0.04704577       0.82620400       0.00000000 </v>
   <v>       0.88037908       0.17620420       0.08100697 </v>
   <v>       0.71371233       0.52620447       0.16201381 </v>
   <v>       0.54704559       0.87620461       0.24302079 </v>
   <v>       0.38037896       0.22620463       0.32402769 </v>
   <v>       0.54704559       0.57620478       0.40503463 </v>
   <v>       0.38037908       0.82620400       0.00000000 </v>
   <v>       0.21371238       0.17620420       0.08100697 </v>
   <v>       0.04704569       0.52620447       0.16201381 </v>
   <v>       0.88037896       0.87620461       0.24302079 </v>
   <v>       0.71371233       0.22620463       0.32402769 </v>
   <v>       0.88037890       0.57620478       0.40503463 </v>
   <v>       0.71371239       0.82620400       0.00000000 </v>
   <v>       0.54704571       0.17620420       0.08100697 </v>
   <v>       0.38037899       0.52620447       0.16201381 </v>
   <v>       0.21371223       0.87620461       0.24302079 </v>
   <v>       0.04704558       0.22620463       0.32402769 </v>
   <v>       0.13037890       0.32620478       0.40503472 </v>
   <v>       0.96371239       0.57620400       0.00000002 </v>
   <v>       0.79704571       0.92620414       0.08100694 </v>
   <v>       0.63037902       0.27620423       0.16201381 </v>
   <v>       0.46371227       0.62620449       0.24302086 </v>
   <v>       0.29704565       0.97620463       0.32402769 </v>
   <v>       0.46371227       0.32620478       0.40503472 </v>
   <v>       0.29704577       0.57620400       0.00000002 </v>
   <v>       0.13037905       0.92620414       0.08100694 </v>
   <v>       0.96371239       0.27620423       0.16201381 </v>
   <v>       0.79704559       0.62620449       0.24302086 </v>
   <v>       0.63037896       0.97620463       0.32402769 </v>
   <v>       0.79704559       0.32620478       0.40503472 </v>
   <v>       0.63037914       0.57620400       0.00000002 </v>
   <v>       0.46371239       0.92620414       0.08100694 </v>
   <v>       0.29704574       0.27620423       0.16201381 </v>
   <v>       0.13037898       0.62620449       0.24302086 </v>
   <v>       0.96371233       0.97620463       0.32402769 </v>
   <v>       0.21371222       0.07620478       0.40503460 </v>
   <v>       0.04704577       0.32620391       0.00000006 </v>
   <v>       0.88037908       0.67620403       0.08100695 </v>
   <v>       0.71371239       0.02620423       0.16201384 </v>
   <v>       0.54704559       0.37620449       0.24302079 </v>
   <v>       0.38037884       0.72620475       0.32402769 </v>
   <v>       0.54704559       0.07620478       0.40503460 </v>
   <v>       0.38037911       0.32620391       0.00000006 </v>
   <v>       0.21371241       0.67620403       0.08100695 </v>
   <v>       0.04704573       0.02620423       0.16201384 </v>
   <v>       0.88037896       0.37620449       0.24302079 </v>
   <v>       0.71371222       0.72620475       0.32402769 </v>
   <v>       0.88037896       0.07620478       0.40503460 </v>
   <v>       0.71371245       0.32620391       0.00000006 </v>
   <v>       0.54704577       0.67620403       0.08100695 </v>
   <v>       0.38037908       0.02620423       0.16201384 </v>
   <v>       0.21371229       0.37620449       0.24302079 </v>
   <v>       0.04704554       0.72620475       0.32402769 </v>
   <v>       0.70953399       0.98604769       0.54526639 </v>
   <v>       0.33453402       0.59715873       0.60816675 </v>
   <v>       0.95953405       0.20826984       0.67106712 </v>
   <v>       0.58453411       0.81938094       0.73396754 </v>
   <v>       0.20953417       0.43049198       0.79686785 </v>
   <v>       0.83453399       0.04160285       0.85976827 </v>
   <v>       0.20953405       0.98604769       0.54526639 </v>
   <v>       0.83453411       0.59715873       0.60816675 </v>
   <v>       0.45953405       0.20826977       0.67106712 </v>
   <v>       0.08453417       0.81938094       0.73396754 </v>
   <v>       0.70953423       0.43049198       0.79686785 </v>
   <v>       0.33453411       0.04160285       0.85976833 </v>
   <v>       0.08453393       0.73604763       0.54526639 </v>
   <v>       0.70953405       0.34715873       0.60816681 </v>
   <v>       0.33453408       0.95826977       0.67106718 </v>
   <v>       0.95953417       0.56938094       0.73396760 </v>
   <v>       0.58453429       0.18049204       0.79686791 </v>
   <v>       0.20953393       0.79160291       0.85976827 </v>
   <v>       0.58453399       0.73604763       0.54526639 </v>
   <v>       0.20953405       0.34715867       0.60816675 </v>
   <v>       0.83453405       0.95826972       0.67106712 </v>
   <v>       0.45953411       0.56938088       0.73396760 </v>
   <v>       0.08453417       0.18049192       0.79686785 </v>
   <v>       0.70953399       0.79160279       0.85976827 </v>
   <v>       0.83453399       0.73604763       0.54526639 </v>
   <v>       0.45953399       0.34715870       0.60816675 </v>
   <v>       0.08453405       0.95826972       0.67106712 </v>
   <v>       0.70953411       0.56938088       0.73396760 </v>
   <v>       0.33453423       0.18049198       0.79686785 </v>
   <v>       0.95953399       0.79160279       0.85976827 </v>
   <v>       0.33453399       0.73604763       0.54526639 </v>
   <v>       0.95953405       0.34715873       0.60816675 </v>
   <v>       0.58453405       0.95826977       0.67106712 </v>
   <v>       0.20953417       0.56938088       0.73396760 </v>
   <v>       0.83453423       0.18049198       0.79686785 </v>
   <v>       0.45953411       0.79160291       0.85976833 </v>
   <v>       0.95953393       0.98604769       0.54526639 </v>
   <v>       0.58453399       0.59715873       0.60816675 </v>
   <v>       0.20953393       0.20826984       0.67106712 </v>
   <v>       0.83453411       0.81938082       0.73396754 </v>
   <v>       0.45953423       0.43049198       0.79686785 </v>
   <v>       0.08453393       0.04160285       0.85976827 </v>
   <v>       0.45953399       0.98604769       0.54526639 </v>
   <v>       0.08453405       0.59715873       0.60816675 </v>
   <v>       0.70953411       0.20826984       0.67106718 </v>
   <v>       0.33453417       0.81938094       0.73396760 </v>
   <v>       0.95953423       0.43049198       0.79686785 </v>
   <v>       0.58453399       0.04160285       0.85976833 </v>
  </varray>
 </structure>
 <calculation>
  <scstep>
   <time name="dav">   26.70   26.95</time>
   <time name="total">   28.01   28.27</time>
   <energy>
    <i name="alphaZ">    469.20087323 </i>
    <i name="ewald"> -11957.43454136 </i>
    <i name="hartreedc">  -1509.97448354 </i>
    <i name="XCdc">  -1055.83714299 </i>
    <i name="pawpsdc">  10575.88222728 </i>
    <i name="pawaedc">  -8613.76247617 </i>
    <i name="eentropy">     -0.00192178 </i>
    <i name="bandstr">   1627.89286279 </i>
    <i name="atom">  12460.60057749 </i>
    <i name="e_fr_energy">   1996.56597495 </i>
    <i name="e_wo_entrp">   1996.56789673 </i>
    <i name="e_0_energy">   1996.56693584 </i>
   </energy>
  </scstep>
  <scstep>
   <time name="dav">   29.88   30.16</time>
   <time name="total">   29.88   30.16</time>
   <energy>
    <i name="e_fr_energy">   -304.15890962 </i>
    <i name="e_wo_entrp">   -304.15561099 </i>
    <i name="e_0_energy">   -304.15726030 </i>
   </energy>
  </scstep>
  <scstep>
   <time name="dav">   31.82   32.11</time>
   <time name="total">   31.82   32.12</time>
   <energy>
    <i name="e_fr_energy">   -523.86352766 </i>
    <i name="e_wo_entrp">   -523.86006491 </i>
    <i name="e_0_energy">   -523.86179629 </i>
   </energy>
  </scstep>
  <scstep>
   <time name="dav">   30.53   30.82</time>
   <time name="total">   30.54   30.82</time>
   <energy>
    <i name="e_fr_energy">   -533.21125142 </i>
    <i name="e_wo_entrp">   -533.20877495 </i>
    <i name="e_0_energy">   -533.21001318 </i>
   </energy>
  </scstep>
  <scstep>
   <time name="dav">   34.27   34.59</time>
   <time name="total">   35.57   35.90</time>
   <energy>
    <i name="e_fr_energy">   -533.61088841 </i>
    <i name="e_wo_entrp">   -533.60837829 </i>
    <i name="e_0_energy">   -533.60963335 </i>
   </energy>
  </scstep>
  <scstep>
   <time name="dav">   30.72   31.00</time>
   <time name="total">   33.31   33.61</time>
   <energy>
    <i name="e_fr_energy">   -521.92812771 </i>
    <i name="e_wo_entrp">   -521.92433189 </i>
    <i name="e_0_energy">   -521.92622980 </i>
   </energy>
  </scstep>
  <scstep>
   <time name="dav">   32.81   33.11</time>
   <time name="total">   35.39   35.71</time>
   <energy>
    <i name="e_fr_energy">   -523.11961872 </i>
    <i name="e_wo_entrp">   -523.11817243 </i>
    <i name="e_0_energy">   -523.11889557 </i>
   </energy>
  </scstep>
  <scstep>
   <time name="dav">   33.40   33.71</time>
   <time name="total">   35.97   36.30</time>
   <energy>
    <i name="e_fr_energy">   -520.35093040 </i>
    <i name="e_wo_entrp">   -520.34744486 </i>
    <i name="e_0_energy">   -520.34918763 </i>
   </energy>
  </scstep>
  <scstep>
   <time name="dav">   31.39   31.67</time>
   <time name="total">   33.97   34.28</time>
   <energy>
    <i name="e_fr_energy">   -519.86738775 </i>
    <i name="e_wo_entrp">   -519.86363074 </i>
    <i name="e_0_energy">   -519.86550925 </i>
   </energy>
  </scstep>
  <scstep>
   <time name="dav">   30.24   30.52</time>
   <time name="total">   32.83   33.13</time>
   <energy>
    <i name="e_fr_energy">   -519.86641911 </i>
    <i name="e_wo_entrp">   -519.86323414 </i>
    <i name="e_0_energy">   -519.86482663 </i>
   </energy>
  </scstep>
  <scstep>
   <time name="dav">   30.84   31.12</time>
   <time name="total">   33.43   33.73</time>
   <energy>
    <i name="e_fr_energy">   -519.83810653 </i>
    <i name="e_wo_entrp">   -519.83444298 </i>
    <i name="e_0_energy">   -519.83627475 </i>
   </energy>
  </scstep>
  <scstep>
   <time name="dav">   29.47   29.74</time>
   <time name="total">   32.05   32.34</time>
   <energy>
    <i name="e_fr_energy">   -519.83484437 </i>
    <i name="e_wo_entrp">   -519.83166589 </i>
    <i name="e_0_energy">   -519.83325513 </i>
   </energy>
  </scstep>
  <scstep>
   <time name="dav">   29.33   29.60</time>
   <time name="total">   31.90   32.19</time>
   <energy>
    <i name="e_fr_energy">   -519.83498160 </i>
    <i name="e_wo_entrp">   -519.83157114 </i>
    <i name="e_0_energy">   -519.83327637 </i>
   </energy>
  </scstep>
  <scstep>
   <time name="dav">   30.37   30.65</time>
   <time name="total">   32.95   33.25</time>
   <energy>
    <i name="e_fr_energy">   -519.83467602 </i>
    <i name="e_wo_entrp">   -519.83138751 </i>
    <i name="e_0_energy">   -519.83303176 </i>
   </energy>
  </scstep>
  <scstep>
   <time name="dav">   30.87   31.15</time>
   <time name="total">   33.45   33.75</time>
   <energy>
    <i name="e_fr_energy">   -519.83467413 </i>
    <i name="e_wo_entrp">   -519.83135665 </i>
    <i name="e_0_energy">   -519.83301539 </i>
   </energy>
  </scstep>
  <scstep>
   <time name="dav">   30.67   30.96</time>
   <time name="total">   33.25   33.56</time>
   <energy>
    <i name="e_fr_energy">   -519.83465683 </i>
    <i name="e_wo_entrp">   -519.83133346 </i>
    <i name="e_0_energy">   -519.83299515 </i>
   </energy>
  </scstep>
  <scstep>
   <time name="dav">   30.13   30.41</time>
   <time name="total">   32.72   33.02</time>
   <energy>
    <i name="e_fr_energy">   -519.83465733 </i>
    <i name="e_wo_entrp">   -519.83135323 </i>
    <i name="e_0_energy">   -519.83300528 </i>
   </energy>
  </scstep>
  <scstep>
   <time name="dav">   29.91   30.20</time>
   <time name="total">   32.50   32.80</time>
   <energy>
    <i name="e_fr_energy">   -519.83466031 </i>
    <i name="e_wo_entrp">   -519.83134791 </i>
    <i name="e_0_energy">   -519.83300411 </i>
   </energy>
  </scstep>
  <scstep>
   <time name="dav">   29.89   30.17</time>
   <time name="total">   32.48   32.77</time>
   <energy>
    <i name="e_fr_energy">   -519.83466229 </i>
    <i name="e_wo_entrp">   -519.83135180 </i>
    <i name="e_0_energy">   -519.83300705 </i>
   </energy>
  </scstep>
  <scstep>
   <time name="dav">   30.65   30.94</time>
   <time name="total">   33.23   33.54</time>
   <energy>
    <i name="e_fr_energy">   -519.83466308 </i>
    <i name="e_wo_entrp">   -519.83135247 </i>
    <i name="e_0_energy">   -519.83300778 </i>
   </energy>
  </scstep>
  <scstep>
   <time name="dav">   29.89   30.18</time>
   <time name="total">   32.48   32.79</time>
   <energy>
    <i name="e_fr_energy">   -519.83466324 </i>
    <i name="e_wo_entrp">   -519.83135338 </i>
    <i name="e_0_energy">   -519.83300831 </i>
   </energy>
  </scstep>
  <scstep>
   <time name="dav">   27.87   28.14</time>
   <time name="total">   30.46   30.75</time>
   <energy>
    <i name="e_fr_energy">   -519.83466346 </i>
    <i name="e_wo_entrp">   -519.83135384 </i>
    <i name="e_0_energy">   -519.83300865 </i>
   </energy>
  </scstep>
  <scstep>
   <time name="dav">   20.06   20.28</time>
   <time name="total">   22.64   22.88</time>
   <energy>
    <i name="e_fr_energy">   -519.83466367 </i>
    <i name="e_wo_entrp">   -519.83135390 </i>
    <i name="e_0_energy">   -519.83300879 </i>
   </energy>
  </scstep>
  <scstep>
   <time name="dav">   19.62   19.84</time>
   <time name="total">   22.20   22.44</time>
   <energy>
    <i name="e_fr_energy">   -519.83466384 </i>
    <i name="e_wo_entrp">   -519.83135398 </i>
    <i name="e_0_energy">   -519.83300891 </i>
   </energy>
  </scstep>
  <scstep>
   <time name="dav">   18.79   18.99</time>
   <time name="total">   20.07   20.28</time>
   <energy>
    <i name="alphaZ">    469.20087323 </i>
    <i name="ewald"> -11957.43454136 </i>
    <i name="hartreedc">  -1700.35989590 </i>
    <i name="XCdc">  -1028.63765287 </i>
    <i name="pawpsdc">  35085.46824652 </i>
    <i name="pawaedc"> -33136.05033978 </i>
    <i name="eentropy">     -0.00330973 </i>
    <i name="bandstr">   -712.61862151 </i>
    <i name="atom">  12460.60057749 </i>
    <i name="e_fr_energy">   -519.83466390 </i>
    <i name="e_wo_entrp">   -519.83135417 </i>
    <i name="e_0_energy">   -519.83300904 </i>
   </energy>
  </scstep>
  <structure>
   <crystal>
    <varray name="basis" >
     <v>      16.29300118       0.00000000       0.00000000 </v>
     <v>       0.00000000      17.17432976       0.00000000 </v>
     <v>       0.00000000       0.00000026      10.60054684 </v>
    </varray>
    <i name="volume">   2966.25959091 </i>
    <varray name="rec_basis" >
     <v>       0.06137605       0.00000000       0.00000000 </v>
     <v>       0.00000000       0.05822644      -0.00000000 </v>
     <v>       0.00000000       0.00000000       0.09433476 </v>
    </varray>
   </crystal>
   <varray name="positions" >
    <v>       0.13037890       0.82620466       0.40503472 </v>
    <v>       0.96371245       0.07620391       0.00000006 </v>
    <v>       0.79704571       0.42620403       0.08100699 </v>
    <v>       0.63037908       0.77620417       0.16201389 </v>
    <v>       0.46371227       0.12620449       0.24302086 </v>
    <v>       0.29704553       0.47620463       0.32402781 </v>
    <v>       0.46371227       0.82620466       0.40503472 </v>
    <v>       0.29704580       0.07620391       0.00000006 </v>
    <v>       0.13037908       0.42620403       0.08100699 </v>
    <v>       0.96371239       0.77620417       0.16201389 </v>
    <v>       0.79704559       0.12620449       0.24302086 </v>
    <v>       0.63037884       0.47620463       0.32402781 </v>
    <v>       0.79704559       0.82620466       0.40503472 </v>
    <v>       0.63037914       0.07620391       0.00000006 </v>
    <v>       0.46371242       0.42620403       0.08100699 </v>
    <v>       0.29704577       0.77620417       0.16201389 </v>
    <v>       0.13037898       0.12620449       0.24302086 </v>
    <v>       0.96371222       0.47620463       0.32402781 </v>
    <v>       0.21371222       0.57620478       0.40503463 </v>
    <v>       0.04704577       0.82620400       0.00000000 </v>
    <v>       0.88037908       0.17620420       0.08100697 </v>
    <v>       0.71371233       0.52620447       0.16201381 </v>
    <v>       0.54704559       0.87620461       0.24302079 </v>
    <v>       0.38037896       0.22620463       0.32402769 </v>
    <v>       0.54704559       0.57620478       0.40503463 </v>
    <v>       0.38037908       0.82620400       0.00000000 </v>
    <v>       0.21371238       0.17620420       0.08100697 </v>
    <v>       0.04704569       0.52620447       0.16201381 </v>
    <v>       0.88037896       0.87620461       0.24302079 </v>
    <v>       0.71371233       0.22620463       0.32402769 </v>
    <v>       0.88037890       0.57620478       0.40503463 </v>
    <v>       0.71371239       0.82620400       0.00000000 </v>
    <v>       0.54704571       0.17620420       0.08100697 </v>
    <v>       0.38037899       0.52620447       0.16201381 </v>
    <v>       0.21371223       0.87620461       0.24302079 </v>
    <v>       0.04704558       0.22620463       0.32402769 </v>
    <v>       0.13037890       0.32620478       0.40503472 </v>
    <v>       0.96371239       0.57620400       0.00000002 </v>
    <v>       0.79704571       0.92620414       0.08100694 </v>
    <v>       0.63037902       0.27620423       0.16201381 </v>
    <v>       0.46371227       0.62620449       0.24302086 </v>
    <v>       0.29704565       0.97620463       0.32402769 </v>
    <v>       0.46371227       0.32620478       0.40503472 </v>
    <v>       0.29704577       0.57620400       0.00000002 </v>
    <v>       0.13037905       0.92620414       0.08100694 </v>
    <v>       0.96371239       0.27620423       0.16201381 </v>
    <v>       0.79704559       0.62620449       0.24302086 </v>
    <v>       0.63037896       0.97620463       0.32402769 </v>
    <v>       0.79704559       0.32620478       0.40503472 </v>
    <v>       0.63037914       0.57620400       0.00000002 </v>
    <v>       0.46371239       0.92620414       0.08100694 </v>
    <v>       0.29704574       0.27620423       0.16201381 </v>
    <v>       0.13037898       0.62620449       0.24302086 </v>
    <v>       0.96371233       0.97620463       0.32402769 </v>
    <v>       0.21371222       0.07620478       0.40503460 </v>
    <v>       0.04704577       0.32620391       0.00000006 </v>
    <v>       0.88037908       0.67620403       0.08100695 </v>
    <v>       0.71371239       0.02620423       0.16201384 </v>
    <v>       0.54704559       0.37620449       0.24302079 </v>
    <v>       0.38037884       0.72620475       0.32402769 </v>
    <v>       0.54704559       0.07620478       0.40503460 </v>
    <v>       0.38037911       0.32620391       0.00000006 </v>
    <v>       0.21371241       0.67620403       0.08100695 </v>
    <v>       0.04704573       0.02620423       0.16201384 </v>
    <v>       0.88037896       0.37620449       0.24302079 </v>
    <v>       0.71371222       0.72620475       0.32402769 </v>
    <v>       0.88037896       0.07620478       0.40503460 </v>
    <v>       0.71371245       0.32620391       0.00000006 </v>
    <v>       0.54704577       0.67620403       0.08100695 </v>
    <v>       0.38037908       0.02620423       0.16201384 </v>
    <v>       0.21371229       0.37620449       0.24302079 </v>
    <v>       0.04704554       0.72620475       0.32402769 </v>
    <v>       0.70953399       0.98604769       0.54526639 </v>
    <v>       0.33453402       0.59715873       0.60816675 </v>
    <v>       0.95953405       0.20826984       0.67106712 </v>
    <v>       0.58453411       0.81938094       0.73396754 </v>
    <v>       0.20953417       0.43049198       0.79686785 </v>
    <v>       0.83453399       0.04160285       0.85976827 </v>
    <v>       0.20953405       0.98604769       0.54526639 </v>
    <v>       0.83453411       0.59715873       0.60816675 </v>
    <v>       0.45953405       0.20826977       0.67106712 </v>
    <v>       0.08453417       0.81938094       0.73396754 </v>
    <v>       0.70953423       0.43049198       0.79686785 </v>
    <v>       0.33453411       0.04160285       0.85976833 </v>
    <v>       0.08453393       0.73604763       0.54526639 </v>
    <v>       0.70953405       0.34715873       0.60816681 </v>
    <v>       0.33453408       0.95826977       0.67106718 </v>
    <v>       0.95953417       0.56938094       0.73396760 </v>
    <v>       0.58453429       0.18049204       0.79686791 </v>
    <v>       0.20953393       0.79160291       0.85976827 </v>
    <v>       0.58453399       0.73604763       0.54526639 </v>
    <v>       0.20953405       0.34715867       0.60816675 </v>
    <v>       0.83453405       0.95826972       0.67106712 </v>
    <v>       0.45953411       0.56938088       0.73396760 </v>
    <v>       0.08453417       0.18049192       0.79686785 </v>
    <v>       0.70953399       0.79160279       0.85976827 </v>
    <v>       0.83453399       0.73604763       0.54526639 </v>
    <v>       0.45953399       0.34715870       0.60816675 </v>
    <v>       0.08453405       0.95826972       0.67106712 </v>
    <v>       0.70953411       0.56938088       0.73396760 </v>
    <v>       0.33453423       0.18049198       0.79686785 </v>
    <v>       0.95953399       0.79160279       0.85976827 </v>
    <v>       0.33453399       0.73604763       0.54526639 </v>
    <v>       0.95953405       0.34715873       0.60816675 </v>
    <v>       0.58453405       0.95826977       0.67106712 </v>
    <v>       0.20953417       0.56938088       0.73396760 </v>
    <v>       0.83453423       0.18049198       0.79686785 </v>
    <v>       0.45953411       0.79160291       0.85976833 </v>
    <v>       0.95953393       0.98604769       0.54526639 </v>
    <v>       0.58453399       0.59715873       0.60816675 </v>
    <v>       0.20953393       0.20826984       0.67106712 </v>
    <v>       0.83453411       0.81938082       0.73396754 </v>
    <v>       0.45953423       0.43049198       0.79686785 </v>
    <v>       0.08453393       0.04160285       0.85976827 </v>
    <v>       0.45953399       0.98604769       0.54526639 </v>
    <v>       0.08453405       0.59715873       0.60816675 </v>
    <v>       0.70953411       0.20826984       0.67106718 </v>
    <v>       0.33453417       0.81938094       0.73396760 </v>
    <v>       0.95953423       0.43049198       0.79686785 </v>
    <v>       0.58453399       0.04160285       0.85976833 </v>
   </varray>
  </structure>
  <varray name="forces" >
   <v>       0.63719004       1.26725849      -0.78443954 </v>
   <v>      -0.23063220      -0.61426037      -0.63749782 </v>
   <v>       0.16199375      -0.05410933      -0.21025188 </v>
   <v>      -0.37398271       0.07501495       0.06308733 </v>
   <v>      -0.13200883       0.12054765      -0.03287202 </v>
   <v>      -0.01052597      -0.21554977       0.10982697 </v>
   <v>       0.60302635       0.16737970       0.95995985 </v>
   <v>      -7.75192762       7.28949025      18.45036981 </v>
   <v>       0.40556163      -0.06181553      -0.53816318 </v>
   <v>      -0.08808617      -0.39881327       0.38985123 </v>
   <v>      -0.14686550       0.27171987      -0.03242893 </v>
   <v>       0.05751776      -0.08215552       0.01776474 </v>
   <v>      -0.95301545       1.22042247      -1.10097107 </v>
   <v>       7.46492458       5.79837773      15.04023619 </v>
   <v>       0.18276246      -0.04565703      -0.51652713 </v>
   <v>      -0.24468892      -0.31649994       0.03518279 </v>
   <v>      -0.04883531       0.07137856       0.15010240 </v>
   <v>       0.25619129      -0.15739849       0.27101359 </v>
   <v>       0.29725022      -0.04578930       0.89964370 </v>
   <v>       1.45336310       0.83188131       2.32572937 </v>
   <v>      -0.03532398       0.46123117      -0.71410864 </v>
   <v>      -0.01639397      -0.23798155      -0.04102555 </v>
   <v>       0.29750058      -0.13103889      -0.05535831 </v>
   <v>      -0.20086262      -0.15421209       0.25362399 </v>
   <v>       0.18925811      -0.89365706      -1.40343722 </v>
   <v>      -2.98224484       1.86661698       3.93731716 </v>
   <v>      -0.35512639       0.41772022      -0.29201781 </v>
   <v>       0.02397383      -0.25950107      -0.07445169 </v>
   <v>       0.34205672       0.29271838      -0.06374374 </v>
   <v>      -0.06646284      -0.14812698       0.24104470 </v>
   <v>       0.55476101      -0.26333622      -1.01862334 </v>
   <v>       1.55608193      12.32562856      31.31666461 </v>
   <v>       0.15013787       0.54855909      -0.67855859 </v>
   <v>       0.00657236      -0.18507926      -0.00650041 </v>
   <v>       0.41109062       0.15022240      -0.26910292 </v>
   <v>      -0.30649601      -0.21463971       0.22529715 </v>
   <v>      -0.16518727       0.37298476       0.45102266 </v>
   <v>      -0.58408825       0.13012866      -0.70492576 </v>
   <v>       0.24613338       0.43233914      -0.29712640 </v>
   <v>      -0.20396983      -0.23352899       0.22371465 </v>
   <v>       0.01096556       0.25963768       0.16158039 </v>
   <v>       0.15840857      -0.09264259      -0.06067326 </v>
   <v>      -0.11312735      -0.25937630      -2.31127097 </v>
   <v>      -0.66430804      -0.12768544      -0.62872536 </v>
   <v>      -0.01990923       0.26943094      -0.77317714 </v>
   <v>      -0.04434830      -0.09980881       0.12940715 </v>
   <v>      -0.02858288       0.15155235       0.05267274 </v>
   <v>       0.44860461       0.25702237       0.40387627 </v>
   <v>      -0.39897387       0.10246490       0.95796756 </v>
   <v>      -0.13491943      -0.17617438      -0.71319688 </v>
   <v>      -0.01480633       0.24665514      -0.02792036 </v>
   <v>      -0.23433366      -0.22650688       0.16645687 </v>
   <v>      -0.12730845       0.38095585      -0.08822463 </v>
   <v>      -0.26732308      -0.30865252      -0.64783199 </v>
   <v>       0.63622576       2.32619316      -1.93420280 </v>
   <v>       0.06912031      -0.00781588      -0.88775805 </v>
   <v>       0.24188554       0.14331950      -0.25200302 </v>
   <v>       0.03137018      -0.45601772       0.25002479 </v>
   <v>       0.17426621       0.27408539       0.14419596 </v>
   <v>      -0.09968307       0.49421799       0.03504452 </v>
   <v>      -0.39861028       0.06310634       0.62782531 </v>
   <v>       0.23241244      -0.22257557      -0.54586018 </v>
   <v>       0.35986381       0.41635410      -0.63527483 </v>
   <v>      -0.10468320      -0.35466717       0.35810531 </v>
   <v>      -0.02580419       0.43146407       0.01058843 </v>
   <v>      -0.64325327       0.29664294       0.66951062 </v>
   <v>       0.09670732       0.39576287       0.06227041 </v>
   <v>       0.57280211       0.33126432      -0.85522636 </v>
   <v>       0.10639016       0.02954633      -0.29297003 </v>
   <v>       0.21097766      -0.17674490       0.31723278 </v>
   <v>      -0.05900279       0.10616067      -0.02234440 </v>
   <v>      -0.44020934       0.02549801      -0.34593186 </v>
   <v>      -0.19505865      -0.06020101      -1.28278016 </v>
   <v>      -0.47793432       0.07759374      -0.45786368 </v>
   <v>      -0.01140178      -0.37300007      -0.37345803 </v>
   <v>       0.38104175      -0.12611374       0.16313148 </v>
   <v>       0.06756084       0.00420305       1.24866571 </v>
   <v>       0.42362243      -0.67631567       1.40702681 </v>
   <v>      -0.44442773      -1.99532959       1.76193504 </v>
   <v>      -0.18971393       0.09551390       0.30121021 </v>
   <v>      -0.03975555      -0.35390783      -0.33062344 </v>
   <v>      -0.36851923       0.03826385      -0.23871080 </v>
   <v>      -0.01599948      -0.64388008       0.77846781 </v>
   <v>       7.58772746      -7.92606234     -18.63893906 </v>
   <v>      -0.18135527      -0.86756008       0.80163391 </v>
   <v>       0.50243993       0.16416887      -0.98282886 </v>
   <v>       0.06211159       0.45735824       0.09219623 </v>
   <v>       0.37198616       0.19533308       1.30114110 </v>
   <v>      -0.42412913       0.49744300       0.41380626 </v>
   <v>      -0.12018723      -0.65658319       1.38387050 </v>
   <v>      -0.26767487       0.50157653      -1.65024715 </v>
   <v>      -0.17159612      -0.31817965      -0.99916233 </v>
   <v>       0.17993331      -0.40144238      -0.18228423 </v>
   <v>      -0.26811302       0.48401045       0.28615652 </v>
   <v>       0.22645221       0.64076957       0.60591892 </v>
   <v>      -1.47661982     -12.29329957     -30.97540149 </v>
   <v>       0.78488697      -0.81735903       1.01967405 </v>
   <v>      -0.09960930       0.11959172       1.83462858 </v>
   <v>       0.05385065       0.14152743      -0.02585591 </v>
   <v>      -0.56097630       0.27593567       1.21857552 </v>
   <v>       0.04880077       0.94082562       0.04224164 </v>
   <v>      -1.84859878      -1.04269962      -1.45776755 </v>
   <v>      -0.28855660      -0.46462186      -0.81292001 </v>
   <v>      -0.20435319       0.05849970      -0.96526765 </v>
   <v>       0.03551882       0.03636286       0.49566139 </v>
   <v>       0.51647459       0.15843101       0.57450576 </v>
   <v>      -0.11421474       0.59066436       0.88716357 </v>
   <v>       3.20431104      -2.24295868      -3.08193446 </v>
   <v>       0.09957421       0.10155509       0.41617037 </v>
   <v>      -0.09898703       0.31822363       0.97390402 </v>
   <v>       0.06611143      -0.11997548      -0.31976106 </v>
   <v>      -0.08700868      -0.00960117      -0.08669429 </v>
   <v>      -0.10355470      -0.27025080       1.04430694 </v>
   <v>       0.00457663      -0.09746971       1.08177464 </v>
   <v>       0.37662933      -0.33373292      -1.30355241 </v>
   <v>       0.64133864      -0.45875930      -0.69087690 </v>
   <v>      -0.16140385      -0.38984673      -0.31228409 </v>
   <v>      -0.04439723       0.10655600      -0.27284141 </v>
   <v>       0.03164343      -0.59508531       0.88800097 </v>
   <v>      -7.33388199      -6.36130821     -14.79320095 </v>
  </varray>
  <varray name="stress" >
   <v>      -1.59399355       1.11613970      -0.09424830 </v>
   <v>       1.11613820      12.44123874      22.56819022 </v>
   <v>      -0.09424802      22.56817059      52.49718707 </v>
  </varray>
  <energy>
   <i name="e_fr_energy">   -519.83466390 </i>
   <i name="e_wo_entrp">   -519.83135417 </i>
   <i name="e_0_energy">   -519.83300904 </i>
  </energy>
  <time name="totalsc">  825.24  833.07</time>
  <eigenvalues>
   <array>
    <dimension dim="1">band</dimension>
    <dimension dim="2">kpoint</dimension>
    <dimension dim="3">spin</dimension>
    <field>eigene</field>
    <field>occ</field>
    <set>
     <set comment="spin 1">
      <set comment="kpoint 1">
       <r>   -8.6962    1.0000 </r>
       <r>   -8.5130    1.0000 </r>
       <r>   -8.3263    1.0000 </r>
       <r>   -8.2036    1.0000 </r>
       <r>   -8.1214    1.0000 </r>
       <r>   -7.8902    1.0000 </r>
       <r>   -7.7696    1.0000 </r>
       <r>   -7.6255    1.0000 </r>
       <r>   -7.4951    1.0000 </r>
       <r>   -7.4738    1.0000 </r>
       <r>   -7.3954    1.0000 </r>
       <r>   -7.3763    1.0000 </r>
       <r>   -7.2511    1.0000 </r>
       <r>   -7.1727    1.0000 </r>
       <r>   -7.1296    1.0000 </r>
       <r>   -7.0974    1.0000 </r>
       <r>   -7.0718    1.0000 </r>
       <r>   -7.0377    1.0000 </r>
       <r>   -7.0016    1.0000 </r>
       <r>   -6.9363    1.0000 </r>
       <r>   -6.8144    1.0000 </r>
       <r>   -6.7451    1.0000 </r>
       <r>   -6.7154    1.0000 </r>
       <r>   -6.6868    1.0000 </r>
       <r>   -6.6411    1.0000 </r>
       <r>   -6.6065    1.0000 </r>
       <r>   -6.5188    1.0000 </r>
       <r>   -6.4471    1.0000 </r>
       <r>   -6.3692    1.0000 </r>
       <r>   -6.2145    1.0000 </r>
       <r>   -6.2027    1.0000 </r>
       <r>   -6.1423    1.0000 </r>
       <r>   -6.1151    1.0000 </r>
       <r>   -6.0537    1.0000 </r>
       <r>   -5.9702    1.0000 </r>
       <r>   -5.9346    1.0000 </r>
       <r>   -5.8859    1.0000 </r>
       <r>   -5.8662    1.0000 </r>
       <r>   -5.7970    1.0000 </r>
       <r>   -5.7699    1.0000 </r>
       <r>   -5.7460    1.0000 </r>
       <r>   -5.7324    1.0000 </r>
       <r>   -5.6505    1.0000 </r>
       <r>   -5.6269    1.0000 </r>
       <r>   -5.5480    1.0000 </r>
       <r>   -5.4532    1.0000 </r>
       <r>   -5.3541    1.0000 </r>
       <r>   -5.3375    1.0000 </r>
       <r>   -5.1792    1.0000 </r>
       <r>   -5.1454    1.0000 </r>
       <r>   -5.0827    1.0000 </r>
       <r>   -5.0563    1.0000 </r>
       <r>   -5.0073    1.0000 </r>
       <r>   -4.9224    1.0000 </r>
       <r>   -4.8229    1.0000 </r>
       <r>   -4.7523    1.0000 </r>
       <r>   -4.6307    1.0000 </r>
       <r>   -4.5655    1.0000 </r>
       <r>   -4.5314    1.0000 </r>
       <r>   -4.4883    1.0000 </r>
       <r>   -4.4098    1.0000 </r>
       <r>   -4.3425    1.0000 </r>
       <r>   -4.3033    1.0000 </r>
       <r>   -4.2503    1.0000 </r>
       <r>   -4.2338    1.0000 </r>
       <r>   -4.1207    1.0000 </r>
       <r>   -3.9825    1.0000 </r>
       <r>   -3.9497    1.0000 </r>
       <r>   -3.9355    1.0000 </r>
       <r>   -3.8743    1.0000 </r>
       <r>   -3.7832    1.0000 </r>
       <r>   -3.6535    1.0000 </r>
       <r>   -3.6001    1.0000 </r>
       <r>   -3.5546    1.0000 </r>
       <r>   -3.4542    1.0000 </r>
       <r>   -3.3987    1.0000 </r>
       <r>   -3.3492    1.0000 </r>
       <r>   -3.3144    1.0000 </r>
       <r>   -3.2461    1.0000 </r>
       <r>   -3.1612    1.0000 </r>
       <r>   -3.1547    1.0000 </r>
       <r>   -3.0374    1.0000 </r>
       <r>   -3.0172    1.0000 </r>
       <r>   -2.9793    1.0000 </r>
       <r>   -2.8460    1.0000 </r>
       <r>   -2.8076    1.0000 </r>
       <r>   -2.8066    1.0000 </r>
       <r>   -2.7488    1.0000 </r>
       <r>   -2.6788    1.0000 </r>
       <r>   -2.6204    1.0000 </r>
       <r>   -2.5961    1.0000 </r>
       <r>   -2.4649    1.0000 </r>
       <r>   -2.4130    1.0000 </r>
       <r>   -2.3552    1.0000 </r>
       <r>   -2.3041    1.0000 </r>
       <r>   -2.2636    1.0000 </r>
       <r>   -2.1688    1.0000 </r>
       <r>   -2.1343    1.0000 </r>
       <r>   -2.0658    1.0000 </r>
       <r>   -2.0120    1.0000 </r>
       <r>   -1.9374    1.0000 </r>
       <r>   -1.8963    1.0000 </r>
       <r>   -1.8186    1.0000 </r>
       <r>   -1.7757    1.0000 </r>
       <r>   -1.6989    1.0000 </r>
       <r>   -1.6444    1.0000 </r>
       <r>   -1.5672    1.0000 </r>
       <r>   -1.5078    1.0000 </r>
       <r>   -1.4605    1.0000 </r>
       <r>   -1.4317    1.0000 </r>
       <r>   -1.3208    1.0000 </r>
       <r>   -1.2806    1.0000 </r>
       <r>   -1.2280    1.0000 </r>
       <r>   -1.1436    1.0000 </r>
       <r>   -1.0190    1.0000 </r>
       <r>   -0.8449    1.0000 </r>
       <r>   -0.8328    1.0000 </r>
       <r>   -0.4930    1.0000 </r>
       <r>   -0.4569    1.0000 </r>
       <r>   -0.4101    1.0000 </r>
       <r>   -0.3398    1.0000 </r>
       <r>   -0.2987    1.0000 </r>
       <r>   -0.2723    1.0000 </r>
       <r>   -0.2508    1.0000 </r>
       <r>   -0.2256    1.0000 </r>
       <r>   -0.1776    1.0000 </r>
       <r>   -0.1548    1.0000 </r>
       <r>   -0.1379    1.0000 </r>
       <r>   -0.1190    1.0000 </r>
       <r>   -0.0927    1.0000 </r>
       <r>   -0.0540    1.0000 </r>
       <r>   -0.0121    1.0000 </r>
       <r>    0.0244    1.0000 </r>
       <r>    0.0449    1.0000 </r>
       <r>    0.0733    1.0000 </r>
       <r>    0.0945    1.0000 </r>
       <r>    0.1217    1.0000 </r>
       <r>    0.1610    1.0000 </r>
       <r>    0.1815    1.0000 </r>
       <r>    0.2146    1.0000 </r>
       <r>    0.2548    1.0000 </r>
       <r>    0.2746    1.0000 </r>
       <r>    0.2759    1.0000 </r>
       <r>    0.3239    1.0000 </r>
       <r>    0.3483    1.0000 </r>
       <r>    0.3856    1.0000 </r>
       <r>    0.3995    1.0000 </r>
       <r>    0.4357    1.0000 </r>
       <r>    0.4895    1.0000 </r>
       <r>    0.5040    1.0000 </r>
       <r>    0.5377    1.0000 </r>
       <r>    0.5651    1.0000 </r>
       <r>    0.5882    1.0000 </r>
       <r>    0.6196    1.0000 </r>
       <r>    0.6571    1.0000 </r>
       <r>    0.6679    1.0000 </r>
       <r>    0.7180    1.0000 </r>
       <r>    0.7488    1.0000 </r>
       <r>    0.7707    1.0000 </r>
       <r>    0.8138    1.0000 </r>
       <r>    0.8639    1.0000 </r>
       <r>    0.8729    1.0000 </r>
       <r>    0.9112    1.0000 </r>
       <r>    0.9544    1.0000 </r>
       <r>    0.9942    1.0000 </r>
       <r>    0.9982    1.0000 </r>
       <r>    1.0341    1.0000 </r>
       <r>    1.0827    1.0000 </r>
       <r>    1.0963    1.0000 </r>
       <r>    1.1381    1.0000 </r>
       <r>    1.1804    1.0000 </r>
       <r>    1.1933    1.0000 </r>
       <r>    1.2230    1.0000 </r>
       <r>    1.2253    1.0000 </r>
       <r>    1.2764    1.0000 </r>
       <r>    1.2998    1.0000 </r>
       <r>    1.3259    1.0000 </r>
       <r>    1.3600    1.0000 </r>
       <r>    1.3813    1.0000 </r>
       <r>    1.3997    1.0000 </r>
       <r>    1.4499    1.0000 </r>
       <r>    1.4743    1.0000 </r>
       <r>    1.5166    1.0000 </r>
       <r>    1.5471    1.0000 </r>
       <r>    1.5531    1.0000 </r>
       <r>    1.5699    1.0000 </r>
       <r>    1.6002    1.0000 </r>
       <r>    1.6402    1.0000 </r>
       <r>    1.6774    1.0000 </r>
       <r>    1.7081    1.0000 </r>
       <r>    1.7513    1.0000 </r>
       <r>    1.7605    1.0000 </r>
       <r>    1.7841    1.0000 </r>
       <r>    1.8376    1.0000 </r>
       <r>    1.8580    1.0000 </r>
       <r>    1.8969    1.0000 </r>
       <r>    1.9254    1.0000 </r>
       <r>    1.9414    1.0000 </r>
       <r>    2.0028    1.0000 </r>
       <r>    2.0363    1.0000 </r>
       <r>    2.0776    1.0000 </r>
       <r>    2.0823    1.0000 </r>
       <r>    2.1205    1.0000 </r>
       <r>    2.1499    1.0000 </r>
       <r>    2.1707    1.0000 </r>
       <r>    2.2092    1.0000 </r>
       <r>    2.2238    1.0000 </r>
       <r>    2.2428    1.0000 </r>
       <r>    2.3028    1.0000 </r>
       <r>    2.3209    1.0000 </r>
       <r>    2.3663    1.0000 </r>
       <r>    2.3741    1.0000 </r>
       <r>    2.4167    1.0000 </r>
       <r>    2.4413    1.0000 </r>
       <r>    2.5008    1.0000 </r>
       <r>    2.5562    1.0000 </r>
       <r>    2.5639    1.0000 </r>
       <r>    2.6103    1.0000 </r>
       <r>    2.6600    1.0000 </r>
       <r>    2.6993    1.0000 </r>
       <r>    2.7151    1.0000 </r>
       <r>    2.7554    1.0000 </r>
       <r>    2.8019    1.0000 </r>
       <r>    2.8447    1.0000 </r>
       <r>    2.8615    1.0000 </r>
       <r>    2.8834    1.0000 </r>
       <r>    2.9397    1.0000 </r>
       <r>    2.9987    1.0000 </r>
       <r>    3.0532    1.0000 </r>
       <r>    3.0805    1.0000 </r>
       <r>    3.0891    1.0000 </r>
       <r>    3.1279    1.0000 </r>
       <r>    3.1956    1.0000 </r>
       <r>    3.2279    1.0000 </r>
       <r>    3.2793    1.0000 </r>
       <r>    3.2868    1.0000 </r>
       <r>    3.3304    1.0000 </r>
       <r>    3.3881    1.0000 </r>
       <r>    3.4287    1.0000 </r>
       <r>    3.4403    0.9950 </r>
       <r>    3.4900    0.0000 </r>
       <r>    3.5034    0.0000 </r>
       <r>    3.5371    0.0000 </r>
       <r>    3.5870    0.0000 </r>
       <r>    3.6250    0.0000 </r>
       <r>    3.6811    0.0000 </r>
       <r>    3.7280    0.0000 </r>
       <r>    3.7575    0.0000 </r>
       <r>    3.7878    0.0000 </r>
       <r>    3.8122    0.0000 </r>
       <r>    3.8700    0.0000 </r>
       <r>    3.8767    0.0000 </r>
       <r>    3.9194    0.0000 </r>
       <r>    3.9361    0.0000 </r>
       <r>    3.9712    0.0000 </r>
       <r>    4.0320    0.0000 </r>
       <r>    4.0527    0.0000 </r>
       <r>    4.1308    0.0000 </r>
       <r>    4.1623    0.0000 </r>
       <r>    4.1812    0.0000 </r>
       <r>    4.2217    0.0000 </r>
       <r>    4.2495    0.0000 </r>
       <r>    4.3039    0.0000 </r>
       <r>    4.3325    0.0000 </r>
       <r>    4.3872    0.0000 </r>
       <r>    4.3992    0.0000 </r>
       <r>    4.4071    0.0000 </r>
       <r>    4.4250    0.0000 </r>
       <r>    4.5042    0.0000 </r>
       <r>    4.5402    0.0000 </r>
       <r>    4.5629    0.0000 </r>
       <r>    4.6020    0.0000 </r>
       <r>    4.6377    0.0000 </r>
       <r>    4.6742    0.0000 </r>
       <r>    4.6920    0.0000 </r>
       <r>    4.7354    0.0000 </r>
       <r>    4.7869    0.0000 </r>
       <r>    4.8368    0.0000 </r>
       <r>    4.8580    0.0000 </r>
       <r>    4.9123    0.0000 </r>
       <r>    4.9193    0.0000 </r>
       <r>    4.9770    0.0000 </r>
       <r>    4.9998    0.0000 </r>
       <r>    5.0438    0.0000 </r>
       <r>    5.1360    0.0000 </r>
       <r>    5.1726    0.0000 </r>
       <r>    5.2171    0.0000 </r>
       <r>    5.2485    0.0000 </r>
      </set>
      <set comment="kpoint 2">
       <r>   -8.6577    1.0000 </r>
       <r>   -8.5722    1.0000 </r>
       <r>   -8.3101    1.0000 </r>
       <r>   -8.2815    1.0000 </r>
       <r>   -7.9966    1.0000 </r>
       <r>   -7.8485    1.0000 </r>
       <r>   -7.7928    1.0000 </r>
       <r>   -7.6788    1.0000 </r>
       <r>   -7.5600    1.0000 </r>
       <r>   -7.4586    1.0000 </r>
       <r>   -7.3571    1.0000 </r>
       <r>   -7.3343    1.0000 </r>
       <r>   -7.3101    1.0000 </r>
       <r>   -7.2634    1.0000 </r>
       <r>   -7.1222    1.0000 </r>
       <r>   -7.0490    1.0000 </r>
       <r>   -7.0076    1.0000 </r>
       <r>   -6.9715    1.0000 </r>
       <r>   -6.9600    1.0000 </r>
       <r>   -6.9339    1.0000 </r>
       <r>   -6.8643    1.0000 </r>
       <r>   -6.8095    1.0000 </r>
       <r>   -6.7517    1.0000 </r>
       <r>   -6.7134    1.0000 </r>
       <r>   -6.6016    1.0000 </r>
       <r>   -6.5586    1.0000 </r>
       <r>   -6.4621    1.0000 </r>
       <r>   -6.4197    1.0000 </r>
       <r>   -6.3680    1.0000 </r>
       <r>   -6.3440    1.0000 </r>
       <r>   -6.2195    1.0000 </r>
       <r>   -6.1502    1.0000 </r>
       <r>   -6.1033    1.0000 </r>
       <r>   -6.0489    1.0000 </r>
       <r>   -6.0258    1.0000 </r>
[...]
       <r>    -6.2093    18.1069    61.1522 </r>
       <r>    -6.1578    20.4619    62.2044 </r>
       <r>    -6.1064    43.0662    64.4189 </r>
       <r>    -6.0550    31.0279    66.0145 </r>
       <r>    -6.0036    37.2401    67.9294 </r>
       <r>    -5.9522    44.7878    70.2325 </r>
       <r>    -5.9007    35.1326    72.0391 </r>
       <r>    -5.8493    46.0676    74.4080 </r>
       <r>    -5.7979    28.2341    75.8599 </r>
       <r>    -5.7465    47.6706    78.3112 </r>
       <r>    -5.6950    43.3597    80.5409 </r>
       <r>    -5.6436    36.8613    82.4364 </r>
       <r>    -5.5922    38.7945    84.4313 </r>
       <r>    -5.5408    35.3681    86.2500 </r>
       <r>    -5.4894    37.8102    88.1943 </r>
       <r>    -5.4379    19.7859    89.2117 </r>
       <r>    -5.3865    38.3980    91.1862 </r>
       <r>    -5.3351    42.8619    93.3903 </r>
       <r>    -5.2837    37.6857    95.3281 </r>
       <r>    -5.2322    28.0311    96.7696 </r>
       <r>    -5.1808    31.4870    98.3887 </r>
       <r>    -5.1294    39.6852   100.4294 </r>
       <r>    -5.0780    37.1669   102.3406 </r>
       <r>    -5.0266    23.6337   103.5559 </r>
       <r>    -4.9751    35.2096   105.3665 </r>
       <r>    -4.9237    24.9587   106.6499 </r>
       <r>    -4.8723    36.4874   108.5262 </r>
       <r>    -4.8209    27.7232   109.9518 </r>
       <r>    -4.7694    45.7701   112.3054 </r>
       <r>    -4.7180    26.3211   113.6588 </r>
       <r>    -4.6666    35.8913   115.5045 </r>
       <r>    -4.6152    29.0689   116.9993 </r>
       <r>    -4.5638    26.9460   118.3849 </r>
       <r>    -4.5123    35.2113   120.1955 </r>
       <r>    -4.4609    43.9406   122.4551 </r>
       <r>    -4.4095    18.9675   123.4304 </r>
       <r>    -4.3581    38.2064   125.3951 </r>
       <r>    -4.3066    33.2669   127.1057 </r>
       <r>    -4.2552    31.2265   128.7115 </r>
       <r>    -4.2038    23.5346   129.9217 </r>
       <r>    -4.1524    13.9256   130.6378 </r>
       <r>    -4.1010    29.4916   132.1543 </r>
       <r>    -4.0495     5.1300   132.4181 </r>
       <r>    -3.9981    37.7176   134.3576 </r>
       <r>    -3.9467    25.4753   135.6676 </r>
       <r>    -3.8953    25.3753   136.9725 </r>
       <r>    -3.8438    22.0416   138.1059 </r>
       <r>    -3.7924    18.8716   139.0763 </r>
       <r>    -3.7410    32.0687   140.7253 </r>
       <r>    -3.6896    22.7600   141.8957 </r>
       <r>    -3.6381    36.7183   143.7839 </r>
       <r>    -3.5867    23.1264   144.9731 </r>
       <r>    -3.5353    22.4591   146.1280 </r>
       <r>    -3.4839    30.0466   147.6730 </r>
       <r>    -3.4325    31.5280   149.2943 </r>
       <r>    -3.3810    41.8725   151.4475 </r>
       <r>    -3.3296    28.0558   152.8901 </r>
       <r>    -3.2782    36.2263   154.7530 </r>
       <r>    -3.2268    34.4032   156.5221 </r>
       <r>    -3.1753    49.3748   159.0610 </r>
       <r>    -3.1239    50.8106   161.6738 </r>
       <r>    -3.0725    28.9115   163.1605 </r>
       <r>    -3.0211    37.0148   165.0639 </r>
       <r>    -2.9697    32.8574   166.7535 </r>
       <r>    -2.9182    17.3193   167.6441 </r>
       <r>    -2.8668    32.0136   169.2903 </r>
       <r>    -2.8154    43.0153   171.5023 </r>
       <r>    -2.7640    28.2889   172.9570 </r>
       <r>    -2.7125    39.3130   174.9785 </r>
       <r>    -2.6611    30.7232   176.5584 </r>
       <r>    -2.6097    31.5087   178.1786 </r>
       <r>    -2.5583    49.7564   180.7372 </r>
       <r>    -2.5069    19.4345   181.7366 </r>
       <r>    -2.4554    35.9211   183.5837 </r>
       <r>    -2.4040    35.2556   185.3966 </r>
       <r>    -2.3526    34.5616   187.1739 </r>
       <r>    -2.3012    48.0963   189.6471 </r>
       <r>    -2.2497    31.9935   191.2923 </r>
       <r>    -2.1983    29.8727   192.8284 </r>
       <r>    -2.1469    32.4142   194.4952 </r>
       <r>    -2.0955    29.8377   196.0295 </r>
       <r>    -2.0441    48.4324   198.5201 </r>
       <r>    -1.9926    34.6262   200.3006 </r>
       <r>    -1.9412    29.2102   201.8027 </r>
       <r>    -1.8898    37.8167   203.7473 </r>
       <r>    -1.8384    30.0072   205.2903 </r>
       <r>    -1.7869    25.5424   206.6038 </r>
       <r>    -1.7355    17.8007   207.5191 </r>
       <r>    -1.6841    34.9737   209.3176 </r>
       <r>    -1.6327    13.3250   210.0028 </r>
       <r>    -1.5813    28.7842   211.4829 </r>
       <r>    -1.5298    23.8373   212.7087 </r>
       <r>    -1.4784    39.6090   214.7455 </r>
       <r>    -1.4270    22.5411   215.9046 </r>
       <r>    -1.3756    40.0296   217.9630 </r>
       <r>    -1.3241    22.8605   219.1385 </r>
       <r>    -1.2727    31.2268   220.7443 </r>
       <r>    -1.2213    34.1430   222.5000 </r>
       <r>    -1.1699    17.5872   223.4044 </r>
       <r>    -1.1185    37.0475   225.3094 </r>
       <r>    -1.0670    33.7455   227.0447 </r>
       <r>    -1.0156    16.6938   227.9031 </r>
       <r>    -0.9642    19.5058   228.9062 </r>
       <r>    -0.9128     5.1480   229.1709 </r>
       <r>    -0.8613     7.5700   229.5602 </r>
       <r>    -0.8099    17.3686   230.4533 </r>
       <r>    -0.7585    22.9102   231.6314 </r>
       <r>    -0.7071    11.9980   232.2484 </r>
       <r>    -0.6557    23.2305   233.4429 </r>
       <r>    -0.6042    12.1400   234.0672 </r>
       <r>    -0.5528    16.5777   234.9197 </r>
       <r>    -0.5014    21.9261   236.0472 </r>
       <r>    -0.4500    41.8912   238.2013 </r>
       <r>    -0.3985    29.1283   239.6992 </r>
       <r>    -0.3471    51.6714   242.3562 </r>
       <r>    -0.2957    59.9188   245.4374 </r>
       <r>    -0.2443    59.3811   248.4909 </r>
       <r>    -0.1929    65.2782   251.8476 </r>
       <r>    -0.1414    54.1840   254.6339 </r>
       <r>    -0.0900    64.9202   257.9723 </r>
       <r>    -0.0386    62.9849   261.2111 </r>
       <r>     0.0128    70.4442   264.8335 </r>
       <r>     0.0643    67.0458   268.2811 </r>
       <r>     0.1157    67.8045   271.7678 </r>
       <r>     0.1671    60.8619   274.8974 </r>
       <r>     0.2185    65.5436   278.2678 </r>
       <r>     0.2699    63.6622   281.5415 </r>
       <r>     0.3214    63.7066   284.8174 </r>
       <r>     0.3728    66.2268   288.2230 </r>
       <r>     0.4242    75.2915   292.0946 </r>
       <r>     0.4756    69.7474   295.6812 </r>
       <r>     0.5271    66.2241   299.0866 </r>
       <r>     0.5785    77.1930   303.0560 </r>
       <r>     0.6299    66.8565   306.4940 </r>
       <r>     0.6813    76.4340   310.4244 </r>
       <r>     0.7327    57.5789   313.3852 </r>
       <r>     0.7842    65.4391   316.7502 </r>
       <r>     0.8356    58.4496   319.7558 </r>
       <r>     0.8870    78.3867   323.7867 </r>
       <r>     0.9384    71.2600   327.4510 </r>
       <r>     0.9899    58.4644   330.4574 </r>
       <r>     1.0413    74.2018   334.2730 </r>
       <r>     1.0927    53.7622   337.0376 </r>
       <r>     1.1441    72.6279   340.7723 </r>
       <r>     1.1955    66.8198   344.2083 </r>
       <r>     1.2470    85.8203   348.6214 </r>
       <r>     1.2984    56.1555   351.5090 </r>
       <r>     1.3498    66.4385   354.9254 </r>
       <r>     1.4012    61.0950   358.0671 </r>
       <r>     1.4527    74.8051   361.9137 </r>
       <r>     1.5041    70.9677   365.5631 </r>
       <r>     1.5555    64.5609   368.8829 </r>
       <r>     1.6069    60.7291   372.0058 </r>
       <r>     1.6583    63.1943   375.2553 </r>
       <r>     1.7098    71.9300   378.9541 </r>
       <r>     1.7612    54.5384   381.7586 </r>
       <r>     1.8126    66.8928   385.1984 </r>
       <r>     1.8640    60.6792   388.3187 </r>
       <r>     1.9155    66.8546   391.7565 </r>
       <r>     1.9669    57.1544   394.6955 </r>
       <r>     2.0183    68.6053   398.2233 </r>
       <r>     2.0697    57.4245   401.1762 </r>
       <r>     2.1211    76.1004   405.0895 </r>
       <r>     2.1726    51.5164   407.7386 </r>
       <r>     2.2240    64.3656   411.0484 </r>
       <r>     2.2754    67.5101   414.5199 </r>
       <r>     2.3268    59.4460   417.5768 </r>
       <r>     2.3783    63.3444   420.8341 </r>
       <r>     2.4297    56.8133   423.7556 </r>
       <r>     2.4811    55.1385   426.5909 </r>
       <r>     2.5325    48.9517   429.1081 </r>
       <r>     2.5839    58.9944   432.1418 </r>
       <r>     2.6354    53.0235   434.8683 </r>
       <r>     2.6868    54.3943   437.6654 </r>
       <r>     2.7382    44.2712   439.9420 </r>
       <r>     2.7896    46.6391   442.3402 </r>
       <r>     2.8411    52.9955   445.0654 </r>
       <r>     2.8925    65.1988   448.4181 </r>
       <r>     2.9439    46.1565   450.7915 </r>
       <r>     2.9953    66.2928   454.2005 </r>
       <r>     3.0467    50.2300   456.7834 </r>
       <r>     3.0982    59.6240   459.8494 </r>
       <r>     3.1496    53.1161   462.5808 </r>
       <r>     3.2010    48.1580   465.0572 </r>
       <r>     3.2524    60.4496   468.1656 </r>
       <r>     3.3039    58.3508   471.1662 </r>
       <r>     3.3553    56.0233   474.0470 </r>
       <r>     3.4067    64.7381   477.3760 </r>
       <r>     3.4581    48.4477   479.8673 </r>
       <r>     3.5095    68.3588   483.3825 </r>
       <r>     3.5610    56.7221   486.2992 </r>
       <r>     3.6124    63.5846   489.5689 </r>
       <r>     3.6638    55.5768   492.4268 </r>
       <r>     3.7152    48.7807   494.9352 </r>
       <r>     3.7667    53.1848   497.6701 </r>
       <r>     3.8181    57.5319   500.6285 </r>
       <r>     3.8695    58.3427   503.6286 </r>
       <r>     3.9209    49.2465   506.1610 </r>
       <r>     3.9723    58.3467   509.1613 </r>
       <r>     4.0238    59.5860   512.2254 </r>
       <r>     4.0752    45.0354   514.5412 </r>
       <r>     4.1266    56.2214   517.4322 </r>
       <r>     4.1780    52.3253   520.1229 </r>
       <r>     4.2295    52.7798   522.8370 </r>
       <r>     4.2809    55.5426   525.6931 </r>
       <r>     4.3323    44.5629   527.9846 </r>
       <r>     4.3837    48.5427   530.4808 </r>
       <r>     4.4351    54.7446   533.2959 </r>
       <r>     4.4866    46.1480   535.6689 </r>
       <r>     4.5380    45.9212   538.0303 </r>
       <r>     4.5894    52.5232   540.7312 </r>
       <r>     4.6408    51.6290   543.3860 </r>
       <r>     4.6923    58.5517   546.3969 </r>
       <r>     4.7437    62.2398   549.5974 </r>
       <r>     4.7951    46.7237   552.0001 </r>
       <r>     4.8465    50.3869   554.5911 </r>
       <r>     4.8979    47.9826   557.0584 </r>
       <r>     4.9494    49.5044   559.6041 </r>
       <r>     5.0008    52.8252   562.3205 </r>
       <r>     5.0522    46.2200   564.6972 </r>
       <r>     5.1036    36.8474   566.5920 </r>
       <r>     5.1551    46.9737   569.0075 </r>
       <r>     5.2065    50.8519   571.6224 </r>
       <r>     5.2579    42.6720   573.8167 </r>
       <r>     5.3093    29.2685   575.3217 </r>
       <r>     5.3607    13.1900   576.0000 </r>
       <r>     5.4122     0.0000   576.0000 </r>
       <r>     5.4636     0.0000   576.0000 </r>
       <r>     5.5150     0.0000   576.0000 </r>
       <r>     5.5664     0.0000   576.0000 </r>
       <r>     5.6179     0.0000   576.0000 </r>
       <r>     5.6693     0.0000   576.0000 </r>
       <r>     5.7207     0.0000   576.0000 </r>
       <r>     5.7721     0.0000   576.0000 </r>
       <r>     5.8235     0.0000   576.0000 </r>
       <r>     5.8750     0.0000   576.0000 </r>
       <r>     5.9264     0.0000   576.0000 </r>
       <r>     5.9778     0.0000   576.0000 </r>
       <r>     6.0292     0.0000   576.0000 </r>
      </set>
     </set>
    </array>
   </total>
  </dos>
 </calculation>
 <structure name="finalpos" >
  <crystal>
   <varray name="basis" >
    <v>      16.29300118       0.00000000       0.00000000 </v>
    <v>       0.00000000      17.17432976       0.00000000 </v>
    <v>       0.00000000       0.00000026      10.60054684 </v>
   </varray>
   <i name="volume">   2966.25959091 </i>
   <varray name="rec_basis" >
    <v>       0.06137605       0.00000000       0.00000000 </v>
    <v>       0.00000000       0.05822644      -0.00000000 </v>
    <v>       0.00000000       0.00000000       0.09433476 </v>
   </varray>
  </crystal>
  <varray name="positions" >
   <v>       0.13037890       0.82620466       0.40503472 </v>
   <v>       0.96371245       0.07620391       0.00000006 </v>
   <v>       0.79704571       0.42620403       0.08100699 </v>
   <v>       0.63037908       0.77620417       0.16201389 </v>
   <v>       0.46371227       0.12620449       0.24302086 </v>
   <v>       0.29704553       0.47620463       0.32402781 </v>
   <v>       0.46371227       0.82620466       0.40503472 </v>
   <v>       0.29704580       0.07620391       0.00000006 </v>
   <v>       0.13037908       0.42620403       0.08100699 </v>
   <v>       0.96371239       0.77620417       0.16201389 </v>
   <v>       0.79704559       0.12620449       0.24302086 </v>
   <v>       0.63037884       0.47620463       0.32402781 </v>
   <v>       0.79704559       0.82620466       0.40503472 </v>
   <v>       0.63037914       0.07620391       0.00000006 </v>
   <v>       0.46371242       0.42620403       0.08100699 </v>
   <v>       0.29704577       0.77620417       0.16201389 </v>
   <v>       0.13037898       0.12620449       0.24302086 </v>
   <v>       0.96371222       0.47620463       0.32402781 </v>
   <v>       0.21371222       0.57620478       0.40503463 </v>
   <v>       0.04704577       0.82620400       0.00000000 </v>
   <v>       0.88037908       0.17620420       0.08100697 </v>
   <v>       0.71371233       0.52620447       0.16201381 </v>
   <v>       0.54704559       0.87620461       0.24302079 </v>
   <v>       0.38037896       0.22620463       0.32402769 </v>
   <v>       0.54704559       0.57620478       0.40503463 </v>
   <v>       0.38037908       0.82620400       0.00000000 </v>
   <v>       0.21371238       0.17620420       0.08100697 </v>
   <v>       0.04704569       0.52620447       0.16201381 </v>
   <v>       0.88037896       0.87620461       0.24302079 </v>
   <v>       0.71371233       0.22620463       0.32402769 </v>
   <v>       0.88037890       0.57620478       0.40503463 </v>
   <v>       0.71371239       0.82620400       0.00000000 </v>
   <v>       0.54704571       0.17620420       0.08100697 </v>
   <v>       0.38037899       0.52620447       0.16201381 </v>
   <v>       0.21371223       0.87620461       0.24302079 </v>
   <v>       0.04704558       0.22620463       0.32402769 </v>
   <v>       0.13037890       0.32620478       0.40503472 </v>
   <v>       0.96371239       0.57620400       0.00000002 </v>
   <v>       0.79704571       0.92620414       0.08100694 </v>
   <v>       0.63037902       0.27620423       0.16201381 </v>
   <v>       0.46371227       0.62620449       0.24302086 </v>
   <v>       0.29704565       0.97620463       0.32402769 </v>
   <v>       0.46371227       0.32620478       0.40503472 </v>
   <v>       0.29704577       0.57620400       0.00000002 </v>
   <v>       0.13037905       0.92620414       0.08100694 </v>
   <v>       0.96371239       0.27620423       0.16201381 </v>
   <v>       0.79704559       0.62620449       0.24302086 </v>
   <v>       0.63037896       0.97620463       0.32402769 </v>
   <v>       0.79704559       0.32620478       0.40503472 </v>
   <v>       0.63037914       0.57620400       0.00000002 </v>
   <v>       0.46371239       0.92620414       0.08100694 </v>
   <v>       0.29704574       0.27620423       0.16201381 </v>
   <v>       0.13037898       0.62620449       0.24302086 </v>
   <v>       0.96371233       0.97620463       0.32402769 </v>
   <v>       0.21371222       0.07620478       0.40503460 </v>
   <v>       0.04704577       0.32620391       0.00000006 </v>
   <v>       0.88037908       0.67620403       0.08100695 </v>
   <v>       0.71371239       0.02620423       0.16201384 </v>
   <v>       0.54704559       0.37620449       0.24302079 </v>
   <v>       0.38037884       0.72620475       0.32402769 </v>
   <v>       0.54704559       0.07620478       0.40503460 </v>
   <v>       0.38037911       0.32620391       0.00000006 </v>
   <v>       0.21371241       0.67620403       0.08100695 </v>
   <v>       0.04704573       0.02620423       0.16201384 </v>
   <v>       0.88037896       0.37620449       0.24302079 </v>
   <v>       0.71371222       0.72620475       0.32402769 </v>
   <v>       0.88037896       0.07620478       0.40503460 </v>
   <v>       0.71371245       0.32620391       0.00000006 </v>
   <v>       0.54704577       0.67620403       0.08100695 </v>
   <v>       0.38037908       0.02620423       0.16201384 </v>
   <v>       0.21371229       0.37620449       0.24302079 </v>
   <v>       0.04704554       0.72620475       0.32402769 </v>
   <v>       0.70953399       0.98604769       0.54526639 </v>
   <v>       0.33453402       0.59715873       0.60816675 </v>
   <v>       0.95953405       0.20826984       0.67106712 </v>
   <v>       0.58453411       0.81938094       0.73396754 </v>
   <v>       0.20953417       0.43049198       0.79686785 </v>
   <v>       0.83453399       0.04160285       0.85976827 </v>
   <v>       0.20953405       0.98604769       0.54526639 </v>
   <v>       0.83453411       0.59715873       0.60816675 </v>
   <v>       0.45953405       0.20826977       0.67106712 </v>
   <v>       0.08453417       0.81938094       0.73396754 </v>
   <v>       0.70953423       0.43049198       0.79686785 </v>
   <v>       0.33453411       0.04160285       0.85976833 </v>
   <v>       0.08453393       0.73604763       0.54526639 </v>
   <v>       0.70953405       0.34715873       0.60816681 </v>
   <v>       0.33453408       0.95826977       0.67106718 </v>
   <v>       0.95953417       0.56938094       0.73396760 </v>
   <v>       0.58453429       0.18049204       0.79686791 </v>
   <v>       0.20953393       0.79160291       0.85976827 </v>
   <v>       0.58453399       0.73604763       0.54526639 </v>
   <v>       0.20953405       0.34715867       0.60816675 </v>
   <v>       0.83453405       0.95826972       0.67106712 </v>
   <v>       0.45953411       0.56938088       0.73396760 </v>
   <v>       0.08453417       0.18049192       0.79686785 </v>
   <v>       0.70953399       0.79160279       0.85976827 </v>
   <v>       0.83453399       0.73604763       0.54526639 </v>
   <v>       0.45953399       0.34715870       0.60816675 </v>
   <v>       0.08453405       0.95826972       0.67106712 </v>
   <v>       0.70953411       0.56938088       0.73396760 </v>
   <v>       0.33453423       0.18049198       0.79686785 </v>
   <v>       0.95953399       0.79160279       0.85976827 </v>
   <v>       0.33453399       0.73604763       0.54526639 </v>
   <v>       0.95953405       0.34715873       0.60816675 </v>
   <v>       0.58453405       0.95826977       0.67106712 </v>
   <v>       0.20953417       0.56938088       0.73396760 </v>
   <v>       0.83453423       0.18049198       0.79686785 </v>
   <v>       0.45953411       0.79160291       0.85976833 </v>
   <v>       0.95953393       0.98604769       0.54526639 </v>
   <v>       0.58453399       0.59715873       0.60816675 </v>
   <v>       0.20953393       0.20826984       0.67106712 </v>
   <v>       0.83453411       0.81938082       0.73396754 </v>
   <v>       0.45953423       0.43049198       0.79686785 </v>
   <v>       0.08453393       0.04160285       0.85976827 </v>
   <v>       0.45953399       0.98604769       0.54526639 </v>
   <v>       0.08453405       0.59715873       0.60816675 </v>
   <v>       0.70953411       0.20826984       0.67106718 </v>
   <v>       0.33453417       0.81938094       0.73396760 </v>
   <v>       0.95953423       0.43049198       0.79686785 </v>
   <v>       0.58453399       0.04160285       0.85976833 </v>
  </varray>
 </structure>
</modeling>
