 180 180   0   0
  0.2731342E+02  0.1451029E-08  0.1946760E-08  0.1740444E-08  0.5000000E-15
  1.000000000000000E-004
  CAR 
 Si and Ge interface calculation         
      5.64106991    -10.19040735  301      2.77441499      1.00000000
    -10.190  0.0000E+00  0.0000E+00  0.0000E+00  0.0000E+00
    -10.138  0.0000E+00  0.0000E+00  0.0000E+00  0.0000E+00
    -10.085  0.0000E+00  0.0000E+00  0.0000E+00  0.0000E+00
    -10.032  0.0000E+00  0.0000E+00  0.0000E+00  0.0000E+00
     -9.979  0.0000E+00  0.0000E+00  0.0000E+00  0.0000E+00
     -9.927  0.0000E+00  0.0000E+00  0.0000E+00  0.0000E+00
     -9.874  0.0000E+00  0.0000E+00  0.0000E+00  0.0000E+00
     -9.821  0.0000E+00  0.0000E+00  0.0000E+00  0.0000E+00
     -9.768  0.0000E+00  0.0000E+00  0.0000E+00  0.0000E+00
     -9.715  0.0000E+00  0.0000E+00  0.0000E+00  0.0000E+00
     -9.663  0.0000E+00  0.0000E+00  0.0000E+00  0.0000E+00
     -9.610  0.0000E+00  0.0000E+00  0.0000E+00  0.0000E+00
     -9.557  0.0000E+00  0.0000E+00  0.0000E+00  0.0000E+00
     -9.504  0.4925E-05  0.3025E-06  0.2599E-06  0.1596E-07
     -9.452  0.9340E+01  0.9042E+01  0.4929E+00  0.4771E+00
     -9.399  0.8422E+01  0.5073E+01  0.9374E+00  0.7449E+00
     -9.346  0.2945E+02  0.2965E+02  0.2491E+01  0.2310E+01
     -9.293  0.2480E+02  0.2560E+02  0.3800E+01  0.3660E+01
     -9.241  0.4239E+01  0.6538E+01  0.4024E+01  0.4005E+01
     -9.188  0.4484E+02  0.3764E+02  0.6390E+01  0.5992E+01
     -9.135  0.2381E+02  0.3016E+02  0.7647E+01  0.7583E+01
     -9.082  0.2404E+02  0.2330E+02  0.8916E+01  0.8813E+01
     -9.029  0.1106E+02  0.1299E+02  0.9500E+01  0.9498E+01
     -8.977  0.1846E+02  0.1755E+02  0.1047E+02  0.1042E+02
     -8.924  0.2068E+02  0.1409E+02  0.1156E+02  0.1117E+02
     -8.871  0.4101E+02  0.4733E+02  0.1373E+02  0.1367E+02
     -8.818  0.4387E+02  0.4153E+02  0.1604E+02  0.1586E+02
     -8.766  0.2090E+02  0.2329E+02  0.1715E+02  0.1709E+02
     -8.713  0.4251E+02  0.4038E+02  0.1939E+02  0.1922E+02
     -8.660  0.2754E+02  0.2819E+02  0.2084E+02  0.2071E+02
     -8.607  0.3275E+02  0.3275E+02  0.2257E+02  0.2243E+02
     -8.554  0.1800E+02  0.1973E+02  0.2352E+02  0.2347E+02
     -8.502  0.3763E+02  0.3765E+02  0.2551E+02  0.2546E+02
     -8.449  0.6485E+02  0.6334E+02  0.2893E+02  0.2880E+02
     -8.396  0.3876E+02  0.3772E+02  0.3098E+02  0.3079E+02
     -8.343  0.3594E+02  0.3800E+02  0.3287E+02  0.3280E+02
     -8.291  0.2471E+02  0.2349E+02  0.3418E+02  0.3404E+02
     -8.238  0.1562E+02  0.1820E+02  0.3500E+02  0.3500E+02
     -8.185  0.3890E+02  0.3200E+02  0.3705E+02  0.3669E+02
     -8.132  0.3804E+02  0.4416E+02  0.3906E+02  0.3902E+02
     -8.080  0.4596E+02  0.4254E+02  0.4149E+02  0.4126E+02
     -8.027  0.5736E+02  0.6109E+02  0.4451E+02  0.4449E+02
     -7.974  0.5681E+02  0.5065E+02  0.4751E+02  0.4716E+02
     -7.921  0.3842E+02  0.4174E+02  0.4954E+02  0.4936E+02
     -7.868  0.4850E+02  0.4669E+02  0.5210E+02  0.5183E+02
     -7.816  0.5793E+02  0.6057E+02  0.5515E+02  0.5502E+02
     -7.763  0.5442E+02  0.5159E+02  0.5803E+02  0.5775E+02
     -7.710  0.3969E+02  0.4362E+02  0.6012E+02  0.6005E+02
     -7.657  0.7091E+02  0.6542E+02  0.6386E+02  0.6350E+02
     -7.605  0.5323E+02  0.5700E+02  0.6667E+02  0.6651E+02
     -7.552  0.7600E+02  0.7109E+02  0.7068E+02  0.7026E+02
     -7.499  0.4635E+02  0.5153E+02  0.7313E+02  0.7298E+02
     -7.446  0.7597E+02  0.7428E+02  0.7714E+02  0.7690E+02
     -7.394  0.6693E+02  0.6576E+02  0.8067E+02  0.8037E+02
     -7.341  0.4888E+02  0.5079E+02  0.8325E+02  0.8305E+02
     -7.288  0.3841E+02  0.3745E+02  0.8528E+02  0.8502E+02
     -7.235  0.7429E+02  0.7747E+02  0.8920E+02  0.8911E+02
     -7.182  0.5357E+02  0.5207E+02  0.9202E+02  0.9186E+02
     -7.130  0.6178E+02  0.6136E+02  0.9528E+02  0.9510E+02
     -7.077  0.3041E+02  0.2816E+02  0.9689E+02  0.9659E+02
     -7.024  0.8528E+02  0.8246E+02  0.1014E+03  0.1009E+03
     -6.971  0.8892E+02  0.9129E+02  0.1061E+03  0.1058E+03
     -6.919  0.3377E+02  0.3518E+02  0.1079E+03  0.1076E+03
     -6.866  0.7264E+02  0.7514E+02  0.1117E+03  0.1116E+03
     -6.813  0.4720E+02  0.4465E+02  0.1142E+03  0.1139E+03
     -6.760  0.7801E+02  0.7585E+02  0.1183E+03  0.1179E+03
     -6.707  0.2985E+02  0.3245E+02  0.1199E+03  0.1196E+03
     -6.655  0.6197E+02  0.5941E+02  0.1231E+03  0.1228E+03
     -6.602  0.2687E+02  0.3234E+02  0.1246E+03  0.1245E+03
     -6.549  0.3444E+02  0.2980E+02  0.1264E+03  0.1261E+03
     -6.496  0.5203E+02  0.5162E+02  0.1291E+03  0.1288E+03
     -6.444  0.5441E+02  0.5837E+02  0.1320E+03  0.1319E+03
     -6.391  0.3913E+02  0.3956E+02  0.1341E+03  0.1340E+03
     -6.338  0.3800E+02  0.3369E+02  0.1361E+03  0.1357E+03
     -6.285  0.4255E+02  0.4689E+02  0.1383E+03  0.1382E+03
     -6.233  0.4278E+02  0.4369E+02  0.1406E+03  0.1405E+03
     -6.180  0.6535E+02  0.5791E+02  0.1440E+03  0.1436E+03
     -6.127  0.7164E+02  0.7507E+02  0.1478E+03  0.1475E+03
     -6.074  0.1942E+02  0.2326E+02  0.1488E+03  0.1488E+03
     -6.021  0.3201E+02  0.3204E+02  0.1505E+03  0.1504E+03
     -5.969  0.4732E+02  0.4396E+02  0.1530E+03  0.1528E+03
     -5.916  0.2440E+02  0.2683E+02  0.1543E+03  0.1542E+03
     -5.863  0.2273E+02  0.2492E+02  0.1555E+03  0.1555E+03
     -5.810  0.3085E+02  0.2917E+02  0.1571E+03  0.1570E+03
     -5.758  0.2892E+02  0.2439E+02  0.1587E+03  0.1583E+03
     -5.705  0.6368E+02  0.6682E+02  0.1620E+03  0.1619E+03
     -5.652  0.5648E+02  0.5225E+02  0.1650E+03  0.1646E+03
     -5.599  0.2560E+02  0.2875E+02  0.1664E+03  0.1661E+03
     -5.547  0.3728E+02  0.3773E+02  0.1683E+03  0.1681E+03
     -5.494  0.4315E+02  0.3588E+02  0.1706E+03  0.1700E+03
     -5.441  0.5026E+02  0.6037E+02  0.1732E+03  0.1732E+03
     -5.388  0.1462E+02  0.1527E+02  0.1740E+03  0.1740E+03
     -5.335  0.5446E+02  0.5230E+02  0.1769E+03  0.1768E+03
     -5.283  0.6038E+02  0.5752E+02  0.1801E+03  0.1798E+03
     -5.230  0.3020E+02  0.3354E+02  0.1817E+03  0.1816E+03
     -5.177  0.5913E+02  0.5955E+02  0.1848E+03  0.1847E+03
     -5.124  0.5449E+02  0.5199E+02  0.1877E+03  0.1875E+03
     -5.072  0.2330E+02  0.2502E+02  0.1889E+03  0.1888E+03
     -5.019  0.6685E+02  0.6366E+02  0.1924E+03  0.1921E+03
     -4.966  0.3683E+02  0.3841E+02  0.1944E+03  0.1942E+03
     -4.913  0.3998E+02  0.3960E+02  0.1965E+03  0.1962E+03
     -4.860  0.5663E+02  0.5550E+02  0.1995E+03  0.1992E+03
     -4.808  0.4901E+02  0.5335E+02  0.2021E+03  0.2020E+03
     -4.755  0.4823E+02  0.4739E+02  0.2046E+03  0.2045E+03
     -4.702  0.7046E+02  0.6467E+02  0.2083E+03  0.2079E+03
     -4.649  0.6638E+02  0.6748E+02  0.2118E+03  0.2115E+03
     -4.597  0.5488E+02  0.5902E+02  0.2147E+03  0.2146E+03
     -4.544  0.6080E+02  0.6104E+02  0.2179E+03  0.2178E+03
     -4.491  0.8207E+02  0.7655E+02  0.2223E+03  0.2218E+03
     -4.438  0.5296E+02  0.5983E+02  0.2251E+03  0.2250E+03
     -4.386  0.7301E+02  0.6650E+02  0.2289E+03  0.2285E+03
     -4.333  0.6616E+02  0.6800E+02  0.2324E+03  0.2321E+03
     -4.280  0.6566E+02  0.6746E+02  0.2359E+03  0.2357E+03
     -4.227  0.9577E+02  0.8904E+02  0.2409E+03  0.2404E+03
     -4.174  0.1066E+03  0.1070E+03  0.2465E+03  0.2460E+03
     -4.122  0.9890E+02  0.1023E+03  0.2518E+03  0.2514E+03
     -4.069  0.3753E+02  0.3780E+02  0.2537E+03  0.2534E+03
     -4.016  0.8752E+02  0.9126E+02  0.2584E+03  0.2582E+03
     -3.963  0.3794E+02  0.3577E+02  0.2604E+03  0.2601E+03
     -3.911  0.4590E+02  0.4434E+02  0.2628E+03  0.2624E+03
     -3.858  0.4356E+02  0.4492E+02  0.2651E+03  0.2648E+03
     -3.805  0.3587E+02  0.3734E+02  0.2670E+03  0.2668E+03
     -3.752  0.3986E+02  0.3951E+02  0.2691E+03  0.2689E+03
     -3.700  0.4312E+02  0.4388E+02  0.2714E+03  0.2712E+03
     -3.647  0.3866E+02  0.3829E+02  0.2734E+03  0.2732E+03
     -3.594  0.2555E+02  0.2339E+02  0.2747E+03  0.2744E+03
     -3.541  0.5595E+02  0.5753E+02  0.2777E+03  0.2775E+03
     -3.488  0.6261E+02  0.5918E+02  0.2810E+03  0.2806E+03
     -3.436  0.3416E+02  0.3681E+02  0.2828E+03  0.2825E+03
     -3.383  0.3858E+02  0.4233E+02  0.2848E+03  0.2848E+03
     -3.330  0.4993E+02  0.4417E+02  0.2875E+03  0.2871E+03
     -3.277  0.4554E+02  0.4925E+02  0.2899E+03  0.2897E+03
     -3.225  0.6252E+02  0.5982E+02  0.2932E+03  0.2929E+03
     -3.172  0.4133E+02  0.3951E+02  0.2954E+03  0.2949E+03
     -3.119  0.4836E+02  0.5383E+02  0.2979E+03  0.2978E+03
     -3.066  0.3684E+02  0.3558E+02  0.2998E+03  0.2997E+03
     -3.013  0.5411E+02  0.5318E+02  0.3027E+03  0.3025E+03
     -2.961  0.1835E+02  0.1971E+02  0.3037E+03  0.3035E+03
     -2.908  0.4377E+02  0.4342E+02  0.3060E+03  0.3058E+03
     -2.855  0.4922E+02  0.4636E+02  0.3086E+03  0.3083E+03
     -2.802  0.2754E+02  0.3065E+02  0.3100E+03  0.3099E+03
     -2.750  0.2776E+02  0.2984E+02  0.3115E+03  0.3114E+03
     -2.697  0.3338E+02  0.3116E+02  0.3133E+03  0.3131E+03
     -2.644  0.3219E+02  0.3050E+02  0.3150E+03  0.3147E+03
     -2.591  0.2788E+02  0.3064E+02  0.3164E+03  0.3163E+03
     -2.539  0.2599E+02  0.2423E+02  0.3178E+03  0.3176E+03
     -2.486  0.2737E+02  0.2810E+02  0.3192E+03  0.3191E+03
     -2.433  0.4208E+02  0.3896E+02  0.3215E+03  0.3211E+03
     -2.380  0.2891E+02  0.3057E+02  0.3230E+03  0.3227E+03
     -2.327  0.1491E+02  0.1639E+02  0.3238E+03  0.3236E+03
     -2.275  0.5268E+02  0.5161E+02  0.3266E+03  0.3263E+03
     -2.222  0.2513E+02  0.2693E+02  0.3279E+03  0.3278E+03
     -2.169  0.1109E+02  0.1292E+02  0.3285E+03  0.3284E+03
     -2.116  0.2920E+02  0.2195E+02  0.3300E+03  0.3296E+03
     -2.064  0.2352E+02  0.2850E+02  0.3313E+03  0.3311E+03
     -2.011  0.1394E+02  0.1618E+02  0.3320E+03  0.3320E+03
     -1.958  0.2379E+02  0.2298E+02  0.3332E+03  0.3332E+03
     -1.905  0.3788E+02  0.3324E+02  0.3352E+03  0.3349E+03
     -1.852  0.2859E+02  0.3458E+02  0.3368E+03  0.3367E+03
     -1.800  0.2083E+02  0.1812E+02  0.3378E+03  0.3377E+03
     -1.747  0.3123E+02  0.3210E+02  0.3395E+03  0.3394E+03
     -1.694  0.2321E+02  0.2158E+02  0.3407E+03  0.3405E+03
     -1.641  0.2210E+02  0.2407E+02  0.3419E+03  0.3418E+03
     -1.589  0.1201E+02  0.1131E+02  0.3425E+03  0.3424E+03
     -1.536  0.2328E+02  0.2555E+02  0.3438E+03  0.3437E+03
     -1.483  0.1951E+02  0.1877E+02  0.3448E+03  0.3447E+03
     -1.430  0.2579E+02  0.2531E+02  0.3461E+03  0.3461E+03
     -1.378  0.2246E+02  0.2051E+02  0.3473E+03  0.3472E+03
     -1.325  0.3601E+02  0.3442E+02  0.3492E+03  0.3490E+03
     -1.272  0.1671E+02  0.1832E+02  0.3501E+03  0.3499E+03
     -1.219  0.1603E+02  0.1821E+02  0.3510E+03  0.3509E+03
     -1.166  0.1788E+02  0.1760E+02  0.3519E+03  0.3518E+03
     -1.114  0.2936E+02  0.2685E+02  0.3534E+03  0.3532E+03
     -1.061  0.7401E+02  0.7527E+02  0.3574E+03  0.3572E+03
     -1.008  0.8740E+02  0.8300E+02  0.3620E+03  0.3616E+03
     -0.955  0.8776E+02  0.8638E+02  0.3666E+03  0.3662E+03
     -0.903  0.1171E+03  0.1174E+03  0.3728E+03  0.3724E+03
     -0.850  0.9950E+02  0.1031E+03  0.3780E+03  0.3778E+03
     -0.797  0.8523E+02  0.8458E+02  0.3825E+03  0.3823E+03
     -0.744  0.6350E+02  0.6190E+02  0.3859E+03  0.3855E+03
     -0.692  0.1312E+03  0.1235E+03  0.3928E+03  0.3920E+03
     -0.639  0.1199E+03  0.1272E+03  0.3991E+03  0.3988E+03
     -0.586  0.1063E+03  0.1069E+03  0.4047E+03  0.4044E+03
     -0.533  0.1002E+03  0.9734E+02  0.4100E+03  0.4095E+03
     -0.480  0.9047E+02  0.9507E+02  0.4148E+03  0.4145E+03
     -0.428  0.8092E+02  0.7749E+02  0.4191E+03  0.4186E+03
     -0.375  0.8742E+02  0.8951E+02  0.4237E+03  0.4234E+03
     -0.322  0.6353E+02  0.6141E+02  0.4270E+03  0.4266E+03
     -0.269  0.8531E+02  0.8268E+02  0.4315E+03  0.4310E+03
     -0.217  0.9351E+02  0.9457E+02  0.4365E+03  0.4360E+03
     -0.164  0.1241E+03  0.1236E+03  0.4430E+03  0.4425E+03
     -0.111  0.1262E+03  0.1226E+03  0.4497E+03  0.4489E+03
     -0.058  0.1122E+03  0.1176E+03  0.4556E+03  0.4552E+03
     -0.005  0.1196E+03  0.1149E+03  0.4619E+03  0.4612E+03
      0.047  0.1181E+03  0.1180E+03  0.4681E+03  0.4674E+03
      0.100  0.1431E+03  0.1435E+03  0.4757E+03  0.4750E+03
      0.153  0.1178E+03  0.1204E+03  0.4819E+03  0.4814E+03
      0.206  0.1399E+03  0.1380E+03  0.4893E+03  0.4887E+03
      0.258  0.1173E+03  0.1193E+03  0.4955E+03  0.4949E+03
      0.311  0.1297E+03  0.1306E+03  0.5023E+03  0.5018E+03
      0.364  0.1019E+03  0.1012E+03  0.5077E+03  0.5072E+03
      0.417  0.1237E+03  0.1251E+03  0.5142E+03  0.5138E+03
      0.469  0.1351E+03  0.1328E+03  0.5214E+03  0.5208E+03
      0.522  0.1336E+03  0.1335E+03  0.5284E+03  0.5278E+03
      0.575  0.9886E+02  0.1031E+03  0.5336E+03  0.5333E+03
      0.628  0.9440E+02  0.9299E+02  0.5386E+03  0.5382E+03
      0.681  0.9058E+02  0.8922E+02  0.5434E+03  0.5429E+03
      0.733  0.1076E+03  0.1071E+03  0.5491E+03  0.5485E+03
      0.786  0.1155E+03  0.1141E+03  0.5552E+03  0.5546E+03
      0.839  0.1364E+03  0.1345E+03  0.5624E+03  0.5617E+03
      0.892  0.9649E+02  0.1021E+03  0.5675E+03  0.5670E+03
      0.944  0.1031E+03  0.1028E+03  0.5729E+03  0.5725E+03
      0.997  0.1207E+03  0.1176E+03  0.5793E+03  0.5787E+03
      1.050  0.1128E+03  0.1116E+03  0.5852E+03  0.5846E+03
      1.103  0.1121E+03  0.1143E+03  0.5911E+03  0.5906E+03
      1.155  0.1019E+03  0.1044E+03  0.5965E+03  0.5961E+03
      1.208  0.7464E+02  0.7504E+02  0.6004E+03  0.6001E+03
      1.261  0.1270E+03  0.1251E+03  0.6071E+03  0.6067E+03
      1.314  0.9939E+02  0.1026E+03  0.6124E+03  0.6121E+03
      1.367  0.9146E+02  0.8412E+02  0.6172E+03  0.6165E+03
      1.419  0.6711E+02  0.7377E+02  0.6208E+03  0.6204E+03
      1.472  0.8619E+02  0.8543E+02  0.6253E+03  0.6249E+03
      1.525  0.9789E+02  0.9571E+02  0.6305E+03  0.6300E+03
      1.578  0.9067E+02  0.9204E+02  0.6353E+03  0.6348E+03
      1.630  0.5819E+02  0.6047E+02  0.6383E+03  0.6380E+03
      1.683  0.7141E+02  0.6831E+02  0.6421E+03  0.6416E+03
      1.736  0.6896E+02  0.6888E+02  0.6457E+03  0.6453E+03
      1.789  0.7679E+02  0.7909E+02  0.6498E+03  0.6494E+03
      1.842  0.8337E+02  0.7921E+02  0.6542E+03  0.6536E+03
      1.894  0.8468E+02  0.8419E+02  0.6587E+03  0.6581E+03
      1.947  0.6641E+02  0.7323E+02  0.6622E+03  0.6619E+03
      2.000  0.7425E+02  0.7215E+02  0.6661E+03  0.6657E+03
      2.053  0.7948E+02  0.7843E+02  0.6703E+03  0.6699E+03
      2.105  0.6406E+02  0.5366E+02  0.6737E+03  0.6727E+03
      2.158  0.5675E+02  0.6695E+02  0.6766E+03  0.6762E+03
      2.211  0.8421E+02  0.7756E+02  0.6811E+03  0.6803E+03
      2.264  0.6330E+02  0.6226E+02  0.6844E+03  0.6836E+03
      2.316  0.6491E+02  0.6686E+02  0.6879E+03  0.6871E+03
      2.369  0.6647E+02  0.6704E+02  0.6914E+03  0.6907E+03
      2.422  0.1005E+03  0.9816E+02  0.6967E+03  0.6959E+03
      2.475  0.7788E+02  0.8561E+02  0.7008E+03  0.7004E+03
      2.528  0.7540E+02  0.7359E+02  0.7048E+03  0.7043E+03
      2.580  0.6179E+02  0.5838E+02  0.7080E+03  0.7073E+03
      2.633  0.7451E+02  0.7610E+02  0.7120E+03  0.7114E+03
      2.686  0.5829E+02  0.5413E+02  0.7150E+03  0.7142E+03
      2.739  0.5512E+02  0.5897E+02  0.7179E+03  0.7173E+03
      2.791  0.6050E+02  0.5930E+02  0.7211E+03  0.7205E+03
      2.844  0.6304E+02  0.6729E+02  0.7245E+03  0.7240E+03
      2.897  0.3605E+02  0.3664E+02  0.7264E+03  0.7259E+03
      2.950  0.4690E+02  0.4456E+02  0.7288E+03  0.7283E+03
      3.002  0.7580E+02  0.7611E+02  0.7328E+03  0.7323E+03
      3.055  0.6683E+02  0.6441E+02  0.7364E+03  0.7357E+03
      3.108  0.5074E+02  0.5061E+02  0.7390E+03  0.7384E+03
      3.161  0.5168E+02  0.5433E+02  0.7418E+03  0.7413E+03
      3.214  0.7072E+02  0.6099E+02  0.7455E+03  0.7445E+03
      3.266  0.7338E+02  0.7379E+02  0.7494E+03  0.7484E+03
      3.319  0.5179E+02  0.5761E+02  0.7521E+03  0.7514E+03
      3.372  0.4261E+02  0.5391E+02  0.7544E+03  0.7542E+03
      3.425  0.4459E+02  0.3660E+02  0.7567E+03  0.7562E+03
      3.477  0.5432E+02  0.5938E+02  0.7596E+03  0.7593E+03
      3.530  0.5057E+02  0.4532E+02  0.7622E+03  0.7617E+03
      3.583  0.5923E+02  0.6081E+02  0.7654E+03  0.7649E+03
      3.636  0.4708E+02  0.5020E+02  0.7679E+03  0.7676E+03
      3.689  0.4764E+02  0.4795E+02  0.7704E+03  0.7701E+03
      3.741  0.5853E+02  0.6120E+02  0.7735E+03  0.7733E+03
      3.794  0.4343E+02  0.3792E+02  0.7757E+03  0.7753E+03
      3.847  0.3667E+02  0.4210E+02  0.7777E+03  0.7775E+03
      3.900  0.4455E+02  0.4259E+02  0.7800E+03  0.7798E+03
      3.952  0.6942E+02  0.6643E+02  0.7837E+03  0.7833E+03
      4.005  0.7218E+02  0.7128E+02  0.7875E+03  0.7871E+03
      4.058  0.5986E+02  0.6397E+02  0.7907E+03  0.7904E+03
      4.111  0.6699E+02  0.6441E+02  0.7942E+03  0.7938E+03
      4.163  0.8293E+02  0.8277E+02  0.7986E+03  0.7982E+03
      4.216  0.8527E+02  0.8714E+02  0.8031E+03  0.8028E+03
      4.269  0.8927E+02  0.8865E+02  0.8078E+03  0.8075E+03
      4.322  0.8311E+02  0.8229E+02  0.8122E+03  0.8118E+03
      4.375  0.1079E+03  0.1077E+03  0.8179E+03  0.8175E+03
      4.427  0.8710E+02  0.8413E+02  0.8225E+03  0.8219E+03
      4.480  0.1096E+03  0.1115E+03  0.8282E+03  0.8278E+03
      4.533  0.9258E+02  0.9485E+02  0.8331E+03  0.8328E+03
      4.586  0.1110E+03  0.1067E+03  0.8390E+03  0.8385E+03
      4.638  0.1332E+03  0.1354E+03  0.8460E+03  0.8456E+03
      4.691  0.1075E+03  0.1042E+03  0.8517E+03  0.8511E+03
      4.744  0.9126E+02  0.9230E+02  0.8565E+03  0.8560E+03
      4.797  0.8075E+02  0.8728E+02  0.8608E+03  0.8606E+03
      4.849  0.4505E+02  0.4908E+02  0.8631E+03  0.8632E+03
      4.902  0.1145E+02  0.7121E+01  0.8638E+03  0.8636E+03
      4.955  0.4716E+01  0.8433E+01  0.8640E+03  0.8640E+03
      5.008  0.0000E+00  0.0000E+00  0.8640E+03  0.8640E+03
      5.061  0.0000E+00  0.0000E+00  0.8640E+03  0.8640E+03
      5.113  0.0000E+00  0.0000E+00  0.8640E+03  0.8640E+03
      5.166  0.0000E+00  0.0000E+00  0.8640E+03  0.8640E+03
      5.219  0.0000E+00  0.0000E+00  0.8640E+03  0.8640E+03
      5.272  0.0000E+00  0.0000E+00  0.8640E+03  0.8640E+03
      5.324  0.0000E+00  0.0000E+00  0.8640E+03  0.8640E+03
      5.377  0.0000E+00  0.0000E+00  0.8640E+03  0.8640E+03
      5.430  0.0000E+00  0.0000E+00  0.8640E+03  0.8640E+03
      5.483  0.0000E+00  0.0000E+00  0.8640E+03  0.8640E+03
      5.536  0.0000E+00  0.0000E+00  0.8640E+03  0.8640E+03
      5.588  0.0000E+00  0.0000E+00  0.8640E+03  0.8640E+03
      5.641  0.0000E+00  0.0000E+00  0.8640E+03  0.8640E+03
