 264 264   0   0
  0.2770664E+02  0.1946760E-08  0.1946760E-08  0.1930025E-08  0.5000000E-15
  1.000000000000000E-004
  CAR 
 Si and Ge interface calculation         
      6.64019498     -8.87814627  301      4.06335580      1.00000000
     -8.878  0.0000E+00  0.0000E+00  0.0000E+00  0.0000E+00
     -8.826  0.0000E+00  0.0000E+00  0.0000E+00  0.0000E+00
     -8.775  0.0000E+00  0.0000E+00  0.0000E+00  0.0000E+00
     -8.723  0.0000E+00  0.0000E+00  0.0000E+00  0.0000E+00
     -8.671  0.0000E+00  0.0000E+00  0.0000E+00  0.0000E+00
     -8.620  0.0000E+00  0.0000E+00  0.0000E+00  0.0000E+00
     -8.568  0.0000E+00  0.0000E+00  0.0000E+00  0.0000E+00
     -8.516  0.0000E+00  0.0000E+00  0.0000E+00  0.0000E+00
     -8.464  0.0000E+00  0.0000E+00  0.0000E+00  0.0000E+00
     -8.413  0.0000E+00  0.0000E+00  0.0000E+00  0.0000E+00
     -8.361  0.0000E+00  0.0000E+00  0.0000E+00  0.0000E+00
     -8.309  0.0000E+00  0.0000E+00  0.0000E+00  0.0000E+00
     -8.257  0.0000E+00  0.0000E+00  0.0000E+00  0.0000E+00
     -8.206  0.1535E-04  0.4404E-05  0.7942E-06  0.2278E-06
     -8.154  0.9635E+01  0.9591E+01  0.4984E+00  0.4961E+00
     -8.102  0.1745E+02  0.1672E+02  0.1401E+01  0.1361E+01
     -8.051  0.2121E+02  0.2194E+02  0.2498E+01  0.2496E+01
     -7.999  0.1929E+02  0.1925E+02  0.3496E+01  0.3491E+01
     -7.947  0.2549E+01  0.1930E+01  0.3628E+01  0.3591E+01
     -7.895  0.1687E+02  0.1757E+02  0.4500E+01  0.4500E+01
     -7.844  0.1801E+02  0.1664E+02  0.5432E+01  0.5361E+01
     -7.792  0.2987E+02  0.2949E+02  0.6977E+01  0.6886E+01
     -7.740  0.2554E+02  0.2636E+02  0.8298E+01  0.8250E+01
     -7.688  0.3095E+02  0.3094E+02  0.9899E+01  0.9850E+01
     -7.637  0.1157E+02  0.1248E+02  0.1050E+02  0.1050E+02
     -7.585  0.4070E-01  0.8457E-01  0.1050E+02  0.1050E+02
     -7.533  0.1832E+01  0.1238E+01  0.1059E+02  0.1056E+02
     -7.481  0.1649E+02  0.1561E+02  0.1145E+02  0.1137E+02
     -7.430  0.5114E+02  0.5151E+02  0.1409E+02  0.1404E+02
     -7.378  0.1757E+02  0.1865E+02  0.1500E+02  0.1500E+02
     -7.326  0.1940E+02  0.1925E+02  0.1601E+02  0.1600E+02
     -7.275  0.2434E+02  0.2339E+02  0.1726E+02  0.1721E+02
     -7.223  0.4525E+02  0.4527E+02  0.1961E+02  0.1955E+02
     -7.171  0.7687E+01  0.8754E+01  0.2000E+02  0.2000E+02
     -7.119  0.3809E+02  0.3769E+02  0.2197E+02  0.2195E+02
     -7.068  0.3688E+02  0.3596E+02  0.2388E+02  0.2381E+02
     -7.016  0.4548E+02  0.4250E+02  0.2623E+02  0.2601E+02
     -6.964  0.3729E+02  0.4010E+02  0.2816E+02  0.2808E+02
     -6.912  0.3115E+02  0.3092E+02  0.2977E+02  0.2968E+02
     -6.861  0.3152E+02  0.3116E+02  0.3140E+02  0.3130E+02
     -6.809  0.4637E+02  0.4623E+02  0.3380E+02  0.3369E+02
     -6.757  0.3526E+02  0.3647E+02  0.3563E+02  0.3557E+02
     -6.706  0.4841E+02  0.4608E+02  0.3813E+02  0.3796E+02
     -6.654  0.6389E+02  0.6369E+02  0.4144E+02  0.4125E+02
     -6.602  0.5116E+02  0.5257E+02  0.4408E+02  0.4397E+02
     -6.550  0.4676E+02  0.4890E+02  0.4650E+02  0.4650E+02
     -6.499  0.2627E+02  0.2508E+02  0.4786E+02  0.4780E+02
     -6.447  0.4095E+02  0.3942E+02  0.4998E+02  0.4984E+02
     -6.395  0.4790E+02  0.4896E+02  0.5246E+02  0.5237E+02
     -6.343  0.4825E+02  0.4910E+02  0.5495E+02  0.5491E+02
     -6.292  0.1486E+02  0.1253E+02  0.5572E+02  0.5556E+02
     -6.240  0.3997E+02  0.3953E+02  0.5779E+02  0.5760E+02
     -6.188  0.7018E+02  0.7284E+02  0.6142E+02  0.6137E+02
     -6.137  0.5944E+02  0.5460E+02  0.6449E+02  0.6419E+02
     -6.085  0.8622E+02  0.8986E+02  0.6895E+02  0.6884E+02
     -6.033  0.8236E+02  0.8070E+02  0.7321E+02  0.7302E+02
     -5.981  0.8269E+02  0.8442E+02  0.7749E+02  0.7738E+02
     -5.930  0.3793E+02  0.3934E+02  0.7945E+02  0.7942E+02
     -5.878  0.6445E+02  0.6197E+02  0.8279E+02  0.8263E+02
     -5.826  0.7084E+02  0.6899E+02  0.8645E+02  0.8619E+02
     -5.774  0.7872E+02  0.8042E+02  0.9052E+02  0.9035E+02
     -5.723  0.6918E+02  0.7049E+02  0.9410E+02  0.9400E+02
     -5.671  0.8455E+02  0.8050E+02  0.9847E+02  0.9816E+02
     -5.619  0.7231E+02  0.7478E+02  0.1022E+03  0.1020E+03
     -5.568  0.8612E+02  0.8323E+02  0.1067E+03  0.1063E+03
     -5.516  0.8112E+02  0.8350E+02  0.1109E+03  0.1107E+03
     -5.464  0.6011E+02  0.6002E+02  0.1140E+03  0.1138E+03
     -5.412  0.6995E+02  0.7139E+02  0.1176E+03  0.1175E+03
     -5.361  0.6908E+02  0.6721E+02  0.1212E+03  0.1209E+03
     -5.309  0.9594E+02  0.9656E+02  0.1261E+03  0.1259E+03
     -5.257  0.8758E+02  0.8653E+02  0.1307E+03  0.1304E+03
     -5.205  0.6152E+02  0.6434E+02  0.1338E+03  0.1337E+03
     -5.154  0.7402E+02  0.7404E+02  0.1377E+03  0.1376E+03
     -5.102  0.5115E+02  0.5107E+02  0.1403E+03  0.1402E+03
     -5.050  0.1028E+03  0.1019E+03  0.1456E+03  0.1455E+03
     -4.999  0.6562E+02  0.6359E+02  0.1490E+03  0.1488E+03
     -4.947  0.5459E+02  0.5811E+02  0.1519E+03  0.1518E+03
     -4.895  0.5889E+02  0.5600E+02  0.1549E+03  0.1547E+03
     -4.843  0.9067E+02  0.9010E+02  0.1596E+03  0.1593E+03
     -4.792  0.1079E+03  0.1077E+03  0.1652E+03  0.1649E+03
     -4.740  0.1000E+03  0.9831E+02  0.1703E+03  0.1700E+03
     -4.688  0.1255E+03  0.1243E+03  0.1768E+03  0.1764E+03
     -4.636  0.1066E+03  0.1083E+03  0.1823E+03  0.1820E+03
     -4.585  0.1033E+03  0.1043E+03  0.1877E+03  0.1874E+03
     -4.533  0.1057E+03  0.1053E+03  0.1932E+03  0.1929E+03
     -4.481  0.1127E+03  0.1098E+03  0.1990E+03  0.1985E+03
     -4.430  0.1084E+03  0.1107E+03  0.2046E+03  0.2043E+03
     -4.378  0.7509E+02  0.7693E+02  0.2085E+03  0.2082E+03
     -4.326  0.9194E+02  0.9041E+02  0.2132E+03  0.2129E+03
     -4.274  0.7002E+02  0.7218E+02  0.2169E+03  0.2167E+03
     -4.223  0.7991E+02  0.7814E+02  0.2210E+03  0.2207E+03
     -4.171  0.9128E+02  0.9038E+02  0.2257E+03  0.2254E+03
     -4.119  0.7235E+02  0.7652E+02  0.2295E+03  0.2293E+03
     -4.067  0.5284E+02  0.5234E+02  0.2322E+03  0.2320E+03
     -4.016  0.6036E+02  0.6117E+02  0.2353E+03  0.2352E+03
     -3.964  0.5953E+02  0.5694E+02  0.2384E+03  0.2381E+03
     -3.912  0.8504E+02  0.8491E+02  0.2428E+03  0.2425E+03
     -3.861  0.6674E+02  0.6627E+02  0.2462E+03  0.2460E+03
     -3.809  0.5411E+02  0.5631E+02  0.2490E+03  0.2489E+03
     -3.757  0.5784E+02  0.5567E+02  0.2520E+03  0.2518E+03
     -3.705  0.7131E+02  0.7188E+02  0.2557E+03  0.2555E+03
     -3.654  0.5707E+02  0.5964E+02  0.2587E+03  0.2586E+03
     -3.602  0.8142E+02  0.7645E+02  0.2629E+03  0.2625E+03
     -3.550  0.4137E+02  0.4705E+02  0.2650E+03  0.2650E+03
     -3.498  0.4720E+02  0.4399E+02  0.2675E+03  0.2672E+03
     -3.447  0.9443E+02  0.9529E+02  0.2723E+03  0.2722E+03
     -3.395  0.7166E+02  0.6750E+02  0.2761E+03  0.2756E+03
     -3.343  0.8592E+02  0.9083E+02  0.2805E+03  0.2803E+03
     -3.292  0.6453E+02  0.6155E+02  0.2838E+03  0.2835E+03
     -3.240  0.8500E+02  0.8406E+02  0.2882E+03  0.2879E+03
     -3.188  0.8657E+02  0.8584E+02  0.2927E+03  0.2923E+03
     -3.136  0.7771E+02  0.7988E+02  0.2967E+03  0.2965E+03
     -3.085  0.7419E+02  0.7560E+02  0.3006E+03  0.3004E+03
     -3.033  0.6380E+02  0.6439E+02  0.3039E+03  0.3037E+03
     -2.981  0.6146E+02  0.6191E+02  0.3071E+03  0.3069E+03
     -2.929  0.9347E+02  0.8973E+02  0.3119E+03  0.3115E+03
     -2.878  0.1050E+03  0.1027E+03  0.3173E+03  0.3168E+03
     -2.826  0.7760E+02  0.8473E+02  0.3213E+03  0.3212E+03
     -2.774  0.7723E+02  0.7217E+02  0.3253E+03  0.3250E+03
     -2.723  0.1032E+03  0.1050E+03  0.3307E+03  0.3304E+03
     -2.671  0.1049E+03  0.1055E+03  0.3361E+03  0.3359E+03
     -2.619  0.8795E+02  0.8731E+02  0.3406E+03  0.3404E+03
     -2.567  0.1206E+03  0.1191E+03  0.3469E+03  0.3465E+03
     -2.516  0.1319E+03  0.1322E+03  0.3537E+03  0.3534E+03
     -2.464  0.1025E+03  0.1038E+03  0.3590E+03  0.3587E+03
     -2.412  0.8682E+02  0.8708E+02  0.3635E+03  0.3632E+03
     -2.360  0.1001E+03  0.9881E+02  0.3687E+03  0.3684E+03
     -2.309  0.9733E+02  0.9654E+02  0.3737E+03  0.3733E+03
     -2.257  0.1038E+03  0.1046E+03  0.3791E+03  0.3788E+03
     -2.205  0.6467E+02  0.6727E+02  0.3824E+03  0.3822E+03
     -2.154  0.2828E+02  0.3031E+02  0.3839E+03  0.3838E+03
     -2.102  0.5750E+02  0.5487E+02  0.3869E+03  0.3866E+03
     -2.050  0.6866E+02  0.6866E+02  0.3904E+03  0.3902E+03
     -1.998  0.7862E+02  0.7685E+02  0.3945E+03  0.3942E+03
     -1.947  0.1092E+03  0.1086E+03  0.4001E+03  0.3998E+03
     -1.895  0.1048E+03  0.1063E+03  0.4055E+03  0.4053E+03
     -1.843  0.5865E+02  0.5988E+02  0.4086E+03  0.4084E+03
     -1.791  0.8309E+02  0.8175E+02  0.4129E+03  0.4126E+03
     -1.740  0.9296E+02  0.9271E+02  0.4177E+03  0.4174E+03
     -1.688  0.1086E+03  0.1074E+03  0.4233E+03  0.4230E+03
     -1.636  0.8072E+02  0.8293E+02  0.4275E+03  0.4273E+03
     -1.585  0.6335E+02  0.6469E+02  0.4308E+03  0.4306E+03
     -1.533  0.1005E+03  0.9854E+02  0.4360E+03  0.4357E+03
     -1.481  0.6082E+02  0.6221E+02  0.4391E+03  0.4389E+03
     -1.429  0.5219E+02  0.5458E+02  0.4418E+03  0.4417E+03
     -1.378  0.5739E+02  0.5264E+02  0.4448E+03  0.4445E+03
     -1.326  0.7040E+02  0.7332E+02  0.4484E+03  0.4483E+03
     -1.274  0.4972E+02  0.4933E+02  0.4510E+03  0.4508E+03
     -1.222  0.4836E+02  0.4857E+02  0.4535E+03  0.4533E+03
     -1.171  0.5672E+02  0.5734E+02  0.4564E+03  0.4563E+03
     -1.119  0.4848E+02  0.4467E+02  0.4589E+03  0.4586E+03
     -1.067  0.5478E+02  0.5864E+02  0.4618E+03  0.4616E+03
     -1.016  0.6035E+02  0.5811E+02  0.4649E+03  0.4646E+03
     -0.964  0.3732E+02  0.4148E+02  0.4668E+03  0.4668E+03
     -0.912  0.3324E+02  0.3087E+02  0.4685E+03  0.4684E+03
     -0.860  0.6880E+02  0.6920E+02  0.4721E+03  0.4720E+03
     -0.809  0.6862E+02  0.6607E+02  0.4756E+03  0.4754E+03
     -0.757  0.6004E+02  0.6192E+02  0.4787E+03  0.4786E+03
     -0.705  0.4678E+02  0.4555E+02  0.4812E+03  0.4809E+03
     -0.653  0.7860E+02  0.7718E+02  0.4852E+03  0.4849E+03
     -0.602  0.3507E+02  0.3955E+02  0.4870E+03  0.4870E+03
     -0.550  0.3607E+02  0.3557E+02  0.4889E+03  0.4888E+03
     -0.498  0.1337E+02  0.1371E+02  0.4896E+03  0.4895E+03
     -0.447  0.3181E+02  0.3159E+02  0.4913E+03  0.4912E+03
     -0.395  0.3923E+02  0.3924E+02  0.4933E+03  0.4932E+03
     -0.343  0.4918E+02  0.4781E+02  0.4958E+03  0.4957E+03
     -0.291  0.9567E+02  0.9679E+02  0.5008E+03  0.5007E+03
     -0.240  0.6467E+02  0.6271E+02  0.5041E+03  0.5039E+03
     -0.188  0.7949E+02  0.7916E+02  0.5082E+03  0.5080E+03
     -0.136  0.1020E+03  0.9920E+02  0.5135E+03  0.5131E+03
     -0.084  0.1143E+03  0.1163E+03  0.5194E+03  0.5191E+03
     -0.033  0.1225E+03  0.1191E+03  0.5258E+03  0.5253E+03
      0.019  0.1101E+03  0.1137E+03  0.5315E+03  0.5312E+03
      0.071  0.1572E+03  0.1546E+03  0.5396E+03  0.5392E+03
      0.122  0.1430E+03  0.1462E+03  0.5470E+03  0.5468E+03
      0.174  0.7923E+02  0.8011E+02  0.5511E+03  0.5509E+03
      0.226  0.7545E+02  0.7471E+02  0.5550E+03  0.5548E+03
      0.278  0.9523E+02  0.9517E+02  0.5599E+03  0.5597E+03
      0.329  0.7934E+02  0.8034E+02  0.5640E+03  0.5638E+03
      0.381  0.7910E+02  0.7607E+02  0.5681E+03  0.5678E+03
      0.433  0.1114E+03  0.1127E+03  0.5739E+03  0.5736E+03
      0.485  0.7592E+02  0.7777E+02  0.5778E+03  0.5776E+03
      0.536  0.1120E+03  0.1092E+03  0.5836E+03  0.5833E+03
      0.588  0.1364E+03  0.1355E+03  0.5906E+03  0.5903E+03
      0.640  0.1371E+03  0.1362E+03  0.5977E+03  0.5973E+03
      0.691  0.1386E+03  0.1392E+03  0.6049E+03  0.6045E+03
      0.743  0.1239E+03  0.1263E+03  0.6113E+03  0.6111E+03
      0.795  0.1199E+03  0.1201E+03  0.6175E+03  0.6173E+03
      0.847  0.1095E+03  0.1104E+03  0.6232E+03  0.6230E+03
      0.898  0.9982E+02  0.9937E+02  0.6283E+03  0.6281E+03
      0.950  0.9308E+02  0.9073E+02  0.6332E+03  0.6328E+03
      1.002  0.1130E+03  0.1132E+03  0.6390E+03  0.6387E+03
      1.054  0.1554E+03  0.1516E+03  0.6470E+03  0.6465E+03
      1.105  0.1442E+03  0.1489E+03  0.6545E+03  0.6542E+03
      1.157  0.1535E+03  0.1509E+03  0.6624E+03  0.6620E+03
      1.209  0.1673E+03  0.1658E+03  0.6711E+03  0.6706E+03
      1.261  0.1806E+03  0.1813E+03  0.6804E+03  0.6800E+03
      1.312  0.1842E+03  0.1828E+03  0.6900E+03  0.6894E+03
      1.364  0.1968E+03  0.1981E+03  0.7001E+03  0.6997E+03
      1.416  0.1532E+03  0.1548E+03  0.7081E+03  0.7077E+03
      1.467  0.1431E+03  0.1416E+03  0.7155E+03  0.7150E+03
      1.519  0.2176E+03  0.2126E+03  0.7267E+03  0.7260E+03
      1.571  0.2010E+03  0.2020E+03  0.7371E+03  0.7365E+03
      1.623  0.1857E+03  0.1908E+03  0.7467E+03  0.7463E+03
      1.674  0.1610E+03  0.1574E+03  0.7551E+03  0.7545E+03
      1.726  0.1936E+03  0.1920E+03  0.7651E+03  0.7644E+03
      1.778  0.1770E+03  0.1817E+03  0.7742E+03  0.7738E+03
      1.830  0.1858E+03  0.1822E+03  0.7838E+03  0.7832E+03
      1.881  0.1550E+03  0.1545E+03  0.7919E+03  0.7912E+03
      1.933  0.1963E+03  0.1949E+03  0.8020E+03  0.8013E+03
      1.985  0.1944E+03  0.1976E+03  0.8121E+03  0.8115E+03
      2.036  0.1663E+03  0.1649E+03  0.8207E+03  0.8201E+03
      2.088  0.1734E+03  0.1757E+03  0.8296E+03  0.8291E+03
      2.140  0.1842E+03  0.1810E+03  0.8392E+03  0.8385E+03
      2.192  0.1835E+03  0.1875E+03  0.8487E+03  0.8482E+03
      2.243  0.1576E+03  0.1548E+03  0.8568E+03  0.8562E+03
      2.295  0.1817E+03  0.1832E+03  0.8662E+03  0.8657E+03
      2.347  0.1511E+03  0.1492E+03  0.8740E+03  0.8734E+03
      2.399  0.2113E+03  0.2119E+03  0.8850E+03  0.8844E+03
      2.450  0.1566E+03  0.1573E+03  0.8931E+03  0.8925E+03
      2.502  0.1527E+03  0.1530E+03  0.9010E+03  0.9004E+03
      2.554  0.1564E+03  0.1558E+03  0.9091E+03  0.9085E+03
      2.605  0.1390E+03  0.1398E+03  0.9162E+03  0.9157E+03
      2.657  0.1106E+03  0.1145E+03  0.9220E+03  0.9216E+03
      2.709  0.1614E+03  0.1545E+03  0.9303E+03  0.9296E+03
      2.761  0.1272E+03  0.1334E+03  0.9369E+03  0.9365E+03
      2.812  0.1526E+03  0.1472E+03  0.9448E+03  0.9441E+03
      2.864  0.1510E+03  0.1529E+03  0.9526E+03  0.9521E+03
      2.916  0.1261E+03  0.1269E+03  0.9591E+03  0.9586E+03
      2.968  0.9631E+02  0.9648E+02  0.9641E+03  0.9636E+03
      3.019  0.1316E+03  0.1295E+03  0.9709E+03  0.9703E+03
      3.071  0.1317E+03  0.1354E+03  0.9777E+03  0.9773E+03
      3.123  0.1235E+03  0.1199E+03  0.9841E+03  0.9835E+03
      3.174  0.9749E+02  0.9566E+02  0.9892E+03  0.9885E+03
      3.226  0.1114E+03  0.1155E+03  0.9949E+03  0.9944E+03
      3.278  0.1100E+03  0.1061E+03  0.1001E+04  0.9999E+03
      3.330  0.1107E+03  0.1169E+03  0.1006E+04  0.1006E+04
      3.381  0.7451E+02  0.7455E+02  0.1010E+04  0.1010E+04
      3.433  0.8425E+02  0.8363E+02  0.1015E+04  0.1014E+04
      3.485  0.8685E+02  0.8631E+02  0.1019E+04  0.1019E+04
      3.537  0.8234E+02  0.8100E+02  0.1023E+04  0.1023E+04
      3.588  0.8108E+02  0.8391E+02  0.1027E+04  0.1027E+04
      3.640  0.8163E+02  0.8366E+02  0.1032E+04  0.1031E+04
      3.692  0.3718E+02  0.3642E+02  0.1034E+04  0.1033E+04
      3.743  0.6867E+02  0.6693E+02  0.1037E+04  0.1037E+04
      3.795  0.4761E+02  0.5069E+02  0.1040E+04  0.1039E+04
      3.847  0.5490E+02  0.5451E+02  0.1042E+04  0.1042E+04
      3.899  0.3792E+02  0.3577E+02  0.1044E+04  0.1044E+04
      3.950  0.4194E+02  0.3485E+02  0.1047E+04  0.1046E+04
      4.002  0.7466E+02  0.8051E+02  0.1050E+04  0.1050E+04
      4.054  0.9135E+02  0.7431E+02  0.1055E+04  0.1054E+04
      4.106  0.8489E+02  0.9471E+02  0.1060E+04  0.1059E+04
      4.157  0.1239E+03  0.1202E+03  0.1066E+04  0.1065E+04
      4.209  0.9382E+02  0.9331E+02  0.1071E+04  0.1070E+04
      4.261  0.9936E+02  0.9391E+02  0.1076E+04  0.1075E+04
      4.312  0.7790E+02  0.9300E+02  0.1080E+04  0.1080E+04
      4.364  0.1195E+03  0.1101E+03  0.1086E+04  0.1085E+04
      4.416  0.1267E+03  0.1294E+03  0.1093E+04  0.1092E+04
      4.468  0.1105E+03  0.1132E+03  0.1098E+04  0.1098E+04
      4.519  0.1015E+03  0.1007E+03  0.1104E+04  0.1103E+04
      4.571  0.1148E+03  0.1116E+03  0.1110E+04  0.1109E+04
      4.623  0.1011E+03  0.1055E+03  0.1115E+04  0.1114E+04
      4.675  0.1144E+03  0.1153E+03  0.1121E+04  0.1120E+04
      4.726  0.1382E+03  0.1383E+03  0.1128E+04  0.1127E+04
      4.778  0.1137E+03  0.1145E+03  0.1134E+04  0.1133E+04
      4.830  0.1433E+03  0.1459E+03  0.1141E+04  0.1141E+04
      4.881  0.1053E+03  0.1048E+03  0.1147E+04  0.1146E+04
      4.933  0.1206E+03  0.1193E+03  0.1153E+04  0.1152E+04
      4.985  0.1118E+03  0.1075E+03  0.1159E+04  0.1158E+04
      5.037  0.1236E+03  0.1240E+03  0.1165E+04  0.1164E+04
      5.088  0.1301E+03  0.1261E+03  0.1172E+04  0.1171E+04
      5.140  0.1106E+03  0.1189E+03  0.1178E+04  0.1177E+04
      5.192  0.8908E+02  0.8912E+02  0.1182E+04  0.1182E+04
      5.244  0.1059E+03  0.1085E+03  0.1188E+04  0.1187E+04
      5.295  0.9150E+02  0.9058E+02  0.1192E+04  0.1192E+04
      5.347  0.1168E+03  0.1156E+03  0.1198E+04  0.1198E+04
      5.399  0.1334E+03  0.1314E+03  0.1205E+04  0.1205E+04
      5.450  0.1422E+03  0.1449E+03  0.1213E+04  0.1212E+04
      5.502  0.1425E+03  0.1415E+03  0.1220E+04  0.1220E+04
      5.554  0.1580E+03  0.1547E+03  0.1228E+04  0.1228E+04
      5.606  0.1369E+03  0.1399E+03  0.1235E+04  0.1235E+04
      5.657  0.1243E+03  0.1237E+03  0.1242E+04  0.1241E+04
      5.709  0.1227E+03  0.1233E+03  0.1248E+04  0.1248E+04
      5.761  0.1271E+03  0.1318E+03  0.1255E+04  0.1254E+04
      5.813  0.1191E+03  0.1161E+03  0.1261E+04  0.1260E+04
      5.864  0.1226E+03  0.1300E+03  0.1267E+04  0.1267E+04
      5.916  0.7924E+02  0.7904E+02  0.1271E+04  0.1271E+04
      5.968  0.1394E+02  0.1542E+02  0.1272E+04  0.1272E+04
      6.019  0.0000E+00  0.0000E+00  0.1272E+04  0.1272E+04
      6.071  0.0000E+00  0.0000E+00  0.1272E+04  0.1272E+04
      6.123  0.0000E+00  0.0000E+00  0.1272E+04  0.1272E+04
      6.175  0.0000E+00  0.0000E+00  0.1272E+04  0.1272E+04
      6.226  0.0000E+00  0.0000E+00  0.1272E+04  0.1272E+04
      6.278  0.0000E+00  0.0000E+00  0.1272E+04  0.1272E+04
      6.330  0.0000E+00  0.0000E+00  0.1272E+04  0.1272E+04
      6.382  0.0000E+00  0.0000E+00  0.1272E+04  0.1272E+04
      6.433  0.0000E+00  0.0000E+00  0.1272E+04  0.1272E+04
      6.485  0.0000E+00  0.0000E+00  0.1272E+04  0.1272E+04
      6.537  0.0000E+00  0.0000E+00  0.1272E+04  0.1272E+04
      6.588  0.0000E+00  0.0000E+00  0.1272E+04  0.1272E+04
      6.640  0.0000E+00  0.0000E+00  0.1272E+04  0.1272E+04
