       N       E                     dE             d eps       ncg     rms          rms(c)
DAV:   1     0.196849151770E+04    0.19685E+04   -0.21441E+05 13824   0.173E+03
DAV:   2    -0.359839180953E+03   -0.23283E+04   -0.22453E+04 16160   0.215E+02
DAV:   3    -0.577313803183E+03   -0.21747E+03   -0.21124E+03 17032   0.574E+01
DAV:   4    -0.585121047799E+03   -0.78072E+01   -0.76863E+01 16392   0.117E+01
DAV:   5    -0.585403320822E+03   -0.28227E+00   -0.28065E+00 18168   0.220E+00    0.319E+01
DAV:   6    -0.576272607010E+03    0.91307E+01   -0.14170E+01 16608   0.788E+00    0.145E+01
DAV:   7    -0.576206818784E+03    0.65788E-01   -0.14191E+01 16696   0.818E+00    0.618E+00
DAV:   8    -0.575527534360E+03    0.67928E+00   -0.37215E+00 16728   0.461E+00    0.163E+00
DAV:   9    -0.575548166812E+03   -0.20632E-01   -0.96005E-01 16264   0.144E+00    0.109E+00
DAV:  10    -0.575539915475E+03    0.82513E-02   -0.12877E-01 16160   0.639E-01    0.682E-01
DAV:  11    -0.575541937673E+03   -0.20222E-02   -0.43497E-02 16624   0.385E-01    0.442E-01
DAV:  12    -0.575539800572E+03    0.21371E-02   -0.22786E-02 17040   0.312E-01    0.238E-01
DAV:  13    -0.575539305820E+03    0.49475E-03   -0.55131E-03 16936   0.148E-01    0.137E-01
DAV:  14    -0.575539319306E+03   -0.13486E-04   -0.15710E-03 15568   0.658E-02    0.687E-02
DAV:  15    -0.575539343013E+03   -0.23708E-04   -0.40002E-04 16032   0.322E-02    0.509E-02
DAV:  16    -0.575539349798E+03   -0.67843E-05   -0.13238E-04 15712   0.178E-02    0.323E-02
DAV:  17    -0.575539357754E+03   -0.79561E-05   -0.38467E-05 16016   0.111E-02    0.168E-02
DAV:  18    -0.575539362461E+03   -0.47076E-05   -0.12375E-05 15760   0.534E-03    0.121E-02
DAV:  19    -0.575539365079E+03   -0.26173E-05   -0.35266E-06 15984   0.333E-03    0.796E-03
DAV:  20    -0.575539368134E+03   -0.30554E-05   -0.37400E-06 16416   0.268E-03    0.439E-03
DAV:  21    -0.575539369457E+03   -0.13232E-05   -0.16954E-06 16312   0.184E-03    0.359E-03
DAV:  22    -0.575539369830E+03   -0.37323E-06   -0.41771E-07 13504   0.977E-04    0.259E-03
DAV:  23    -0.575539370201E+03   -0.37032E-06   -0.63924E-07 15024   0.110E-03    0.181E-03
DAV:  24    -0.575539370000E+03    0.20131E-06   -0.14166E-07  9368   0.623E-04    0.128E-03
DAV:  25    -0.575539369791E+03    0.20830E-06   -0.59158E-08  7968   0.361E-04    0.730E-04
DAV:  26    -0.575539369696E+03    0.94849E-07   -0.20427E-08  7912   0.228E-04
   1 F= -.57553937E+03 E0= -.57553845E+03  d E =-.183069E-02  mag=     1.0000
