 120 120   0   0
  0.1155272E+02  0.1629300E-08  0.1629300E-08  0.7006474E-09  0.5000000E-15
  1.000000000000000E-004
  CAR 
 Si and Ge interface calculation         
      9.50979332    -14.22858709  301      5.62624259      1.00000000
    -14.229  0.0000E+00  0.0000E+00  0.0000E+00  0.0000E+00
    -14.149  0.0000E+00  0.0000E+00  0.0000E+00  0.0000E+00
    -14.070  0.0000E+00  0.0000E+00  0.0000E+00  0.0000E+00
    -13.991  0.0000E+00  0.0000E+00  0.0000E+00  0.0000E+00
    -13.912  0.0000E+00  0.0000E+00  0.0000E+00  0.0000E+00
    -13.833  0.0000E+00  0.0000E+00  0.0000E+00  0.0000E+00
    -13.754  0.0000E+00  0.0000E+00  0.0000E+00  0.0000E+00
    -13.675  0.0000E+00  0.0000E+00  0.0000E+00  0.0000E+00
    -13.596  0.0000E+00  0.0000E+00  0.0000E+00  0.0000E+00
    -13.516  0.0000E+00  0.0000E+00  0.0000E+00  0.0000E+00
    -13.437  0.0000E+00  0.0000E+00  0.0000E+00  0.0000E+00
    -13.358  0.0000E+00  0.0000E+00  0.0000E+00  0.0000E+00
    -13.279  0.0000E+00  0.0000E+00  0.0000E+00  0.0000E+00
    -13.200  0.3920E-12  0.0000E+00  0.3102E-13  0.0000E+00
    -13.121  0.6902E+01  0.4272E+01  0.5462E+00  0.3380E+00
    -13.042  0.1683E+02  0.2058E+02  0.1999E+01  0.1970E+01
    -12.963  0.2685E-04  0.3047E-07  0.2000E+01  0.2000E+01
    -12.883  0.1688E+02  0.1684E+02  0.3335E+01  0.3333E+01
    -12.804  0.1120E+02  0.1091E+02  0.4222E+01  0.4196E+01
    -12.725  0.2246E+02  0.2234E+02  0.6000E+01  0.5990E+01
    -12.646  0.1157E-01  0.1102E-03  0.6001E+01  0.6000E+01
    -12.567  0.1372E+02  0.1179E+02  0.7087E+01  0.6933E+01
    -12.488  0.5351E+01  0.7103E+01  0.7552E+01  0.7495E+01
    -12.409  0.7178E+01  0.5680E+01  0.8124E+01  0.8005E+01
    -12.330  0.2120E+02  0.2242E+02  0.9801E+01  0.9779E+01
    -12.250  0.2527E+02  0.2270E+02  0.1180E+02  0.1157E+02
    -12.171  0.5892E+01  0.6304E+01  0.1229E+02  0.1223E+02
    -12.092  0.4872E+01  0.5551E+01  0.1267E+02  0.1267E+02
    -12.013  0.1131E+02  0.7687E+01  0.1357E+02  0.1328E+02
    -11.934  0.1000E+02  0.1453E+02  0.1444E+02  0.1442E+02
    -11.855  0.1831E+02  0.1566E+02  0.1589E+02  0.1568E+02
    -11.776  0.2211E+02  0.1938E+02  0.1775E+02  0.1724E+02
    -11.696  0.3871E+01  0.1142E+02  0.1822E+02  0.1822E+02
    -11.617  0.1148E+02  0.8230E+01  0.1913E+02  0.1887E+02
    -11.538  0.1591E+02  0.1456E+02  0.2044E+02  0.2018E+02
    -11.459  0.1100E+02  0.1464E+02  0.2137E+02  0.2134E+02
    -11.380  0.1080E+02  0.1011E+02  0.2222E+02  0.2214E+02
    -11.301  0.1662E+02  0.1722E+02  0.2356E+02  0.2356E+02
    -11.222  0.5611E+01  0.5425E+01  0.2400E+02  0.2398E+02
    -11.143  0.1656E+02  0.1508E+02  0.2531E+02  0.2519E+02
    -11.063  0.1068E+02  0.7809E+01  0.2618E+02  0.2595E+02
    -10.984  0.8878E+01  0.1095E+02  0.2689E+02  0.2689E+02
    -10.905  0.8425E+01  0.8423E+01  0.2756E+02  0.2756E+02
    -10.826  0.1152E+01  0.1283E+00  0.2765E+02  0.2757E+02
    -10.747  0.4464E+01  0.5488E+01  0.2800E+02  0.2800E+02
    -10.668  0.0000E+00  0.0000E+00  0.2800E+02  0.2800E+02
    -10.589  0.6574E-04  0.1023E-06  0.2800E+02  0.2800E+02
    -10.510  0.1233E+02  0.9476E+01  0.2898E+02  0.2875E+02
    -10.430  0.1609E+02  0.1885E+02  0.3040E+02  0.3025E+02
    -10.351  0.1462E+02  0.1653E+02  0.3156E+02  0.3156E+02
    -10.272  0.7502E+01  0.5746E+01  0.3215E+02  0.3201E+02
    -10.193  0.2139E+02  0.2025E+02  0.3384E+02  0.3362E+02
    -10.114  0.1451E+02  0.1591E+02  0.3515E+02  0.3488E+02
    -10.035  0.2590E+02  0.2352E+02  0.3720E+02  0.3679E+02
     -9.956  0.1175E+02  0.1699E+02  0.3823E+02  0.3822E+02
     -9.877  0.1674E+02  0.1685E+02  0.3956E+02  0.3956E+02
     -9.797  0.5617E+01  0.5615E+01  0.4000E+02  0.4000E+02
     -9.718  0.5410E+01  0.3573E+01  0.4043E+02  0.4028E+02
     -9.639  0.1400E+02  0.1403E+02  0.4156E+02  0.4155E+02
     -9.560  0.1541E+02  0.1266E+02  0.4277E+02  0.4256E+02
     -9.481  0.5607E+01  0.9507E+01  0.4333E+02  0.4331E+02
     -9.402  0.9214E+01  0.5328E+01  0.4406E+02  0.4375E+02
     -9.323  0.1661E+02  0.1779E+02  0.4539E+02  0.4532E+02
     -9.244  0.1283E+02  0.1240E+02  0.4641E+02  0.4632E+02
     -9.164  0.1724E+02  0.1552E+02  0.4781E+02  0.4759E+02
     -9.085  0.1313E+02  0.1528E+02  0.4889E+02  0.4887E+02
     -9.006  0.1356E+02  0.9537E+01  0.4996E+02  0.4964E+02
     -8.927  0.1276E+02  0.1621E+02  0.5107E+02  0.5096E+02
     -8.848  0.1634E+02  0.1491E+02  0.5240E+02  0.5221E+02
     -8.769  0.2552E+02  0.2737E+02  0.5444E+02  0.5442E+02
     -8.690  0.6212E+01  0.5647E+01  0.5494E+02  0.5489E+02
     -8.611  0.2941E+02  0.2686E+02  0.5726E+02  0.5702E+02
     -8.531  0.2373E+02  0.2439E+02  0.5921E+02  0.5903E+02
     -8.452  0.1483E+02  0.1084E+02  0.6040E+02  0.6003E+02
     -8.373  0.1830E+02  0.2149E+02  0.6194E+02  0.6177E+02
     -8.294  0.2809E+01  0.5491E+01  0.6222E+02  0.6222E+02
     -8.215  0.1775E+02  0.1512E+02  0.6363E+02  0.6342E+02
     -8.136  0.1606E+02  0.1302E+02  0.6495E+02  0.6447E+02
     -8.057  0.7280E+01  0.1322E+02  0.6559E+02  0.6556E+02
     -7.977  0.1250E+02  0.9785E+01  0.6658E+02  0.6633E+02
     -7.898  0.1215E+02  0.1358E+02  0.6758E+02  0.6745E+02
     -7.819  0.2154E+02  0.1964E+02  0.6930E+02  0.6905E+02
     -7.740  0.8426E+01  0.1119E+02  0.7004E+02  0.6999E+02
     -7.661  0.1835E+02  0.1450E+02  0.7149E+02  0.7115E+02
     -7.582  0.2538E+02  0.2425E+02  0.7354E+02  0.7315E+02
     -7.503  0.1649E+02  0.2113E+02  0.7492E+02  0.7487E+02
     -7.424  0.1976E+02  0.1835E+02  0.7649E+02  0.7634E+02
     -7.344  0.1997E+02  0.1796E+02  0.7808E+02  0.7778E+02
     -7.265  0.9749E+01  0.1307E+02  0.7889E+02  0.7888E+02
     -7.186  0.1657E+02  0.1198E+02  0.8020E+02  0.7984E+02
     -7.107  0.1616E+01  0.7341E+01  0.8044E+02  0.8044E+02
     -7.028  0.1549E+02  0.1190E+02  0.8167E+02  0.8139E+02
     -6.949  0.7684E+01  0.9756E+01  0.8234E+02  0.8223E+02
     -6.870  0.6485E+01  0.8181E+01  0.8289E+02  0.8289E+02
     -6.791  0.5368E+01  0.3796E+01  0.8331E+02  0.8319E+02
     -6.711  0.1024E+02  0.6983E+01  0.8414E+02  0.8389E+02
     -6.632  0.4726E+01  0.6627E+01  0.8460E+02  0.8447E+02
     -6.553  0.8921E+01  0.9078E+01  0.8534E+02  0.8523E+02
     -6.474  0.1106E+02  0.1182E+02  0.8623E+02  0.8622E+02
     -6.395  0.9002E+01  0.7183E+01  0.8694E+02  0.8679E+02
     -6.316  0.2258E+02  0.2215E+02  0.8874E+02  0.8858E+02
     -6.237  0.1038E+02  0.1124E+02  0.8958E+02  0.8955E+02
     -6.158  0.1605E+02  0.1532E+02  0.9085E+02  0.9077E+02
     -6.078  0.1696E+02  0.1444E+02  0.9220E+02  0.9192E+02
     -5.999  0.5024E+01  0.8178E+01  0.9264E+02  0.9258E+02
     -5.920  0.1191E+02  0.1113E+02  0.9361E+02  0.9346E+02
     -5.841  0.1745E+02  0.1763E+02  0.9506E+02  0.9486E+02
     -5.762  0.1571E+02  0.1689E+02  0.9637E+02  0.9624E+02
     -5.683  0.1372E+02  0.1171E+02  0.9748E+02  0.9720E+02
     -5.604  0.1488E+02  0.1757E+02  0.9871E+02  0.9863E+02
     -5.525  0.2312E+02  0.2160E+02  0.1006E+03  0.1004E+03
     -5.445  0.1098E+02  0.1159E+02  0.1014E+03  0.1013E+03
     -5.366  0.1252E+02  0.1152E+02  0.1025E+03  0.1023E+03
     -5.287  0.3045E+02  0.3118E+02  0.1049E+03  0.1047E+03
     -5.208  0.2692E+02  0.2425E+02  0.1071E+03  0.1067E+03
     -5.129  0.1366E+02  0.1778E+02  0.1083E+03  0.1082E+03
     -5.050  0.1686E+02  0.1568E+02  0.1097E+03  0.1095E+03
     -4.971  0.2333E+02  0.2275E+02  0.1116E+03  0.1113E+03
     -4.891  0.2040E+02  0.1949E+02  0.1132E+03  0.1130E+03
     -4.812  0.2509E+02  0.2334E+02  0.1153E+03  0.1149E+03
     -4.733  0.2509E+02  0.2534E+02  0.1174E+03  0.1170E+03
     -4.654  0.3388E+02  0.3449E+02  0.1201E+03  0.1198E+03
     -4.575  0.2022E+02  0.2391E+02  0.1219E+03  0.1217E+03
     -4.496  0.2159E+02  0.2177E+02  0.1236E+03  0.1235E+03
     -4.417  0.3193E+02  0.2771E+02  0.1261E+03  0.1257E+03
     -4.338  0.1886E+02  0.2376E+02  0.1277E+03  0.1276E+03
     -4.258  0.2930E+02  0.2687E+02  0.1301E+03  0.1298E+03
     -4.179  0.2644E+02  0.2727E+02  0.1323E+03  0.1320E+03
     -4.100  0.2264E+02  0.2404E+02  0.1342E+03  0.1339E+03
     -4.021  0.2321E+02  0.2422E+02  0.1361E+03  0.1359E+03
     -3.942  0.2334E+02  0.2341E+02  0.1380E+03  0.1378E+03
     -3.863  0.3221E+02  0.3124E+02  0.1405E+03  0.1403E+03
     -3.784  0.2040E+02  0.2168E+02  0.1422E+03  0.1421E+03
     -3.705  0.2030E+02  0.1925E+02  0.1439E+03  0.1436E+03
     -3.625  0.2976E+02  0.2666E+02  0.1463E+03  0.1457E+03
     -3.546  0.2775E+02  0.3014E+02  0.1486E+03  0.1482E+03
     -3.467  0.1727E+02  0.2221E+02  0.1501E+03  0.1500E+03
     -3.388  0.3077E+02  0.2999E+02  0.1526E+03  0.1523E+03
     -3.309  0.3396E+02  0.3307E+02  0.1553E+03  0.1550E+03
     -3.230  0.3678E+02  0.3496E+02  0.1583E+03  0.1578E+03
     -3.151  0.2246E+02  0.2592E+02  0.1602E+03  0.1599E+03
     -3.072  0.1850E+02  0.1970E+02  0.1617E+03  0.1616E+03
     -2.992  0.2921E+02  0.2947E+02  0.1641E+03  0.1639E+03
     -2.913  0.1989E+02  0.1965E+02  0.1657E+03  0.1656E+03
     -2.834  0.2474E+02  0.2417E+02  0.1676E+03  0.1675E+03
     -2.755  0.2134E+02  0.1779E+02  0.1693E+03  0.1690E+03
     -2.676  0.3488E+02  0.3497E+02  0.1721E+03  0.1718E+03
     -2.597  0.2946E+02  0.2942E+02  0.1746E+03  0.1742E+03
     -2.518  0.2644E+02  0.2566E+02  0.1767E+03  0.1763E+03
     -2.439  0.2432E+02  0.2720E+02  0.1788E+03  0.1785E+03
     -2.359  0.3238E+02  0.2994E+02  0.1814E+03  0.1809E+03
     -2.280  0.2686E+02  0.3072E+02  0.1836E+03  0.1835E+03
     -2.201  0.1394E+02  0.1365E+02  0.1847E+03  0.1846E+03
     -2.122  0.3386E+02  0.3104E+02  0.1874E+03  0.1871E+03
     -2.043  0.2905E+02  0.3041E+02  0.1898E+03  0.1896E+03
     -1.964  0.2656E+02  0.2685E+02  0.1920E+03  0.1918E+03
     -1.885  0.2798E+02  0.2646E+02  0.1942E+03  0.1940E+03
     -1.806  0.2629E+02  0.2659E+02  0.1963E+03  0.1961E+03
     -1.726  0.4130E+02  0.3936E+02  0.1997E+03  0.1993E+03
     -1.647  0.2814E+02  0.2824E+02  0.2020E+03  0.2017E+03
     -1.568  0.3079E+02  0.3071E+02  0.2045E+03  0.2042E+03
     -1.489  0.2995E+02  0.2987E+02  0.2069E+03  0.2067E+03
     -1.410  0.3511E+02  0.3375E+02  0.2097E+03  0.2093E+03
     -1.331  0.4430E+02  0.4425E+02  0.2133E+03  0.2130E+03
     -1.252  0.2570E+02  0.2594E+02  0.2154E+03  0.2151E+03
     -1.172  0.3709E+02  0.3524E+02  0.2184E+03  0.2181E+03
     -1.093  0.3592E+02  0.3334E+02  0.2213E+03  0.2207E+03
     -1.014  0.3511E+02  0.3563E+02  0.2242E+03  0.2237E+03
     -0.935  0.3545E+02  0.3838E+02  0.2271E+03  0.2268E+03
     -0.856  0.2759E+02  0.2699E+02  0.2293E+03  0.2290E+03
     -0.777  0.3166E+02  0.3145E+02  0.2319E+03  0.2316E+03
     -0.698  0.4055E+02  0.3724E+02  0.2352E+03  0.2346E+03
     -0.619  0.2921E+02  0.3384E+02  0.2377E+03  0.2374E+03
     -0.539  0.2384E+02  0.2392E+02  0.2396E+03  0.2394E+03
     -0.460  0.3588E+02  0.3428E+02  0.2425E+03  0.2421E+03
     -0.381  0.3362E+02  0.3453E+02  0.2453E+03  0.2449E+03
     -0.302  0.3510E+02  0.3808E+02  0.2482E+03  0.2480E+03
     -0.223  0.3031E+02  0.2774E+02  0.2506E+03  0.2502E+03
     -0.144  0.3557E+02  0.3120E+02  0.2535E+03  0.2528E+03
     -0.065  0.3026E+02  0.3500E+02  0.2561E+03  0.2557E+03
      0.014  0.4011E+02  0.4346E+02  0.2595E+03  0.2592E+03
      0.094  0.3188E+02  0.3292E+02  0.2621E+03  0.2618E+03
      0.173  0.4071E+02  0.4028E+02  0.2653E+03  0.2650E+03
      0.252  0.3250E+02  0.3050E+02  0.2680E+03  0.2676E+03
      0.331  0.3157E+02  0.2983E+02  0.2706E+03  0.2700E+03
      0.410  0.3234E+02  0.3325E+02  0.2733E+03  0.2727E+03
      0.489  0.4024E+02  0.4318E+02  0.2766E+03  0.2763E+03
      0.568  0.3528E+02  0.3353E+02  0.2794E+03  0.2790E+03
      0.647  0.3411E+02  0.3476E+02  0.2822E+03  0.2819E+03
      0.727  0.3680E+02  0.3798E+02  0.2853E+03  0.2850E+03
      0.806  0.4325E+02  0.4237E+02  0.2889E+03  0.2884E+03
      0.885  0.3802E+02  0.3694E+02  0.2920E+03  0.2915E+03
      0.964  0.4117E+02  0.4288E+02  0.2954E+03  0.2950E+03
      1.043  0.4167E+02  0.4372E+02  0.2988E+03  0.2985E+03
      1.122  0.3182E+02  0.3127E+02  0.3014E+03  0.3010E+03
      1.201  0.4083E+02  0.4207E+02  0.3047E+03  0.3044E+03
      1.280  0.4165E+02  0.4079E+02  0.3080E+03  0.3077E+03
      1.360  0.3871E+02  0.3599E+02  0.3111E+03  0.3107E+03
      1.439  0.3513E+02  0.3435E+02  0.3140E+03  0.3135E+03
      1.518  0.4412E+02  0.4474E+02  0.3176E+03  0.3171E+03
      1.597  0.3736E+02  0.3709E+02  0.3207E+03  0.3201E+03
      1.676  0.4204E+02  0.4559E+02  0.3241E+03  0.3238E+03
      1.755  0.3448E+02  0.2975E+02  0.3269E+03  0.3263E+03
      1.834  0.3424E+02  0.4007E+02  0.3298E+03  0.3296E+03
      1.914  0.3843E+02  0.3696E+02  0.3328E+03  0.3325E+03
      1.993  0.4233E+02  0.4065E+02  0.3363E+03  0.3358E+03
      2.072  0.3379E+02  0.3298E+02  0.3391E+03  0.3386E+03
      2.151  0.2269E+02  0.2518E+02  0.3410E+03  0.3407E+03
      2.230  0.3669E+02  0.3305E+02  0.3439E+03  0.3434E+03
      2.309  0.4138E+02  0.4307E+02  0.3474E+03  0.3470E+03
      2.388  0.3299E+02  0.2924E+02  0.3500E+03  0.3494E+03
      2.467  0.3730E+02  0.3872E+02  0.3531E+03  0.3527E+03
      2.547  0.4930E+02  0.4998E+02  0.3571E+03  0.3567E+03
      2.626  0.4926E+02  0.4606E+02  0.3611E+03  0.3605E+03
      2.705  0.3259E+02  0.3424E+02  0.3638E+03  0.3633E+03
      2.784  0.3939E+02  0.3954E+02  0.3671E+03  0.3665E+03
      2.863  0.3595E+02  0.3716E+02  0.3699E+03  0.3695E+03
      2.942  0.4852E+02  0.4399E+02  0.3738E+03  0.3730E+03
      3.021  0.3293E+02  0.3738E+02  0.3765E+03  0.3761E+03
      3.100  0.3646E+02  0.3420E+02  0.3794E+03  0.3789E+03
      3.180  0.4465E+02  0.4493E+02  0.3832E+03  0.3826E+03
      3.259  0.3549E+02  0.3116E+02  0.3861E+03  0.3851E+03
      3.338  0.3397E+02  0.3896E+02  0.3890E+03  0.3883E+03
      3.417  0.3747E+02  0.3876E+02  0.3920E+03  0.3915E+03
      3.496  0.3187E+02  0.3325E+02  0.3946E+03  0.3942E+03
      3.575  0.4494E+02  0.4025E+02  0.3982E+03  0.3975E+03
      3.654  0.4170E+02  0.4206E+02  0.4016E+03  0.4009E+03
      3.733  0.4196E+02  0.4377E+02  0.4050E+03  0.4044E+03
      3.813  0.3990E+02  0.4059E+02  0.4083E+03  0.4077E+03
      3.892  0.3616E+02  0.3812E+02  0.4112E+03  0.4109E+03
      3.971  0.4752E+02  0.4181E+02  0.4151E+03  0.4143E+03
      4.050  0.4229E+02  0.4553E+02  0.4186E+03  0.4180E+03
      4.129  0.3750E+02  0.3945E+02  0.4217E+03  0.4212E+03
      4.208  0.3108E+02  0.2893E+02  0.4242E+03  0.4235E+03
      4.287  0.3292E+02  0.3521E+02  0.4270E+03  0.4264E+03
      4.366  0.3607E+02  0.3619E+02  0.4299E+03  0.4294E+03
      4.446  0.3961E+02  0.3978E+02  0.4330E+03  0.4326E+03
      4.525  0.4216E+02  0.3628E+02  0.4364E+03  0.4356E+03
      4.604  0.3425E+02  0.3913E+02  0.4393E+03  0.4389E+03
      4.683  0.3707E+02  0.3202E+02  0.4423E+03  0.4415E+03
      4.762  0.3277E+02  0.3832E+02  0.4451E+03  0.4446E+03
      4.841  0.3531E+02  0.3193E+02  0.4481E+03  0.4472E+03
      4.920  0.4191E+02  0.4388E+02  0.4515E+03  0.4507E+03
      5.000  0.3633E+02  0.3891E+02  0.4545E+03  0.4538E+03
      5.079  0.3480E+02  0.3435E+02  0.4574E+03  0.4566E+03
      5.158  0.4181E+02  0.4094E+02  0.4607E+03  0.4599E+03
      5.237  0.4585E+02  0.4363E+02  0.4644E+03  0.4635E+03
      5.316  0.3511E+02  0.3525E+02  0.4672E+03  0.4664E+03
      5.395  0.4024E+02  0.3985E+02  0.4705E+03  0.4695E+03
      5.474  0.4347E+02  0.3964E+02  0.4740E+03  0.4727E+03
      5.553  0.3640E+02  0.4321E+02  0.4769E+03  0.4762E+03
      5.633  0.4172E+02  0.3691E+02  0.4802E+03  0.4792E+03
      5.712  0.3154E+02  0.2847E+02  0.4827E+03  0.4816E+03
      5.791  0.3611E+02  0.3869E+02  0.4857E+03  0.4848E+03
      5.870  0.4209E+02  0.3740E+02  0.4890E+03  0.4879E+03
      5.949  0.3230E+02  0.3714E+02  0.4917E+03  0.4909E+03
      6.028  0.3948E+02  0.3520E+02  0.4948E+03  0.4937E+03
      6.107  0.3147E+02  0.3209E+02  0.4975E+03  0.4964E+03
      6.186  0.2546E+02  0.3211E+02  0.4996E+03  0.4990E+03
      6.266  0.4814E+02  0.4270E+02  0.5035E+03  0.5024E+03
      6.345  0.3653E+02  0.3823E+02  0.5065E+03  0.5055E+03
      6.424  0.3022E+02  0.3556E+02  0.5089E+03  0.5083E+03
      6.503  0.3024E+02  0.2742E+02  0.5114E+03  0.5106E+03
      6.582  0.2250E+02  0.2385E+02  0.5132E+03  0.5126E+03
      6.661  0.4614E+02  0.4531E+02  0.5170E+03  0.5162E+03
      6.740  0.3758E+02  0.3514E+02  0.5201E+03  0.5190E+03
      6.819  0.3090E+02  0.3480E+02  0.5227E+03  0.5218E+03
      6.899  0.3407E+02  0.3248E+02  0.5254E+03  0.5245E+03
      6.978  0.4101E+02  0.4146E+02  0.5287E+03  0.5279E+03
      7.057  0.3415E+02  0.3572E+02  0.5315E+03  0.5308E+03
      7.136  0.2806E+02  0.2848E+02  0.5338E+03  0.5332E+03
      7.215  0.4284E+02  0.4082E+02  0.5373E+03  0.5365E+03
      7.294  0.3869E+02  0.3928E+02  0.5405E+03  0.5399E+03
      7.373  0.4129E+02  0.3391E+02  0.5438E+03  0.5427E+03
      7.452  0.2875E+02  0.3237E+02  0.5462E+03  0.5454E+03
      7.532  0.4225E+02  0.4112E+02  0.5497E+03  0.5486E+03
      7.611  0.3983E+02  0.4427E+02  0.5531E+03  0.5523E+03
      7.690  0.4093E+02  0.3735E+02  0.5564E+03  0.5553E+03
      7.769  0.3628E+02  0.4512E+02  0.5594E+03  0.5589E+03
      7.848  0.3470E+02  0.3383E+02  0.5623E+03  0.5616E+03
      7.927  0.3168E+02  0.3041E+02  0.5648E+03  0.5642E+03
      8.006  0.3672E+02  0.3693E+02  0.5678E+03  0.5671E+03
      8.085  0.2714E+02  0.3043E+02  0.5701E+03  0.5696E+03
      8.165  0.2974E+02  0.3131E+02  0.5726E+03  0.5722E+03
      8.244  0.1481E+02  0.2103E+02  0.5739E+03  0.5739E+03
      8.323  0.1488E+02  0.1374E+02  0.5751E+03  0.5750E+03
      8.402  0.9502E+01  0.7115E+01  0.5758E+03  0.5756E+03
      8.481  0.1864E+01  0.4247E+01  0.5760E+03  0.5760E+03
      8.560  0.0000E+00  0.0000E+00  0.5760E+03  0.5760E+03
      8.639  0.0000E+00  0.0000E+00  0.5760E+03  0.5760E+03
      8.719  0.0000E+00  0.0000E+00  0.5760E+03  0.5760E+03
      8.798  0.0000E+00  0.0000E+00  0.5760E+03  0.5760E+03
      8.877  0.0000E+00  0.0000E+00  0.5760E+03  0.5760E+03
      8.956  0.0000E+00  0.0000E+00  0.5760E+03  0.5760E+03
      9.035  0.0000E+00  0.0000E+00  0.5760E+03  0.5760E+03
      9.114  0.0000E+00  0.0000E+00  0.5760E+03  0.5760E+03
      9.193  0.0000E+00  0.0000E+00  0.5760E+03  0.5760E+03
      9.272  0.0000E+00  0.0000E+00  0.5760E+03  0.5760E+03
      9.352  0.0000E+00  0.0000E+00  0.5760E+03  0.5760E+03
      9.431  0.0000E+00  0.0000E+00  0.5760E+03  0.5760E+03
      9.510  0.0000E+00  0.0000E+00  0.5760E+03  0.5760E+03
