  48  48   0   0
  0.2323126E+02  0.8001338E-09  0.1265123E-08  0.1161174E-08  0.5000000E-15
  1.000000000000000E-004
  CAR 
 Si and Ge interface calculation         
      6.63741312    -11.21693879  301      3.37566297      1.00000000
    -11.217  0.0000E+00  0.0000E+00  0.0000E+00  0.0000E+00
    -11.157  0.0000E+00  0.0000E+00  0.0000E+00  0.0000E+00
    -11.098  0.0000E+00  0.0000E+00  0.0000E+00  0.0000E+00
    -11.038  0.0000E+00  0.0000E+00  0.0000E+00  0.0000E+00
    -10.979  0.0000E+00  0.0000E+00  0.0000E+00  0.0000E+00
    -10.919  0.0000E+00  0.0000E+00  0.0000E+00  0.0000E+00
    -10.860  0.0000E+00  0.0000E+00  0.0000E+00  0.0000E+00
    -10.800  0.0000E+00  0.0000E+00  0.0000E+00  0.0000E+00
    -10.741  0.0000E+00  0.0000E+00  0.0000E+00  0.0000E+00
    -10.681  0.0000E+00  0.0000E+00  0.0000E+00  0.0000E+00
    -10.622  0.0000E+00  0.0000E+00  0.0000E+00  0.0000E+00
    -10.562  0.0000E+00  0.0000E+00  0.0000E+00  0.0000E+00
    -10.503  0.0000E+00  0.0000E+00  0.0000E+00  0.0000E+00
    -10.443  0.3981E-07  0.5182E-16  0.2370E-08  0.3084E-17
    -10.384  0.6474E+01  0.8513E+00  0.3853E+00  0.5067E-01
    -10.324  0.1926E+01  0.7550E+01  0.5000E+00  0.5000E+00
    -10.265  0.6279E+01  0.2778E-01  0.8737E+00  0.5017E+00
    -10.205  0.1892E+02  0.2517E+02  0.2000E+01  0.2000E+01
    -10.146  0.1450E+00  0.9203E-06  0.2009E+01  0.2000E+01
    -10.086  0.1666E+02  0.1621E+02  0.3000E+01  0.2965E+01
    -10.027  0.0000E+00  0.5833E+00  0.3000E+01  0.3000E+01
     -9.967  0.0000E+00  0.0000E+00  0.3000E+01  0.3000E+01
     -9.908  0.2950E-08  0.0000E+00  0.3000E+01  0.3000E+01
     -9.848  0.1071E+02  0.1012E+01  0.3637E+01  0.3060E+01
     -9.789  0.6092E+01  0.1579E+02  0.4000E+01  0.4000E+01
     -9.729  0.5328E+01  0.1193E-01  0.4317E+01  0.4001E+01
     -9.670  0.1147E+02  0.1679E+02  0.5000E+01  0.5000E+01
     -9.610  0.0000E+00  0.0000E+00  0.5000E+01  0.5000E+01
     -9.551  0.0000E+00  0.0000E+00  0.5000E+01  0.5000E+01
     -9.491  0.0000E+00  0.0000E+00  0.5000E+01  0.5000E+01
     -9.432  0.0000E+00  0.0000E+00  0.5000E+01  0.5000E+01
     -9.372  0.0000E+00  0.0000E+00  0.5000E+01  0.5000E+01
     -9.312  0.0000E+00  0.0000E+00  0.5000E+01  0.5000E+01
     -9.253  0.7629E-02  0.3371E-07  0.5000E+01  0.5000E+01
     -9.193  0.1679E+02  0.1317E+02  0.6000E+01  0.5784E+01
     -9.134  0.1836E-02  0.3632E+01  0.6000E+01  0.6000E+01
     -9.074  0.1679E+02  0.1420E+02  0.6999E+01  0.6845E+01
     -9.015  0.7976E-02  0.2599E+01  0.7000E+01  0.7000E+01
     -8.955  0.0000E+00  0.0000E+00  0.7000E+01  0.7000E+01
     -8.896  0.0000E+00  0.0000E+00  0.7000E+01  0.7000E+01
     -8.836  0.3606E-12  0.0000E+00  0.7000E+01  0.7000E+01
     -8.777  0.1636E+01  0.5222E+00  0.7097E+01  0.7031E+01
     -8.717  0.3907E+01  0.3982E+01  0.7330E+01  0.7268E+01
     -8.658  0.1650E+02  0.4599E+01  0.8312E+01  0.7542E+01
     -8.598  0.1327E+02  0.2511E+02  0.9102E+01  0.9036E+01
     -8.539  0.4603E+01  0.3942E+01  0.9376E+01  0.9271E+01
     -8.479  0.9001E+01  0.8674E+01  0.9912E+01  0.9787E+01
     -8.420  0.4086E+01  0.5067E+01  0.1015E+02  0.1009E+02
     -8.360  0.2006E+00  0.1308E+01  0.1017E+02  0.1017E+02
     -8.301  0.4064E+01  0.1115E+01  0.1041E+02  0.1023E+02
     -8.241  0.1012E+02  0.1197E+02  0.1101E+02  0.1095E+02
     -8.182  0.1243E+02  0.1252E+02  0.1175E+02  0.1169E+02
     -8.122  0.6578E+01  0.6215E+01  0.1214E+02  0.1206E+02
     -8.063  0.3232E+01  0.4587E+01  0.1233E+02  0.1233E+02
     -8.003  0.4647E+01  0.4613E+01  0.1261E+02  0.1261E+02
     -7.944  0.8705E+01  0.6176E+01  0.1313E+02  0.1298E+02
     -7.884  0.9190E+01  0.7091E+01  0.1368E+02  0.1340E+02
     -7.825  0.3684E+01  0.8257E+01  0.1390E+02  0.1389E+02
     -7.765  0.1424E+02  0.1083E+02  0.1474E+02  0.1453E+02
     -7.706  0.1318E+02  0.1288E+02  0.1553E+02  0.1530E+02
     -7.646  0.7936E+01  0.1162E+02  0.1600E+02  0.1599E+02
     -7.587  0.3771E+01  0.2044E+01  0.1622E+02  0.1611E+02
     -7.527  0.2860E+02  0.1873E+02  0.1793E+02  0.1723E+02
     -7.468  0.1865E+02  0.2724E+02  0.1904E+02  0.1885E+02
     -7.408  0.1535E+02  0.1599E+02  0.1995E+02  0.1980E+02
     -7.348  0.1211E+02  0.1072E+02  0.2067E+02  0.2044E+02
     -7.289  0.1451E+02  0.1498E+02  0.2153E+02  0.2133E+02
     -7.229  0.1895E+02  0.1396E+02  0.2266E+02  0.2216E+02
     -7.170  0.1589E+02  0.1955E+02  0.2361E+02  0.2332E+02
     -7.110  0.6130E+01  0.9569E+01  0.2397E+02  0.2389E+02
     -7.051  0.1574E+02  0.1371E+02  0.2491E+02  0.2471E+02
     -6.991  0.4157E+02  0.3674E+02  0.2738E+02  0.2690E+02
     -6.932  0.1780E+02  0.2054E+02  0.2844E+02  0.2812E+02
     -6.872  0.1383E+02  0.1425E+02  0.2927E+02  0.2897E+02
     -6.813  0.2317E+02  0.2126E+02  0.3065E+02  0.3023E+02
     -6.753  0.1668E+02  0.1923E+02  0.3164E+02  0.3138E+02
     -6.694  0.1446E+02  0.1777E+02  0.3250E+02  0.3243E+02
     -6.634  0.1698E+02  0.1092E+02  0.3351E+02  0.3308E+02
     -6.575  0.1785E+02  0.1947E+02  0.3457E+02  0.3424E+02
     -6.515  0.1115E+02  0.1074E+02  0.3524E+02  0.3488E+02
     -6.456  0.1183E+02  0.1398E+02  0.3594E+02  0.3571E+02
     -6.396  0.1255E+02  0.1290E+02  0.3669E+02  0.3648E+02
     -6.337  0.1093E+02  0.1360E+02  0.3734E+02  0.3729E+02
     -6.277  0.8471E+01  0.7696E+01  0.3784E+02  0.3775E+02
     -6.218  0.9947E+01  0.6300E+01  0.3843E+02  0.3813E+02
     -6.158  0.1874E+02  0.1961E+02  0.3955E+02  0.3929E+02
     -6.099  0.1407E+02  0.1684E+02  0.4039E+02  0.4029E+02
     -6.039  0.3519E+01  0.2651E+01  0.4060E+02  0.4045E+02
     -5.980  0.9364E+01  0.8952E+01  0.4115E+02  0.4099E+02
     -5.920  0.8512E+01  0.9108E+01  0.4166E+02  0.4153E+02
     -5.861  0.6081E+01  0.7017E+01  0.4202E+02  0.4195E+02
     -5.801  0.1517E+02  0.8566E+01  0.4293E+02  0.4245E+02
     -5.742  0.7503E+01  0.1219E+02  0.4337E+02  0.4318E+02
     -5.682  0.1538E+02  0.1713E+02  0.4429E+02  0.4420E+02
     -5.623  0.1733E+02  0.1148E+02  0.4532E+02  0.4488E+02
     -5.563  0.9015E+01  0.1317E+02  0.4586E+02  0.4567E+02
     -5.504  0.7897E+01  0.6732E+01  0.4633E+02  0.4607E+02
     -5.444  0.6004E+01  0.8528E+01  0.4668E+02  0.4658E+02
     -5.385  0.1364E+02  0.1053E+02  0.4749E+02  0.4720E+02
     -5.325  0.7850E+01  0.9562E+01  0.4796E+02  0.4777E+02
     -5.265  0.1213E+02  0.1190E+02  0.4868E+02  0.4848E+02
     -5.206  0.1086E+02  0.1122E+02  0.4933E+02  0.4915E+02
     -5.146  0.4024E+01  0.5029E+01  0.4957E+02  0.4945E+02
     -5.087  0.1927E+02  0.1471E+02  0.5072E+02  0.5032E+02
     -5.027  0.9304E+01  0.1188E+02  0.5127E+02  0.5103E+02
     -4.968  0.3941E+01  0.5236E+01  0.5150E+02  0.5134E+02
     -4.908  0.8946E+01  0.9167E+01  0.5204E+02  0.5189E+02
     -4.849  0.7419E+01  0.6872E+01  0.5248E+02  0.5230E+02
     -4.789  0.4486E+01  0.5973E+01  0.5275E+02  0.5265E+02
     -4.730  0.2068E+02  0.1277E+02  0.5398E+02  0.5341E+02
     -4.670  0.2754E+02  0.3218E+02  0.5562E+02  0.5533E+02
     -4.611  0.1435E+02  0.1339E+02  0.5647E+02  0.5612E+02
     -4.551  0.7522E+01  0.1011E+02  0.5692E+02  0.5673E+02
     -4.492  0.1189E+02  0.1345E+02  0.5763E+02  0.5753E+02
     -4.432  0.7484E+01  0.8854E+01  0.5807E+02  0.5805E+02
     -4.373  0.9571E+01  0.7369E+01  0.5864E+02  0.5849E+02
     -4.313  0.1368E+02  0.1041E+02  0.5945E+02  0.5911E+02
     -4.254  0.2720E+02  0.2277E+02  0.6107E+02  0.6047E+02
     -4.194  0.1401E+02  0.2118E+02  0.6191E+02  0.6173E+02
     -4.135  0.1863E+02  0.1632E+02  0.6302E+02  0.6270E+02
     -4.075  0.1635E+02  0.1674E+02  0.6399E+02  0.6369E+02
     -4.016  0.1766E+02  0.1404E+02  0.6504E+02  0.6453E+02
     -3.956  0.2136E+02  0.2745E+02  0.6631E+02  0.6616E+02
     -3.897  0.1797E+02  0.1565E+02  0.6738E+02  0.6709E+02
     -3.837  0.1722E+02  0.1357E+02  0.6841E+02  0.6790E+02
     -3.778  0.1128E+02  0.1438E+02  0.6908E+02  0.6876E+02
     -3.718  0.1228E+02  0.1071E+02  0.6981E+02  0.6940E+02
     -3.659  0.6726E+01  0.1294E+02  0.7021E+02  0.7017E+02
     -3.599  0.2529E+02  0.1713E+02  0.7171E+02  0.7119E+02
     -3.540  0.1436E+02  0.2129E+02  0.7257E+02  0.7245E+02
     -3.480  0.9118E+01  0.6599E+01  0.7311E+02  0.7285E+02
     -3.421  0.1859E+02  0.1827E+02  0.7422E+02  0.7393E+02
     -3.361  0.1393E+02  0.1569E+02  0.7505E+02  0.7487E+02
     -3.302  0.2331E+02  0.2082E+02  0.7644E+02  0.7611E+02
     -3.242  0.1510E+02  0.1422E+02  0.7733E+02  0.7695E+02
     -3.182  0.1066E+02  0.1583E+02  0.7797E+02  0.7789E+02
     -3.123  0.6704E+01  0.6045E+01  0.7837E+02  0.7825E+02
     -3.063  0.3211E+01  0.4053E+01  0.7856E+02  0.7850E+02
     -3.004  0.8841E+01  0.6989E+01  0.7908E+02  0.7891E+02
     -2.944  0.8899E+01  0.1131E+02  0.7961E+02  0.7958E+02
     -2.885  0.4690E+01  0.4181E+01  0.7989E+02  0.7983E+02
     -2.825  0.8302E+01  0.7255E+01  0.8039E+02  0.8027E+02
     -2.766  0.9722E+01  0.9523E+01  0.8097E+02  0.8083E+02
     -2.706  0.7397E+01  0.7712E+01  0.8141E+02  0.8129E+02
     -2.647  0.5438E+01  0.7071E+01  0.8173E+02  0.8171E+02
     -2.587  0.1089E+02  0.6579E+01  0.8238E+02  0.8210E+02
     -2.528  0.1052E+02  0.1250E+02  0.8300E+02  0.8285E+02
     -2.468  0.1611E+02  0.1457E+02  0.8396E+02  0.8371E+02
     -2.409  0.7616E+01  0.1020E+02  0.8442E+02  0.8432E+02
     -2.349  0.5915E+01  0.5809E+01  0.8477E+02  0.8467E+02
     -2.290  0.1123E+02  0.9715E+01  0.8544E+02  0.8525E+02
     -2.230  0.5558E+01  0.7791E+01  0.8577E+02  0.8571E+02
     -2.171  0.1177E+02  0.8683E+01  0.8647E+02  0.8623E+02
     -2.111  0.1640E+02  0.1905E+02  0.8744E+02  0.8736E+02
     -2.052  0.7441E+01  0.5170E+01  0.8789E+02  0.8767E+02
     -1.992  0.7208E+01  0.8028E+01  0.8832E+02  0.8815E+02
     -1.933  0.5886E+01  0.8602E+01  0.8867E+02  0.8866E+02
     -1.873  0.6321E+01  0.2509E+01  0.8904E+02  0.8881E+02
     -1.814  0.6097E+01  0.8675E+01  0.8941E+02  0.8932E+02
     -1.754  0.6331E+01  0.7337E+01  0.8978E+02  0.8976E+02
     -1.695  0.6469E+01  0.4653E+01  0.9017E+02  0.9004E+02
     -1.635  0.1019E+02  0.1035E+02  0.9077E+02  0.9065E+02
     -1.576  0.1160E+01  0.2110E+01  0.9084E+02  0.9078E+02
     -1.516  0.5494E+01  0.5576E+01  0.9117E+02  0.9111E+02
     -1.457  0.4542E+01  0.4079E+01  0.9144E+02  0.9135E+02
     -1.397  0.2785E+01  0.2816E+01  0.9161E+02  0.9152E+02
     -1.338  0.5834E+01  0.5125E+01  0.9195E+02  0.9183E+02
     -1.278  0.6381E+01  0.8198E+01  0.9233E+02  0.9231E+02
     -1.219  0.1184E+02  0.4048E+01  0.9304E+02  0.9255E+02
     -1.159  0.5074E+01  0.1309E+02  0.9334E+02  0.9333E+02
     -1.099  0.1512E+02  0.1322E+02  0.9424E+02  0.9412E+02
     -1.040  0.1496E+02  0.1333E+02  0.9513E+02  0.9491E+02
     -0.980  0.2320E+02  0.1902E+02  0.9651E+02  0.9605E+02
     -0.921  0.1799E+02  0.2148E+02  0.9758E+02  0.9732E+02
     -0.861  0.4954E+01  0.5119E+01  0.9788E+02  0.9763E+02
     -0.802  0.2479E+02  0.2351E+02  0.9935E+02  0.9903E+02
     -0.742  0.2457E+02  0.1970E+02  0.1008E+03  0.1002E+03
     -0.683  0.1206E+02  0.1805E+02  0.1015E+03  0.1013E+03
     -0.623  0.2186E+02  0.2223E+02  0.1028E+03  0.1026E+03
     -0.564  0.1904E+02  0.1715E+02  0.1040E+03  0.1036E+03
     -0.504  0.2427E+02  0.2293E+02  0.1054E+03  0.1050E+03
     -0.445  0.2574E+02  0.2083E+02  0.1069E+03  0.1062E+03
     -0.385  0.2580E+02  0.3056E+02  0.1085E+03  0.1080E+03
     -0.326  0.3768E+02  0.3475E+02  0.1107E+03  0.1101E+03
     -0.266  0.2416E+02  0.2185E+02  0.1122E+03  0.1114E+03
     -0.207  0.2374E+02  0.3106E+02  0.1136E+03  0.1133E+03
     -0.147  0.2550E+02  0.2412E+02  0.1151E+03  0.1147E+03
     -0.088  0.2458E+02  0.2017E+02  0.1166E+03  0.1159E+03
     -0.028  0.2190E+02  0.2849E+02  0.1179E+03  0.1176E+03
      0.031  0.2253E+02  0.1912E+02  0.1192E+03  0.1187E+03
      0.091  0.3049E+02  0.2837E+02  0.1210E+03  0.1204E+03
      0.150  0.2058E+02  0.2669E+02  0.1222E+03  0.1220E+03
      0.210  0.2045E+02  0.1499E+02  0.1235E+03  0.1229E+03
      0.269  0.2182E+02  0.2715E+02  0.1248E+03  0.1245E+03
      0.329  0.2204E+02  0.1859E+02  0.1261E+03  0.1256E+03
      0.388  0.2315E+02  0.2568E+02  0.1274E+03  0.1271E+03
      0.448  0.1960E+02  0.2254E+02  0.1286E+03  0.1285E+03
      0.507  0.3021E+02  0.2050E+02  0.1304E+03  0.1297E+03
      0.567  0.2776E+02  0.3313E+02  0.1321E+03  0.1317E+03
      0.626  0.2848E+02  0.2770E+02  0.1338E+03  0.1333E+03
      0.686  0.3332E+02  0.2982E+02  0.1357E+03  0.1351E+03
      0.745  0.2562E+02  0.3110E+02  0.1373E+03  0.1370E+03
      0.805  0.2520E+02  0.2770E+02  0.1388E+03  0.1386E+03
      0.865  0.3166E+02  0.2798E+02  0.1406E+03  0.1403E+03
      0.924  0.3175E+02  0.2922E+02  0.1425E+03  0.1420E+03
      0.984  0.3243E+02  0.3186E+02  0.1445E+03  0.1439E+03
      1.043  0.2313E+02  0.2600E+02  0.1458E+03  0.1455E+03
      1.103  0.3110E+02  0.3150E+02  0.1477E+03  0.1473E+03
      1.162  0.3397E+02  0.3291E+02  0.1497E+03  0.1493E+03
      1.222  0.2737E+02  0.2493E+02  0.1513E+03  0.1508E+03
      1.281  0.1720E+02  0.2237E+02  0.1524E+03  0.1521E+03
      1.341  0.1311E+02  0.1017E+02  0.1532E+03  0.1527E+03
      1.400  0.2153E+02  0.2316E+02  0.1544E+03  0.1541E+03
      1.460  0.2369E+02  0.2293E+02  0.1558E+03  0.1555E+03
      1.519  0.1993E+02  0.2017E+02  0.1570E+03  0.1567E+03
      1.579  0.2094E+02  0.1996E+02  0.1583E+03  0.1578E+03
      1.638  0.2013E+02  0.2102E+02  0.1595E+03  0.1591E+03
      1.698  0.1850E+02  0.1841E+02  0.1606E+03  0.1602E+03
      1.757  0.2644E+02  0.2826E+02  0.1621E+03  0.1619E+03
      1.817  0.1726E+02  0.1559E+02  0.1632E+03  0.1628E+03
      1.876  0.2315E+02  0.2428E+02  0.1646E+03  0.1642E+03
      1.936  0.2130E+02  0.1760E+02  0.1658E+03  0.1653E+03
      1.995  0.2560E+02  0.1750E+02  0.1673E+03  0.1663E+03
      2.055  0.2414E+02  0.3690E+02  0.1688E+03  0.1685E+03
      2.114  0.1715E+02  0.1713E+02  0.1698E+03  0.1695E+03
      2.174  0.3212E+02  0.2463E+02  0.1717E+03  0.1710E+03
      2.233  0.2079E+02  0.2350E+02  0.1730E+03  0.1724E+03
      2.293  0.2151E+02  0.2347E+02  0.1742E+03  0.1738E+03
      2.352  0.1995E+02  0.1719E+02  0.1754E+03  0.1748E+03
      2.412  0.1529E+02  0.1761E+02  0.1763E+03  0.1759E+03
      2.471  0.6792E+01  0.1307E+02  0.1767E+03  0.1767E+03
      2.531  0.1982E+02  0.1348E+02  0.1779E+03  0.1775E+03
      2.590  0.2187E+02  0.1585E+02  0.1792E+03  0.1784E+03
      2.650  0.2621E+02  0.2338E+02  0.1808E+03  0.1798E+03
      2.709  0.2864E+02  0.3257E+02  0.1825E+03  0.1817E+03
      2.769  0.8230E+01  0.1595E+02  0.1830E+03  0.1827E+03
      2.828  0.1067E+02  0.6357E+01  0.1836E+03  0.1831E+03
      2.888  0.1144E+02  0.1671E+02  0.1843E+03  0.1841E+03
      2.948  0.2153E+02  0.1026E+02  0.1856E+03  0.1847E+03
      3.007  0.8316E+01  0.1835E+02  0.1861E+03  0.1858E+03
      3.067  0.1297E+02  0.9789E+01  0.1868E+03  0.1863E+03
      3.126  0.1528E+02  0.1181E+02  0.1877E+03  0.1870E+03
      3.186  0.2117E+02  0.1847E+02  0.1890E+03  0.1881E+03
      3.245  0.1032E+02  0.2075E+02  0.1896E+03  0.1894E+03
      3.305  0.1581E+02  0.7496E+01  0.1906E+03  0.1898E+03
      3.364  0.1322E+02  0.1730E+02  0.1913E+03  0.1909E+03
      3.424  0.2412E+02  0.1723E+02  0.1928E+03  0.1919E+03
      3.483  0.1038E+02  0.2025E+02  0.1934E+03  0.1931E+03
      3.543  0.8722E+01  0.7473E+01  0.1939E+03  0.1935E+03
      3.602  0.2011E+02  0.1681E+02  0.1951E+03  0.1945E+03
      3.662  0.2208E+02  0.1693E+02  0.1964E+03  0.1955E+03
      3.721  0.1882E+02  0.2388E+02  0.1975E+03  0.1970E+03
      3.781  0.1503E+02  0.1424E+02  0.1984E+03  0.1978E+03
      3.840  0.1462E+02  0.1751E+02  0.1993E+03  0.1988E+03
      3.900  0.8328E+01  0.1192E+02  0.1998E+03  0.1996E+03
      3.959  0.2089E+02  0.1736E+02  0.2011E+03  0.2006E+03
      4.019  0.1212E+02  0.1727E+02  0.2018E+03  0.2016E+03
      4.078  0.1519E+02  0.9095E+01  0.2027E+03  0.2022E+03
      4.138  0.1364E+02  0.1795E+02  0.2035E+03  0.2032E+03
      4.197  0.1834E+02  0.1585E+02  0.2046E+03  0.2042E+03
      4.257  0.1171E+02  0.9817E+01  0.2053E+03  0.2048E+03
      4.316  0.1212E+02  0.1540E+02  0.2060E+03  0.2057E+03
      4.376  0.1256E+02  0.1187E+02  0.2067E+03  0.2064E+03
      4.435  0.1826E+02  0.1999E+02  0.2078E+03  0.2076E+03
      4.495  0.8975E+01  0.1088E+02  0.2084E+03  0.2082E+03
      4.554  0.1457E+02  0.1013E+02  0.2092E+03  0.2088E+03
      4.614  0.1334E+02  0.1688E+02  0.2100E+03  0.2098E+03
      4.673  0.1979E+02  0.1456E+02  0.2112E+03  0.2107E+03
      4.733  0.2299E+02  0.2481E+02  0.2126E+03  0.2122E+03
      4.792  0.1605E+02  0.1513E+02  0.2135E+03  0.2131E+03
      4.852  0.1013E+02  0.1196E+02  0.2141E+03  0.2138E+03
      4.911  0.3356E+02  0.3049E+02  0.2161E+03  0.2156E+03
      4.971  0.1447E+02  0.1777E+02  0.2170E+03  0.2167E+03
      5.031  0.1620E+02  0.1180E+02  0.2180E+03  0.2174E+03
      5.090  0.2403E+02  0.2444E+02  0.2194E+03  0.2188E+03
      5.150  0.1897E+02  0.2365E+02  0.2205E+03  0.2202E+03
      5.209  0.2787E+02  0.2268E+02  0.2222E+03  0.2216E+03
      5.269  0.3274E+02  0.3180E+02  0.2241E+03  0.2235E+03
      5.328  0.1875E+02  0.2568E+02  0.2252E+03  0.2250E+03
      5.388  0.1939E+02  0.1689E+02  0.2264E+03  0.2260E+03
      5.447  0.1423E+02  0.1749E+02  0.2272E+03  0.2270E+03
      5.507  0.2720E+02  0.2379E+02  0.2289E+03  0.2284E+03
      5.566  0.2105E+02  0.2283E+02  0.2301E+03  0.2298E+03
      5.626  0.1779E+02  0.1950E+02  0.2312E+03  0.2310E+03
      5.685  0.6927E+01  0.7989E+01  0.2316E+03  0.2314E+03
      5.745  0.4974E+01  0.5568E+01  0.2319E+03  0.2318E+03
      5.804  0.5421E+00  0.1894E+01  0.2319E+03  0.2319E+03
      5.864  0.1503E+01  0.1865E+01  0.2320E+03  0.2320E+03
      5.923  0.0000E+00  0.0000E+00  0.2320E+03  0.2320E+03
      5.983  0.0000E+00  0.0000E+00  0.2320E+03  0.2320E+03
      6.042  0.0000E+00  0.0000E+00  0.2320E+03  0.2320E+03
      6.102  0.0000E+00  0.0000E+00  0.2320E+03  0.2320E+03
      6.161  0.0000E+00  0.0000E+00  0.2320E+03  0.2320E+03
      6.221  0.0000E+00  0.0000E+00  0.2320E+03  0.2320E+03
      6.280  0.0000E+00  0.0000E+00  0.2320E+03  0.2320E+03
      6.340  0.0000E+00  0.0000E+00  0.2320E+03  0.2320E+03
      6.399  0.0000E+00  0.0000E+00  0.2320E+03  0.2320E+03
      6.459  0.0000E+00  0.0000E+00  0.2320E+03  0.2320E+03
      6.518  0.0000E+00  0.0000E+00  0.2320E+03  0.2320E+03
      6.578  0.0000E+00  0.0000E+00  0.2320E+03  0.2320E+03
      6.637  0.0000E+00  0.0000E+00  0.2320E+03  0.2320E+03
