Si and Ge interface calculation         
           1
     8.001338    0.000000    0.000000
     4.000669   12.002007    0.000000
     0.000000    0.000000   11.611744
   Ge
    48
Direct configuration=     1
   0.99430549  0.99430549  0.00000000
   0.82763886  0.82763886  0.24362403
   0.66097212  0.66097212  0.48724809
   0.32763880  0.32763880  0.00000000
   0.16097215  0.16097215  0.24362403
   0.99430543  0.99430543  0.48724809
   0.66097212  0.66097212  0.00000000
   0.49430543  0.49430543  0.24362403
   0.32763875  0.32763875  0.48724809
   0.24430548  0.99430549  0.12181202
   0.07763879  0.82763886  0.36543608
   0.91097212  0.66097212  0.60906023
   0.57763880  0.32763880  0.12181202
   0.41097212  0.16097213  0.36543608
   0.24430543  0.99430543  0.60906023
   0.91097218  0.66097212  0.12181202
   0.74430549  0.49430546  0.36543608
   0.57763880  0.32763877  0.60906023
   0.49430543  0.99430549  0.00000000
   0.32763877  0.82763886  0.24362403
   0.16097209  0.66097212  0.48724809
   0.16097218  0.66097212  0.00000000
   0.99430549  0.49430546  0.24362403
   0.82763880  0.32763877  0.48724809
   0.82763875  0.32763884  0.00000000
   0.66097212  0.16097216  0.24362403
   0.49430540  0.99430549  0.48724809
   0.07763883  0.32763884  0.12181202
   0.91097212  0.16097215  0.36543608
   0.74430549  0.99430549  0.60906023
   0.74430549  0.99430549  0.12181202
   0.57763880  0.82763880  0.36543608
   0.41097209  0.66097212  0.60906023
   0.41097215  0.66097212  0.12181202
   0.24430545  0.49430540  0.36543608
   0.07763875  0.32763872  0.60906023
   0.06411242  0.93923652  0.70302004
   0.67522353  0.21701431  0.78422809
   0.28633460  0.49479222  0.86543614
   0.56411242  0.93923652  0.70302004
   0.17522351  0.21701431  0.78422809
   0.78633457  0.49479222  0.86543614
   0.86966795  0.82812548  0.74362409
   0.48077908  0.10590315  0.82483214
   0.09188998  0.38368106  0.90604019
   0.36966792  0.82812548  0.74362409
   0.98077911  0.10590315  0.82483214
   0.59189010  0.38368106  0.90604019
