 vasp.6.4.3 19Mar24 (build Oct 22 2024 11:23:12) complex                        
  
 executed on             LinuxIFC date 2025.04.30  07:06:23
 running   16 mpi-ranks, on    1 nodes
 distrk:  each k-point on   16 cores,    1 groups
 distr:  one band on NCORE=  16 cores,    1 groups


--------------------------------------------------------------------------------------------------------


 INCAR:
   SYSTEM = Si011 and Ge011 interface calculation
   ISTART = 0
   ICHARG = 2
   LWAVE = .FALSE.
   LREAL = AUTO
   ENCUT = 700
   ENAUG = 900
   ADDGRID = .TRUE.
   LMAXMIX = 6
   LASPH = .TRUE.
   LMIXTAU = .TRUE.
   NCORE = 16
   NELM = 100
   NBANDS = 346
   EDIFF = 1d-7
   AMIX = 0.6
   ISMEAR = 0
   SIGMA = 0.01
   NELECT = 576
   ISPIN = 2
   NUPDOWN = 1
   LVTOT = .FALSE.
   LVHAR = .TRUE.

 POTCAR:    PAW_PBE Si 05Jan2001                  
 POTCAR:    PAW_PBE Ge 05Jan2001                  
 -----------------------------------------------------------------------------
|                                                                             |
|           W    W    AA    RRRRR   N    N  II  N    N   GGGG   !!!           |
|           W    W   A  A   R    R  NN   N  II  NN   N  G    G  !!!           |
|           W    W  A    A  R    R  N N  N  II  N N  N  G       !!!           |
|           W WW W  AAAAAA  RRRRR   N  N N  II  N  N N  G  GGG   !            |
|           WW  WW  A    A  R   R   N   NN  II  N   NN  G    G                |
|           W    W  A    A  R    R  N    N  II  N    N   GGGG   !!!           |
|                                                                             |
|     You use a magnetic or noncollinear calculation, but did not specify     |
|     the initial magnetic moment with the MAGMOM tag. Note that a            |
|     default of 6.944e-3 will be used for all atoms. This ferromagnetic      |
|     setup may break the symmetry of the crystal, in particular it may       |
|     rule out finding an antiferromagnetic solution. Thence, we              |
|     recommend setting the initial magnetic moment manually or verifying     |
|     carefully that this magnetic setup is desired.                          |
|                                                                             |
 -----------------------------------------------------------------------------

 -----------------------------------------------------------------------------
|                                                                             |
|           W    W    AA    RRRRR   N    N  II  N    N   GGGG   !!!           |
|           W    W   A  A   R    R  NN   N  II  NN   N  G    G  !!!           |
|           W    W  A    A  R    R  N N  N  II  N N  N  G       !!!           |
|           W WW W  AAAAAA  RRRRR   N  N N  II  N  N N  G  GGG   !            |
|           WW  WW  A    A  R   R   N   NN  II  N   NN  G    G                |
|           W    W  A    A  R    R  N    N  II  N    N   GGGG   !!!           |
|                                                                             |
|     For optimal performance we recommend to set                             |
|       NCORE = 2 up to number-of-cores-per-socket                            |
|     NCORE specifies how many cores store one orbital (NPAR=cpu/NCORE).      |
|     This setting can greatly improve the performance of VASP for DFT.       |
|     The default, NCORE=1 might be grossly inefficient on modern             |
|     multi-core architectures or massively parallel machines. Do your        |
|     own testing! More info at https://www.vasp.at/wiki/index.php/NCORE      |
|     Unfortunately you need to use the default for GW and RPA                |
|     calculations (for HF NCORE is supported but not extensively tested      |
|     yet).                                                                   |
|                                                                             |
 -----------------------------------------------------------------------------

 POTCAR:    PAW_PBE Si 05Jan2001                  
   VRHFIN =Si: s2p2                                                                                 
   LEXCH  = PE                                                                                      
   EATOM  =   103.0669 eV,    7.5752 Ry                                                             
                                                                                                    
   TITEL  = PAW_PBE Si 05Jan2001                                                                    
   LULTRA =        F    use ultrasoft PP ?                                                          
   IUNSCR =        1    unscreen: 0-lin 1-nonlin 2-no                                               
   RPACOR =    1.500    partial core radius                                                         
   POMASS =   28.085; ZVAL   =    4.000    mass and valenz                                          
   RCORE  =    1.900    outmost cutoff radius                                                       
   RWIGS  =    2.480; RWIGS  =    1.312    wigner-seitz radius (au A)                               
   ENMAX  =  245.345; ENMIN  =  184.009 eV                                                          
   ICORE  =        2    local potential                                                             
   LCOR   =        T    correct aug charges                                                         
   LPAW   =        T    paw PP                                                                      
   EAUG   =  322.069                                                                                
   DEXC   =    0.000                                                                                
   RMAX   =    1.950    core radius for proj-oper                                                   
   RAUG   =    1.300    factor for augmentation sphere                                              
   RDEP   =    1.993    radius for radial grids                                                     
   RDEPT  =    1.837    core radius for aug-charge                                                  
                                                                                                    
   Atomic configuration                                                                             
    6 entries                                                                                       
     n  l   j            E        occ.                                                              
     1  0  0.50     -1785.8828   2.0000                                                             
     2  0  0.50      -139.4969   2.0000                                                             
     2  1  1.50       -95.5546   6.0000                                                             
     3  0  0.50       -10.8127   2.0000                                                             
     3  1  0.50        -4.0811   2.0000                                                             
     3  2  1.50        -4.0817   0.0000                                                             
   Description                                                                                      
     l       E           TYP  RCUT    TYP  RCUT                                                     
     0    -10.8127223     23  1.900                                                                 
     0     -7.6451159     23  1.900                                                                 
     1     -4.0811372     23  1.900                                                                 
     1      2.4879257     23  1.900                                                                 
     2     -4.0817478      7  1.900                                                                 
  local pseudopotential read in
  partial core-charges read in
  partial kinetic energy density read in
  atomic valenz-charges read in
  non local Contribution for L=           0  read in
    real space projection operators read in
  non local Contribution for L=           0  read in
    real space projection operators read in
  non local Contribution for L=           1  read in
    real space projection operators read in
  non local Contribution for L=           1  read in
    real space projection operators read in
    PAW grid and wavefunctions read in
 
   number of l-projection  operators is LMAX  =           4
   number of lm-projection operators is LMMAX =           8
 
 POTCAR:    PAW_PBE Ge 05Jan2001                  
   VRHFIN =Ge: s2p2                                                                                 
   LEXCH  = PE                                                                                      
   EATOM  =   104.9960 eV,    7.7170 Ry                                                             
                                                                                                    
   TITEL  = PAW_PBE Ge 05Jan2001                                                                    
   LULTRA =        F    use ultrasoft PP ?                                                          
   IUNSCR =        1    unscreen: 0-lin 1-nonlin 2-no                                               
   RPACOR =    2.170    partial core radius                                                         
   POMASS =   72.610; ZVAL   =    4.000    mass and valenz                                          
   RCORE  =    2.300    outmost cutoff radius                                                       
   RWIGS  =    2.300; RWIGS  =    1.217    wigner-seitz radius (au A)                               
   ENMAX  =  173.807; ENMIN  =  130.355 eV                                                          
   ICORE  =        3    local potential                                                             
   LCOR   =        T    correct aug charges                                                         
   LPAW   =        T    paw PP                                                                      
   EAUG   =  385.843                                                                                
   DEXC   =    0.000                                                                                
   RMAX   =    2.342    core radius for proj-oper                                                   
   RAUG   =    1.300    factor for augmentation sphere                                              
   RDEP   =    2.318    radius for radial grids                                                     
   RDEPT  =    2.103    core radius for aug-charge                                                  
                                                                                                    
   Atomic configuration                                                                             
   10 entries                                                                                       
     n  l   j            E        occ.                                                              
     1  0  0.50    -10959.8463   2.0000                                                             
     2  0  0.50     -1371.6056   2.0000                                                             
     2  1  1.50     -1198.4791   6.0000                                                             
     3  0  0.50      -168.4733   2.0000                                                             
     3  1  1.50      -115.6019   6.0000                                                             
     3  2  2.50       -29.3106  10.0000                                                             
     4  0  0.50       -11.7309   2.0000                                                             
     4  1  0.50        -3.8952   2.0000                                                             
     4  2  1.50        -4.0817   0.0000                                                             
     4  3  2.50        -4.0817   0.0000                                                             
   Description                                                                                      
     l       E           TYP  RCUT    TYP  RCUT                                                     
     0    -11.7309493     23  2.300                                                                 
     0     -7.4578696     23  2.300                                                                 
     1     -3.8952261     23  2.300                                                                 
     1      6.1178114     23  2.300                                                                 
     2     -4.0817478     23  2.300                                                                 
     3     -1.3605826      7  2.300                                                                 
  local pseudopotential read in
  partial core-charges read in
  partial kinetic energy density read in
  atomic valenz-charges read in
  non local Contribution for L=           0  read in
    real space projection operators read in
  non local Contribution for L=           0  read in
    real space projection operators read in
  non local Contribution for L=           1  read in
    real space projection operators read in
  non local Contribution for L=           1  read in
    real space projection operators read in
  non local Contribution for L=           2  read in
    real space projection operators read in
    PAW grid and wavefunctions read in
 
   number of l-projection  operators is LMAX  =           5
   number of lm-projection operators is LMMAX =          13
 
 Optimization of the real space projectors (new method)

 maximal supplied QI-value         = 19.84
 optimisation between [QCUT,QGAM] = [ 13.49, 26.99] = [ 50.98,203.92] Ry 
 Optimized for a Real-space Cutoff    1.07 Angstroem

   l    n(q)    QCUT    max X(q) W(low)/X(q) W(high)/X(q)  e(spline) 
   0      9    13.493   159.560    0.22E-03    0.15E-03    0.72E-07
   0      9    13.493   115.863    0.21E-03    0.15E-03    0.71E-07
   1      8    13.493    88.339    0.15E-03    0.11E-03    0.13E-06
   1      8    13.493    48.592    0.15E-03    0.10E-03    0.13E-06
 Optimization of the real space projectors (new method)

 maximal supplied QI-value         = 16.25
 optimisation between [QCUT,QGAM] = [ 13.49, 26.98] = [ 50.95,203.80] Ry 
 Optimized for a Real-space Cutoff    1.25 Angstroem

   l    n(q)    QCUT    max X(q) W(low)/X(q) W(high)/X(q)  e(spline) 
   0     10    13.489    65.336    0.91E-04    0.11E-03    0.34E-06
   0     10    13.489    52.220    0.89E-04    0.11E-03    0.34E-06
   1     10    13.489    36.409    0.22E-03    0.27E-03    0.14E-06
   1     10    13.489    21.334    0.21E-03    0.27E-03    0.14E-06
   2      9    13.489     4.673    0.11E-03    0.12E-03    0.19E-06
  PAW_PBE Si 05Jan2001                  :
 energy of atom  1       EATOM= -103.0669
 kinetic energy error for atom=    0.0003 (will be added to EATOM!!)
  PAW_PBE Ge 05Jan2001                  :
 energy of atom  2       EATOM= -104.9960
 kinetic energy error for atom=    0.0001 (will be added to EATOM!!)
 
 
 POSCAR: fcc Si+fcc Ge
  positions in direct lattice
  No initial velocities read in


 exchange-correlation table for PE
   RHO(1)=    0.500       N(1)  =     2000
   RHO(2)=  100.500       N(2)  =     4000
 


--------------------------------------------------------------------------------------------------------


 ion  position               nearest neighbor table
   1  0.000  0.000  0.000- 114 2.37  38 2.37 108 2.37  96 2.56  49 2.70
   2  0.000  0.750  0.080-  39 2.37  50 2.37 108 2.37  56 2.37
   3  0.000  0.500  0.161-  56 2.37  51 2.37  40 2.37  57 2.37
   4  0.000  0.250  0.241-  52 2.37  41 2.37  57 2.37  58 2.37
   5  0.376  0.825  0.493- 133 2.37  54 2.37 116 2.43  66 2.55
   6  0.000  0.750  0.402- 109 2.37  59 2.37 103 2.37  91 2.56  54 2.70
   7  0.793  0.908  0.909-  96 2.37  90 2.37 107 2.43 114 2.56
   8  0.333  0.083  0.080-  45 2.37  62 2.37  38 2.37  61 2.37
   9  0.333  0.833  0.161-  62 2.37  63 2.37  39 2.37  46 2.37
  10  0.333  0.583  0.241-  64 2.37  40 2.37  63 2.37  47 2.37
  11  0.333  0.333  0.322-  65 2.37  41 2.37  64 2.37  48 2.37
  12  0.793  0.658  0.493-  91 2.37  85 2.37  86 2.43 109 2.56
  13  0.459  0.741  0.909- 102 2.37  90 2.37  83 2.43  43 2.45  25 2.79
  14  0.667  0.417  0.080-  51 2.37  44 2.37  67 2.37  68 2.37
  15  0.667  0.167  0.161-  68 2.37  45 2.37  52 2.37  69 2.37
  16  0.667  0.917  0.241-  46 2.37  53 2.37  69 2.37  70 2.37
  17  0.667  0.667  0.322-  47 2.37  70 2.37 109 2.37  71 2.37
  18  0.459  0.491  0.493-  97 2.37  85 2.37  98 2.43  48 2.45  30 2.79
  19  0.000  0.500  0.000-  67 2.37  56 2.37  37 2.37  27 2.56 132 2.70
  20  0.376  0.075  0.909- 138 2.37  49 2.37 137 2.43  61 2.55
  21  0.000  0.000  0.161-  38 2.37  69 2.37  58 2.37  39 2.37
  22  0.000  0.750  0.241-  70 2.37  59 2.37  39 2.37  40 2.37
  23  0.000  0.500  0.322-  71 2.37  40 2.37 103 2.37  41 2.37
  24  0.000  0.250  0.402-  72 2.37  41 2.37  42 2.37  28 2.56 127 2.70
  25  0.333  0.833  0.000-  43 2.37 108 2.37  62 2.37  13 2.79
  26  0.333  0.583  0.080-  63 2.37  44 2.37  56 2.37  43 2.37
  27  0.043  0.408  0.909- 126 2.37 132 2.37 131 2.43  37 2.45  19 2.56
  28  0.043  0.158  0.493- 121 2.37 127 2.37 110 2.43  42 2.45  24 2.56
  29  0.333  0.833  0.322-  47 2.37  59 2.37  46 2.37  66 2.37
  30  0.333  0.583  0.402-  48 2.37 103 2.37  47 2.37  18 2.79
  31  0.667  0.167  0.000-  61 2.37  68 2.37 114 2.37  55 2.45
  32  0.667  0.917  0.080-  69 2.37  62 2.37 114 2.37  50 2.37
  33  0.667  0.667  0.161-  50 2.37  63 2.37  70 2.37  51 2.37
  34  0.667  0.417  0.241-  64 2.37  51 2.37  71 2.37  52 2.37
  35  0.667  0.167  0.322-  65 2.37  52 2.37  72 2.37  53 2.37
  36  0.667  0.917  0.402-  66 2.37  53 2.37 109 2.37  60 2.45
  37  0.083  0.333  0.000- 144 2.37  84 2.37  19 2.37  27 2.45
  38  0.083  0.083  0.080-  21 2.37   8 2.37   1 2.37  84 2.37
  39  0.083  0.833  0.161-   2 2.37   9 2.37  22 2.37  21 2.37
  40  0.083  0.583  0.241-  10 2.37   3 2.37  23 2.37  22 2.37
  41  0.083  0.333  0.322-  11 2.37   4 2.37  24 2.37  23 2.37
  42  0.083  0.083  0.402- 139 2.37  79 2.37  24 2.37  28 2.45
  43  0.417  0.667  0.000-  25 2.37 120 2.37  26 2.37  13 2.45 102 2.55
  44  0.417  0.417  0.080-  78 2.37  26 2.37  14 2.37 144 2.37
  45  0.417  0.167  0.161-   8 2.37  78 2.37  15 2.37  73 2.37
  46  0.417  0.917  0.241-  73 2.37  16 2.37  29 2.37   9 2.37
  47  0.417  0.667  0.322-  29 2.37  17 2.37  10 2.37  30 2.37
  48  0.417  0.417  0.402-  30 2.37 115 2.37  11 2.37  18 2.45  97 2.55
  49  0.126  0.075  0.909-  20 2.37  96 2.37  77 2.43   1 2.70
  50  0.750  0.750  0.080-  33 2.37   2 2.37 120 2.37  32 2.37
  51  0.750  0.500  0.161-  14 2.37   3 2.37  34 2.37  33 2.37
  52  0.750  0.250  0.241-   4 2.37  15 2.37  35 2.37  34 2.37
  53  0.750  0.000  0.322-  79 2.37  36 2.37  16 2.37  35 2.37
  54  0.126  0.825  0.493-   5 2.37  91 2.37  92 2.43   6 2.70
  55  0.709  0.241  0.909- 138 2.37 126 2.37 125 2.43  31 2.45
  56  0.083  0.583  0.080-   3 2.37  26 2.37  19 2.37   2 2.37
  57  0.083  0.333  0.161-  84 2.37  78 2.37   4 2.37   3 2.37
  58  0.083  0.083  0.241-  73 2.37  21 2.37  79 2.37   4 2.37
  59  0.083  0.833  0.322-  29 2.37  22 2.37   6 2.37  79 2.37
  60  0.709  0.991  0.493- 133 2.37 121 2.37 140 2.43  36 2.45
  61  0.417  0.167  0.000- 144 2.37  31 2.37   8 2.37 138 2.45  20 2.55
  62  0.417  0.917  0.080-   9 2.37   8 2.37  32 2.37  25 2.37
  63  0.417  0.667  0.161-  26 2.37   9 2.37  33 2.37  10 2.37
  64  0.417  0.417  0.241-  10 2.37  34 2.37  11 2.37  78 2.37
  65  0.417  0.167  0.322-  11 2.37  35 2.37  73 2.37 139 2.37
  66  0.417  0.917  0.402- 139 2.37  36 2.37  29 2.37 133 2.45   5 2.55
  67  0.750  0.500  0.000-  19 2.37  14 2.37 120 2.37 126 2.56
  68  0.750  0.250  0.080-  15 2.37  84 2.37  31 2.37  14 2.37
  69  0.750  0.000  0.161-  32 2.37  21 2.37  16 2.37  15 2.37
  70  0.750  0.750  0.241-  22 2.37  17 2.37  33 2.37  16 2.37
  71  0.750  0.500  0.322-  23 2.37  34 2.37 115 2.37  17 2.37
  72  0.750  0.250  0.402-  24 2.37  35 2.37 115 2.37 121 2.56
  73  0.333  0.083  0.241-  46 2.37  58 2.37  45 2.37  65 2.37
  74  0.043  0.408  0.576- 122 2.37 128 2.37 127 2.43 111 2.43
  75  0.043  0.658  0.660- 123 2.37 129 2.37 128 2.43 112 2.43
  76  0.043  0.908  0.743- 124 2.37 130 2.37 113 2.43 129 2.43
  77  0.043  0.158  0.826- 125 2.37 131 2.37 130 2.43  49 2.43
  78  0.333  0.333  0.161-  44 2.37  45 2.37  57 2.37  64 2.37
  79  0.000  0.000  0.322-  53 2.37  42 2.37  58 2.37  59 2.37
  80  0.376  0.075  0.576- 134 2.37 110 2.37 133 2.43 117 2.43
  81  0.376  0.325  0.660- 135 2.37 111 2.37 134 2.43 118 2.43
  82  0.376  0.575  0.743- 136 2.37 112 2.37 119 2.43 135 2.43
  83  0.376  0.825  0.826- 137 2.37 113 2.37 136 2.43  13 2.43
  84  0.000  0.250  0.080-  57 2.37  68 2.37  37 2.37  38 2.37
  85  0.709  0.491  0.493-  18 2.37  12 2.37 122 2.43 115 2.45
  86  0.709  0.741  0.576- 116 2.37 140 2.37 123 2.43  12 2.43
  87  0.709  0.991  0.660- 117 2.37 141 2.37 140 2.43 124 2.43
  88  0.709  0.241  0.743- 118 2.37 142 2.37 125 2.43 141 2.43
  89  0.709  0.491  0.826- 119 2.37 143 2.37 142 2.43 126 2.43
  90  0.709  0.741  0.909-  13 2.37   7 2.37 143 2.43 120 2.45
  91  0.043  0.658  0.493-  12 2.37  54 2.37 128 2.43 103 2.45   6 2.56
  92  0.043  0.908  0.576- 140 2.37 110 2.37 129 2.43  54 2.43
  93  0.043  0.158  0.660- 141 2.37 111 2.37 130 2.43 110 2.43
  94  0.043  0.408  0.743- 142 2.37 112 2.37 131 2.43 111 2.43
  95  0.043  0.658  0.826- 143 2.37 113 2.37 112 2.43 132 2.43
  96  0.043  0.908  0.909-   7 2.37  49 2.37 113 2.43 108 2.45   1 2.56
  97  0.376  0.325  0.493-  18 2.37 127 2.37 134 2.43  48 2.55
  98  0.376  0.575  0.576- 116 2.37 128 2.37  18 2.43 135 2.43
  99  0.376  0.825  0.660- 117 2.37 129 2.37 116 2.43 136 2.43
 100  0.376  0.075  0.743- 118 2.37 130 2.37 137 2.43 117 2.43
 101  0.376  0.325  0.826- 119 2.37 131 2.37 118 2.43 138 2.43
 102  0.376  0.575  0.909-  13 2.37 132 2.37 119 2.43  43 2.55
 103  0.083  0.583  0.402-  30 2.37  23 2.37   6 2.37  91 2.45
 104  0.709  0.241  0.576- 134 2.37 122 2.37 121 2.43 141 2.43
 105  0.709  0.491  0.660- 135 2.37 123 2.37 122 2.43 142 2.43
 106  0.709  0.741  0.743- 136 2.37 124 2.37 143 2.43 123 2.43
 107  0.709  0.991  0.826- 137 2.37 125 2.37 124 2.43   7 2.43
 108  0.083  0.833  0.000-  25 2.37   2 2.37   1 2.37  96 2.45
 109  0.750  0.750  0.402-   6 2.37  17 2.37  36 2.37  12 2.56
 110  0.126  0.075  0.576-  80 2.37  92 2.37  28 2.43  93 2.43
 111  0.126  0.325  0.660-  81 2.37  93 2.37  74 2.43  94 2.43
 112  0.126  0.575  0.743-  82 2.37  94 2.37  95 2.43  75 2.43
 113  0.126  0.825  0.826-  83 2.37  95 2.37  76 2.43  96 2.43
 114  0.750  0.000  0.000-   1 2.37  32 2.37  31 2.37   7 2.56
 115  0.667  0.417  0.402-  48 2.37  71 2.37  72 2.37  85 2.45
 116  0.459  0.741  0.576-  98 2.37  86 2.37   5 2.43  99 2.43
 117  0.459  0.991  0.660-  99 2.37  87 2.37  80 2.43 100 2.43
 118  0.459  0.241  0.743- 100 2.37  88 2.37 101 2.43  81 2.43
 119  0.459  0.491  0.826- 101 2.37  89 2.37  82 2.43 102 2.43
 120  0.667  0.667  0.000-  43 2.37  50 2.37  67 2.37  90 2.45
 121  0.793  0.158  0.493-  28 2.37  60 2.37 104 2.43  72 2.56
 122  0.793  0.408  0.576-  74 2.37 104 2.37  85 2.43 105 2.43
 123  0.793  0.658  0.660-  75 2.37 105 2.37  86 2.43 106 2.43
 124  0.793  0.908  0.743-  76 2.37 106 2.37 107 2.43  87 2.43
 125  0.793  0.158  0.826-  77 2.37 107 2.37  88 2.43  55 2.43
 126  0.793  0.408  0.909-  27 2.37  55 2.37  89 2.43  67 2.56
 127  0.126  0.325  0.493-  97 2.37  28 2.37  74 2.43  24 2.70
 128  0.126  0.575  0.576-  98 2.37  74 2.37  91 2.43  75 2.43
 129  0.126  0.825  0.660-  99 2.37  75 2.37  92 2.43  76 2.43
 130  0.126  0.075  0.743- 100 2.37  76 2.37  77 2.43  93 2.43
 131  0.126  0.325  0.826- 101 2.37  77 2.37  94 2.43  27 2.43
 132  0.126  0.575  0.909- 102 2.37  27 2.37  95 2.43  19 2.70
 133  0.459  0.991  0.493-   5 2.37  60 2.37  80 2.43  66 2.45 139 2.79
 134  0.459  0.241  0.576-  80 2.37 104 2.37  97 2.43  81 2.43
 135  0.459  0.491  0.660-  81 2.37 105 2.37  98 2.43  82 2.43
 136  0.459  0.741  0.743-  82 2.37 106 2.37  83 2.43  99 2.43
 137  0.459  0.991  0.826-  83 2.37 107 2.37 100 2.43  20 2.43
 138  0.459  0.241  0.909-  20 2.37  55 2.37 101 2.43  61 2.45 144 2.79
 139  0.333  0.083  0.402-  66 2.37  42 2.37  65 2.37 133 2.79
 140  0.793  0.908  0.576-  92 2.37  86 2.37  87 2.43  60 2.43
 141  0.793  0.158  0.660-  93 2.37  87 2.37  88 2.43 104 2.43
 142  0.793  0.408  0.743-  94 2.37  88 2.37  89 2.43 105 2.43
 143  0.793  0.658  0.826-  95 2.37  89 2.37 106 2.43  90 2.43
 144  0.333  0.333  0.000-  61 2.37  37 2.37  44 2.37 138 2.79
 
  LATTYP: Found a simple orthorhombic cell.
 ALAT       =     9.4916384250
 B/A-ratio  =     1.4142135624
 C/A-ratio  =     2.5383314005
  
  Lattice vectors:
  
 A1 = (   9.4916384250,   0.0000000000,   0.0000000000)
 A2 = (   0.0000000000,  13.4232037900,   0.0000000000)
 A3 = (   0.0000000000,   0.0000000000,  24.0929238560)


Analysis of symmetry for initial positions (statically):
=====================================================================
 Subroutine PRICEL returns:
 Original cell was already a primitive cell.
 

 Routine SETGRP: Setting up the symmetry group for a 
 simple orthorhombic supercell.


 Subroutine GETGRP returns: Found  1 space group operations
 (whereof  1 operations were pure point group operations)
 out of a pool of  8 trial point group operations.


The static configuration has the point symmetry C_1 .


Analysis of symmetry for dynamics (positions and initial velocities):
=====================================================================
 Subroutine PRICEL returns:
 Original cell was already a primitive cell.
 

 Routine SETGRP: Setting up the symmetry group for a 
 simple orthorhombic supercell.


 Subroutine GETGRP returns: Found  1 space group operations
 (whereof  1 operations were pure point group operations)
 out of a pool of  8 trial point group operations.


The dynamic configuration has the point symmetry C_1 .


Analysis of structural, dynamic, and magnetic symmetry:
=====================================================================
 Subroutine PRICEL returns:
 Original cell was already a primitive cell.
 

 Routine SETGRP: Setting up the symmetry group for a 
 simple orthorhombic supercell.


 Subroutine GETGRP returns: Found  1 space group operations
 (whereof  1 operations were pure point group operations)
 out of a pool of  8 trial point group operations.


The overall configuration has the point symmetry C_1 .


 Subroutine INISYM returns: Found  1 space group operations
 (whereof  1 operations are pure point group operations),
 and found     1 'primitive' translations


----------------------------------------------------------------------------------------

                                     Primitive cell                                     

  volume of cell :    3069.6360

  direct lattice vectors                    reciprocal lattice vectors
     9.491638425  0.000000000  0.000000000     0.105355889  0.000000000  0.000000000
     0.000000000 13.423203790  0.000000000     0.000000000  0.074497863  0.000000000
     0.000000000  0.000000000 24.092923856     0.000000000  0.000000000  0.041505963

  length of vectors
     9.491638425 13.423203790 24.092923856     0.105355889  0.074497863  0.041505963

  position of ions in fractional coordinates (direct lattice)
     0.000000000  0.000000000  0.000000000
     0.000000000  0.750000000  0.080416665
     0.000000000  0.500000000  0.160833329
     0.000000000  0.250000000  0.241249994
     0.375886525  0.824561404  0.493396442
     0.000000000  0.750000000  0.402083324
     0.792553191  0.907894737  0.908686882
     0.333333333  0.083333333  0.080416665
     0.333333333  0.833333333  0.160833329
     0.333333333  0.583333333  0.241249994
     0.333333333  0.333333333  0.321666659
     0.792553191  0.657894737  0.493396442
     0.459219858  0.741228070  0.908686882
     0.666666667  0.416666667  0.080416665
     0.666666667  0.166666667  0.160833329
     0.666666667  0.916666667  0.241249994
     0.666666667  0.666666667  0.321666659
     0.459219858  0.491228070  0.493396442
     0.000000000  0.500000000  0.000000000
     0.375886525  0.074561404  0.908686882
     0.000000000  0.000000000  0.160833329
     0.000000000  0.750000000  0.241249994
     0.000000000  0.500000000  0.321666659
     0.000000000  0.250000000  0.402083324
     0.333333333  0.833333333  0.000000000
     0.333333333  0.583333333  0.080416665
     0.042553191  0.407894737  0.908686882
     0.042553191  0.157894737  0.493396442
     0.333333333  0.833333333  0.321666659
     0.333333333  0.583333333  0.402083324
     0.666666667  0.166666667  0.000000000
     0.666666667  0.916666667  0.080416665
     0.666666667  0.666666667  0.160833329
     0.666666667  0.416666667  0.241249994
     0.666666667  0.166666667  0.321666659
     0.666666667  0.916666667  0.402083324
     0.083333333  0.333333333  0.000000000
     0.083333333  0.083333333  0.080416665
     0.083333333  0.833333333  0.160833329
     0.083333333  0.583333333  0.241249994
     0.083333333  0.333333333  0.321666659
     0.083333333  0.083333333  0.402083324
     0.416666667  0.666666667  0.000000000
     0.416666667  0.416666667  0.080416665
     0.416666667  0.166666667  0.160833329
     0.416666667  0.916666667  0.241249994
     0.416666667  0.666666667  0.321666659
     0.416666667  0.416666667  0.402083324
     0.125886525  0.074561404  0.908686882
     0.750000000  0.750000000  0.080416665
     0.750000000  0.500000000  0.160833329
     0.750000000  0.250000000  0.241249994
     0.750000000  0.000000000  0.321666659
     0.125886525  0.824561404  0.493396442
     0.709219858  0.241228070  0.908686882
     0.083333333  0.583333333  0.080416665
     0.083333333  0.333333333  0.160833329
     0.083333333  0.083333333  0.241249994
     0.083333333  0.833333333  0.321666659
     0.709219858  0.991228070  0.493396442
     0.416666667  0.166666667  0.000000000
     0.416666667  0.916666667  0.080416665
     0.416666667  0.666666667  0.160833329
     0.416666667  0.416666667  0.241249994
     0.416666667  0.166666667  0.321666659
     0.416666667  0.916666667  0.402083324
     0.750000000  0.500000000  0.000000000
     0.750000000  0.250000000  0.080416665
     0.750000000  0.000000000  0.160833329
     0.750000000  0.750000000  0.241249994
     0.750000000  0.500000000  0.321666659
     0.750000000  0.250000000  0.402083324
     0.333333333  0.083333333  0.241249994
     0.042553191  0.407894737  0.576454530
     0.042553191  0.657894737  0.659512618
     0.042553191  0.907894737  0.742570706
     0.042553191  0.157894737  0.825628794
     0.333333333  0.333333333  0.160833329
     0.000000000  0.000000000  0.321666659
     0.375886525  0.074561404  0.576454530
     0.375886525  0.324561404  0.659512618
     0.375886525  0.574561404  0.742570706
     0.375886525  0.824561404  0.825628794
     0.000000000  0.250000000  0.080416665
     0.709219858  0.491228070  0.493396442
     0.709219858  0.741228070  0.576454530
     0.709219858  0.991228070  0.659512618
     0.709219858  0.241228070  0.742570706
     0.709219858  0.491228070  0.825628794
     0.709219858  0.741228070  0.908686882
     0.042553191  0.657894737  0.493396442
     0.042553191  0.907894737  0.576454530
     0.042553191  0.157894737  0.659512618
     0.042553191  0.407894737  0.742570706
     0.042553191  0.657894737  0.825628794
     0.042553191  0.907894737  0.908686882
     0.375886525  0.324561404  0.493396442
     0.375886525  0.574561404  0.576454530
     0.375886525  0.824561404  0.659512618
     0.375886525  0.074561404  0.742570706
     0.375886525  0.324561404  0.825628794
     0.375886525  0.574561404  0.908686882
     0.083333333  0.583333333  0.402083324
     0.709219858  0.241228070  0.576454530
     0.709219858  0.491228070  0.659512618
     0.709219858  0.741228070  0.742570706
     0.709219858  0.991228070  0.825628794
     0.083333333  0.833333333  0.000000000
     0.750000000  0.750000000  0.402083324
     0.125886525  0.074561404  0.576454530
     0.125886525  0.324561404  0.659512618
     0.125886525  0.574561404  0.742570706
     0.125886525  0.824561404  0.825628794
     0.750000000  0.000000000  0.000000000
     0.666666667  0.416666667  0.402083324
     0.459219858  0.741228070  0.576454530
     0.459219858  0.991228070  0.659512618
     0.459219858  0.241228070  0.742570706
     0.459219858  0.491228070  0.825628794
     0.666666667  0.666666667  0.000000000
     0.792553191  0.157894737  0.493396442
     0.792553191  0.407894737  0.576454530
     0.792553191  0.657894737  0.659512618
     0.792553191  0.907894737  0.742570706
     0.792553191  0.157894737  0.825628794
     0.792553191  0.407894737  0.908686882
     0.125886525  0.324561404  0.493396442
     0.125886525  0.574561404  0.576454530
     0.125886525  0.824561404  0.659512618
     0.125886525  0.074561404  0.742570706
     0.125886525  0.324561404  0.825628794
     0.125886525  0.574561404  0.908686882
     0.459219858  0.991228070  0.493396442
     0.459219858  0.241228070  0.576454530
     0.459219858  0.491228070  0.659512618
     0.459219858  0.741228070  0.742570706
     0.459219858  0.991228070  0.825628794
     0.459219858  0.241228070  0.908686882
     0.333333333  0.083333333  0.402083324
     0.792553191  0.907894737  0.576454530
     0.792553191  0.157894737  0.659512618
     0.792553191  0.407894737  0.742570706
     0.792553191  0.657894737  0.825628794
     0.333333333  0.333333333  0.000000000

  ion indices of the primitive-cell ions
   primitive index   ion index
                 1           1
                 2           2
                 3           3
                 4           4
                 5           5
                 6           6
                 7           7
                 8           8
                 9           9
                10          10
                11          11
                12          12
                13          13
                14          14
                15          15
                16          16
                17          17
                18          18
                19          19
                20          20
                21          21
                22          22
                23          23
                24          24
                25          25
                26          26
                27          27
                28          28
                29          29
                30          30
                31          31
                32          32
                33          33
                34          34
                35          35
                36          36
                37          37
                38          38
                39          39
                40          40
                41          41
                42          42
                43          43
                44          44
                45          45
                46          46
                47          47
                48          48
                49          49
                50          50
                51          51
                52          52
                53          53
                54          54
                55          55
                56          56
                57          57
                58          58
                59          59
                60          60
                61          61
                62          62
                63          63
                64          64
                65          65
                66          66
                67          67
                68          68
                69          69
                70          70
                71          71
                72          72
                73          73
                74          74
                75          75
                76          76
                77          77
                78          78
                79          79
                80          80
                81          81
                82          82
                83          83
                84          84
                85          85
                86          86
                87          87
                88          88
                89          89
                90          90
                91          91
                92          92
                93          93
                94          94
                95          95
                96          96
                97          97
                98          98
                99          99
               100         100
               101         101
               102         102
               103         103
               104         104
               105         105
               106         106
               107         107
               108         108
               109         109
               110         110
               111         111
               112         112
               113         113
               114         114
               115         115
               116         116
               117         117
               118         118
               119         119
               120         120
               121         121
               122         122
               123         123
               124         124
               125         125
               126         126
               127         127
               128         128
               129         129
               130         130
               131         131
               132         132
               133         133
               134         134
               135         135
               136         136
               137         137
               138         138
               139         139
               140         140
               141         141
               142         142
               143         143
               144         144

----------------------------------------------------------------------------------------

 
 
 KPOINTS: Automatic KPOINTS generated             

Automatic generation of k-mesh.
 Grid dimensions read from file:
 generate k-points for:    3    2    1

 Generating k-lattice:

  Cartesian coordinates                     Fractional coordinates (reciprocal lattice)
     0.035118630  0.000000000  0.000000000     0.333333333  0.000000000  0.000000000
     0.000000000  0.037248932  0.000000000     0.000000000  0.500000000  0.000000000
     0.000000000  0.000000000  0.041505963     0.000000000  0.000000000  1.000000000

  Length of vectors
     0.035118630  0.037248932  0.041505963

  Shift w.r.t. Gamma in fractional coordinates (k-lattice)
     0.000000000  0.000000000  0.000000000

 
 Subroutine IBZKPT returns following result:
 ===========================================
 
 Found      4 irreducible k-points:
 
 Following reciprocal coordinates:
            Coordinates               Weight
  0.000000  0.000000  0.000000      1.000000
  0.333333  0.000000  0.000000      2.000000
  0.000000  0.500000  0.000000      1.000000
  0.333333  0.500000  0.000000      2.000000
 
 Following cartesian coordinates:
            Coordinates               Weight
  0.000000  0.000000  0.000000      1.000000
  0.035119  0.000000  0.000000      2.000000
  0.000000  0.037249  0.000000      1.000000
  0.035119  0.037249  0.000000      2.000000
 


--------------------------------------------------------------------------------------------------------




 Dimension of arrays:
   k-points           NKPTS =      4   k-points in BZ     NKDIM =      4   number of bands    NBANDS=    346
   number of dos      NEDOS =    301   number of ions     NIONS =    144
   non local maximal  LDIM  =      5   non local SUM 2l+1 LMDIM =     13
   total plane-waves  NPLWV = 921600
   max r-space proj   IRMAX =   2483   max aug-charges    IRDMAX= 130725
   dimension x,y,z NGX =    64 NGY =   90 NGZ =  160
   dimension x,y,z NGXF=   128 NGYF=  180 NGZF=  320
   support grid    NGXF=   256 NGYF=  360 NGZF=  640
   ions per type =              72  72
   NGX,Y,Z   is equivalent  to a cutoff of  11.21, 11.15, 11.04 a.u.
   NGXF,Y,Z  is equivalent  to a cutoff of  22.42, 22.29, 22.08 a.u.

 SYSTEM =  Si011 and Ge011 interface calculation   
 POSCAR =  fcc Si+fcc Ge                           

 Startparameter for this run:
   NWRITE =      2    write-flag & timer
   PREC   = normal    normal or accurate (medium, high low for compatibility)
   ISTART =      0    job   : 0-new  1-cont  2-samecut
   ICHARG =      2    charge: 1-file 2-atom 10-const
   ISPIN  =      2    spin polarized calculation?
   LNONCOLLINEAR =      F non collinear calculations
   LSORBIT =      F    spin-orbit coupling
   INIWAV =      1    electr: 0-lowe 1-rand  2-diag
   LASPH  =      T    aspherical Exc in radial PAW
 Electronic Relaxation 1
   ENCUT  =  700.0 eV  51.45 Ry    7.17 a.u.  20.48 28.96 51.98*2*pi/ulx,y,z
   ENINI  =  700.0     initial cutoff
   ENAUG  =  900.0 eV  augmentation charge cutoff
   NELM   =    100;   NELMIN=  2; NELMDL= -5     # of ELM steps 
   EDIFF  = 0.1E-06   stopping-criterion for ELM
   LREAL  =      T    real-space projection
   NLSPLINE    = F    spline interpolate recip. space projectors
   LCOMPAT=      F    compatible to vasp.4.4
   GGA_COMPAT  = T    GGA compatible to vasp.4.4-vasp.4.6
   LMAXPAW     = -100 max onsite density
   LMAXMIX     =    6 max onsite mixed and CHGCAR
   VOSKOWN=      0    Vosko Wilk Nusair interpolation
   ROPT   =   -0.00050  -0.00050
 Ionic relaxation
   EDIFFG = 0.1E-05   stopping-criterion for IOM
   NSW    =      0    number of steps for IOM
   NBLOCK =      1;   KBLOCK =      1    inner block; outer block 
   IBRION =     -1    ionic relax: 0-MD 1-quasi-New 2-CG
   NFREE  =      0    steps in history (QN), initial steepest desc. (CG)
   ISIF   =      2    stress and relaxation
   IWAVPR =     10    prediction:  0-non 1-charg 2-wave 3-comb
   ISYM   =      2    0-nonsym 1-usesym 2-fastsym
   LCORR  =      T    Harris-Foulkes like correction to forces

   POTIM  = 0.5000    time-step for ionic-motion
   TEIN   =    0.0    initial temperature
   TEBEG  =    0.0;   TEEND  =   0.0 temperature during run
   SMASS  =  -3.00    Nose mass-parameter (am)
   estimated Nose-frequenzy (Omega)   =  0.10E-29 period in steps = 0.13E+47 mass=  -0.206E-26a.u.
   SCALEE = 1.0000    scale energy and forces
   NPACO  =    256;   APACO  = 10.0  distance and # of slots for P.C.
   PSTRESS=    0.0 pullay stress

  Mass of Ions in am
   POMASS =  28.09 72.61
  Ionic Valenz
   ZVAL   =   4.00  4.00
  Atomic Wigner-Seitz radii
   RWIGS  =  -1.00 -1.00
  virtual crystal weights 
   VCA    =   1.00  1.00
   NELECT =     576.0000    total number of electrons
   NUPDOWN=       1.0000    fix difference up-down

 DOS related values:
   EMIN   =  10.00;   EMAX   =-10.00  energy-range for DOS
   EFERMI =   0.00;   METHOD = LEGACY      
   ISMEAR =     0;   SIGMA  =   0.01  broadening in eV -4-tet -1-fermi 0-gaus

 Electronic relaxation 2 (details)
   IALGO  =     38    algorithm
   LDIAG  =      T    sub-space diagonalisation (order eigenvalues)
   LSUBROT=      F    optimize rotation matrix (better conditioning)
   TURBO    =      0    0=normal 1=particle mesh
   IRESTART =      0    0=no restart 2=restart with 2 vectors
   NREBOOT  =      0    no. of reboots
   NMIN     =      0    reboot dimension
   EREF     =   0.00    reference energy to select bands
   IMIX   =      4    mixing-type and parameters
     AMIX     =   0.60;   BMIX     =  1.00
     AMIX_MAG =   2.40;   BMIX_MAG =  1.00
     AMIN     =   0.10
     WC   =   100.;   INIMIX=   1;  MIXPRE=   1;  MAXMIX= -45

 Intra band minimization:
   WEIMIN = 0.0000     energy-eigenvalue tresh-hold
   EBREAK =  0.72E-10  absolut break condition
   DEPER  =   0.30     relativ break condition  

   TIME   =   0.40     timestep for ELM

  volume/ion in A,a.u.               =      21.32       143.85
  Fermi-wavevector in a.u.,A,eV,Ry     =   0.937246  1.771137 11.951754  0.878429
  Thomas-Fermi vector in A             =   2.064337
 
 Write flags
   LWAVE        =      F    write WAVECAR
   LDOWNSAMPLE  =      F    k-point downsampling of WAVECAR
   LCHARG       =      T    write CHGCAR
   LVTOT        =      F    write LOCPOT, total local potential
   LVHAR        =      T    write LOCPOT, Hartree potential only
   WRT_POTENTIAL=  hartree ionic  ! write potential to hdf5 file
   LELF         =      F    write electronic localiz. function (ELF)
   LORBIT       =      0    0 simple, 1 ext, 2 COOP (PROOUT), +10 PAW based schemes


 Dipole corrections
   LMONO      =      F    monopole corrections only (constant potential shift)
   LDIPOL     =      F    correct potential (dipole corrections)
   IDIPOL     =      0    1-x, 2-y, 3-z, 4-all directions 
   EPSILON    =  1.0000000 bulk dielectric constant
   LVACPOTAV  =      F  vacuum potentials using an averaging scheme for the charge density
   VACPOTFLAT =  0.1000000 required flatness to determine vacuum potential
 Exchange correlation treatment:
   GGA     = PE    functional components
   XC_C    = 1    coefficients multiplying the functional components
   LIBXC   =     F    Libxc                    
   VOSKOWN =     0    Vosko Wilk Nusair interpolation
   LHFCALC =     F    Hartree Fock is set to
   LHFONE  =     F    Hartree Fock one center treatment
   AEXX    =    0.0000 exact exchange contribution

 Parameters of functionals:
   PE:
     No parameter
 
 Van der Waals corrections
   IVDW    =     0    specifies the selected vdW correction

 Linear response parameters
   LEPSILON=     F    determine dielectric tensor
   LRPA    =     F    only Hartree local field effects (RPA)
   LNABLA  =     F    use nabla operator in PAW spheres
   LVEL    =     F    velocity operator in full k-point grid
   CSHIFT  =0.1000    complex shift for real part using Kramers Kronig
   OMEGAMAX=  -1.0    maximum frequency
   DEG_THRESHOLD= 0.2000000E-02 threshold for treating states as degnerate
   RTIME   =   -0.100 relaxation time in fs
  (WPLASMAI=    0.000 imaginary part of plasma frequency in eV, 0.658/RTIME)
   DFIELD  = 0.0000000 0.0000000 0.0000000 field for delta impulse in time
 
  Optional k-point grid parameters
   LKPOINTS_OPT  =     F    use optional k-point grid
   KPOINTS_OPT_MODE=     1    mode for optional k-point grid
 
 Orbital magnetization related:
   ORBITALMAG=     F  switch on orbital magnetization
   LCHIMAG   =     F  perturbation theory with respect to B field
   DQ        =  0.001000  dq finite difference perturbation B field
   LLRAUG    =     F  two centre corrections for induced B field
   LBONE     =     F  B-component reconstruction in AE one-centre
   LVGVCALC  =     T  calculate vGv susceptibility
   LVGVAPPL  =     F  apply vGv susceptibility instead of pGv for G=0

 Random number generation:
   RANDOM_GENERATOR = DEFAULT
   PCG_SEED         = not used


--------------------------------------------------------------------------------------------------------


 Static calculation
 charge density and potential will be updated during run
 spin polarized calculation
 Variant of blocked Davidson
 Davidson routine will perform the subspace rotation
 perform sub-space diagonalisation
    after iterative eigenvector-optimisation
 modified Broyden-mixing scheme, WC =      100.0
 initial mixing is a Kerker type mixing with AMIX =  0.6000 and BMIX =      1.0000
 Hartree-type preconditioning will be used
 using additional bands           58
 real space projection scheme for non local part
 use partial core corrections
 calculate Harris-corrections to forces 
   (improved forces if not selfconsistent)
 use gradient corrections 
 use of overlap-Matrix (Vanderbilt PP)
 Gauss-broadening in eV      SIGMA  =   0.01


--------------------------------------------------------------------------------------------------------


  energy-cutoff  :      700.00
  volume of cell :     3069.64
      direct lattice vectors                 reciprocal lattice vectors
     9.491638425  0.000000000  0.000000000     0.105355889  0.000000000  0.000000000
     0.000000000 13.423203790  0.000000000     0.000000000  0.074497863  0.000000000
     0.000000000  0.000000000 24.092923856     0.000000000  0.000000000  0.041505963

  length of vectors
     9.491638425 13.423203790 24.092923856     0.105355889  0.074497863  0.041505963


 
 k-points in units of 2pi/SCALE and weight: Automatic KPOINTS generated             
   0.00000000  0.00000000  0.00000000       0.167
   0.03511863  0.00000000  0.00000000       0.333
   0.00000000  0.03724893  0.00000000       0.167
   0.03511863  0.03724893  0.00000000       0.333
 
 k-points in reciprocal lattice and weights: Automatic KPOINTS generated             
   0.00000000  0.00000000  0.00000000       0.167
   0.33333333  0.00000000  0.00000000       0.333
   0.00000000  0.50000000  0.00000000       0.167
   0.33333333  0.50000000  0.00000000       0.333
 
 position of ions in fractional coordinates (direct lattice) 
   0.00000000  0.00000000  0.00000000
   0.00000000  0.75000000  0.08041667
   0.00000000  0.50000000  0.16083333
   0.00000000  0.25000000  0.24124999
   0.37588652  0.82456140  0.49339644
   0.00000000  0.75000000  0.40208332
   0.79255319  0.90789474  0.90868688
   0.33333333  0.08333333  0.08041667
   0.33333333  0.83333333  0.16083333
   0.33333333  0.58333333  0.24124999
   0.33333333  0.33333333  0.32166666
   0.79255319  0.65789474  0.49339644
   0.45921986  0.74122807  0.90868688
   0.66666667  0.41666667  0.08041667
   0.66666667  0.16666667  0.16083333
   0.66666667  0.91666667  0.24124999
   0.66666667  0.66666667  0.32166666
   0.45921986  0.49122807  0.49339644
   0.00000000  0.50000000  0.00000000
   0.37588652  0.07456140  0.90868688
   0.00000000  0.00000000  0.16083333
   0.00000000  0.75000000  0.24124999
   0.00000000  0.50000000  0.32166666
   0.00000000  0.25000000  0.40208332
   0.33333333  0.83333333  0.00000000
   0.33333333  0.58333333  0.08041667
   0.04255319  0.40789474  0.90868688
   0.04255319  0.15789474  0.49339644
   0.33333333  0.83333333  0.32166666
   0.33333333  0.58333333  0.40208332
   0.66666667  0.16666667  0.00000000
   0.66666667  0.91666667  0.08041667
   0.66666667  0.66666667  0.16083333
   0.66666667  0.41666667  0.24124999
   0.66666667  0.16666667  0.32166666
   0.66666667  0.91666667  0.40208332
   0.08333333  0.33333333  0.00000000
   0.08333333  0.08333333  0.08041667
   0.08333333  0.83333333  0.16083333
   0.08333333  0.58333333  0.24124999
   0.08333333  0.33333333  0.32166666
   0.08333333  0.08333333  0.40208332
   0.41666667  0.66666667  0.00000000
   0.41666667  0.41666667  0.08041667
   0.41666667  0.16666667  0.16083333
   0.41666667  0.91666667  0.24124999
   0.41666667  0.66666667  0.32166666
   0.41666667  0.41666667  0.40208332
   0.12588652  0.07456140  0.90868688
   0.75000000  0.75000000  0.08041667
   0.75000000  0.50000000  0.16083333
   0.75000000  0.25000000  0.24124999
   0.75000000  0.00000000  0.32166666
   0.12588652  0.82456140  0.49339644
   0.70921986  0.24122807  0.90868688
   0.08333333  0.58333333  0.08041667
   0.08333333  0.33333333  0.16083333
   0.08333333  0.08333333  0.24124999
   0.08333333  0.83333333  0.32166666
   0.70921986  0.99122807  0.49339644
   0.41666667  0.16666667  0.00000000
   0.41666667  0.91666667  0.08041667
   0.41666667  0.66666667  0.16083333
   0.41666667  0.41666667  0.24124999
   0.41666667  0.16666667  0.32166666
   0.41666667  0.91666667  0.40208332
   0.75000000  0.50000000  0.00000000
   0.75000000  0.25000000  0.08041667
   0.75000000  0.00000000  0.16083333
   0.75000000  0.75000000  0.24124999
   0.75000000  0.50000000  0.32166666
   0.75000000  0.25000000  0.40208332
   0.33333333  0.08333333  0.24124999
   0.04255319  0.40789474  0.57645453
   0.04255319  0.65789474  0.65951262
   0.04255319  0.90789474  0.74257071
   0.04255319  0.15789474  0.82562879
   0.33333333  0.33333333  0.16083333
   0.00000000  0.00000000  0.32166666
   0.37588652  0.07456140  0.57645453
   0.37588652  0.32456140  0.65951262
   0.37588652  0.57456140  0.74257071
   0.37588652  0.82456140  0.82562879
   0.00000000  0.25000000  0.08041667
   0.70921986  0.49122807  0.49339644
   0.70921986  0.74122807  0.57645453
   0.70921986  0.99122807  0.65951262
   0.70921986  0.24122807  0.74257071
   0.70921986  0.49122807  0.82562879
   0.70921986  0.74122807  0.90868688
   0.04255319  0.65789474  0.49339644
   0.04255319  0.90789474  0.57645453
   0.04255319  0.15789474  0.65951262
   0.04255319  0.40789474  0.74257071
   0.04255319  0.65789474  0.82562879
   0.04255319  0.90789474  0.90868688
   0.37588652  0.32456140  0.49339644
   0.37588652  0.57456140  0.57645453
   0.37588652  0.82456140  0.65951262
   0.37588652  0.07456140  0.74257071
   0.37588652  0.32456140  0.82562879
   0.37588652  0.57456140  0.90868688
   0.08333333  0.58333333  0.40208332
   0.70921986  0.24122807  0.57645453
   0.70921986  0.49122807  0.65951262
   0.70921986  0.74122807  0.74257071
   0.70921986  0.99122807  0.82562879
   0.08333333  0.83333333  0.00000000
   0.75000000  0.75000000  0.40208332
   0.12588652  0.07456140  0.57645453
   0.12588652  0.32456140  0.65951262
   0.12588652  0.57456140  0.74257071
   0.12588652  0.82456140  0.82562879
   0.75000000  0.00000000  0.00000000
   0.66666667  0.41666667  0.40208332
   0.45921986  0.74122807  0.57645453
   0.45921986  0.99122807  0.65951262
   0.45921986  0.24122807  0.74257071
   0.45921986  0.49122807  0.82562879
   0.66666667  0.66666667  0.00000000
   0.79255319  0.15789474  0.49339644
   0.79255319  0.40789474  0.57645453
   0.79255319  0.65789474  0.65951262
   0.79255319  0.90789474  0.74257071
   0.79255319  0.15789474  0.82562879
   0.79255319  0.40789474  0.90868688
   0.12588652  0.32456140  0.49339644
   0.12588652  0.57456140  0.57645453
   0.12588652  0.82456140  0.65951262
   0.12588652  0.07456140  0.74257071
   0.12588652  0.32456140  0.82562879
   0.12588652  0.57456140  0.90868688
   0.45921986  0.99122807  0.49339644
   0.45921986  0.24122807  0.57645453
   0.45921986  0.49122807  0.65951262
   0.45921986  0.74122807  0.74257071
   0.45921986  0.99122807  0.82562879
   0.45921986  0.24122807  0.90868688
   0.33333333  0.08333333  0.40208332
   0.79255319  0.90789474  0.57645453
   0.79255319  0.15789474  0.65951262
   0.79255319  0.40789474  0.74257071
   0.79255319  0.65789474  0.82562879
   0.33333333  0.33333333  0.00000000
 
 position of ions in cartesian coordinates  (Angst):
   0.00000000  0.00000000  0.00000000
   0.00000000 10.06740284  1.93747259
   0.00000000  6.71160190  3.87494515
   0.00000000  3.35580095  5.81241774
   3.56777898 11.06825576 11.88736291
   0.00000000 10.06740284  9.68736291
   7.52262832 12.18685607 21.89292386
   3.16387947  1.11860031  1.93747259
   3.16387947 11.18600315  3.87494515
   3.16387947  7.83020221  5.81241774
   3.16387947  4.47440126  7.74989032
   7.52262832  8.83105513 11.88736291
   4.35874885  9.94965544 21.89292386
   6.32775895  5.59300158  1.93747259
   6.32775895  2.23720064  3.87494515
   6.32775895 12.30460348  5.81241774
   6.32775895  8.94880253  7.74989032
   4.35874885  6.59385449 11.88736291
   0.00000000  6.71160190  0.00000000
   3.56777898  1.00085292 21.89292386
   0.00000000  0.00000000  3.87494515
   0.00000000 10.06740284  5.81241774
   0.00000000  6.71160190  7.74989032
   0.00000000  3.35580095  9.68736291
   3.16387947 11.18600315  0.00000000
   3.16387947  7.83020221  1.93747259
   0.40389950  5.47525418 21.89292386
   0.40389950  2.11945323 11.88736291
   3.16387947 11.18600315  7.74989032
   3.16387947  7.83020221  9.68736291
   6.32775895  2.23720064  0.00000000
   6.32775895 12.30460348  1.93747259
   6.32775895  8.94880253  3.87494515
   6.32775895  5.59300158  5.81241774
   6.32775895  2.23720064  7.74989032
   6.32775895 12.30460348  9.68736291
   0.79096987  4.47440126  0.00000000
   0.79096987  1.11860031  1.93747259
   0.79096987 11.18600315  3.87494515
   0.79096987  7.83020221  5.81241774
   0.79096987  4.47440126  7.74989032
   0.79096987  1.11860031  9.68736291
   3.95484935  8.94880253  0.00000000
   3.95484935  5.59300158  1.93747259
   3.95484935  2.23720064  3.87494515
   3.95484935 12.30460348  5.81241774
   3.95484935  8.94880253  7.74989032
   3.95484935  5.59300158  9.68736291
   1.19486938  1.00085292 21.89292386
   7.11872882 10.06740284  1.93747259
   7.11872882  6.71160190  3.87494515
   7.11872882  3.35580095  5.81241774
   7.11872882  0.00000000  7.74989032
   1.19486938 11.06825576 11.88736291
   6.73165846  3.23805354 21.89292386
   0.79096987  7.83020221  1.93747259
   0.79096987  4.47440126  3.87494515
   0.79096987  1.11860031  5.81241774
   0.79096987 11.18600315  7.74989032
   6.73165846 13.30545639 11.88736291
   3.95484935  2.23720064  0.00000000
   3.95484935 12.30460348  1.93747259
   3.95484935  8.94880253  3.87494515
   3.95484935  5.59300158  5.81241774
   3.95484935  2.23720064  7.74989032
   3.95484935 12.30460348  9.68736291
   7.11872882  6.71160190  0.00000000
   7.11872882  3.35580095  1.93747259
   7.11872882  0.00000000  3.87494515
   7.11872882 10.06740284  5.81241774
   7.11872882  6.71160190  7.74989032
   7.11872882  3.35580095  9.68736291
   3.16387947  1.11860031  5.81241774
   0.40389950  5.47525418 13.88847510
   0.40389950  8.83105513 15.88958729
   0.40389950 12.18685607 17.89069948
   0.40389950  2.11945323 19.89181167
   3.16387947  4.47440126  3.87494515
   0.00000000  0.00000000  7.74989032
   3.56777898  1.00085292 13.88847510
   3.56777898  4.35665387 15.88958729
   3.56777898  7.71245482 17.89069948
   3.56777898 11.06825576 19.89181167
   0.00000000  3.35580095  1.93747259
   6.73165846  6.59385449 11.88736291
   6.73165846  9.94965544 13.88847510
   6.73165846 13.30545639 15.88958729
   6.73165846  3.23805354 17.89069948
   6.73165846  6.59385449 19.89181167
   6.73165846  9.94965544 21.89292386
   0.40389950  8.83105513 11.88736291
   0.40389950 12.18685607 13.88847510
   0.40389950  2.11945323 15.88958729
   0.40389950  5.47525418 17.89069948
   0.40389950  8.83105513 19.89181167
   0.40389950 12.18685607 21.89292386
   3.56777898  4.35665387 11.88736291
   3.56777898  7.71245482 13.88847510
   3.56777898 11.06825576 15.88958729
   3.56777898  1.00085292 17.89069948
   3.56777898  4.35665387 19.89181167
   3.56777898  7.71245482 21.89292386
   0.79096987  7.83020221  9.68736291
   6.73165846  3.23805354 13.88847510
   6.73165846  6.59385449 15.88958729
   6.73165846  9.94965544 17.89069948
   6.73165846 13.30545639 19.89181167
   0.79096987 11.18600315  0.00000000
   7.11872882 10.06740284  9.68736291
   1.19486938  1.00085292 13.88847510
   1.19486938  4.35665387 15.88958729
   1.19486938  7.71245482 17.89069948
   1.19486938 11.06825576 19.89181167
   7.11872882  0.00000000  0.00000000
   6.32775895  5.59300158  9.68736291
   4.35874885  9.94965544 13.88847510
   4.35874885 13.30545639 15.88958729
   4.35874885  3.23805354 17.89069948
   4.35874885  6.59385449 19.89181167
   6.32775895  8.94880253  0.00000000
   7.52262832  2.11945323 11.88736291
   7.52262832  5.47525418 13.88847510
   7.52262832  8.83105513 15.88958729
   7.52262832 12.18685607 17.89069948
   7.52262832  2.11945323 19.89181167
   7.52262832  5.47525418 21.89292386
   1.19486938  4.35665387 11.88736291
   1.19486938  7.71245482 13.88847510
   1.19486938 11.06825576 15.88958729
   1.19486938  1.00085292 17.89069948
   1.19486938  4.35665387 19.89181167
   1.19486938  7.71245482 21.89292386
   4.35874885 13.30545639 11.88736291
   4.35874885  3.23805354 13.88847510
   4.35874885  6.59385449 15.88958729
   4.35874885  9.94965544 17.89069948
   4.35874885 13.30545639 19.89181167
   4.35874885  3.23805354 21.89292386
   3.16387947  1.11860031  9.68736291
   7.52262832 12.18685607 13.88847510
   7.52262832  2.11945323 15.88958729
   7.52262832  5.47525418 17.89069948
   7.52262832  8.83105513 19.89181167
   3.16387947  4.47440126  0.00000000
 


--------------------------------------------------------------------------------------------------------


 k-point     1 :   0.0000 0.0000 0.0000  plane waves:  129107
 k-point     2 :   0.3333 0.0000 0.0000  plane waves:  129083
 k-point     3 :   0.0000 0.5000 0.0000  plane waves:  129106
 k-point     4 :   0.3333 0.5000 0.0000  plane waves:  129070

 maximum and minimum number of plane-waves per node :      8102     8035

 maximum number of plane-waves:    129107
 maximum index in each direction: 
   IXMAX=   20   IYMAX=   28   IZMAX=   51
   IXMIN=  -20   IYMIN=  -29   IZMIN=  -51


 real space projection operators:
  total allocation   :      24089.35 KBytes
  max/ min on nodes  :       1539.92       1462.36


 parallel 3D FFT for wavefunctions:
    minimum data exchange during FFTs selected (reduces bandwidth)
 parallel 3D FFT for charge:
    minimum data exchange during FFTs selected (reduces bandwidth)


 total amount of memory used by VASP MPI-rank0   511242. kBytes
=======================================================================

   base      :      30000. kBytes
   nonlr-proj:       7837. kBytes
   fftplans  :      69092. kBytes
   grid      :      42335. kBytes
   one-center:        146. kBytes
   wavefun   :     361832. kBytes
 
     INWAV:  cpu time      0.0000: real time      0.0002
 Broyden mixing: mesh for mixing (old mesh)
   NGX = 41   NGY = 57   NGZ =103
  (NGX  =128   NGY  =180   NGZ  =320)
  gives a total of 240711 points

 initial charge density was supplied:
 charge density of overlapping atoms calculated
 number of electron     576.0000000 magnetization       1.0000000
 keeping initial charge density in first step


--------------------------------------------------------------------------------------------------------


 Maximum index for non-local projection operator          217
 Maximum index for augmentation-charges         8108 (set IRDMAX)


--------------------------------------------------------------------------------------------------------


 First call to EWALD:  gamma=   0.122
 Maximum number of real-space cells 4x 3x 2
 Maximum number of reciprocal cells 2x 3x 4

    FEWALD:  cpu time      0.0063: real time      0.0063


--------------------------------------- Ionic step        1  -------------------------------------------




--------------------------------------- Iteration      1(   1)  ---------------------------------------


    POTLOK:  cpu time      0.8442: real time      0.8524
    SETDIJ:  cpu time      4.3823: real time      4.4061
     EDDAV:  cpu time     61.0126: real time     61.5507
       DOS:  cpu time      0.0033: real time      0.0033
    --------------------------------------------
      LOOP:  cpu time     66.2424: real time     66.8125

 eigenvalue-minimisations  :  5536
 total energy-change (2. order) : 0.2454258E+04  (-0.2581084E+05)
 number of electron     576.0000000 magnetization       1.0000000
 augmentation part      576.0000000 magnetization       1.0000000

 Free energy of the ion-electron system (eV)
  ---------------------------------------------------
  alpha Z        PSCENC =       759.26891756
  Ewald energy   TEWEN  =    -15880.93019074
  -Hartree energ DENC   =     -1042.17543608
  -exchange      EXHF   =         0.00000000
  -V(xc)+E(xc)   XCENC  =     -1208.90157490
  PAW double counting   =     12691.36703575   -10381.54560829
  entropy T*S    EENTRO =        -0.00180287
  eigenvalues    EBANDS =      2536.67409495
  atomic energy  EATOM  =     14980.50241411
  Solvation  Ediel_sol  =         0.00000000
  ---------------------------------------------------
  free energy    TOTEN  =      2454.25784949 eV

  energy without entropy =     2454.25965236  energy(sigma->0) =     2454.25875092


--------------------------------------------------------------------------------------------------------




--------------------------------------- Iteration      1(   2)  ---------------------------------------


     EDDAV:  cpu time     69.2400: real time     69.8222
       DOS:  cpu time      0.0014: real time      0.0014
    --------------------------------------------
      LOOP:  cpu time     69.2413: real time     69.8235

 eigenvalue-minimisations  :  6480
 total energy-change (2. order) :-0.2871680E+04  (-0.2767683E+04)
 number of electron     576.0000000 magnetization       1.0000000
 augmentation part      576.0000000 magnetization       1.0000000

 Free energy of the ion-electron system (eV)
  ---------------------------------------------------
  alpha Z        PSCENC =       759.26891756
  Ewald energy   TEWEN  =    -15880.93019074
  -Hartree energ DENC   =     -1042.17543608
  -exchange      EXHF   =         0.00000000
  -V(xc)+E(xc)   XCENC  =     -1208.90157490
  PAW double counting   =     12691.36703575   -10381.54560829
  entropy T*S    EENTRO =        -0.00278249
  eigenvalues    EBANDS =      -335.00461270
  atomic energy  EATOM  =     14980.50241411
  Solvation  Ediel_sol  =         0.00000000
  ---------------------------------------------------
  free energy    TOTEN  =      -417.42183778 eV

  energy without entropy =     -417.41905529  energy(sigma->0) =     -417.42044654


--------------------------------------------------------------------------------------------------------




--------------------------------------- Iteration      1(   3)  ---------------------------------------


     EDDAV:  cpu time     71.4639: real time     72.0471
       DOS:  cpu time      0.0036: real time      0.0036
    --------------------------------------------
      LOOP:  cpu time     71.4676: real time     72.0508

 eigenvalue-minimisations  :  6760
 total energy-change (2. order) :-0.2713554E+03  (-0.2645258E+03)
 number of electron     576.0000000 magnetization       1.0000000
 augmentation part      576.0000000 magnetization       1.0000000

 Free energy of the ion-electron system (eV)
  ---------------------------------------------------
  alpha Z        PSCENC =       759.26891756
  Ewald energy   TEWEN  =    -15880.93019074
  -Hartree energ DENC   =     -1042.17543608
  -exchange      EXHF   =         0.00000000
  -V(xc)+E(xc)   XCENC  =     -1208.90157490
  PAW double counting   =     12691.36703575   -10381.54560829
  entropy T*S    EENTRO =        -0.00180181
  eigenvalues    EBANDS =      -606.36103639
  atomic energy  EATOM  =     14980.50241411
  Solvation  Ediel_sol  =         0.00000000
  ---------------------------------------------------
  free energy    TOTEN  =      -688.77728080 eV

  energy without entropy =     -688.77547898  energy(sigma->0) =     -688.77637989


--------------------------------------------------------------------------------------------------------




--------------------------------------- Iteration      1(   4)  ---------------------------------------


     EDDAV:  cpu time     69.0832: real time     69.7712
       DOS:  cpu time      0.0012: real time      0.0012
    --------------------------------------------
      LOOP:  cpu time     69.0844: real time     69.7724

 eigenvalue-minimisations  :  6488
 total energy-change (2. order) :-0.9263170E+01  (-0.9150504E+01)
 number of electron     576.0000000 magnetization       1.0000000
 augmentation part      576.0000000 magnetization       1.0000000

 Free energy of the ion-electron system (eV)
  ---------------------------------------------------
  alpha Z        PSCENC =       759.26891756
  Ewald energy   TEWEN  =    -15880.93019074
  -Hartree energ DENC   =     -1042.17543608
  -exchange      EXHF   =         0.00000000
  -V(xc)+E(xc)   XCENC  =     -1208.90157490
  PAW double counting   =     12691.36703575   -10381.54560829
  entropy T*S    EENTRO =        -0.00080602
  eigenvalues    EBANDS =      -615.62520266
  atomic energy  EATOM  =     14980.50241411
  Solvation  Ediel_sol  =         0.00000000
  ---------------------------------------------------
  free energy    TOTEN  =      -698.04045128 eV

  energy without entropy =     -698.03964525  energy(sigma->0) =     -698.04004826


--------------------------------------------------------------------------------------------------------




--------------------------------------- Iteration      1(   5)  ---------------------------------------


     EDDAV:  cpu time     76.9627: real time     77.6939
       DOS:  cpu time      0.0012: real time      0.0012
    CHARGE:  cpu time      3.2633: real time      3.2921
    MIXING:  cpu time      0.0199: real time      0.0201
    --------------------------------------------
      LOOP:  cpu time     80.2471: real time     81.0073

 eigenvalue-minimisations  :  7400
 total energy-change (2. order) :-0.3526220E+00  (-0.3514750E+00)
 number of electron     575.9999996 magnetization       1.0000000
 augmentation part      -64.0801427 magnetization      -0.0917872

 Broyden mixing:
  rms(total) = 0.33656E+01    rms(broyden)= 0.33656E+01
  rms(prec ) = 0.34648E+01
  weight for this iteration     100.00

 Free energy of the ion-electron system (eV)
  ---------------------------------------------------
  alpha Z        PSCENC =       759.26891756
  Ewald energy   TEWEN  =    -15880.93019074
  -Hartree energ DENC   =     -1042.17543608
  -exchange      EXHF   =         0.00000000
  -V(xc)+E(xc)   XCENC  =     -1208.90157490
  PAW double counting   =     12691.36703575   -10381.54560829
  entropy T*S    EENTRO =        -0.00081406
  eigenvalues    EBANDS =      -615.97781667
  atomic energy  EATOM  =     14980.50241411
  Solvation  Ediel_sol  =         0.00000000
  ---------------------------------------------------
  free energy    TOTEN  =      -698.39307331 eV

  energy without entropy =     -698.39225925  energy(sigma->0) =     -698.39266628


--------------------------------------------------------------------------------------------------------




--------------------------------------- Iteration      1(   6)  ---------------------------------------


    POTLOK:  cpu time      0.8464: real time      0.8544
    SETDIJ:  cpu time      4.3662: real time      4.3878
     EDDAV:  cpu time     69.5704: real time     70.1634
       DOS:  cpu time      0.0012: real time      0.0012
    CHARGE:  cpu time      3.2216: real time      3.2488
    MIXING:  cpu time      0.0211: real time      0.0213
    --------------------------------------------
      LOOP:  cpu time     78.0268: real time     78.6769

 eigenvalue-minimisations  :  6504
 total energy-change (2. order) : 0.9635768E+01  (-0.1317734E+01)
 number of electron     575.9999996 magnetization       1.0000000
 augmentation part      -63.4355860 magnetization      -0.0861271

 Broyden mixing:
  rms(total) = 0.15513E+01    rms(broyden)= 0.15513E+01
  rms(prec ) = 0.15862E+01
  weight for this iteration     100.00

 eigenvalues of (default mixing * dielectric matrix)
  average eigenvalue GAMMA=   1.7682
  1.7682

 Free energy of the ion-electron system (eV)
  ---------------------------------------------------
  alpha Z        PSCENC =       759.26891756
  Ewald energy   TEWEN  =    -15880.93019074
  -Hartree energ DENC   =     -1189.58673025
  -exchange      EXHF   =         0.00000000
  -V(xc)+E(xc)   XCENC  =     -1185.49085987
  PAW double counting   =     26294.92266144   -23996.73288856
  entropy T*S    EENTRO =        -0.00129730
  eigenvalues    EBANDS =      -470.70933214
  atomic energy  EATOM  =     14980.50241411
  Solvation  Ediel_sol  =         0.00000000
  ---------------------------------------------------
  free energy    TOTEN  =      -688.75730576 eV

  energy without entropy =     -688.75600846  energy(sigma->0) =     -688.75665711


--------------------------------------------------------------------------------------------------------




--------------------------------------- Iteration      1(   7)  ---------------------------------------


    POTLOK:  cpu time      0.8466: real time      0.8547
    SETDIJ:  cpu time      4.3694: real time      4.3929
     EDDAV:  cpu time     69.4820: real time     70.0986
       DOS:  cpu time      0.0013: real time      0.0013
    CHARGE:  cpu time      3.2089: real time      3.2358
    MIXING:  cpu time      0.0212: real time      0.0214
    --------------------------------------------
      LOOP:  cpu time     77.9294: real time     78.6048

 eigenvalue-minimisations  :  6504
 total energy-change (2. order) : 0.6719357E+00  (-0.8078500E+00)
 number of electron     575.9999996 magnetization       1.0000000
 augmentation part      -63.2486524 magnetization      -0.0734470

 Broyden mixing:
  rms(total) = 0.40072E+00    rms(broyden)= 0.40072E+00
  rms(prec ) = 0.43694E+00
  weight for this iteration     100.00

 eigenvalues of (default mixing * dielectric matrix)
  average eigenvalue GAMMA=   1.2642
  1.8646  0.6638

 Free energy of the ion-electron system (eV)
  ---------------------------------------------------
  alpha Z        PSCENC =       759.26891756
  Ewald energy   TEWEN  =    -15880.93019074
  -Hartree energ DENC   =     -1289.96719407
  -exchange      EXHF   =         0.00000000
  -V(xc)+E(xc)   XCENC  =     -1166.60955239
  PAW double counting   =     42489.10463425   -40199.64971551
  entropy T*S    EENTRO =        -0.00156768
  eigenvalues    EBANDS =      -379.80311558
  atomic energy  EATOM  =     14980.50241411
  Solvation  Ediel_sol  =         0.00000000
  ---------------------------------------------------
  free energy    TOTEN  =      -688.08537007 eV

  energy without entropy =     -688.08380239  energy(sigma->0) =     -688.08458623


--------------------------------------------------------------------------------------------------------




--------------------------------------- Iteration      1(   8)  ---------------------------------------


    POTLOK:  cpu time      0.8479: real time      0.8556
    SETDIJ:  cpu time      4.3733: real time      4.3955
     EDDAV:  cpu time     69.7453: real time     70.3533
       DOS:  cpu time      0.0013: real time      0.0013
    CHARGE:  cpu time      3.1875: real time      3.2132
    MIXING:  cpu time      0.0224: real time      0.0226
    --------------------------------------------
      LOOP:  cpu time     78.1778: real time     78.8414

 eigenvalue-minimisations  :  6568
 total energy-change (2. order) : 0.3021284E-01  (-0.1412444E+00)
 number of electron     575.9999996 magnetization       1.0000000
 augmentation part      -63.0597087 magnetization      -0.0804967

 Broyden mixing:
  rms(total) = 0.14727E+00    rms(broyden)= 0.14727E+00
  rms(prec ) = 0.15312E+00
  weight for this iteration     100.00

 eigenvalues of (default mixing * dielectric matrix)
  average eigenvalue GAMMA=   1.2376
  1.8683  1.1506  0.6940

 Free energy of the ion-electron system (eV)
  ---------------------------------------------------
  alpha Z        PSCENC =       759.26891756
  Ewald energy   TEWEN  =    -15880.93019074
  -Hartree energ DENC   =     -1293.57352292
  -exchange      EXHF   =         0.00000000
  -V(xc)+E(xc)   XCENC  =     -1165.91470705
  PAW double counting   =     45001.99846157   -42712.99852505
  entropy T*S    EENTRO =        -0.00130872
  eigenvalues    EBANDS =      -376.40669600
  atomic energy  EATOM  =     14980.50241411
  Solvation  Ediel_sol  =         0.00000000
  ---------------------------------------------------
  free energy    TOTEN  =      -688.05515723 eV

  energy without entropy =     -688.05384852  energy(sigma->0) =     -688.05450287


--------------------------------------------------------------------------------------------------------




--------------------------------------- Iteration      1(   9)  ---------------------------------------


    POTLOK:  cpu time      0.8431: real time      0.8515
    SETDIJ:  cpu time      4.3735: real time      4.3962
     EDDAV:  cpu time     67.9266: real time     68.5072
       DOS:  cpu time      0.0013: real time      0.0013
    CHARGE:  cpu time      3.1902: real time      3.2168
    MIXING:  cpu time      0.0230: real time      0.0232
    --------------------------------------------
      LOOP:  cpu time     76.3577: real time     76.9962

 eigenvalue-minimisations  :  6360
 total energy-change (2. order) : 0.1113158E-01  (-0.2424003E-01)
 number of electron     575.9999996 magnetization       1.0000000
 augmentation part      -63.0925164 magnetization      -0.0834018

 Broyden mixing:
  rms(total) = 0.86904E-01    rms(broyden)= 0.86904E-01
  rms(prec ) = 0.90877E-01
  weight for this iteration     100.00

 eigenvalues of (default mixing * dielectric matrix)
  average eigenvalue GAMMA=   1.1868
  1.8000  1.5727  0.8399  0.5343

 Free energy of the ion-electron system (eV)
  ---------------------------------------------------
  alpha Z        PSCENC =       759.26891756
  Ewald energy   TEWEN  =    -15880.93019074
  -Hartree energ DENC   =     -1285.98050188
  -exchange      EXHF   =         0.00000000
  -V(xc)+E(xc)   XCENC  =     -1166.63100028
  PAW double counting   =     45723.45086209   -43434.21364191
  entropy T*S    EENTRO =        -0.00136212
  eigenvalues    EBANDS =      -383.50952248
  atomic energy  EATOM  =     14980.50241411
  Solvation  Ediel_sol  =         0.00000000
  ---------------------------------------------------
  free energy    TOTEN  =      -688.04402566 eV

  energy without entropy =     -688.04266353  energy(sigma->0) =     -688.04334459


--------------------------------------------------------------------------------------------------------




--------------------------------------- Iteration      1(  10)  ---------------------------------------


    POTLOK:  cpu time      0.8479: real time      0.8567
    SETDIJ:  cpu time      4.3739: real time      4.3973
     EDDAV:  cpu time     69.0665: real time     69.6681
       DOS:  cpu time      0.0013: real time      0.0013
    CHARGE:  cpu time      3.2311: real time      3.2583
    MIXING:  cpu time      0.0242: real time      0.0244
    --------------------------------------------
      LOOP:  cpu time     77.5449: real time     78.2063

 eigenvalue-minimisations  :  6416
 total energy-change (2. order) :-0.3835619E-02  (-0.7806776E-02)
 number of electron     575.9999996 magnetization       1.0000000
 augmentation part      -63.0974940 magnetization      -0.0819970

 Broyden mixing:
  rms(total) = 0.44110E-01    rms(broyden)= 0.44110E-01
  rms(prec ) = 0.46677E-01
  weight for this iteration     100.00

 eigenvalues of (default mixing * dielectric matrix)
  average eigenvalue GAMMA=   1.1474
  1.7819  1.7819  1.0611  0.6133  0.4989

 Free energy of the ion-electron system (eV)
  ---------------------------------------------------
  alpha Z        PSCENC =       759.26891756
  Ewald energy   TEWEN  =    -15880.93019074
  -Hartree energ DENC   =     -1282.82167366
  -exchange      EXHF   =         0.00000000
  -V(xc)+E(xc)   XCENC  =     -1166.94617032
  PAW double counting   =     45991.25419500   -43701.90380170
  entropy T*S    EENTRO =        -0.00124046
  eigenvalues    EBANDS =      -386.47031106
  atomic energy  EATOM  =     14980.50241411
  Solvation  Ediel_sol  =         0.00000000
  ---------------------------------------------------
  free energy    TOTEN  =      -688.04786127 eV

  energy without entropy =     -688.04662081  energy(sigma->0) =     -688.04724104


--------------------------------------------------------------------------------------------------------




--------------------------------------- Iteration      1(  11)  ---------------------------------------


    POTLOK:  cpu time      0.8512: real time      0.8600
[...]
   0.311E+01 0.266E+02 -.168E+02   -.235E+01 -.262E+02 0.165E+02   -.170E+00 -.666E+00 0.513E+00   0.220E-03 -.454E-04 -.159E-03
   -.496E-01 0.206E+01 0.190E+01   -.392E-01 -.203E+01 -.206E+01   0.261E+00 -.358E+00 0.766E-01   -.119E-03 0.654E-04 -.339E-03
   -.169E+01 0.213E+01 0.420E+00   0.154E+01 -.199E+01 -.375E+00   0.309E+00 -.434E+00 -.592E-01   -.388E-04 -.297E-05 -.320E-03
   -.170E+01 0.214E+01 -.410E+00   0.154E+01 -.199E+01 0.375E+00   0.320E+00 -.429E+00 0.692E-01   0.158E-04 -.316E-04 -.231E-03
   0.855E-01 0.182E+01 -.152E+01   -.392E-01 -.203E+01 0.206E+01   0.308E+00 -.372E+00 -.437E-01   0.151E-03 -.510E-04 -.115E-03
   0.311E+01 0.266E+02 0.168E+02   -.235E+01 -.262E+02 -.165E+02   -.191E+00 -.666E+00 -.518E+00   -.270E-04 -.354E-04 0.321E-03
   0.161E+02 0.238E+01 -.204E+02   -.156E+02 -.211E+01 0.203E+02   -.433E+00 -.643E+00 0.103E+01   -.685E-04 -.720E-04 -.161E-03
   0.837E+00 0.131E+00 0.618E+00   -.115E+01 0.349E+00 -.153E+01   -.171E+00 -.530E-01 0.521E+00   0.869E-04 0.104E-03 -.289E-03
   0.146E+01 -.222E+01 0.410E+00   -.143E+01 0.215E+01 -.438E+00   -.275E+00 0.300E+00 -.540E-01   0.930E-04 -.642E-05 -.342E-03
   0.145E+01 -.222E+01 -.422E+00   -.143E+01 0.215E+01 0.438E+00   -.270E+00 0.277E+00 0.617E-01   0.247E-04 -.211E-04 -.216E-03
   0.104E+01 -.146E+00 -.110E+01   -.115E+01 0.349E+00 0.153E+01   -.172E+00 -.366E-01 -.496E+00   -.130E-04 -.790E-04 -.534E-04
   0.161E+02 0.238E+01 0.204E+02   -.156E+02 -.211E+01 -.203E+02   -.445E+00 -.642E+00 -.102E+01   0.119E-03 -.850E-04 0.340E-03
   -.146E+02 0.250E-01 -.129E+02   0.143E+02 -.369E+00 0.124E+02   0.818E+00 0.131E+00 0.308E+00   -.227E-03 0.535E-04 -.636E-04
   0.109E+01 -.956E+00 0.429E+01   -.101E+01 0.573E+00 -.404E+01   -.302E+00 0.843E+00 -.555E+00   -.457E-04 -.104E-03 -.374E-03
   0.150E+01 -.222E+01 0.142E+00   -.144E+01 0.213E+01 -.170E+00   -.279E+00 0.504E+00 0.639E-01   -.400E-04 0.438E-04 -.373E-03
   0.151E+01 -.226E+01 -.130E+00   -.144E+01 0.213E+01 0.170E+00   -.283E+00 0.525E+00 -.451E-01   -.383E-04 0.840E-04 -.351E-03
   0.132E+01 -.123E+01 -.481E+01   -.101E+01 0.573E+00 0.404E+01   -.316E+00 0.872E+00 0.583E+00   -.175E-04 0.732E-05 -.137E-03
   -.146E+02 0.200E-01 0.129E+02   0.143E+02 -.369E+00 -.124E+02   0.844E+00 0.137E+00 -.316E+00   0.288E-04 0.523E-05 0.306E-03
   0.156E+02 -.136E+01 -.477E+01   -.151E+02 0.107E+01 0.459E+01   -.110E+01 0.630E+00 -.486E+00   -.551E-04 0.455E-04 -.280E-03
   0.221E+00 -.247E+01 0.285E+01   0.154E+00 0.211E+01 -.258E+01   -.581E+00 0.544E+00 -.296E+00   -.723E-04 -.255E-04 -.345E-03
   0.176E+01 -.215E+01 0.376E+00   -.155E+01 0.198E+01 -.329E+00   -.403E+00 0.459E+00 -.337E-02   -.144E-05 -.453E-04 -.296E-03
   0.176E+01 -.216E+01 -.355E+00   -.155E+01 0.198E+01 0.329E+00   -.431E+00 0.493E+00 -.546E-02   0.457E-04 -.435E-04 -.243E-03
   0.525E-01 -.223E+01 -.243E+01   0.154E+00 0.211E+01 0.258E+01   -.572E+00 0.546E+00 0.314E+00   0.660E-04 0.346E-04 -.122E-03
   0.156E+02 -.137E+01 0.477E+01   -.151E+02 0.107E+01 -.459E+01   -.109E+01 0.653E+00 0.470E+00   0.445E-04 0.371E-04 0.126E-03
   0.391E+01 -.222E+02 0.297E+01   -.369E+01 0.218E+02 -.291E+01   -.109E+01 0.209E+00 -.124E+01   0.180E-03 0.756E-04 -.312E-03
   0.104E+01 -.145E+00 0.111E+01   -.115E+01 0.349E+00 -.153E+01   -.167E+00 -.563E-01 0.496E+00   0.128E-03 -.705E-04 -.372E-03
   0.146E+01 -.221E+01 0.426E+00   -.143E+01 0.215E+01 -.438E+00   -.272E+00 0.289E+00 -.665E-01   0.622E-04 -.352E-04 -.271E-03
   0.146E+01 -.221E+01 -.410E+00   -.143E+01 0.215E+01 0.438E+00   -.280E+00 0.278E+00 0.600E-01   -.622E-06 0.258E-04 -.301E-03
   0.837E+00 0.129E+00 -.621E+00   -.115E+01 0.349E+00 0.153E+01   -.169E+00 -.410E-01 -.518E+00   -.654E-05 0.805E-04 -.119E-03
   0.391E+01 -.222E+02 -.297E+01   -.369E+01 0.218E+02 0.291E+01   -.109E+01 0.208E+00 0.126E+01   -.471E-04 0.111E-05 0.145E-03
   0.530E+01 -.214E+02 -.156E+02   -.482E+01 0.212E+02 0.171E+02   -.769E+00 0.188E+01 0.143E+00   0.224E-05 0.314E-04 -.240E-03
   0.130E+01 -.120E+01 0.479E+01   -.101E+01 0.573E+00 -.404E+01   -.318E+00 0.839E+00 -.576E+00   -.778E-04 0.106E-03 -.396E-03
   0.151E+01 -.227E+01 0.971E-01   -.144E+01 0.213E+01 -.170E+00   -.288E+00 0.505E+00 0.900E-01   -.449E-04 -.559E-04 -.408E-03
   0.149E+01 -.224E+01 -.103E+00   -.144E+01 0.213E+01 0.170E+00   -.278E+00 0.496E+00 -.647E-01   -.299E-04 -.485E-04 -.247E-03
   0.104E+01 -.904E+00 -.425E+01   -.101E+01 0.573E+00 0.404E+01   -.253E+00 0.790E+00 0.514E+00   0.163E-04 -.115E-03 -.205E-03
   0.531E+01 -.214E+02 0.156E+02   -.482E+01 0.212E+02 -.171E+02   -.786E+00 0.192E+01 -.138E+00   0.483E-04 0.217E-03 -.438E-04
   -.551E+01 -.193E+02 -.268E+02   0.488E+01 0.192E+02 0.260E+02   0.796E+00 0.932E-01 0.155E+01   0.203E-04 0.918E-04 -.104E-03
   0.508E-01 -.222E+01 0.243E+01   0.154E+00 0.211E+01 -.258E+01   -.562E+00 0.534E+00 -.316E+00   -.265E-04 -.894E-05 -.314E-03
   0.176E+01 -.216E+01 0.367E+00   -.155E+01 0.198E+01 -.329E+00   -.418E+00 0.463E+00 0.152E-01   -.952E-05 0.273E-04 -.330E-03
   0.176E+01 -.215E+01 -.381E+00   -.155E+01 0.198E+01 0.329E+00   -.442E+00 0.487E+00 -.180E-02   0.151E-04 -.191E-05 -.248E-03
   0.220E+00 -.246E+01 -.285E+01   0.154E+00 0.211E+01 0.258E+01   -.583E+00 0.550E+00 0.297E+00   0.309E-04 -.181E-04 -.710E-04
   -.548E+01 -.194E+02 0.268E+02   0.488E+01 0.192E+02 -.260E+02   0.763E+00 0.137E+00 -.154E+01   -.107E-03 0.156E-03 0.288E-03
 -----------------------------------------------------------------------------------------------
   0.107E+01 -.327E+01 -.564E-01   -.737E-13 -.153E-12 -.149E-12   -.103E+01 0.319E+01 0.105E+00   0.327E-04 0.512E-04 0.552E-03
 
 
 POSITION                                       TOTAL-FORCE (eV/Angst)
 -----------------------------------------------------------------------------------
      0.00000      0.00000      0.00000         0.904284      2.151171      1.191326
      0.00000     10.06740      1.93747        -0.412382     -0.431592      0.425481
      0.00000      6.71160      3.87495        -0.030298     -0.005325      0.023013
      0.00000      3.35580      5.81242        -0.030597      0.000250     -0.039680
      3.56778     11.06826     11.88736        -0.779850     -0.018818     -1.301356
      0.00000     10.06740      9.68736         0.905167      2.153371     -1.195222
      7.52263     12.18686     21.89292        -0.742964      0.590096      0.290235
      3.16388      1.11860      1.93747         0.038797     -0.228336      0.022634
      3.16388     11.18600      3.87495         0.008711     -0.112723     -0.079582
      3.16388      7.83020      5.81242         0.005820     -0.121231      0.075952
      3.16388      4.47440      7.74989         0.066657     -0.247546     -0.014151
      7.52263      8.83106     11.88736        -0.739912      0.599281     -0.287775
      4.35875      9.94966     21.89292        -0.769827      1.975041     -1.248247
      6.32776      5.59300      1.93747        -0.041901     -0.144161     -0.073263
      6.32776      2.23720      3.87495        -0.062181     -0.049482     -0.005483
      6.32776     12.30460      5.81242        -0.063754     -0.053672     -0.011397
      6.32776      8.94880      7.74989        -0.194739     -0.416353     -0.384341
      4.35875      6.59385     11.88736        -0.757330      1.970919      1.235152
      0.00000      6.71160      0.00000         0.376011      1.306790      1.112989
      3.56778      1.00085     21.89292        -0.762065     -0.035651      1.287721
      0.00000      0.00000      3.87495        -0.037759      0.016967      0.022045
      0.00000     10.06740      5.81242        -0.035954      0.006617     -0.020116
      0.00000      6.71160      7.74989        -0.415338     -0.426574     -0.428778
      0.00000      3.35580      9.68736         0.378274      1.305774     -1.107782
      3.16388     11.18600      0.00000         0.775467     -0.510725     -0.843341
      3.16388      7.83020      1.93747         0.062491     -0.253150      0.032628
      0.40390      5.47525     21.89292         0.340147     -1.527760     -0.689205
      0.40390      2.11945     11.88736         0.347973     -1.520839      0.697572
      3.16388     11.18600      7.74989         0.028122     -0.239914     -0.013199
      3.16388      7.83020      9.68736         0.775165     -0.511385      0.838235
      6.32776      2.23720      0.00000         0.215175      0.418213     -0.281935
      6.32776     12.30460      1.93747        -0.197191     -0.418071      0.388257
      6.32776      8.94880      3.87495        -0.044548     -0.048500      0.010875
      6.32776      5.59300      5.81242        -0.049802     -0.043905     -0.012333
      6.32776      2.23720      7.74989        -0.043771     -0.144333      0.082384
      6.32776     12.30460      9.68736         0.218755      0.419855      0.287592
      0.79097      4.47440      0.00000         0.273551      0.750704     -1.312028
      0.79097      1.11860      1.93747         0.280419     -0.428952     -0.123067
      0.79097     11.18600      3.87495         0.081106      0.132947     -0.142654
      0.79097      7.83020      5.81242         0.081702      0.136440      0.134904
      0.79097      4.47440      7.74989         0.099328      0.104868      0.118127
      0.79097      1.11860      9.68736         0.271868      0.750676      1.311318
      3.95485      8.94880      0.00000        -0.632184     -0.966728      1.327771
      3.95485      5.59300      1.93747         0.604626      0.566292     -0.026711
      3.95485      2.23720      3.87495         0.409393     -0.262618     -0.480857
      3.95485     12.30460      5.81242         0.212429     -0.517495      0.002574
      3.95485      8.94880      7.74989         0.254343     -0.004088      0.038233
      3.95485      5.59300      9.68736        -0.642002     -0.948990     -1.328328
      1.19487      1.00085     21.89292         0.053625      0.010340      1.111562
      7.11873     10.06740      1.93747         0.289718      0.317374      0.401614
      7.11873      6.71160      3.87495         0.068839      0.053559     -0.033292
      7.11873      3.35580      5.81242         0.065090      0.056071      0.023967
      7.11873      0.00000      7.74989        -0.473632      0.030545      0.068711
      1.19487     11.06826     11.88736         0.056600      0.011948     -1.110855
      6.73166      3.23805     21.89292        -0.022415     -0.295693      0.710956
      0.79097      7.83020      1.93747         0.096519      0.103948     -0.113949
      0.79097      4.47440      3.87495        -0.278688      0.419245      0.312978
      0.79097      1.11860      5.81242        -0.272959      0.416596     -0.324881
      0.79097     11.18600      7.74989         0.275836     -0.432582      0.128857
      6.73166     13.30546     11.88736        -0.018149     -0.292953     -0.709546
      3.95485      2.23720      0.00000        -0.030932     -1.830148      1.380439
      3.95485     12.30460      1.93747         0.255085     -0.005608     -0.023496
      3.95485      8.94880      3.87495         0.029293      0.010130     -0.021001
      3.95485      5.59300      5.81242         0.222005      0.269935      0.460503
      3.95485      2.23720      7.74989         0.608486      0.549851      0.029266
      3.95485     12.30460      9.68736        -0.003391     -1.849416     -1.377495
      7.11873      6.71160      0.00000         0.506548     -0.649268     -0.505136
      7.11873      3.35580      1.93747        -0.469263      0.033561     -0.071427
      7.11873      0.00000      3.87495         0.065304      0.049934     -0.029812
      7.11873     10.06740      5.81242         0.069309      0.050636      0.021824
      7.11873      6.71160      7.74989         0.293415      0.315954     -0.400544
      7.11873      3.35580      9.68736         0.504655     -0.649404      0.504334
      3.16388      1.11860      5.81242        -0.019501     -0.105791      0.096480
      0.40390      5.47525     13.88848        -0.006226     -0.359458      0.005667
      0.40390      8.83106     15.88959         0.233141     -0.398588     -0.009684
      0.40390     12.18686     17.89070         0.214555     -0.374302      0.006071
      0.40390      2.11945     19.89181         0.190095     -0.623142      0.416937
      3.16388      4.47440      3.87495        -0.019189     -0.102275     -0.101001
      0.00000      0.00000      7.74989        -0.256143     -0.185101     -0.058440
      3.56778      1.00085     13.88848         0.135638     -0.282029     -0.067089
      3.56778      4.35665     15.88959         0.190576     -0.215210     -0.124454
      3.56778      7.71245     17.89070         0.186483     -0.219842      0.123388
      3.56778     11.06826     19.89181         0.338490     -0.519179      0.516946
      0.00000      3.35580      1.93747        -0.254314     -0.180602      0.025723
      6.73166      6.59385     11.88736        -0.032999      0.363207     -0.231601
      6.73166      9.94966     13.88848         0.341578     -0.579924     -0.503192
      6.73166     13.30546     15.88959         0.152109     -0.283235     -0.024690
      6.73166      3.23805     17.89070         0.153426     -0.274900      0.036573
      6.73166      6.59385     19.89181         0.188918     -0.332682      0.085224
      6.73166      9.94966     21.89292        -0.041692      0.381980      0.224837
      0.40390      8.83106     11.88736        -0.015819     -1.095476      1.646515
      0.40390     12.18686     13.88848         0.193397     -0.628008     -0.427688
      0.40390      2.11945     15.88959         0.249489     -0.403924     -0.018798
      0.40390      5.47525     17.89070         0.224095     -0.360403      0.026621
      0.40390      8.83106     19.89181        -0.015547     -0.354897     -0.010974
      0.40390     12.18686     21.89292         0.002468     -1.078754     -1.670044
      3.56778      4.35665     11.88736         0.180385      0.074501     -1.378505
      3.56778      7.71245     13.88848         0.329370     -0.531545     -0.508014
      3.56778     11.06826     15.88959         0.181653     -0.222507     -0.123886
      3.56778      1.00085     17.89070         0.194187     -0.233001      0.123056
      3.56778      4.35665     19.89181         0.118331     -0.271828      0.067672
      3.56778      7.71245     21.89292         0.171941      0.090283      1.411826
      0.79097      7.83020      9.68736         0.591024     -0.222974      0.241558
      6.73166      3.23805     13.88848         0.172304     -0.326847     -0.083037
      6.73166      6.59385     15.88959         0.156304     -0.289638     -0.013904
      6.73166      9.94966     17.89070         0.157235     -0.278596      0.032890
      6.73166     13.30546     19.89181         0.354472     -0.582678      0.496790
      0.79097     11.18600      0.00000         0.565174     -0.221209     -0.248748
      7.11873     10.06740      9.68736         0.046898     -0.370906      0.972862
      1.19487      1.00085     13.88848        -0.481919      0.427585     -0.391513
      1.19487      4.35665     15.88959        -0.249678      0.227029     -0.082151
      1.19487      7.71245     17.89070        -0.246198      0.207022      0.076660
      1.19487     11.06826     19.89181        -0.278567      0.167333     -0.067767
      7.11873      0.00000      0.00000         0.031414     -0.366883     -0.963055
      6.32776      5.59300      9.68736         0.470783     -0.212788     -0.180807
      4.35875      9.94966     13.88848        -0.218758      0.460646     -0.302207
      4.35875     13.30546     15.88959        -0.225087      0.411725      0.034929
      4.35875      3.23805     17.89070        -0.217710      0.392947     -0.005785
      4.35875      6.59385     19.89181        -0.008872      0.219019     -0.186774
      6.32776      8.94880      0.00000         0.496074     -0.211790      0.172788
      7.52263      2.11945     11.88736        -0.554397      0.341501     -0.664646
      7.52263      5.47525     13.88848        -0.205916      0.188848     -0.026770
      7.52263      8.83106     15.88959        -0.190486      0.289457      0.042733
      7.52263     12.18686     17.89070        -0.215707      0.317026     -0.032024
      7.52263      2.11945     19.89181        -0.365141      0.429927      0.464717
      7.52263      5.47525     21.89292        -0.545434      0.359204      0.650620
      1.19487      4.35665     11.88736        -0.867084     -0.218630     -1.185141
      1.19487      7.71245     13.88848        -0.275439      0.148431      0.072217
      1.19487     11.06826     15.88959        -0.245108      0.229770     -0.079258
      1.19487      1.00085     17.89070        -0.248529      0.215376      0.087770
      1.19487      4.35665     19.89181        -0.480471      0.438379      0.390932
      1.19487      7.71245     21.89292        -0.872113     -0.213009      1.195178
      4.35875     13.30546     11.88736        -0.290804      1.685442      1.648456
      4.35875      3.23805     13.88848        -0.033654      0.214540      0.178219
      4.35875      6.59385     15.88959        -0.227266      0.364238      0.016014
      4.35875      9.94966     17.89070        -0.230555      0.386816      0.001982
      4.35875     13.30546     19.89181        -0.225160      0.459966      0.303813
      4.35875      3.23805     21.89292        -0.298497      1.685287     -1.627318
      3.16388      1.11860      9.68736         0.167250     -0.037033      0.804889
      7.52263     12.18686     13.88848        -0.356485      0.422458     -0.464535
      7.52263      2.11945     15.88959        -0.203428      0.285058      0.052824
      7.52263      5.47525     17.89070        -0.231817      0.316712     -0.054630
      7.52263      8.83106     19.89181        -0.208820      0.196058      0.023792
      3.16388      4.47440      0.00000         0.160942     -0.040094     -0.797802
 -----------------------------------------------------------------------------------
    total drift:                                0.036143     -0.078130      0.048748


--------------------------------------------------------------------------------------------------------



  FREE ENERGIE OF THE ION-ELECTRON SYSTEM (eV)
  ---------------------------------------------------
  free  energy   TOTEN  =      -688.05027920 eV

  energy  without entropy=     -688.04896587  energy(sigma->0) =     -688.04962254
 


--------------------------------------------------------------------------------------------------------


    POTLOK:  cpu time      5.2053: real time      5.2351


--------------------------------------------------------------------------------------------------------


     LOOP+:  cpu time   1600.6646: real time   1615.3452
    4ORBIT:  cpu time      0.0000: real time      0.0000

 total amount of memory used by VASP MPI-rank0   511242. kBytes
=======================================================================

   base      :      30000. kBytes
   nonlr-proj:       7837. kBytes
   fftplans  :      69092. kBytes
   grid      :      42335. kBytes
   one-center:        146. kBytes
   wavefun   :     361832. kBytes
 
  
  
 General timing and accounting informations for this job:
 ========================================================
  
                  Total CPU time used (sec):     1670.789
                            User time (sec):     1602.258
                          System time (sec):       68.531
                         Elapsed time (sec):     1689.925
  
                   Maximum memory used (kb):      781304.
                   Average memory used (kb):          N/A
  
                          Minor page faults:       359098
                          Major page faults:           53
                 Voluntary context switches:         1514
