 264 264   0   0
  0.2770664E+02  0.1946760E-08  0.1946760E-08  0.1930025E-08  0.5000000E-15
  1.000000000000000E-004
  CAR 
 Si and Ge interface calculation         
      6.65227459     -8.88847795  301      4.05467229      1.00000000
     -8.888  0.0000E+00  0.0000E+00  0.0000E+00  0.0000E+00
     -8.837  0.0000E+00  0.0000E+00  0.0000E+00  0.0000E+00
     -8.785  0.0000E+00  0.0000E+00  0.0000E+00  0.0000E+00
     -8.733  0.0000E+00  0.0000E+00  0.0000E+00  0.0000E+00
     -8.681  0.0000E+00  0.0000E+00  0.0000E+00  0.0000E+00
     -8.629  0.0000E+00  0.0000E+00  0.0000E+00  0.0000E+00
     -8.578  0.0000E+00  0.0000E+00  0.0000E+00  0.0000E+00
     -8.526  0.0000E+00  0.0000E+00  0.0000E+00  0.0000E+00
     -8.474  0.0000E+00  0.0000E+00  0.0000E+00  0.0000E+00
     -8.422  0.0000E+00  0.0000E+00  0.0000E+00  0.0000E+00
     -8.370  0.0000E+00  0.0000E+00  0.0000E+00  0.0000E+00
     -8.319  0.0000E+00  0.0000E+00  0.0000E+00  0.0000E+00
     -8.267  0.0000E+00  0.0000E+00  0.0000E+00  0.0000E+00
     -8.215  0.1479E-04  0.4161E-05  0.7663E-06  0.2155E-06
     -8.163  0.9619E+01  0.9576E+01  0.4983E+00  0.4960E+00
     -8.111  0.1952E+02  0.1945E+02  0.1509E+01  0.1504E+01
     -8.060  0.1191E+02  0.1114E+02  0.2126E+01  0.2081E+01
     -8.008  0.2214E+02  0.2203E+02  0.3273E+01  0.3222E+01
     -7.956  0.1403E+02  0.1502E+02  0.4000E+01  0.4000E+01
     -7.904  0.1311E+02  0.1197E+02  0.4679E+01  0.4620E+01
     -7.852  0.1586E+02  0.1700E+02  0.5501E+01  0.5500E+01
     -7.801  0.2706E+02  0.2472E+02  0.6902E+01  0.6781E+01
     -7.749  0.3096E+02  0.3324E+02  0.8506E+01  0.8503E+01
     -7.697  0.1091E+02  0.1046E+02  0.9072E+01  0.9045E+01
     -7.645  0.2757E+02  0.2808E+02  0.1050E+02  0.1050E+02
     -7.593  0.4408E+01  0.3502E+01  0.1073E+02  0.1068E+02
     -7.542  0.1196E+02  0.1198E+02  0.1135E+02  0.1130E+02
     -7.490  0.2222E+02  0.2308E+02  0.1250E+02  0.1250E+02
     -7.438  0.1956E+02  0.1809E+02  0.1351E+02  0.1343E+02
     -7.386  0.2877E+02  0.3017E+02  0.1500E+02  0.1500E+02
     -7.334  0.2483E+02  0.2387E+02  0.1629E+02  0.1623E+02
     -7.283  0.2620E+02  0.2538E+02  0.1765E+02  0.1755E+02
     -7.231  0.3747E+02  0.3834E+02  0.1959E+02  0.1953E+02
     -7.179  0.3353E+02  0.3350E+02  0.2132E+02  0.2127E+02
     -7.127  0.4070E+01  0.4768E+01  0.2153E+02  0.2152E+02
     -7.075  0.4725E+02  0.4556E+02  0.2398E+02  0.2388E+02
     -7.024  0.6513E+02  0.6404E+02  0.2736E+02  0.2719E+02
     -6.972  0.2830E+02  0.2921E+02  0.2882E+02  0.2871E+02
     -6.920  0.3233E+02  0.3353E+02  0.3050E+02  0.3044E+02
     -6.868  0.2957E+02  0.3001E+02  0.3203E+02  0.3200E+02
     -6.816  0.3471E+02  0.3368E+02  0.3383E+02  0.3374E+02
     -6.765  0.3385E+02  0.3456E+02  0.3558E+02  0.3553E+02
     -6.713  0.6662E+02  0.6566E+02  0.3903E+02  0.3894E+02
     -6.661  0.4500E+02  0.4507E+02  0.4136E+02  0.4127E+02
     -6.609  0.4616E+02  0.4523E+02  0.4375E+02  0.4361E+02
     -6.557  0.4580E+02  0.4700E+02  0.4613E+02  0.4605E+02
     -6.506  0.2975E+02  0.2889E+02  0.4767E+02  0.4754E+02
     -6.454  0.4433E+02  0.4569E+02  0.4996E+02  0.4991E+02
     -6.402  0.4955E+02  0.4989E+02  0.5253E+02  0.5250E+02
     -6.350  0.4024E+02  0.3841E+02  0.5462E+02  0.5449E+02
     -6.298  0.2119E+02  0.2206E+02  0.5571E+02  0.5563E+02
     -6.247  0.6253E+02  0.6318E+02  0.5895E+02  0.5890E+02
     -6.195  0.3060E+02  0.3000E+02  0.6054E+02  0.6046E+02
     -6.143  0.8739E+02  0.8521E+02  0.6506E+02  0.6487E+02
     -6.091  0.6592E+02  0.6754E+02  0.6848E+02  0.6837E+02
     -6.039  0.7481E+02  0.7400E+02  0.7235E+02  0.7220E+02
     -5.988  0.7346E+02  0.7452E+02  0.7616E+02  0.7606E+02
     -5.936  0.5843E+02  0.5824E+02  0.7919E+02  0.7908E+02
     -5.884  0.5550E+02  0.5607E+02  0.8206E+02  0.8198E+02
     -5.832  0.7065E+02  0.6753E+02  0.8572E+02  0.8548E+02
     -5.780  0.8180E+02  0.8291E+02  0.8996E+02  0.8978E+02
     -5.729  0.7406E+02  0.7377E+02  0.9380E+02  0.9360E+02
     -5.677  0.7528E+02  0.7353E+02  0.9769E+02  0.9741E+02
     -5.625  0.9238E+02  0.9503E+02  0.1025E+03  0.1023E+03
     -5.573  0.8851E+02  0.8916E+02  0.1071E+03  0.1069E+03
     -5.521  0.4836E+02  0.4681E+02  0.1096E+03  0.1094E+03
     -5.470  0.8518E+02  0.8443E+02  0.1140E+03  0.1137E+03
     -5.418  0.7364E+02  0.7427E+02  0.1178E+03  0.1176E+03
     -5.366  0.7065E+02  0.7164E+02  0.1215E+03  0.1213E+03
     -5.314  0.7759E+02  0.7685E+02  0.1255E+03  0.1253E+03
     -5.262  0.8960E+02  0.8836E+02  0.1301E+03  0.1299E+03
     -5.210  0.6537E+02  0.6811E+02  0.1335E+03  0.1334E+03
     -5.159  0.6949E+02  0.6819E+02  0.1371E+03  0.1369E+03
     -5.107  0.5733E+02  0.5740E+02  0.1401E+03  0.1399E+03
     -5.055  0.9245E+02  0.9064E+02  0.1449E+03  0.1446E+03
     -5.003  0.6233E+02  0.6635E+02  0.1481E+03  0.1480E+03
     -4.951  0.6494E+02  0.6263E+02  0.1515E+03  0.1513E+03
     -4.900  0.7311E+02  0.7149E+02  0.1552E+03  0.1550E+03
     -4.848  0.8931E+02  0.8804E+02  0.1599E+03  0.1595E+03
     -4.796  0.9894E+02  0.1001E+03  0.1650E+03  0.1647E+03
     -4.744  0.1002E+03  0.9901E+02  0.1702E+03  0.1699E+03
     -4.692  0.1016E+03  0.1033E+03  0.1754E+03  0.1752E+03
     -4.641  0.9658E+02  0.9545E+02  0.1805E+03  0.1801E+03
     -4.589  0.1209E+03  0.1216E+03  0.1867E+03  0.1864E+03
     -4.537  0.1221E+03  0.1221E+03  0.1930E+03  0.1928E+03
     -4.485  0.1073E+03  0.1058E+03  0.1986E+03  0.1983E+03
     -4.433  0.9416E+02  0.9621E+02  0.2035E+03  0.2032E+03
     -4.382  0.9029E+02  0.8832E+02  0.2082E+03  0.2078E+03
     -4.330  0.9047E+02  0.8998E+02  0.2128E+03  0.2125E+03
     -4.278  0.5892E+02  0.6267E+02  0.2159E+03  0.2157E+03
     -4.226  0.7566E+02  0.7514E+02  0.2198E+03  0.2196E+03
     -4.174  0.9956E+02  0.9811E+02  0.2250E+03  0.2247E+03
     -4.123  0.7130E+02  0.7485E+02  0.2287E+03  0.2286E+03
     -4.071  0.3541E+02  0.3587E+02  0.2305E+03  0.2304E+03
     -4.019  0.7703E+02  0.7417E+02  0.2345E+03  0.2343E+03
     -3.967  0.5993E+02  0.6092E+02  0.2376E+03  0.2374E+03
     -3.915  0.7655E+02  0.7652E+02  0.2416E+03  0.2414E+03
     -3.864  0.6919E+02  0.6731E+02  0.2451E+03  0.2449E+03
     -3.812  0.6680E+02  0.6739E+02  0.2486E+03  0.2484E+03
     -3.760  0.6285E+02  0.6079E+02  0.2519E+03  0.2515E+03
     -3.708  0.6575E+02  0.6618E+02  0.2553E+03  0.2549E+03
     -3.656  0.7615E+02  0.7877E+02  0.2592E+03  0.2590E+03
     -3.605  0.6762E+02  0.6419E+02  0.2627E+03  0.2624E+03
     -3.553  0.4136E+02  0.4558E+02  0.2649E+03  0.2647E+03
     -3.501  0.4800E+02  0.4264E+02  0.2673E+03  0.2669E+03
     -3.449  0.9264E+02  0.9765E+02  0.2721E+03  0.2720E+03
     -3.397  0.7358E+02  0.6921E+02  0.2760E+03  0.2756E+03
     -3.346  0.8839E+02  0.9049E+02  0.2805E+03  0.2803E+03
     -3.294  0.4690E+02  0.4851E+02  0.2830E+03  0.2828E+03
     -3.242  0.9848E+02  0.9759E+02  0.2881E+03  0.2878E+03
     -3.190  0.7711E+02  0.7357E+02  0.2921E+03  0.2916E+03
     -3.138  0.7937E+02  0.7917E+02  0.2962E+03  0.2957E+03
     -3.087  0.7498E+02  0.7874E+02  0.3001E+03  0.2998E+03
     -3.035  0.7092E+02  0.7260E+02  0.3037E+03  0.3036E+03
     -2.983  0.6828E+02  0.6593E+02  0.3073E+03  0.3070E+03
     -2.931  0.7554E+02  0.7171E+02  0.3112E+03  0.3107E+03
     -2.879  0.1058E+03  0.1088E+03  0.3167E+03  0.3163E+03
     -2.828  0.8949E+02  0.9243E+02  0.3213E+03  0.3211E+03
     -2.776  0.7119E+02  0.6851E+02  0.3250E+03  0.3247E+03
     -2.724  0.1175E+03  0.1194E+03  0.3311E+03  0.3309E+03
     -2.672  0.1005E+03  0.9956E+02  0.3363E+03  0.3360E+03
     -2.620  0.8792E+02  0.8678E+02  0.3408E+03  0.3405E+03
     -2.569  0.1141E+03  0.1146E+03  0.3467E+03  0.3465E+03
     -2.517  0.1248E+03  0.1232E+03  0.3532E+03  0.3528E+03
     -2.465  0.1091E+03  0.1100E+03  0.3589E+03  0.3585E+03
     -2.413  0.8355E+02  0.8570E+02  0.3632E+03  0.3630E+03
     -2.361  0.9832E+02  0.9669E+02  0.3683E+03  0.3680E+03
     -2.310  0.9120E+02  0.9144E+02  0.3730E+03  0.3727E+03
     -2.258  0.1046E+03  0.1049E+03  0.3784E+03  0.3781E+03
     -2.206  0.6473E+02  0.6482E+02  0.3818E+03  0.3815E+03
     -2.154  0.4359E+02  0.4690E+02  0.3840E+03  0.3839E+03
     -2.102  0.6302E+02  0.6084E+02  0.3873E+03  0.3871E+03
     -2.051  0.4892E+02  0.4790E+02  0.3898E+03  0.3896E+03
     -1.999  0.9191E+02  0.9099E+02  0.3946E+03  0.3943E+03
     -1.947  0.9000E+02  0.8984E+02  0.3993E+03  0.3989E+03
     -1.895  0.9740E+02  0.9759E+02  0.4043E+03  0.4040E+03
     -1.843  0.8114E+02  0.8438E+02  0.4085E+03  0.4084E+03
     -1.792  0.8179E+02  0.8062E+02  0.4127E+03  0.4125E+03
     -1.740  0.9385E+02  0.9243E+02  0.4176E+03  0.4173E+03
     -1.688  0.1025E+03  0.1015E+03  0.4229E+03  0.4226E+03
     -1.636  0.7652E+02  0.7911E+02  0.4269E+03  0.4267E+03
     -1.584  0.7240E+02  0.7220E+02  0.4306E+03  0.4304E+03
     -1.533  0.9127E+02  0.9022E+02  0.4354E+03  0.4351E+03
     -1.481  0.6571E+02  0.6690E+02  0.4388E+03  0.4386E+03
     -1.429  0.5980E+02  0.5975E+02  0.4419E+03  0.4417E+03
     -1.377  0.4065E+02  0.3971E+02  0.4440E+03  0.4437E+03
     -1.325  0.7283E+02  0.7444E+02  0.4477E+03  0.4476E+03
     -1.274  0.5579E+02  0.5611E+02  0.4506E+03  0.4505E+03
     -1.222  0.4786E+02  0.4722E+02  0.4531E+03  0.4529E+03
     -1.170  0.5463E+02  0.5626E+02  0.4559E+03  0.4558E+03
     -1.118  0.5426E+02  0.5209E+02  0.4587E+03  0.4585E+03
     -1.066  0.6043E+02  0.6250E+02  0.4619E+03  0.4618E+03
     -1.014  0.6869E+02  0.6707E+02  0.4654E+03  0.4653E+03
     -0.963  0.2535E+02  0.2675E+02  0.4667E+03  0.4666E+03
     -0.911  0.3829E+02  0.3629E+02  0.4687E+03  0.4685E+03
     -0.859  0.6257E+02  0.6375E+02  0.4720E+03  0.4718E+03
     -0.807  0.7245E+02  0.7168E+02  0.4757E+03  0.4755E+03
     -0.755  0.6055E+02  0.6173E+02  0.4789E+03  0.4787E+03
     -0.704  0.5167E+02  0.4984E+02  0.4815E+03  0.4813E+03
     -0.652  0.7367E+02  0.7239E+02  0.4854E+03  0.4851E+03
     -0.600  0.2816E+02  0.3284E+02  0.4868E+03  0.4868E+03
     -0.548  0.3741E+02  0.3496E+02  0.4887E+03  0.4886E+03
     -0.496  0.1169E+02  0.1417E+02  0.4894E+03  0.4893E+03
     -0.445  0.4145E+02  0.4120E+02  0.4915E+03  0.4914E+03
     -0.393  0.4444E+02  0.4289E+02  0.4938E+03  0.4937E+03
     -0.341  0.6142E+02  0.5809E+02  0.4970E+03  0.4967E+03
     -0.289  0.8697E+02  0.9046E+02  0.5015E+03  0.5014E+03
     -0.237  0.6606E+02  0.6489E+02  0.5049E+03  0.5047E+03
     -0.186  0.6780E+02  0.6724E+02  0.5084E+03  0.5082E+03
     -0.134  0.1094E+03  0.1090E+03  0.5141E+03  0.5138E+03
     -0.082  0.1089E+03  0.1081E+03  0.5197E+03  0.5195E+03
     -0.030  0.1207E+03  0.1182E+03  0.5260E+03  0.5256E+03
      0.022  0.1173E+03  0.1202E+03  0.5321E+03  0.5318E+03
      0.073  0.1689E+03  0.1650E+03  0.5408E+03  0.5403E+03
      0.125  0.1202E+03  0.1257E+03  0.5470E+03  0.5469E+03
      0.177  0.8229E+02  0.8297E+02  0.5513E+03  0.5512E+03
      0.229  0.9242E+02  0.8824E+02  0.5561E+03  0.5557E+03
      0.281  0.8726E+02  0.8977E+02  0.5606E+03  0.5604E+03
      0.332  0.7341E+02  0.7510E+02  0.5644E+03  0.5643E+03
      0.384  0.9642E+02  0.9297E+02  0.5694E+03  0.5691E+03
      0.436  0.1011E+03  0.1031E+03  0.5746E+03  0.5744E+03
      0.488  0.6128E+02  0.6347E+02  0.5778E+03  0.5777E+03
      0.540  0.1221E+03  0.1192E+03  0.5841E+03  0.5839E+03
      0.591  0.1488E+03  0.1456E+03  0.5919E+03  0.5914E+03
      0.643  0.1389E+03  0.1394E+03  0.5990E+03  0.5987E+03
      0.695  0.1277E+03  0.1303E+03  0.6057E+03  0.6054E+03
      0.747  0.1259E+03  0.1260E+03  0.6122E+03  0.6119E+03
      0.799  0.1175E+03  0.1167E+03  0.6183E+03  0.6180E+03
      0.850  0.1051E+03  0.1072E+03  0.6237E+03  0.6235E+03
      0.902  0.9168E+02  0.9226E+02  0.6285E+03  0.6283E+03
      0.954  0.9880E+02  0.9677E+02  0.6336E+03  0.6333E+03
      1.006  0.1026E+03  0.1013E+03  0.6389E+03  0.6386E+03
      1.058  0.1762E+03  0.1737E+03  0.6480E+03  0.6476E+03
      1.109  0.1225E+03  0.1257E+03  0.6544E+03  0.6541E+03
      1.161  0.1466E+03  0.1419E+03  0.6620E+03  0.6614E+03
      1.213  0.1597E+03  0.1606E+03  0.6702E+03  0.6698E+03
      1.265  0.1896E+03  0.1911E+03  0.6801E+03  0.6797E+03
      1.317  0.1832E+03  0.1808E+03  0.6895E+03  0.6890E+03
      1.368  0.2006E+03  0.1991E+03  0.6999E+03  0.6993E+03
      1.420  0.1657E+03  0.1706E+03  0.7085E+03  0.7082E+03
      1.472  0.1316E+03  0.1294E+03  0.7153E+03  0.7149E+03
      1.524  0.2157E+03  0.2127E+03  0.7265E+03  0.7259E+03
      1.576  0.1976E+03  0.1979E+03  0.7368E+03  0.7361E+03
      1.627  0.1883E+03  0.1909E+03  0.7465E+03  0.7460E+03
      1.679  0.1705E+03  0.1710E+03  0.7553E+03  0.7549E+03
      1.731  0.1966E+03  0.1943E+03  0.7655E+03  0.7650E+03
      1.783  0.1737E+03  0.1764E+03  0.7745E+03  0.7741E+03
      1.835  0.1808E+03  0.1767E+03  0.7839E+03  0.7833E+03
      1.886  0.1565E+03  0.1585E+03  0.7920E+03  0.7915E+03
      1.938  0.1995E+03  0.1973E+03  0.8023E+03  0.8017E+03
      1.990  0.1910E+03  0.1934E+03  0.8122E+03  0.8117E+03
      2.042  0.1618E+03  0.1620E+03  0.8206E+03  0.8201E+03
      2.094  0.1874E+03  0.1853E+03  0.8303E+03  0.8297E+03
      2.145  0.1869E+03  0.1860E+03  0.8400E+03  0.8393E+03
      2.197  0.1807E+03  0.1842E+03  0.8494E+03  0.8489E+03
      2.249  0.1564E+03  0.1556E+03  0.8575E+03  0.8569E+03
      2.301  0.1742E+03  0.1735E+03  0.8665E+03  0.8659E+03
      2.353  0.1612E+03  0.1601E+03  0.8748E+03  0.8742E+03
      2.404  0.1871E+03  0.1876E+03  0.8845E+03  0.8839E+03
      2.456  0.1665E+03  0.1694E+03  0.8932E+03  0.8927E+03
      2.508  0.1555E+03  0.1532E+03  0.9012E+03  0.9006E+03
      2.560  0.1615E+03  0.1646E+03  0.9096E+03  0.9092E+03
      2.612  0.1318E+03  0.1300E+03  0.9164E+03  0.9159E+03
      2.663  0.1079E+03  0.1140E+03  0.9220E+03  0.9218E+03
      2.715  0.1544E+03  0.1449E+03  0.9300E+03  0.9293E+03
      2.767  0.1298E+03  0.1374E+03  0.9367E+03  0.9364E+03
      2.819  0.1472E+03  0.1422E+03  0.9443E+03  0.9438E+03
      2.871  0.1541E+03  0.1520E+03  0.9523E+03  0.9517E+03
      2.922  0.1354E+03  0.1385E+03  0.9593E+03  0.9588E+03
      2.974  0.9656E+02  0.9712E+02  0.9643E+03  0.9639E+03
      3.026  0.1493E+03  0.1468E+03  0.9721E+03  0.9715E+03
      3.078  0.1210E+03  0.1249E+03  0.9783E+03  0.9780E+03
      3.130  0.1251E+03  0.1191E+03  0.9848E+03  0.9841E+03
      3.182  0.9875E+02  0.1047E+03  0.9899E+03  0.9895E+03
      3.233  0.1025E+03  0.9914E+02  0.9952E+03  0.9947E+03
      3.285  0.1215E+03  0.1178E+03  0.1002E+04  0.1001E+04
      3.337  0.1037E+03  0.1060E+03  0.1007E+04  0.1006E+04
      3.389  0.7675E+02  0.8193E+02  0.1011E+04  0.1011E+04
      3.441  0.9701E+02  0.9286E+02  0.1016E+04  0.1015E+04
      3.492  0.7882E+02  0.8073E+02  0.1020E+04  0.1020E+04
      3.544  0.8564E+02  0.8536E+02  0.1024E+04  0.1024E+04
      3.596  0.9296E+02  0.9184E+02  0.1029E+04  0.1029E+04
      3.648  0.6414E+02  0.6992E+02  0.1033E+04  0.1032E+04
      3.700  0.3301E+02  0.2801E+02  0.1034E+04  0.1034E+04
      3.751  0.7710E+02  0.8301E+02  0.1038E+04  0.1038E+04
      3.803  0.4783E+02  0.4329E+02  0.1041E+04  0.1040E+04
      3.855  0.4257E+02  0.4720E+02  0.1043E+04  0.1043E+04
      3.907  0.4025E+02  0.3927E+02  0.1045E+04  0.1045E+04
      3.959  0.5461E+02  0.4672E+02  0.1048E+04  0.1047E+04
      4.010  0.7192E+02  0.7791E+02  0.1052E+04  0.1051E+04
      4.062  0.1000E+03  0.8898E+02  0.1057E+04  0.1056E+04
      4.114  0.9221E+02  0.9581E+02  0.1062E+04  0.1061E+04
      4.166  0.1049E+03  0.1001E+03  0.1067E+04  0.1066E+04
      4.218  0.9356E+02  0.1047E+03  0.1072E+04  0.1071E+04
      4.269  0.9559E+02  0.8921E+02  0.1077E+04  0.1076E+04
      4.321  0.8024E+02  0.7461E+02  0.1081E+04  0.1080E+04
      4.373  0.1274E+03  0.1317E+03  0.1088E+04  0.1087E+04
      4.425  0.1189E+03  0.1172E+03  0.1094E+04  0.1093E+04
      4.477  0.9927E+02  0.1064E+03  0.1099E+04  0.1098E+04
      4.528  0.1101E+03  0.1034E+03  0.1105E+04  0.1104E+04
      4.580  0.9367E+02  0.1058E+03  0.1109E+04  0.1109E+04
      4.632  0.1191E+03  0.1116E+03  0.1116E+04  0.1115E+04
      4.684  0.1048E+03  0.1048E+03  0.1121E+04  0.1120E+04
      4.736  0.1349E+03  0.1343E+03  0.1128E+04  0.1127E+04
      4.787  0.1205E+03  0.1191E+03  0.1134E+04  0.1133E+04
      4.839  0.1227E+03  0.1220E+03  0.1141E+04  0.1140E+04
      4.891  0.1113E+03  0.1181E+03  0.1146E+04  0.1146E+04
      4.943  0.1198E+03  0.1187E+03  0.1153E+04  0.1152E+04
      4.995  0.1194E+03  0.1173E+03  0.1159E+04  0.1158E+04
      5.046  0.1255E+03  0.1237E+03  0.1165E+04  0.1165E+04
      5.098  0.1231E+03  0.1246E+03  0.1172E+04  0.1171E+04
      5.150  0.1033E+03  0.1053E+03  0.1177E+04  0.1176E+04
      5.202  0.1126E+03  0.1108E+03  0.1183E+04  0.1182E+04
      5.254  0.9777E+02  0.1037E+03  0.1188E+04  0.1188E+04
      5.305  0.1055E+03  0.9915E+02  0.1193E+04  0.1193E+04
      5.357  0.1199E+03  0.1227E+03  0.1200E+04  0.1199E+04
      5.409  0.1371E+03  0.1343E+03  0.1207E+04  0.1206E+04
      5.461  0.1523E+03  0.1571E+03  0.1215E+04  0.1214E+04
      5.513  0.1371E+03  0.1346E+03  0.1222E+04  0.1221E+04
      5.564  0.1598E+03  0.1580E+03  0.1230E+04  0.1229E+04
      5.616  0.1190E+03  0.1173E+03  0.1236E+04  0.1235E+04
      5.668  0.1226E+03  0.1256E+03  0.1242E+04  0.1242E+04
      5.720  0.1227E+03  0.1239E+03  0.1249E+04  0.1248E+04
      5.772  0.1309E+03  0.1328E+03  0.1256E+04  0.1255E+04
      5.823  0.1331E+03  0.1340E+03  0.1262E+04  0.1262E+04
      5.875  0.1197E+03  0.1173E+03  0.1269E+04  0.1268E+04
      5.927  0.5378E+02  0.5798E+02  0.1271E+04  0.1271E+04
      5.979  0.1035E+02  0.1487E+02  0.1272E+04  0.1272E+04
      6.031  0.0000E+00  0.0000E+00  0.1272E+04  0.1272E+04
      6.082  0.0000E+00  0.0000E+00  0.1272E+04  0.1272E+04
      6.134  0.0000E+00  0.0000E+00  0.1272E+04  0.1272E+04
      6.186  0.0000E+00  0.0000E+00  0.1272E+04  0.1272E+04
      6.238  0.0000E+00  0.0000E+00  0.1272E+04  0.1272E+04
      6.290  0.0000E+00  0.0000E+00  0.1272E+04  0.1272E+04
      6.341  0.0000E+00  0.0000E+00  0.1272E+04  0.1272E+04
      6.393  0.0000E+00  0.0000E+00  0.1272E+04  0.1272E+04
      6.445  0.0000E+00  0.0000E+00  0.1272E+04  0.1272E+04
      6.497  0.0000E+00  0.0000E+00  0.1272E+04  0.1272E+04
      6.549  0.0000E+00  0.0000E+00  0.1272E+04  0.1272E+04
      6.600  0.0000E+00  0.0000E+00  0.1272E+04  0.1272E+04
      6.652  0.0000E+00  0.0000E+00  0.1272E+04  0.1272E+04
