<?xml version="1.0" encoding="ISO-8859-1"?>
<modeling>
 <generator>
  <i name="program" type="string">vasp </i>
  <i name="version" type="string">6.4.3  </i>
  <i name="subversion" type="string">19Mar24 (build Oct 22 2024 11:23:12) complex                          parallel </i>
  <i name="platform" type="string">LinuxIFC </i>
  <i name="date" type="string">2025 06 08 </i>
  <i name="time" type="string">08:40:50 </i>
 </generator>
 <incar>
  <i type="string" name="SYSTEM">Si and Ge interface calculation</i>
  <i type="int" name="ISTART">     0</i>
  <i type="logical" name="ADDGRID"> T  </i>
  <i type="int" name="ISPIN">     2</i>
  <i name="AMIX">      0.60000000</i>
  <i type="int" name="ICHARG">     2</i>
  <i type="int" name="NELM">   100</i>
  <i name="EDIFF">      0.00000010</i>
  <i name="ENCUT">    700.00000000</i>
  <i name="ENAUG">    900.00000000</i>
  <i type="int" name="NBANDS">   288</i>
  <i name="NUPDOWN">      1.00000000</i>
  <i name="NELECT">    480.00000000</i>
  <i type="string" name="LREAL">AUTO</i>
  <i type="int" name="ISMEAR">     0</i>
  <i name="SIGMA">      0.01000000</i>
  <i type="int" name="LMAXMIX">     6</i>
  <i type="logical" name="LWAVE"> F  </i>
  <i type="logical" name="LVTOT"> F  </i>
  <i type="logical" name="LVHAR"> T  </i>
  <i type="logical" name="LASPH"> T  </i>
  <i type="logical" name="LMIXTAU"> T  </i>
 </incar>
 <primitive_cell>
  <structure name="primitive_cell" >
   <crystal>
    <varray name="basis" >
     <v>       7.68059444       0.00000000       0.00000000 </v>
     <v>       0.00000000      16.29299927       0.00000000 </v>
     <v>       0.00000000       0.00000000      16.67299271 </v>
    </varray>
    <i name="volume">   2086.45696762 </i>
    <varray name="rec_basis" >
     <v>       0.13019826       0.00000000       0.00000000 </v>
     <v>       0.00000000       0.06137605       0.00000000 </v>
     <v>       0.00000000       0.00000000       0.05997723 </v>
    </varray>
   </crystal>
   <varray name="positions" >
    <v>       0.97851729       0.98567820       0.00000000 </v>
    <v>       0.98274255       0.22411394       0.91516531 </v>
    <v>       0.47851718       0.65234476       0.23033045 </v>
    <v>       0.22851723       0.48567814       0.34549564 </v>
    <v>       0.23274262       0.72411388       0.66066086 </v>
    <v>       0.47851718       0.98567814       0.46066088 </v>
    <v>       0.97851729       0.31901154       0.00000000 </v>
    <v>       0.23274255       0.22411388       0.00000012 </v>
    <v>       0.47851718       0.98567814       0.23033045 </v>
    <v>       0.22851723       0.81901151       0.34549564 </v>
    <v>       0.48274255       0.72411382       0.57582611 </v>
    <v>       0.47851718       0.65234476       0.46066088 </v>
    <v>       0.97851729       0.65234494       0.00000000 </v>
    <v>       0.22851729       0.56901163       0.00000000 </v>
    <v>       0.47851718       0.31901151       0.23033045 </v>
    <v>       0.22851723       0.15234487       0.34549564 </v>
    <v>       0.47851723       0.06901138       0.57582605 </v>
    <v>       0.72851718       0.81901139       0.57582611 </v>
    <v>       0.22851725       0.15234485       0.11516523 </v>
    <v>       0.22851725       0.81901145       0.11516523 </v>
    <v>       0.97851723       0.65234476       0.23033045 </v>
    <v>       0.72851729       0.48567814       0.34549561 </v>
    <v>       0.47851718       0.31901139       0.46066088 </v>
    <v>       0.22851712       0.15234470       0.57582611 </v>
    <v>       0.47851729       0.31901154       0.00000000 </v>
    <v>       0.47851729       0.98567820       0.00000000 </v>
    <v>       0.97851723       0.98567814       0.23033045 </v>
    <v>       0.72851729       0.81901151       0.34549561 </v>
    <v>       0.72851718       0.48567808       0.57582611 </v>
    <v>       0.22851712       0.48567808       0.57582611 </v>
    <v>       0.22851725       0.48567820       0.11516523 </v>
    <v>       0.47851729       0.65234494       0.00000000 </v>
    <v>       0.97851723       0.31901151       0.23033045 </v>
    <v>       0.72851729       0.15234487       0.34549561 </v>
    <v>       0.72851718       0.15234470       0.57582611 </v>
    <v>       0.22851712       0.81901139       0.57582611 </v>
    <v>       0.72851735       0.23567820       0.00000000 </v>
    <v>       0.47851729       0.06901149       0.11516522 </v>
    <v>       0.22851726       0.90234476       0.23033045 </v>
    <v>       0.97851729       0.73567814       0.34549564 </v>
    <v>       0.72851723       0.56901145       0.46066088 </v>
    <v>       0.47851723       0.40234464       0.57582605 </v>
    <v>       0.72851735       0.56901163       0.00000000 </v>
    <v>       0.47851729       0.40234488       0.11516522 </v>
    <v>       0.22851726       0.23567820       0.23033045 </v>
    <v>       0.97851729       0.06901154       0.34549564 </v>
    <v>       0.72851723       0.90234482       0.46066088 </v>
    <v>       0.47851723       0.73567808       0.57582605 </v>
    <v>       0.72851735       0.90234494       0.00000000 </v>
    <v>       0.47851729       0.73567820       0.11516522 </v>
    <v>       0.22851726       0.56901151       0.23033045 </v>
    <v>       0.48274258       0.47411385       0.57582611 </v>
    <v>       0.72851723       0.23567812       0.46066088 </v>
    <v>       0.97851718       0.98567814       0.46066088 </v>
    <v>       0.22851729       0.23567820       0.00000000 </v>
    <v>       0.97851723       0.06901149       0.11516523 </v>
    <v>       0.23274255       0.97411382       0.00000012 </v>
    <v>       0.47851729       0.73567814       0.34549561 </v>
    <v>       0.22851718       0.56901145       0.46066088 </v>
    <v>       0.97851706       0.40234464       0.57582611 </v>
    <v>       0.72851723       0.48567820       0.11516523 </v>
    <v>       0.97851723       0.40234488       0.11516523 </v>
    <v>       0.72851718       0.23567820       0.23033045 </v>
    <v>       0.47851729       0.06901154       0.34549561 </v>
    <v>       0.22851718       0.90234482       0.46066088 </v>
    <v>       0.97851706       0.73567808       0.57582611 </v>
    <v>       0.22851729       0.90234494       0.00000000 </v>
    <v>       0.97851723       0.73567820       0.11516523 </v>
    <v>       0.72851718       0.56901151       0.23033045 </v>
    <v>       0.47851729       0.40234485       0.34549561 </v>
    <v>       0.22851718       0.23567812       0.46066088 </v>
    <v>       0.97851706       0.06901138       0.57582611 </v>
    <v>       0.98274255       0.47411382       0.57582611 </v>
    <v>       0.73274261       0.09911388       0.74549568 </v>
    <v>       0.48274261       0.72411394       0.91516531 </v>
    <v>       0.97851718       0.65234476       0.46066088 </v>
    <v>       0.23274258       0.34911385       0.74549568 </v>
    <v>       0.98274261       0.97411388       0.91516531 </v>
    <v>       0.98274261       0.97411388       0.57582611 </v>
    <v>       0.73274261       0.59911394       0.74549568 </v>
    <v>       0.48274261       0.22411388       0.91516531 </v>
    <v>       0.48274252       0.22411384       0.57582611 </v>
    <v>       0.23274258       0.84911388       0.74549568 </v>
    <v>       0.98274261       0.47411388       0.91516531 </v>
    <v>       0.23274253       0.47411382       0.66066086 </v>
    <v>       0.98274261       0.09911388       0.83033055 </v>
    <v>       0.73274261       0.72411382       0.00000012 </v>
    <v>       0.73274255       0.72411382       0.66066086 </v>
    <v>       0.48274258       0.34911385       0.83033055 </v>
    <v>       0.72851718       0.90234476       0.23033045 </v>
    <v>       0.23274259       0.97411388       0.66066086 </v>
    <v>       0.98274261       0.59911394       0.83033055 </v>
    <v>       0.73274255       0.22411388       0.00000012 </v>
    <v>       0.73274249       0.22411384       0.66066086 </v>
    <v>       0.48274258       0.84911388       0.83033055 </v>
    <v>       0.23274256       0.47411388       0.00000012 </v>
    <v>       0.98274261       0.72411388       0.57582611 </v>
    <v>       0.73274267       0.34911391       0.74549568 </v>
    <v>       0.48274261       0.97411394       0.91516531 </v>
    <v>       0.98274261       0.22411385       0.57582611 </v>
    <v>       0.73274261       0.84911388       0.74549568 </v>
    <v>       0.48274261       0.47411388       0.91516531 </v>
    <v>       0.97851729       0.40234485       0.34549564 </v>
    <v>       0.23274261       0.09911391       0.74549568 </v>
    <v>       0.98274261       0.72411394       0.91516531 </v>
    <v>       0.48274255       0.97411388       0.57582611 </v>
    <v>       0.23274258       0.59911388       0.74549568 </v>
    <v>       0.72851723       0.81901145       0.11516523 </v>
    <v>       0.97851718       0.31901139       0.46066088 </v>
    <v>       0.98274261       0.34911391       0.83033055 </v>
    <v>       0.73274255       0.97411388       0.00000012 </v>
    <v>       0.23274258       0.22411387       0.66066086 </v>
    <v>       0.98274261       0.84911388       0.83033055 </v>
    <v>       0.73274255       0.47411388       0.00000012 </v>
    <v>       0.73274255       0.47411382       0.66066086 </v>
    <v>       0.48274255       0.09911384       0.83033055 </v>
    <v>       0.23274250       0.72411382       0.00000012 </v>
    <v>       0.73274255       0.97411388       0.66066086 </v>
    <v>       0.48274258       0.59911394       0.83033055 </v>
    <v>       0.72851723       0.15234485       0.11516523 </v>
   </varray>
  </structure>
  <varray name="primitive_index" >
   <v type="int" >        1 </v>
   <v type="int" >        2 </v>
   <v type="int" >        3 </v>
   <v type="int" >        4 </v>
   <v type="int" >        5 </v>
   <v type="int" >        6 </v>
   <v type="int" >        7 </v>
   <v type="int" >        8 </v>
   <v type="int" >        9 </v>
   <v type="int" >       10 </v>
   <v type="int" >       11 </v>
   <v type="int" >       12 </v>
   <v type="int" >       13 </v>
   <v type="int" >       14 </v>
   <v type="int" >       15 </v>
   <v type="int" >       16 </v>
   <v type="int" >       17 </v>
   <v type="int" >       18 </v>
   <v type="int" >       19 </v>
   <v type="int" >       20 </v>
   <v type="int" >       21 </v>
   <v type="int" >       22 </v>
   <v type="int" >       23 </v>
   <v type="int" >       24 </v>
   <v type="int" >       25 </v>
   <v type="int" >       26 </v>
   <v type="int" >       27 </v>
   <v type="int" >       28 </v>
   <v type="int" >       29 </v>
   <v type="int" >       30 </v>
   <v type="int" >       31 </v>
   <v type="int" >       32 </v>
   <v type="int" >       33 </v>
   <v type="int" >       34 </v>
   <v type="int" >       35 </v>
   <v type="int" >       36 </v>
   <v type="int" >       37 </v>
   <v type="int" >       38 </v>
   <v type="int" >       39 </v>
   <v type="int" >       40 </v>
   <v type="int" >       41 </v>
   <v type="int" >       42 </v>
   <v type="int" >       43 </v>
   <v type="int" >       44 </v>
   <v type="int" >       45 </v>
   <v type="int" >       46 </v>
   <v type="int" >       47 </v>
   <v type="int" >       48 </v>
   <v type="int" >       49 </v>
   <v type="int" >       50 </v>
   <v type="int" >       51 </v>
   <v type="int" >       52 </v>
   <v type="int" >       53 </v>
   <v type="int" >       54 </v>
   <v type="int" >       55 </v>
   <v type="int" >       56 </v>
   <v type="int" >       57 </v>
   <v type="int" >       58 </v>
   <v type="int" >       59 </v>
   <v type="int" >       60 </v>
   <v type="int" >       61 </v>
   <v type="int" >       62 </v>
   <v type="int" >       63 </v>
   <v type="int" >       64 </v>
   <v type="int" >       65 </v>
   <v type="int" >       66 </v>
   <v type="int" >       67 </v>
   <v type="int" >       68 </v>
   <v type="int" >       69 </v>
   <v type="int" >       70 </v>
   <v type="int" >       71 </v>
   <v type="int" >       72 </v>
   <v type="int" >       73 </v>
   <v type="int" >       74 </v>
   <v type="int" >       75 </v>
   <v type="int" >       76 </v>
   <v type="int" >       77 </v>
   <v type="int" >       78 </v>
   <v type="int" >       79 </v>
   <v type="int" >       80 </v>
   <v type="int" >       81 </v>
   <v type="int" >       82 </v>
   <v type="int" >       83 </v>
   <v type="int" >       84 </v>
   <v type="int" >       85 </v>
   <v type="int" >       86 </v>
   <v type="int" >       87 </v>
   <v type="int" >       88 </v>
   <v type="int" >       89 </v>
   <v type="int" >       90 </v>
   <v type="int" >       91 </v>
   <v type="int" >       92 </v>
   <v type="int" >       93 </v>
   <v type="int" >       94 </v>
   <v type="int" >       95 </v>
   <v type="int" >       96 </v>
   <v type="int" >       97 </v>
   <v type="int" >       98 </v>
   <v type="int" >       99 </v>
   <v type="int" >      100 </v>
   <v type="int" >      101 </v>
   <v type="int" >      102 </v>
   <v type="int" >      103 </v>
   <v type="int" >      104 </v>
   <v type="int" >      105 </v>
   <v type="int" >      106 </v>
   <v type="int" >      107 </v>
   <v type="int" >      108 </v>
   <v type="int" >      109 </v>
   <v type="int" >      110 </v>
   <v type="int" >      111 </v>
   <v type="int" >      112 </v>
   <v type="int" >      113 </v>
   <v type="int" >      114 </v>
   <v type="int" >      115 </v>
   <v type="int" >      116 </v>
   <v type="int" >      117 </v>
   <v type="int" >      118 </v>
   <v type="int" >      119 </v>
   <v type="int" >      120 </v>
  </varray>
 </primitive_cell>
 <kpoints>
  <generation param="Gamma">
   <v type="int" name="divisions">       4        2        2 </v>
   <v name="usershift">      0.00000000       0.00000000       0.00000000 </v>
   <v name="genvec1">      0.25000000       0.00000000       0.00000000 </v>
   <v name="genvec2">      0.00000000       0.50000000       0.00000000 </v>
   <v name="genvec3">      0.00000000       0.00000000       0.50000000 </v>
   <v name="shift">      0.00000000       0.00000000       0.00000000 </v>
  </generation>
  <varray name="kpointlist" >
   <v>       0.00000000       0.00000000       0.00000000 </v>
   <v>       0.25000000       0.00000000       0.00000000 </v>
   <v>       0.50000000       0.00000000       0.00000000 </v>
   <v>       0.00000000       0.50000000       0.00000000 </v>
   <v>       0.25000000       0.50000000       0.00000000 </v>
   <v>       0.50000000       0.50000000       0.00000000 </v>
   <v>       0.00000000       0.00000000       0.50000000 </v>
   <v>       0.25000000       0.00000000       0.50000000 </v>
   <v>       0.50000000       0.00000000       0.50000000 </v>
   <v>       0.00000000       0.50000000       0.50000000 </v>
   <v>       0.25000000       0.50000000       0.50000000 </v>
   <v>       0.50000000       0.50000000       0.50000000 </v>
  </varray>
  <varray name="weights" >
   <v>       0.06250000 </v>
   <v>       0.12500000 </v>
   <v>       0.06250000 </v>
   <v>       0.06250000 </v>
   <v>       0.12500000 </v>
   <v>       0.06250000 </v>
   <v>       0.06250000 </v>
   <v>       0.12500000 </v>
   <v>       0.06250000 </v>
   <v>       0.06250000 </v>
   <v>       0.12500000 </v>
   <v>       0.06250000 </v>
  </varray>
 </kpoints>
 <parameters>
  <separator name="general" >
   <i type="string" name="SYSTEM">Si and Ge interface calculation</i>
   <i type="logical" name="LCOMPAT"> F  </i>
  </separator>
  <separator name="electronic" >
   <i type="string" name="PREC">normal</i>
   <i name="ENMAX">    700.00000000</i>
   <i name="ENAUG">    900.00000000</i>
   <i name="EDIFF">      0.00000010</i>
   <i type="int" name="IALGO">    38</i>
   <i type="int" name="IWAVPR">    10</i>
   <i type="int" name="NBANDS">   288</i>
   <i type="int" name="NBANDSLOW">    -1</i>
   <i type="int" name="NBANDSHIGH">    -1</i>
   <i name="NELECT">    480.00000000</i>
   <i type="int" name="TURBO">     0</i>
   <i type="int" name="IRESTART">     0</i>
   <i type="int" name="NREBOOT">     0</i>
   <i type="int" name="NMIN">     0</i>
   <i name="EREF">      0.00000000</i>
   <separator name="electronic smearing" >
    <i type="int" name="ISMEAR">     0</i>
    <i name="SIGMA">      0.01000000</i>
    <i name="KSPACING">      0.50000000</i>
    <i type="logical" name="KGAMMA"> T  </i>
    <i type="logical" name="KBLOWUP"> T  </i>
   </separator>
   <separator name="electronic projectors" >
    <i type="logical" name="LREAL"> T  </i>
    <v name="ROPT">     -0.00050000     -0.00050000</v>
    <i type="int" name="LMAXPAW">  -100</i>
    <i type="int" name="LMAXMIX">     6</i>
    <i type="logical" name="NLSPLINE"> F  </i>
   </separator>
   <separator name="electronic startup" >
    <i type="int" name="ISTART">     0</i>
    <i type="int" name="ICHARG">     2</i>
    <i type="int" name="INIWAV">     1</i>
   </separator>
   <separator name="electronic spin" >
    <i type="int" name="ISPIN">     2</i>
    <i type="logical" name="LNONCOLLINEAR"> F  </i>
    <v name="MAGMOM">      0.00833333      0.00833333      0.00833333      0.00833333      0.00833333      0.00833333      0.00833333      0.00833333      0.00833333      0.00833333      0.00833333      0.00833333      0.00833333      0.00833333      0.00833333      0.00833333      0.00833333      0.00833333      0.00833333      0.00833333
      0.00833333      0.00833333      0.00833333      0.00833333      0.00833333      0.00833333      0.00833333      0.00833333      0.00833333      0.00833333      0.00833333      0.00833333      0.00833333      0.00833333      0.00833333      0.00833333      0.00833333      0.00833333      0.00833333      0.00833333
      0.00833333      0.00833333      0.00833333      0.00833333      0.00833333      0.00833333      0.00833333      0.00833333      0.00833333      0.00833333      0.00833333      0.00833333      0.00833333      0.00833333      0.00833333      0.00833333      0.00833333      0.00833333      0.00833333      0.00833333
      0.00833333      0.00833333      0.00833333      0.00833333      0.00833333      0.00833333      0.00833333      0.00833333      0.00833333      0.00833333      0.00833333      0.00833333      0.00833333      0.00833333      0.00833333      0.00833333      0.00833333      0.00833333      0.00833333      0.00833333
      0.00833333      0.00833333      0.00833333      0.00833333      0.00833333      0.00833333      0.00833333      0.00833333      0.00833333      0.00833333      0.00833333      0.00833333      0.00833333      0.00833333      0.00833333      0.00833333      0.00833333      0.00833333      0.00833333      0.00833333
      0.00833333      0.00833333      0.00833333      0.00833333      0.00833333      0.00833333      0.00833333      0.00833333      0.00833333      0.00833333      0.00833333      0.00833333      0.00833333      0.00833333      0.00833333      0.00833333      0.00833333      0.00833333      0.00833333      0.00833333
</v>
    <i name="NUPDOWN">      1.00000000</i>
    <i type="logical" name="LSORBIT"> F  </i>
    <v name="SAXIS">      0.00000000      0.00000000      1.00000000</v>
    <i type="logical" name="LSPIRAL"> F  </i>
    <v name="QSPIRAL">      0.00000000      0.00000000      0.00000000</v>
    <i type="logical" name="LZEROZ"> F  </i>
   </separator>
   <separator name="electronic exchange-correlation" >
    <i type="logical" name="LASPH"> T  </i>
   </separator>
   <separator name="electronic convergence" >
    <i type="int" name="NELM">   100</i>
    <i type="int" name="NELMDL">    -5</i>
    <i type="int" name="NELMIN">     2</i>
    <i name="ENINI">    700.00000000</i>
    <separator name="electronic convergence detail" >
     <i type="logical" name="LDIAG"> T  </i>
     <i type="logical" name="LSUBROT"> F  </i>
     <i name="WEIMIN">      0.00000000</i>
     <i name="EBREAK">      0.00000000</i>
     <i name="DEPER">      0.30000000</i>
     <i type="int" name="NRMM">     4</i>
     <i name="TIME">      0.40000000</i>
    </separator>
   </separator>
   <separator name="electronic mixer" >
    <i name="AMIX">      0.60000000</i>
    <i name="BMIX">      1.00000000</i>
    <i name="AMIN">      0.10000000</i>
    <i name="AMIX_MAG">      2.40000000</i>
    <i name="BMIX_MAG">      1.00000000</i>
    <separator name="electronic mixer details" >
     <i type="int" name="IMIX">     4</i>
     <i type="logical" name="MIXFIRST"> F  </i>
     <i type="int" name="MAXMIX">   -45</i>
     <i name="WC">    100.00000000</i>
     <i type="int" name="INIMIX">     1</i>
     <i type="int" name="MIXPRE">     1</i>
     <i type="int" name="MREMOVE">     5</i>
    </separator>
   </separator>
   <separator name="electronic dipolcorrection" >
    <i type="logical" name="LDIPOL"> F  </i>
    <i type="logical" name="LMONO"> F  </i>
    <i type="int" name="IDIPOL">     0</i>
    <i name="EPSILON">      1.00000000</i>
    <v name="DIPOL">   -100.00000000   -100.00000000   -100.00000000</v>
    <i name="EFIELD">      0.00000000</i>
    <i type="logical" name="LVACPOTAV"> F  </i>
   </separator>
  </separator>
  <separator name="grids" >
   <i type="int" name="NGX">    50</i>
   <i type="int" name="NGY">   108</i>
   <i type="int" name="NGZ">   108</i>
   <i type="int" name="NGXF">   100</i>
   <i type="int" name="NGYF">   216</i>
   <i type="int" name="NGZF">   216</i>
   <i type="logical" name="ADDGRID"> T  </i>
  </separator>
  <separator name="ionic" >
   <i type="int" name="NSW">     0</i>
   <i type="int" name="IBRION">    -1</i>
   <i type="int" name="MDALGO">     0</i>
   <i type="int" name="ISIF">     2</i>
   <i name="PSTRESS">      0.00000000</i>
   <i name="EDIFFG">      0.00000100</i>
   <i type="int" name="NFREE">     0</i>
   <i name="POTIM">      0.50000000</i>
   <i name="SMASS">     -3.00000000</i>
   <i name="SCALEE">      1.00000000</i>
  </separator>
  <separator name="ionic md" >
   <i name="TEBEG">      0.00010000</i>
   <i name="TEEND">      0.00010000</i>
   <i type="int" name="NBLOCK">     1</i>
   <i type="int" name="KBLOCK">     1</i>
   <i type="int" name="NPACO">   256</i>
   <i name="APACO">     10.00000000</i>
  </separator>
  <separator name="symmetry" >
   <i type="int" name="ISYM">     2</i>
   <i name="SYMPREC">      0.00001000</i>
  </separator>
  <separator name="dos" >
   <i type="int" name="LORBIT">     0</i>
   <v name="RWIGS">     -1.00000000     -1.00000000</v>
   <i type="int" name="NEDOS">   301</i>
   <i name="EMIN">     10.00000000</i>
   <i name="EMAX">    -10.00000000</i>
   <i name="EFERMI">      0.00000000</i>
  </separator>
  <separator name="writing" >
   <i type="int" name="NWRITE">     2</i>
   <i type="logical" name="LWAVE"> F  </i>
   <i type="logical" name="LDOWNSAMPLE"> F  </i>
   <i type="logical" name="LCHARG"> T  </i>
   <i type="logical" name="LPARD"> F  </i>
   <i type="logical" name="LVTOT"> F  </i>
   <i type="logical" name="LVHAR"> T  </i>
   <i type="logical" name="LELF"> F  </i>
   <i type="logical" name="LOPTICS"> F  </i>
   <v name="STM">      0.00000000      0.00000000      0.00000000      0.00000000      0.00000000      0.00000000      0.00000000</v>
  </separator>
  <separator name="performance" >
   <i type="int" name="NPAR">     4</i>
   <i type="int" name="NSIM">     4</i>
   <i type="int" name="NBLK">    -1</i>
   <i type="logical" name="LPLANE"> T  </i>
   <i type="logical" name="LSCALAPACK"> T  </i>
   <i type="logical" name="LSCAAWARE"> F  </i>
   <i type="logical" name="LSCALU"> F  </i>
   <i type="logical" name="LASYNC"> F  </i>
   <i type="logical" name="LORBITALREAL"> F  </i>
  </separator>
  <separator name="miscellaneous" >
   <i type="int" name="IDIOT">     3</i>
   <i type="int" name="PHON_NSTRUCT">    -1</i>
   <i type="logical" name="LMUSIC"> F  </i>
   <v name="POMASS">     28.08500000     72.61000000</v>
   <v name="DARWINR">      0.00000000      0.00000000</v>
   <v name="DARWINV">      1.00000000      1.00000000</v>
   <i type="logical" name="LCORR"> T  </i>
  </separator>
  <i type="logical" name="GGA_COMPAT"> T  </i>
  <i type="logical" name="LBERRY"> F  </i>
  <i type="int" name="ICORELEVEL">     0</i>
  <i type="logical" name="LDAU"> F  </i>
  <i type="int" name="I_CONSTRAINED_M">     0</i>
  <separator name="electronic exchange-correlation" >
   <i type="string" name="GGA    ">PE</i>
   <i type="string" name="XC_C">1</i>
   <i type="int" name="VOSKOWN">     0</i>
   <i type="logical" name="LHFCALC"> F  </i>
   <i type="string" name="PRECFOCK"></i>
   <i type="logical" name="LSYMGRAD"> F  </i>
   <i type="logical" name="LHFONE"> F  </i>
   <i type="logical" name="LRHFCALC"> F  </i>
   <i type="logical" name="LTHOMAS"> F  </i>
   <i type="logical" name="LMODELHF"> F  </i>
   <i type="logical" name="LFOCKACE"> F  </i>
   <i name="ENCUT4O">     -1.00000000</i>
   <i type="int" name="EXXOEP">     0</i>
   <i type="int" name="FOURORBIT">     0</i>
   <i name="AEXX">      0.00000000</i>
   <i name="HFALPHA">      0.00000000</i>
   <i name="MCALPHA">      0.00000000</i>
   <i name="ALDAX">      1.00000000</i>
   <i name="AGGAX">      1.00000000</i>
   <i name="AMGGAX">      1.00000000</i>
   <i name="ALDAC">      1.00000000</i>
   <i name="AGGAC">      1.00000000</i>
   <i name="AMGGAC">      1.00000000</i>
   <i type="int" name="NKREDX">     1</i>
   <i type="int" name="NKREDY">     1</i>
   <i type="int" name="NKREDZ">     1</i>
   <i type="logical" name="SHIFTRED"> F  </i>
   <i type="logical" name="ODDONLY"> F  </i>
   <i type="logical" name="EVENONLY"> F  </i>
   <i type="int" name="LMAXFOCK">     0</i>
   <i type="int" name="NMAXFOCKAE">     0</i>
   <i type="logical" name="LFOCKAEDFT"> F  </i>
   <i name="HFSCREEN">      0.00000000</i>
   <i name="HFSCREENC">      0.00000000</i>
   <i type="int" name="NBANDSGWLOW">     0</i>
  </separator>
  <separator name="vdW DFT" >
   <i type="logical" name="LUSE_VDW"> F  </i>
   <i type="int" name="IVDW_NL">    -1</i>
   <i type="logical" name="LSPIN_VDW"> F  </i>
   <i name="ZAB_VDW">     -0.84910000</i>
   <i name="GAMMA_VDW">      1.39626340</i>
   <i name="ALPHA_VDW">      0.00000000</i>
   <i name="PARAM1">      0.12340000</i>
   <i name="PARAM2">      1.00000000</i>
   <i name="BPARAM">      6.30000000</i>
   <i name="CPARAM">      0.00930000</i>
  </separator>
  <separator name="model GW" >
   <i type="int" name="MODEL_GW">     0</i>
   <i name="MODEL_EPS0">     10.43228484</i>
   <i name="MODEL_ALPHA">      1.00000000</i>
  </separator>
  <separator name="linear response parameters" >
   <i type="logical" name="LEPSILON"> F  </i>
   <i type="logical" name="LRPA"> F  </i>
   <i type="logical" name="LNABLA"> F  </i>
   <i type="logical" name="LVEL"> F  </i>
   <i name="CSHIFT">      0.10000000</i>
   <i name="OMEGAMAX">     -1.00000000</i>
   <i name="DEG_THRESHOLD">      0.00200000</i>
   <i name="RTIME">     -0.10000000</i>
   <i name="WPLASMAI">      0.00000000</i>
   <v name="DFIELD">      0.00000000      0.00000000      0.00000000</v>
   <v name="WPLASMA">      0.00000000      0.00000000      0.00000000      0.00000000      0.00000000      0.00000000      0.00000000      0.00000000      0.00000000</v>
  </separator>
  <separator name="orbital magnetization" >
   <i type="logical" name="NUCIND"> F  </i>
   <v name="MAGPOS">      0.00000000      0.00000000      0.00000000</v>
   <i type="logical" name="LNICSALL"> T  </i>
   <i type="logical" name="ORBITALMAG"> F  </i>
   <i type="logical" name="LMAGBLOCH"> F  </i>
   <i type="logical" name="LCHIMAG"> F  </i>
   <i type="logical" name="LGAUGE"> T  </i>
   <i type="int" name="MAGATOM">     0</i>
   <v name="MAGDIPOL">      0.00000000      0.00000000      0.00000000</v>
   <v name="AVECCONST">      0.00000000      0.00000000      0.00000000</v>
  </separator>
  <separator name="response functions" >
   <i type="logical" name="LALL_IN_ONE"> F  </i>
   <i type="int" name="IALL_IN_ONE">    -1</i>
   <i type="int" name="NBANDS_WAVE">    -1</i>
   <i type="logical" name="LFINITE_TEMPERATURE"> F  </i>
   <i type="logical" name="LADDER"> F  </i>
   <i type="logical" name="LRPAFORCE"> F  </i>
   <i type="logical" name="LFXC"> F  </i>
   <i type="logical" name="LHARTREE"> T  </i>
   <i type="int" name="IBSE">     0</i>
   <v type="int" name="KPOINT">    -1     0     0     0</v>
   <i type="logical" name="LTCTC"> F  </i>
   <i type="logical" name="LTCTE"> F  </i>
   <i type="logical" name="LTETE"> F  </i>
   <i type="logical" name="LTRIPLET"> F  </i>
   <i type="logical" name="LFXCEPS"> F  </i>
   <i type="logical" name="LFXHEG"> F  </i>
   <i type="int" name="NATURALO">     2</i>
   <i type="logical" name="LHOLEGF"> F  </i>
   <i type="logical" name="L2ORDER"> F  </i>
   <i type="logical" name="LDMP1"> F  </i>
   <i type="logical" name="LMP2LT"> F  </i>
   <i type="logical" name="LSMP2LT"> F  </i>
   <i type="logical" name="LGWLF"> F  </i>
   <i name="ENCUTGW">     -1.60000002</i>
   <i name="ENCUTGWSOFT">     -1.60000002</i>
   <i name="ENCUTLF">     -1.00000000</i>
   <i type="logical" name="ESF_SPLINES"> F  </i>
   <i name="ESF_CONV">      0.01000000</i>
   <i type="int" name="ESF_NINTER">    15</i>
   <i type="int" name="LMAXMP2">    -1</i>
   <i name="SCISSOR">      0.00000000</i>
   <i type="int" name="NOMEGA">     0</i>
   <i type="int" name="NOMEGAR">     0</i>
   <i type="int" name="NBANDSGW">    -1</i>
   <i type="int" name="NBANDSO">    -1</i>
   <i type="int" name="NBANDSV">    -1</i>
   <i type="int" name="NELMGW">     1</i>
   <i type="int" name="NELMHF">     1</i>
   <i type="int" name="DIM">     3</i>
   <i type="int" name="IESPILON">     4</i>
   <i type="int" name="ANTIRES">     0</i>
   <i name="OMEGAMAX">    -30.00000000</i>
   <i name="OMEGAMIN">    -30.00000000</i>
   <i name="OMEGATL">   -200.00000000</i>
   <i type="int" name="OMEGAGRID">     0</i>
   <i name="CSHIFT">     -0.10000000</i>
   <i type="logical" name="LSELFENERGY"> F  </i>
   <i type="logical" name="LSPECTRAL"> F  </i>
   <i type="logical" name="LSPECTRALGW"> F  </i>
   <i type="logical" name="LSINGLES"> F  </i>
   <i type="logical" name="LFERMIGW"> F  </i>
   <i type="logical" name="ODDONLYGW"> F  </i>
   <i type="logical" name="EVENONLYGW"> F  </i>
   <i type="int" name="NKREDLFX">     1</i>
   <i type="int" name="NKREDLFY">     1</i>
   <i type="int" name="NKREDLFZ">     1</i>
   <i type="int" name="MAXMEM">  2800</i>
   <i type="int" name="TELESCOPE">     0</i>
   <i type="int" name="NTAUPAR">    -1</i>
   <i type="int" name="NOMEGAPAR">    -1</i>
   <i name="DAMP_NEWTON">      0.80000001</i>
   <i name="LAMBDA">      1.00000000</i>
  </separator>
  <separator name="External order field" >
   <i name="OFIELD_KAPPA">      0.00000000</i>
   <v name="OFIELD_K">      0.00000000      0.00000000      0.00000000</v>
   <i name="OFIELD_Q6_NEAR">      0.00000000</i>
   <i name="OFIELD_Q6_FAR">      0.00000000</i>
   <i name="OFIELD_A">      0.00000000</i>
  </separator>
  <separator name="optional k-points parameters" >
   <i type="int" name="KPOINTS_OPT_MODE">     1</i>
   <i type="logical" name="LKPOINTS_OPT"> F  </i>
  </separator>
 </parameters>
 <atominfo>
  <atoms>     120 </atoms>
  <types>       2 </types>
  <array name="atoms" >
   <dimension dim="1">ion</dimension>
   <field type="string">element</field>
   <field type="int">atomtype</field>
   <set>
    <rc><c>Si</c><c>   1</c></rc>
    <rc><c>Si</c><c>   1</c></rc>
    <rc><c>Si</c><c>   1</c></rc>
    <rc><c>Si</c><c>   1</c></rc>
    <rc><c>Si</c><c>   1</c></rc>
    <rc><c>Si</c><c>   1</c></rc>
    <rc><c>Si</c><c>   1</c></rc>
    <rc><c>Si</c><c>   1</c></rc>
    <rc><c>Si</c><c>   1</c></rc>
    <rc><c>Si</c><c>   1</c></rc>
    <rc><c>Si</c><c>   1</c></rc>
    <rc><c>Si</c><c>   1</c></rc>
    <rc><c>Si</c><c>   1</c></rc>
    <rc><c>Si</c><c>   1</c></rc>
    <rc><c>Si</c><c>   1</c></rc>
    <rc><c>Si</c><c>   1</c></rc>
    <rc><c>Si</c><c>   1</c></rc>
    <rc><c>Si</c><c>   1</c></rc>
    <rc><c>Si</c><c>   1</c></rc>
    <rc><c>Si</c><c>   1</c></rc>
    <rc><c>Si</c><c>   1</c></rc>
    <rc><c>Si</c><c>   1</c></rc>
    <rc><c>Si</c><c>   1</c></rc>
    <rc><c>Si</c><c>   1</c></rc>
    <rc><c>Si</c><c>   1</c></rc>
    <rc><c>Si</c><c>   1</c></rc>
    <rc><c>Si</c><c>   1</c></rc>
    <rc><c>Si</c><c>   1</c></rc>
    <rc><c>Si</c><c>   1</c></rc>
    <rc><c>Si</c><c>   1</c></rc>
    <rc><c>Si</c><c>   1</c></rc>
    <rc><c>Si</c><c>   1</c></rc>
    <rc><c>Si</c><c>   1</c></rc>
    <rc><c>Si</c><c>   1</c></rc>
    <rc><c>Si</c><c>   1</c></rc>
    <rc><c>Si</c><c>   1</c></rc>
    <rc><c>Si</c><c>   1</c></rc>
    <rc><c>Si</c><c>   1</c></rc>
    <rc><c>Si</c><c>   1</c></rc>
    <rc><c>Si</c><c>   1</c></rc>
    <rc><c>Si</c><c>   1</c></rc>
    <rc><c>Si</c><c>   1</c></rc>
    <rc><c>Si</c><c>   1</c></rc>
    <rc><c>Si</c><c>   1</c></rc>
    <rc><c>Si</c><c>   1</c></rc>
    <rc><c>Si</c><c>   1</c></rc>
    <rc><c>Si</c><c>   1</c></rc>
    <rc><c>Si</c><c>   1</c></rc>
    <rc><c>Si</c><c>   1</c></rc>
    <rc><c>Si</c><c>   1</c></rc>
    <rc><c>Si</c><c>   1</c></rc>
    <rc><c>Si</c><c>   1</c></rc>
    <rc><c>Si</c><c>   1</c></rc>
    <rc><c>Si</c><c>   1</c></rc>
    <rc><c>Si</c><c>   1</c></rc>
    <rc><c>Si</c><c>   1</c></rc>
    <rc><c>Si</c><c>   1</c></rc>
    <rc><c>Si</c><c>   1</c></rc>
    <rc><c>Si</c><c>   1</c></rc>
    <rc><c>Si</c><c>   1</c></rc>
    <rc><c>Si</c><c>   1</c></rc>
    <rc><c>Si</c><c>   1</c></rc>
    <rc><c>Si</c><c>   1</c></rc>
    <rc><c>Si</c><c>   1</c></rc>
    <rc><c>Si</c><c>   1</c></rc>
    <rc><c>Si</c><c>   1</c></rc>
    <rc><c>Si</c><c>   1</c></rc>
    <rc><c>Si</c><c>   1</c></rc>
    <rc><c>Si</c><c>   1</c></rc>
    <rc><c>Si</c><c>   1</c></rc>
    <rc><c>Si</c><c>   1</c></rc>
    <rc><c>Si</c><c>   1</c></rc>
    <rc><c>Ge</c><c>   2</c></rc>
    <rc><c>Ge</c><c>   2</c></rc>
    <rc><c>Ge</c><c>   2</c></rc>
    <rc><c>Ge</c><c>   2</c></rc>
    <rc><c>Ge</c><c>   2</c></rc>
    <rc><c>Ge</c><c>   2</c></rc>
    <rc><c>Ge</c><c>   2</c></rc>
    <rc><c>Ge</c><c>   2</c></rc>
    <rc><c>Ge</c><c>   2</c></rc>
    <rc><c>Ge</c><c>   2</c></rc>
    <rc><c>Ge</c><c>   2</c></rc>
    <rc><c>Ge</c><c>   2</c></rc>
    <rc><c>Ge</c><c>   2</c></rc>
    <rc><c>Ge</c><c>   2</c></rc>
    <rc><c>Ge</c><c>   2</c></rc>
    <rc><c>Ge</c><c>   2</c></rc>
    <rc><c>Ge</c><c>   2</c></rc>
    <rc><c>Ge</c><c>   2</c></rc>
    <rc><c>Ge</c><c>   2</c></rc>
    <rc><c>Ge</c><c>   2</c></rc>
    <rc><c>Ge</c><c>   2</c></rc>
    <rc><c>Ge</c><c>   2</c></rc>
    <rc><c>Ge</c><c>   2</c></rc>
    <rc><c>Ge</c><c>   2</c></rc>
    <rc><c>Ge</c><c>   2</c></rc>
    <rc><c>Ge</c><c>   2</c></rc>
    <rc><c>Ge</c><c>   2</c></rc>
    <rc><c>Ge</c><c>   2</c></rc>
    <rc><c>Ge</c><c>   2</c></rc>
    <rc><c>Ge</c><c>   2</c></rc>
    <rc><c>Ge</c><c>   2</c></rc>
    <rc><c>Ge</c><c>   2</c></rc>
    <rc><c>Ge</c><c>   2</c></rc>
    <rc><c>Ge</c><c>   2</c></rc>
    <rc><c>Ge</c><c>   2</c></rc>
    <rc><c>Ge</c><c>   2</c></rc>
    <rc><c>Ge</c><c>   2</c></rc>
    <rc><c>Ge</c><c>   2</c></rc>
    <rc><c>Ge</c><c>   2</c></rc>
    <rc><c>Ge</c><c>   2</c></rc>
    <rc><c>Ge</c><c>   2</c></rc>
    <rc><c>Ge</c><c>   2</c></rc>
    <rc><c>Ge</c><c>   2</c></rc>
    <rc><c>Ge</c><c>   2</c></rc>
    <rc><c>Ge</c><c>   2</c></rc>
    <rc><c>Ge</c><c>   2</c></rc>
    <rc><c>Ge</c><c>   2</c></rc>
    <rc><c>Ge</c><c>   2</c></rc>
   </set>
  </array>
  <array name="atomtypes" >
   <dimension dim="1">type</dimension>
   <field type="int">atomspertype</field>
   <field type="string">element</field>
   <field>mass</field>
   <field>valence</field>
   <field type="string">pseudopotential</field>
   <set>
    <rc><c>  72</c><c>Si</c><c>     28.08500000</c><c>      4.00000000</c><c>  PAW_PBE Si 05Jan2001                  </c></rc>
    <rc><c>  48</c><c>Ge</c><c>     72.61000000</c><c>      4.00000000</c><c>  PAW_PBE Ge 05Jan2001                  </c></rc>
   </set>
  </array>
 </atominfo>
 <structure name="initialpos" >
  <crystal>
   <varray name="basis" >
    <v>       7.68059444       0.00000000       0.00000000 </v>
    <v>       0.00000000      16.29299927       0.00000000 </v>
    <v>       0.00000000       0.00000000      16.67299271 </v>
   </varray>
   <i name="volume">   2086.45696762 </i>
   <varray name="rec_basis" >
    <v>       0.13019826       0.00000000       0.00000000 </v>
    <v>       0.00000000       0.06137605       0.00000000 </v>
    <v>       0.00000000       0.00000000       0.05997723 </v>
   </varray>
  </crystal>
  <varray name="positions" >
   <v>       0.97851729       0.98567820       0.00000000 </v>
   <v>       0.98274255       0.22411394       0.91516531 </v>
   <v>       0.47851718       0.65234476       0.23033045 </v>
   <v>       0.22851723       0.48567814       0.34549564 </v>
   <v>       0.23274262       0.72411388       0.66066086 </v>
   <v>       0.47851718       0.98567814       0.46066088 </v>
   <v>       0.97851729       0.31901154       0.00000000 </v>
   <v>       0.23274255       0.22411388       0.00000012 </v>
   <v>       0.47851718       0.98567814       0.23033045 </v>
   <v>       0.22851723       0.81901151       0.34549564 </v>
   <v>       0.48274255       0.72411382       0.57582611 </v>
   <v>       0.47851718       0.65234476       0.46066088 </v>
   <v>       0.97851729       0.65234494       0.00000000 </v>
   <v>       0.22851729       0.56901163       0.00000000 </v>
   <v>       0.47851718       0.31901151       0.23033045 </v>
   <v>       0.22851723       0.15234487       0.34549564 </v>
   <v>       0.47851723       0.06901138       0.57582605 </v>
   <v>       0.72851718       0.81901139       0.57582611 </v>
   <v>       0.22851725       0.15234485       0.11516523 </v>
   <v>       0.22851725       0.81901145       0.11516523 </v>
   <v>       0.97851723       0.65234476       0.23033045 </v>
   <v>       0.72851729       0.48567814       0.34549561 </v>
   <v>       0.47851718       0.31901139       0.46066088 </v>
   <v>       0.22851712       0.15234470       0.57582611 </v>
   <v>       0.47851729       0.31901154       0.00000000 </v>
   <v>       0.47851729       0.98567820       0.00000000 </v>
   <v>       0.97851723       0.98567814       0.23033045 </v>
   <v>       0.72851729       0.81901151       0.34549561 </v>
   <v>       0.72851718       0.48567808       0.57582611 </v>
   <v>       0.22851712       0.48567808       0.57582611 </v>
   <v>       0.22851725       0.48567820       0.11516523 </v>
   <v>       0.47851729       0.65234494       0.00000000 </v>
   <v>       0.97851723       0.31901151       0.23033045 </v>
   <v>       0.72851729       0.15234487       0.34549561 </v>
   <v>       0.72851718       0.15234470       0.57582611 </v>
   <v>       0.22851712       0.81901139       0.57582611 </v>
   <v>       0.72851735       0.23567820       0.00000000 </v>
   <v>       0.47851729       0.06901149       0.11516522 </v>
   <v>       0.22851726       0.90234476       0.23033045 </v>
   <v>       0.97851729       0.73567814       0.34549564 </v>
   <v>       0.72851723       0.56901145       0.46066088 </v>
   <v>       0.47851723       0.40234464       0.57582605 </v>
   <v>       0.72851735       0.56901163       0.00000000 </v>
   <v>       0.47851729       0.40234488       0.11516522 </v>
   <v>       0.22851726       0.23567820       0.23033045 </v>
   <v>       0.97851729       0.06901154       0.34549564 </v>
   <v>       0.72851723       0.90234482       0.46066088 </v>
   <v>       0.47851723       0.73567808       0.57582605 </v>
   <v>       0.72851735       0.90234494       0.00000000 </v>
   <v>       0.47851729       0.73567820       0.11516522 </v>
   <v>       0.22851726       0.56901151       0.23033045 </v>
   <v>       0.48274258       0.47411385       0.57582611 </v>
   <v>       0.72851723       0.23567812       0.46066088 </v>
   <v>       0.97851718       0.98567814       0.46066088 </v>
   <v>       0.22851729       0.23567820       0.00000000 </v>
   <v>       0.97851723       0.06901149       0.11516523 </v>
   <v>       0.23274255       0.97411382       0.00000012 </v>
   <v>       0.47851729       0.73567814       0.34549561 </v>
   <v>       0.22851718       0.56901145       0.46066088 </v>
   <v>       0.97851706       0.40234464       0.57582611 </v>
   <v>       0.72851723       0.48567820       0.11516523 </v>
   <v>       0.97851723       0.40234488       0.11516523 </v>
   <v>       0.72851718       0.23567820       0.23033045 </v>
   <v>       0.47851729       0.06901154       0.34549561 </v>
   <v>       0.22851718       0.90234482       0.46066088 </v>
   <v>       0.97851706       0.73567808       0.57582611 </v>
   <v>       0.22851729       0.90234494       0.00000000 </v>
   <v>       0.97851723       0.73567820       0.11516523 </v>
   <v>       0.72851718       0.56901151       0.23033045 </v>
   <v>       0.47851729       0.40234485       0.34549561 </v>
   <v>       0.22851718       0.23567812       0.46066088 </v>
   <v>       0.97851706       0.06901138       0.57582611 </v>
   <v>       0.98274255       0.47411382       0.57582611 </v>
   <v>       0.73274261       0.09911388       0.74549568 </v>
   <v>       0.48274261       0.72411394       0.91516531 </v>
   <v>       0.97851718       0.65234476       0.46066088 </v>
   <v>       0.23274258       0.34911385       0.74549568 </v>
   <v>       0.98274261       0.97411388       0.91516531 </v>
   <v>       0.98274261       0.97411388       0.57582611 </v>
   <v>       0.73274261       0.59911394       0.74549568 </v>
   <v>       0.48274261       0.22411388       0.91516531 </v>
   <v>       0.48274252       0.22411384       0.57582611 </v>
   <v>       0.23274258       0.84911388       0.74549568 </v>
   <v>       0.98274261       0.47411388       0.91516531 </v>
   <v>       0.23274253       0.47411382       0.66066086 </v>
   <v>       0.98274261       0.09911388       0.83033055 </v>
   <v>       0.73274261       0.72411382       0.00000012 </v>
   <v>       0.73274255       0.72411382       0.66066086 </v>
   <v>       0.48274258       0.34911385       0.83033055 </v>
   <v>       0.72851718       0.90234476       0.23033045 </v>
   <v>       0.23274259       0.97411388       0.66066086 </v>
   <v>       0.98274261       0.59911394       0.83033055 </v>
   <v>       0.73274255       0.22411388       0.00000012 </v>
   <v>       0.73274249       0.22411384       0.66066086 </v>
   <v>       0.48274258       0.84911388       0.83033055 </v>
   <v>       0.23274256       0.47411388       0.00000012 </v>
   <v>       0.98274261       0.72411388       0.57582611 </v>
   <v>       0.73274267       0.34911391       0.74549568 </v>
   <v>       0.48274261       0.97411394       0.91516531 </v>
   <v>       0.98274261       0.22411385       0.57582611 </v>
   <v>       0.73274261       0.84911388       0.74549568 </v>
   <v>       0.48274261       0.47411388       0.91516531 </v>
   <v>       0.97851729       0.40234485       0.34549564 </v>
   <v>       0.23274261       0.09911391       0.74549568 </v>
   <v>       0.98274261       0.72411394       0.91516531 </v>
   <v>       0.48274255       0.97411388       0.57582611 </v>
   <v>       0.23274258       0.59911388       0.74549568 </v>
   <v>       0.72851723       0.81901145       0.11516523 </v>
   <v>       0.97851718       0.31901139       0.46066088 </v>
   <v>       0.98274261       0.34911391       0.83033055 </v>
   <v>       0.73274255       0.97411388       0.00000012 </v>
   <v>       0.23274258       0.22411387       0.66066086 </v>
   <v>       0.98274261       0.84911388       0.83033055 </v>
   <v>       0.73274255       0.47411388       0.00000012 </v>
   <v>       0.73274255       0.47411382       0.66066086 </v>
   <v>       0.48274255       0.09911384       0.83033055 </v>
   <v>       0.23274250       0.72411382       0.00000012 </v>
   <v>       0.73274255       0.97411388       0.66066086 </v>
   <v>       0.48274258       0.59911394       0.83033055 </v>
   <v>       0.72851723       0.15234485       0.11516523 </v>
  </varray>
 </structure>
 <calculation>
  <scstep>
   <time name="dav">   29.00   29.37</time>
   <time name="total">   30.16   30.53</time>
   <energy>
    <i name="alphaZ">    667.05022527 </i>
    <i name="ewald">  -8778.59489857 </i>
    <i name="hartreedc">  -1510.37922529 </i>
    <i name="XCdc">  -1004.24056327 </i>
    <i name="pawpsdc">  10575.88222728 </i>
    <i name="pawaedc">  -8613.76247617 </i>
    <i name="eentropy">     -0.00017261 </i>
    <i name="bandstr">   2863.43956838 </i>
    <i name="atom">  12460.60057749 </i>
    <i name="e_fr_energy">   6659.99526252 </i>
    <i name="e_wo_entrp">   6659.99543513 </i>
    <i name="e_0_energy">   6659.99534883 </i>
   </energy>
  </scstep>
  <scstep>
   <time name="dav">   33.54   33.81</time>
   <time name="total">   33.54   33.81</time>
   <energy>
    <i name="e_fr_energy">   3956.63467947 </i>
    <i name="e_wo_entrp">   3956.63619021 </i>
    <i name="e_0_energy">   3956.63543484 </i>
   </energy>
  </scstep>
  <scstep>
   <time name="dav">   42.52   42.87</time>
   <time name="total">   42.52   42.87</time>
   <energy>
    <i name="e_fr_energy">   3545.31206225 </i>
    <i name="e_wo_entrp">   3545.31400488 </i>
    <i name="e_0_energy">   3545.31303357 </i>
   </energy>
  </scstep>
  <scstep>
   <time name="dav">   34.72   35.00</time>
   <time name="total">   34.73   35.01</time>
   <energy>
    <i name="e_fr_energy">   3500.51349310 </i>
    <i name="e_wo_entrp">   3500.51539766 </i>
    <i name="e_0_energy">   3500.51444538 </i>
   </energy>
  </scstep>
  <scstep>
   <time name="dav">   38.79   39.12</time>
   <time name="total">   40.23   40.57</time>
   <energy>
    <i name="e_fr_energy">   3498.38495970 </i>
    <i name="e_wo_entrp">   3498.38678064 </i>
    <i name="e_0_energy">   3498.38587017 </i>
   </energy>
  </scstep>
  <scstep>
   <time name="dav">   36.97   37.27</time>
   <time name="total">   39.54   39.86</time>
   <energy>
    <i name="e_fr_energy">   3318.04517094 </i>
    <i name="e_wo_entrp">   3318.04754337 </i>
    <i name="e_0_energy">   3318.04635715 </i>
   </energy>
  </scstep>
  <scstep>
   <time name="dav">   38.14   38.45</time>
   <time name="total">   40.70   41.03</time>
   <energy>
    <i name="e_fr_energy">   3711.78692109 </i>
    <i name="e_wo_entrp">   3711.78826581 </i>
    <i name="e_0_energy">   3711.78759345 </i>
   </energy>
  </scstep>
  <scstep>
   <time name="dav">   35.76   36.05</time>
   <time name="total">   38.34   38.64</time>
   <energy>
    <i name="e_fr_energy">   3750.27464354 </i>
    <i name="e_wo_entrp">   3750.27648657 </i>
    <i name="e_0_energy">   3750.27556506 </i>
   </energy>
  </scstep>
  <scstep>
   <time name="dav">   35.83   36.13</time>
   <time name="total">   38.40   38.72</time>
   <energy>
    <i name="e_fr_energy">   3741.39607504 </i>
    <i name="e_wo_entrp">   3741.39924892 </i>
    <i name="e_0_energy">   3741.39766198 </i>
   </energy>
  </scstep>
  <scstep>
   <time name="dav">   35.86   36.15</time>
   <time name="total">   38.44   38.74</time>
   <energy>
    <i name="e_fr_energy">   3746.83843155 </i>
    <i name="e_wo_entrp">   3746.84119216 </i>
    <i name="e_0_energy">   3746.83981186 </i>
   </energy>
  </scstep>
  <scstep>
   <time name="dav">   35.95   36.24</time>
   <time name="total">   38.52   38.83</time>
   <energy>
    <i name="e_fr_energy">   3745.53613621 </i>
    <i name="e_wo_entrp">   3745.53839664 </i>
    <i name="e_0_energy">   3745.53726643 </i>
   </energy>
  </scstep>
  <scstep>
   <time name="dav">   36.42   36.71</time>
   <time name="total">   38.99   39.30</time>
   <energy>
    <i name="e_fr_energy">   3746.89602242 </i>
    <i name="e_wo_entrp">   3746.89809653 </i>
    <i name="e_0_energy">   3746.89705947 </i>
   </energy>
  </scstep>
  <scstep>
   <time name="dav">   38.60   38.91</time>
   <time name="total">   41.17   41.49</time>
   <energy>
    <i name="e_fr_energy">   3747.05713694 </i>
    <i name="e_wo_entrp">   3747.05954200 </i>
    <i name="e_0_energy">   3747.05833947 </i>
   </energy>
  </scstep>
  <scstep>
   <time name="dav">   36.53   36.83</time>
   <time name="total">   39.10   39.41</time>
   <energy>
    <i name="e_fr_energy">   3747.12247351 </i>
    <i name="e_wo_entrp">   3747.12380497 </i>
    <i name="e_0_energy">   3747.12313924 </i>
   </energy>
  </scstep>
  <scstep>
   <time name="dav">   39.60   39.92</time>
   <time name="total">   42.17   42.51</time>
   <energy>
    <i name="e_fr_energy">   3746.59260122 </i>
    <i name="e_wo_entrp">   3746.59399012 </i>
    <i name="e_0_energy">   3746.59329567 </i>
   </energy>
  </scstep>
  <scstep>
   <time name="dav">   37.93   38.24</time>
   <time name="total">   40.48   40.81</time>
   <energy>
    <i name="e_fr_energy">   3724.69072566 </i>
    <i name="e_wo_entrp">   3724.69290868 </i>
    <i name="e_0_energy">   3724.69181717 </i>
   </energy>
  </scstep>
  <scstep>
   <time name="dav">   35.34   35.63</time>
   <time name="total">   37.89   38.20</time>
   <energy>
    <i name="e_fr_energy">   3738.61412046 </i>
    <i name="e_wo_entrp">   3738.61624112 </i>
    <i name="e_0_energy">   3738.61518079 </i>
   </energy>
  </scstep>
  <scstep>
   <time name="dav">   34.46   34.74</time>
   <time name="total">   37.01   37.31</time>
   <energy>
    <i name="e_fr_energy">   3742.24747520 </i>
    <i name="e_wo_entrp">   3742.24947675 </i>
    <i name="e_0_energy">   3742.24847597 </i>
   </energy>
  </scstep>
  <scstep>
   <time name="dav">   39.58   39.90</time>
   <time name="total">   42.13   42.47</time>
   <energy>
    <i name="e_fr_energy">   3739.97651770 </i>
    <i name="e_wo_entrp">   3739.97899371 </i>
    <i name="e_0_energy">   3739.97775570 </i>
   </energy>
  </scstep>
  <scstep>
   <time name="dav">   37.73   38.04</time>
   <time name="total">   40.29   40.61</time>
   <energy>
    <i name="e_fr_energy">   3739.50032350 </i>
    <i name="e_wo_entrp">   3739.50309642 </i>
    <i name="e_0_energy">   3739.50170996 </i>
   </energy>
  </scstep>
  <scstep>
   <time name="dav">   33.83   34.10</time>
   <time name="total">   36.39   36.68</time>
   <energy>
    <i name="e_fr_energy">   3737.49738847 </i>
    <i name="e_wo_entrp">   3737.50041963 </i>
    <i name="e_0_energy">   3737.49890405 </i>
   </energy>
  </scstep>
  <scstep>
   <time name="dav">   38.61   38.93</time>
   <time name="total">   41.17   41.51</time>
   <energy>
    <i name="e_fr_energy">   3737.44309001 </i>
    <i name="e_wo_entrp">   3737.44610687 </i>
    <i name="e_0_energy">   3737.44459844 </i>
   </energy>
  </scstep>
  <scstep>
   <time name="dav">   37.95   38.27</time>
   <time name="total">   40.52   40.85</time>
   <energy>
    <i name="e_fr_energy">   3738.15685658 </i>
    <i name="e_wo_entrp">   3738.15950462 </i>
    <i name="e_0_energy">   3738.15818060 </i>
   </energy>
  </scstep>
  <scstep>
   <time name="dav">   37.86   38.17</time>
   <time name="total">   40.42   40.75</time>
   <energy>
    <i name="e_fr_energy">   3737.93121697 </i>
    <i name="e_wo_entrp">   3737.93393557 </i>
    <i name="e_0_energy">   3737.93257627 </i>
   </energy>
  </scstep>
  <scstep>
   <time name="dav">   36.64   36.93</time>
   <time name="total">   39.20   39.51</time>
   <energy>
    <i name="e_fr_energy">   3741.74533831 </i>
    <i name="e_wo_entrp">   3741.74741870 </i>
    <i name="e_0_energy">   3741.74637851 </i>
   </energy>
  </scstep>
  <scstep>
   <time name="dav">   32.74   33.02</time>
   <time name="total">   35.30   35.60</time>
   <energy>
    <i name="e_fr_energy">   3748.67791519 </i>
    <i name="e_wo_entrp">   3748.67945757 </i>
    <i name="e_0_energy">   3748.67868638 </i>
   </energy>
  </scstep>
  <scstep>
   <time name="dav">   36.71   37.02</time>
   <time name="total">   39.27   39.60</time>
   <energy>
    <i name="e_fr_energy">   3754.30562109 </i>
    <i name="e_wo_entrp">   3754.30707204 </i>
    <i name="e_0_energy">   3754.30634657 </i>
   </energy>
  </scstep>
  <scstep>
   <time name="dav">   34.12   34.40</time>
   <time name="total">   36.68   36.97</time>
   <energy>
    <i name="e_fr_energy">   3754.14041869 </i>
    <i name="e_wo_entrp">   3754.14184161 </i>
    <i name="e_0_energy">   3754.14113015 </i>
   </energy>
  </scstep>
  <scstep>
   <time name="dav">   41.96   42.31</time>
   <time name="total">   44.52   44.89</time>
   <energy>
    <i name="e_fr_energy">   3754.36253019 </i>
    <i name="e_wo_entrp">   3754.36487528 </i>
    <i name="e_0_energy">   3754.36370274 </i>
   </energy>
  </scstep>
  <scstep>
   <time name="dav">   34.87   35.23</time>
   <time name="total">   37.42   37.80</time>
   <energy>
    <i name="e_fr_energy">   3754.96962910 </i>
    <i name="e_wo_entrp">   3754.97175624 </i>
    <i name="e_0_energy">   3754.97069267 </i>
   </energy>
  </scstep>
  <scstep>
   <time name="dav">   35.33   35.66</time>
   <time name="total">   37.88   38.23</time>
   <energy>
    <i name="e_fr_energy">   3754.59641544 </i>
    <i name="e_wo_entrp">   3754.59841792 </i>
    <i name="e_0_energy">   3754.59741668 </i>
   </energy>
  </scstep>
  <scstep>
   <time name="dav">   41.03   41.38</time>
   <time name="total">   43.58   43.95</time>
   <energy>
    <i name="e_fr_energy">   3754.66361899 </i>
    <i name="e_wo_entrp">   3754.66649426 </i>
    <i name="e_0_energy">   3754.66505662 </i>
   </energy>
  </scstep>
  <scstep>
   <time name="dav">   36.40   36.70</time>
   <time name="total">   38.97   39.28</time>
   <energy>
    <i name="e_fr_energy">   3755.24717868 </i>
    <i name="e_wo_entrp">   3755.24939328 </i>
    <i name="e_0_energy">   3755.24828598 </i>
   </energy>
  </scstep>
  <scstep>
   <time name="dav">   33.97   34.25</time>
   <time name="total">   36.55   36.84</time>
   <energy>
    <i name="e_fr_energy">   3758.45893219 </i>
    <i name="e_wo_entrp">   3758.46141034 </i>
    <i name="e_0_energy">   3758.46017126 </i>
   </energy>
  </scstep>
  <scstep>
   <time name="dav">   36.53   36.84</time>
   <time name="total">   39.10   39.42</time>
   <energy>
    <i name="e_fr_energy">   3762.03490767 </i>
    <i name="e_wo_entrp">   3762.03728208 </i>
    <i name="e_0_energy">   3762.03609487 </i>
   </energy>
  </scstep>
  <scstep>
   <time name="dav">   37.28   37.58</time>
   <time name="total">   39.84   40.16</time>
   <energy>
    <i name="e_fr_energy">   3763.85460129 </i>
    <i name="e_wo_entrp">   3763.85670247 </i>
    <i name="e_0_energy">   3763.85565188 </i>
   </energy>
  </scstep>
  <scstep>
   <time name="dav">   36.09   36.38</time>
   <time name="total">   38.65   38.96</time>
   <energy>
    <i name="e_fr_energy">   3763.86497860 </i>
    <i name="e_wo_entrp">   3763.86726958 </i>
    <i name="e_0_energy">   3763.86612409 </i>
   </energy>
  </scstep>
  <scstep>
   <time name="dav">   39.24   39.57</time>
   <time name="total">   41.80   42.14</time>
   <energy>
    <i name="e_fr_energy">   3763.83035432 </i>
    <i name="e_wo_entrp">   3763.83261771 </i>
    <i name="e_0_energy">   3763.83148602 </i>
   </energy>
  </scstep>
  <scstep>
   <time name="dav">   35.42   35.71</time>
   <time name="total">   37.97   38.28</time>
   <energy>
    <i name="e_fr_energy">   3763.83643199 </i>
    <i name="e_wo_entrp">   3763.83868376 </i>
    <i name="e_0_energy">   3763.83755787 </i>
   </energy>
  </scstep>
  <scstep>
   <time name="dav">   35.15   35.44</time>
   <time name="total">   37.70   38.01</time>
   <energy>
    <i name="e_fr_energy">   3764.00467308 </i>
    <i name="e_wo_entrp">   3764.00680586 </i>
    <i name="e_0_energy">   3764.00573947 </i>
   </energy>
  </scstep>
  <scstep>
   <time name="dav">   34.38   34.66</time>
   <time name="total">   36.94   37.24</time>
   <energy>
    <i name="e_fr_energy">   3764.34189431 </i>
    <i name="e_wo_entrp">   3764.34393457 </i>
    <i name="e_0_energy">   3764.34291444 </i>
   </energy>
  </scstep>
  <scstep>
   <time name="dav">   38.40   38.71</time>
   <time name="total">   40.96   41.29</time>
   <energy>
    <i name="e_fr_energy">   3764.56141587 </i>
    <i name="e_wo_entrp">   3764.56392066 </i>
    <i name="e_0_energy">   3764.56266827 </i>
   </energy>
  </scstep>
  <scstep>
   <time name="dav">   38.21   38.51</time>
   <time name="total">   40.88   41.20</time>
   <energy>
    <i name="e_fr_energy">   3764.11563494 </i>
    <i name="e_wo_entrp">   3764.11762076 </i>
    <i name="e_0_energy">   3764.11662785 </i>
   </energy>
  </scstep>
  <scstep>
   <time name="dav">   33.40   33.67</time>
   <time name="total">   35.97   36.25</time>
   <energy>
    <i name="e_fr_energy">   3763.90568609 </i>
    <i name="e_wo_entrp">   3763.90836594 </i>
    <i name="e_0_energy">   3763.90702602 </i>
   </energy>
  </scstep>
  <scstep>
   <time name="dav">   36.29   36.57</time>
   <time name="total">   38.86   39.16</time>
   <energy>
    <i name="e_fr_energy">   3763.96304522 </i>
    <i name="e_wo_entrp">   3763.96561079 </i>
    <i name="e_0_energy">   3763.96432801 </i>
   </energy>
  </scstep>
  <scstep>
   <time name="dav">   35.44   35.72</time>
   <time name="total">   38.01   38.31</time>
   <energy>
    <i name="e_fr_energy">   3764.63867529 </i>
    <i name="e_wo_entrp">   3764.64039483 </i>
    <i name="e_0_energy">   3764.63953506 </i>
   </energy>
  </scstep>
  <scstep>
   <time name="dav">   33.73   34.01</time>
   <time name="total">   36.30   36.60</time>
   <energy>
    <i name="e_fr_energy">   3764.60314035 </i>
    <i name="e_wo_entrp">   3764.60489655 </i>
    <i name="e_0_energy">   3764.60401845 </i>
   </energy>
  </scstep>
  <scstep>
   <time name="dav">   40.51   40.83</time>
   <time name="total">   43.08   43.42</time>
   <energy>
    <i name="e_fr_energy">   3764.69908309 </i>
    <i name="e_wo_entrp">   3764.70062319 </i>
    <i name="e_0_energy">   3764.69985314 </i>
   </energy>
  </scstep>
  <scstep>
   <time name="dav">   33.74   34.09</time>
   <time name="total">   36.31   36.67</time>
   <energy>
    <i name="e_fr_energy">   3765.15360146 </i>
    <i name="e_wo_entrp">   3765.15508543 </i>
    <i name="e_0_energy">   3765.15434345 </i>
   </energy>
  </scstep>
  <scstep>
   <time name="dav">   34.64   34.93</time>
   <time name="total">   37.21   37.52</time>
   <energy>
    <i name="e_fr_energy">   3765.10781105 </i>
    <i name="e_wo_entrp">   3765.10927594 </i>
    <i name="e_0_energy">   3765.10854350 </i>
   </energy>
  </scstep>
  <scstep>
   <time name="dav">   32.89   33.17</time>
   <time name="total">   35.46   35.76</time>
   <energy>
    <i name="e_fr_energy">   3765.70654625 </i>
    <i name="e_wo_entrp">   3765.70876831 </i>
    <i name="e_0_energy">   3765.70765728 </i>
   </energy>
  </scstep>
  <scstep>
   <time name="dav">   35.98   36.27</time>
   <time name="total">   38.53   38.84</time>
   <energy>
    <i name="e_fr_energy">   3765.25750609 </i>
    <i name="e_wo_entrp">   3765.25985890 </i>
    <i name="e_0_energy">   3765.25868250 </i>
   </energy>
  </scstep>
  <scstep>
   <time name="dav">   36.83   37.13</time>
   <time name="total">   39.39   39.70</time>
   <energy>
    <i name="e_fr_energy">   3765.77221612 </i>
    <i name="e_wo_entrp">   3765.77442072 </i>
    <i name="e_0_energy">   3765.77331842 </i>
   </energy>
  </scstep>
  <scstep>
   <time name="dav">   36.39   36.69</time>
   <time name="total">   38.96   39.28</time>
   <energy>
    <i name="e_fr_energy">   3765.87705220 </i>
    <i name="e_wo_entrp">   3765.87972184 </i>
    <i name="e_0_energy">   3765.87838702 </i>
   </energy>
  </scstep>
  <scstep>
   <time name="dav">   40.61   40.94</time>
   <time name="total">   43.18   43.52</time>
   <energy>
    <i name="e_fr_energy">   3765.91564798 </i>
    <i name="e_wo_entrp">   3765.91829402 </i>
    <i name="e_0_energy">   3765.91697100 </i>
   </energy>
  </scstep>
  <scstep>
   <time name="dav">   36.39   36.69</time>
   <time name="total">   38.96   39.27</time>
   <energy>
    <i name="e_fr_energy">   3765.95104699 </i>
    <i name="e_wo_entrp">   3765.95296071 </i>
    <i name="e_0_energy">   3765.95200385 </i>
   </energy>
  </scstep>
  <scstep>
   <time name="dav">   34.18   34.45</time>
   <time name="total">   36.74   37.04</time>
   <energy>
    <i name="e_fr_energy">   3766.00034063 </i>
    <i name="e_wo_entrp">   3766.00237236 </i>
    <i name="e_0_energy">   3766.00135650 </i>
   </energy>
  </scstep>
  <scstep>
   <time name="dav">   36.93   37.23</time>
   <time name="total">   39.50   39.81</time>
   <energy>
    <i name="e_fr_energy">   3766.01036630 </i>
    <i name="e_wo_entrp">   3766.01247002 </i>
    <i name="e_0_energy">   3766.01141816 </i>
   </energy>
  </scstep>
  <scstep>
   <time name="dav">   36.79   37.09</time>
   <time name="total">   39.36   39.68</time>
   <energy>
    <i name="e_fr_energy">   3766.05540436 </i>
    <i name="e_wo_entrp">   3766.05785529 </i>
    <i name="e_0_energy">   3766.05662982 </i>
   </energy>
  </scstep>
  <scstep>
   <time name="dav">   34.57   34.86</time>
   <time name="total">   37.14   37.44</time>
   <energy>
    <i name="e_fr_energy">   3765.99886801 </i>
    <i name="e_wo_entrp">   3766.00117737 </i>
    <i name="e_0_energy">   3766.00002269 </i>
   </energy>
  </scstep>
  <scstep>
   <time name="dav">   36.90   37.24</time>
   <time name="total">   39.47   39.82</time>
   <energy>
    <i name="e_fr_energy">   3766.08477610 </i>
    <i name="e_wo_entrp">   3766.08669551 </i>
    <i name="e_0_energy">   3766.08573580 </i>
   </energy>
  </scstep>
  <scstep>
   <time name="dav">   33.65   33.94</time>
   <time name="total">   36.21   36.52</time>
   <energy>
    <i name="e_fr_energy">   3766.08803548 </i>
    <i name="e_wo_entrp">   3766.08994727 </i>
    <i name="e_0_energy">   3766.08899138 </i>
   </energy>
  </scstep>
  <scstep>
   <time name="dav">   45.11   45.48</time>
   <time name="total">   47.68   48.06</time>
   <energy>
    <i name="e_fr_energy">   3766.09607167 </i>
    <i name="e_wo_entrp">   3766.09787501 </i>
    <i name="e_0_energy">   3766.09697334 </i>
   </energy>
  </scstep>
  <scstep>
   <time name="dav">   34.60   34.88</time>
   <time name="total">   37.16   37.46</time>
   <energy>
    <i name="e_fr_energy">   3766.10801810 </i>
    <i name="e_wo_entrp">   3766.10994001 </i>
    <i name="e_0_energy">   3766.10897906 </i>
   </energy>
  </scstep>
  <scstep>
   <time name="dav">   36.73   37.05</time>
   <time name="total">   39.30   39.63</time>
   <energy>
    <i name="e_fr_energy">   3766.06667228 </i>
    <i name="e_wo_entrp">   3766.06886686 </i>
    <i name="e_0_energy">   3766.06776957 </i>
   </energy>
  </scstep>
  <scstep>
   <time name="dav">   34.22   34.50</time>
   <time name="total">   36.79   37.08</time>
   <energy>
    <i name="e_fr_energy">   3766.25421145 </i>
    <i name="e_wo_entrp">   3766.25695255 </i>
    <i name="e_0_energy">   3766.25558200 </i>
   </energy>
  </scstep>
  <scstep>
   <time name="dav">   34.39   34.67</time>
   <time name="total">   36.95   37.25</time>
   <energy>
    <i name="e_fr_energy">   3766.36050963 </i>
    <i name="e_wo_entrp">   3766.36306042 </i>
    <i name="e_0_energy">   3766.36178503 </i>
   </energy>
  </scstep>
  <scstep>
   <time name="dav">   37.76   38.07</time>
   <time name="total">   40.33   40.66</time>
   <energy>
    <i name="e_fr_energy">   3766.35462038 </i>
    <i name="e_wo_entrp">   3766.35720830 </i>
    <i name="e_0_energy">   3766.35591434 </i>
   </energy>
  </scstep>
  <scstep>
   <time name="dav">   36.06   36.37</time>
   <time name="total">   38.63   38.95</time>
   <energy>
    <i name="e_fr_energy">   3766.39668261 </i>
    <i name="e_wo_entrp">   3766.39914670 </i>
    <i name="e_0_energy">   3766.39791466 </i>
   </energy>
  </scstep>
  <scstep>
   <time name="dav">   36.68   37.00</time>
   <time name="total">   39.25   39.59</time>
   <energy>
    <i name="e_fr_energy">   3766.39072636 </i>
    <i name="e_wo_entrp">   3766.39316479 </i>
    <i name="e_0_energy">   3766.39194558 </i>
   </energy>
  </scstep>
  <scstep>
   <time name="dav">   36.09   36.41</time>
   <time name="total">   38.65   38.99</time>
   <energy>
    <i name="e_fr_energy">   3765.52279178 </i>
    <i name="e_wo_entrp">   3765.52480136 </i>
    <i name="e_0_energy">   3765.52379657 </i>
   </energy>
  </scstep>
  <scstep>
   <time name="dav">   37.24   37.67</time>
   <time name="total">   39.80   40.24</time>
   <energy>
    <i name="e_fr_energy">   3767.40569588 </i>
    <i name="e_wo_entrp">   3767.40768070 </i>
    <i name="e_0_energy">   3767.40668829 </i>
   </energy>
  </scstep>
  <scstep>
   <time name="dav">   34.84   35.24</time>
   <time name="total">   37.41   37.83</time>
   <energy>
    <i name="e_fr_energy">   3767.37867177 </i>
    <i name="e_wo_entrp">   3767.38090511 </i>
    <i name="e_0_energy">   3767.37978844 </i>
   </energy>
  </scstep>
  <scstep>
   <time name="dav">   39.39   39.84</time>
   <time name="total">   41.95   42.42</time>
   <energy>
    <i name="e_fr_energy">   3767.36566503 </i>
    <i name="e_wo_entrp">   3767.36780836 </i>
    <i name="e_0_energy">   3767.36673670 </i>
   </energy>
  </scstep>
  <scstep>
   <time name="dav">   36.69   37.11</time>
   <time name="total">   39.25   39.69</time>
   <energy>
    <i name="e_fr_energy">   3767.05532057 </i>
    <i name="e_wo_entrp">   3767.05716175 </i>
    <i name="e_0_energy">   3767.05624116 </i>
   </energy>
  </scstep>
  <scstep>
   <time name="dav">   35.15   35.55</time>
   <time name="total">   37.71   38.13</time>
   <energy>
    <i name="e_fr_energy">   3766.80537815 </i>
    <i name="e_wo_entrp">   3766.80734834 </i>
    <i name="e_0_energy">   3766.80636324 </i>
   </energy>
  </scstep>
  <scstep>
   <time name="dav">   33.20   33.57</time>
   <time name="total">   35.76   36.15</time>
   <energy>
    <i name="e_fr_energy">   3766.78694881 </i>
    <i name="e_wo_entrp">   3766.78873626 </i>
    <i name="e_0_energy">   3766.78784254 </i>
   </energy>
  </scstep>
  <scstep>
   <time name="dav">   36.42   36.72</time>
   <time name="total">   38.98   39.30</time>
   <energy>
    <i name="e_fr_energy">   3766.67691613 </i>
    <i name="e_wo_entrp">   3766.67876780 </i>
    <i name="e_0_energy">   3766.67784197 </i>
   </energy>
  </scstep>
  <scstep>
   <time name="dav">   33.78   34.13</time>
   <time name="total">   36.35   36.71</time>
   <energy>
    <i name="e_fr_energy">   3766.64708933 </i>
    <i name="e_wo_entrp">   3766.64901648 </i>
    <i name="e_0_energy">   3766.64805291 </i>
   </energy>
  </scstep>
  <scstep>
   <time name="dav">   34.42   34.72</time>
   <time name="total">   36.98   37.30</time>
   <energy>
    <i name="e_fr_energy">   3766.78141892 </i>
    <i name="e_wo_entrp">   3766.78312952 </i>
    <i name="e_0_energy">   3766.78227422 </i>
   </energy>
  </scstep>
  <scstep>
   <time name="dav">   39.17   39.51</time>
   <time name="total">   41.73   42.09</time>
   <energy>
    <i name="e_fr_energy">   3766.79394444 </i>
    <i name="e_wo_entrp">   3766.79575964 </i>
    <i name="e_0_energy">   3766.79485204 </i>
   </energy>
  </scstep>
  <scstep>
   <time name="dav">   35.34   35.64</time>
   <time name="total">   37.91   38.22</time>
   <energy>
    <i name="e_fr_energy">   3766.86147103 </i>
    <i name="e_wo_entrp">   3766.86317385 </i>
    <i name="e_0_energy">   3766.86232244 </i>
   </energy>
  </scstep>
  <scstep>
   <time name="dav">   35.24   35.55</time>
   <time name="total">   37.81   38.14</time>
   <energy>
    <i name="e_fr_energy">   3766.68355331 </i>
    <i name="e_wo_entrp">   3766.68522064 </i>
    <i name="e_0_energy">   3766.68438698 </i>
   </energy>
  </scstep>
  <scstep>
   <time name="dav">   37.50   37.82</time>
   <time name="total">   40.06   40.40</time>
   <energy>
    <i name="e_fr_energy">   3766.72143199 </i>
    <i name="e_wo_entrp">   3766.72327640 </i>
    <i name="e_0_energy">   3766.72235419 </i>
   </energy>
  </scstep>
  <scstep>
   <time name="dav">   36.59   36.90</time>
   <time name="total">   39.15   39.48</time>
   <energy>
    <i name="e_fr_energy">   3766.63150413 </i>
    <i name="e_wo_entrp">   3766.63329197 </i>
    <i name="e_0_energy">   3766.63239805 </i>
   </energy>
  </scstep>
  <scstep>
   <time name="dav">   37.51   37.82</time>
   <time name="total">   40.07   40.40</time>
   <energy>
    <i name="e_fr_energy">   3766.06250601 </i>
    <i name="e_wo_entrp">   3766.06464698 </i>
    <i name="e_0_energy">   3766.06357649 </i>
   </energy>
  </scstep>
  <scstep>
   <time name="dav">   37.58   37.89</time>
   <time name="total">   40.14   40.46</time>
   <energy>
    <i name="e_fr_energy">   3765.98081678 </i>
    <i name="e_wo_entrp">   3765.98334201 </i>
    <i name="e_0_energy">   3765.98207940 </i>
   </energy>
  </scstep>
  <scstep>
   <time name="dav">   32.82   33.09</time>
   <time name="total">   35.39   35.67</time>
   <energy>
    <i name="e_fr_energy">   3766.08266147 </i>
    <i name="e_wo_entrp">   3766.08480032 </i>
    <i name="e_0_energy">   3766.08373090 </i>
   </energy>
  </scstep>
  <scstep>
   <time name="dav">   37.85   38.17</time>
   <time name="total">   40.41   40.75</time>
   <energy>
    <i name="e_fr_energy">   3766.21622488 </i>
    <i name="e_wo_entrp">   3766.21817947 </i>
    <i name="e_0_energy">   3766.21720218 </i>
   </energy>
  </scstep>
  <scstep>
   <time name="dav">   38.76   39.09</time>
   <time name="total">   41.31   41.67</time>
   <energy>
    <i name="e_fr_energy">   3766.25741782 </i>
    <i name="e_wo_entrp">   3766.25955531 </i>
    <i name="e_0_energy">   3766.25848656 </i>
   </energy>
  </scstep>
  <scstep>
   <time name="dav">   38.22   38.54</time>
   <time name="total">   40.78   41.12</time>
   <energy>
    <i name="e_fr_energy">   3765.80693288 </i>
    <i name="e_wo_entrp">   3765.80967683 </i>
    <i name="e_0_energy">   3765.80830485 </i>
   </energy>
  </scstep>
  <scstep>
   <time name="dav">   35.53   35.83</time>
   <time name="total">   38.08   38.40</time>
   <energy>
    <i name="e_fr_energy">   3765.91135351 </i>
    <i name="e_wo_entrp">   3765.91305733 </i>
    <i name="e_0_energy">   3765.91220542 </i>
   </energy>
  </scstep>
  <scstep>
   <time name="dav">   36.37   36.67</time>
   <time name="total">   38.92   39.24</time>
   <energy>
    <i name="e_fr_energy">   3765.77005023 </i>
    <i name="e_wo_entrp">   3765.77186630 </i>
    <i name="e_0_energy">   3765.77095827 </i>
   </energy>
  </scstep>
  <scstep>
   <time name="dav">   37.55   37.86</time>
   <time name="total">   40.11   40.43</time>
   <energy>
    <i name="e_fr_energy">   3765.07303925 </i>
    <i name="e_wo_entrp">   3765.07578895 </i>
    <i name="e_0_energy">   3765.07441410 </i>
   </energy>
  </scstep>
  <scstep>
   <time name="dav">   34.85   35.13</time>
   <time name="total">   37.40   37.70</time>
   <energy>
    <i name="e_fr_energy">   3768.50336953 </i>
    <i name="e_wo_entrp">   3768.50493072 </i>
    <i name="e_0_energy">   3768.50415012 </i>
   </energy>
  </scstep>
  <scstep>
   <time name="dav">   33.87   34.15</time>
   <time name="total">   36.43   36.72</time>
   <energy>
    <i name="e_fr_energy">   3765.48359572 </i>
    <i name="e_wo_entrp">   3765.48555806 </i>
    <i name="e_0_energy">   3765.48457689 </i>
   </energy>
  </scstep>
  <scstep>
   <time name="dav">   36.68   36.98</time>
   <time name="total">   39.23   39.55</time>
   <energy>
    <i name="e_fr_energy">   3766.17665177 </i>
    <i name="e_wo_entrp">   3766.17871211 </i>
    <i name="e_0_energy">   3766.17768194 </i>
   </energy>
  </scstep>
  <scstep>
   <time name="dav">   34.22   34.58</time>
   <time name="total">   36.78   37.18</time>
   <energy>
    <i name="e_fr_energy">   3766.35843573 </i>
    <i name="e_wo_entrp">   3766.36077487 </i>
    <i name="e_0_energy">   3766.35960530 </i>
   </energy>
  </scstep>
  <scstep>
   <time name="dav">   38.54   39.02</time>
   <time name="total">   41.11   41.62</time>
   <energy>
    <i name="e_fr_energy">   3766.62675903 </i>
    <i name="e_wo_entrp">   3766.62901940 </i>
    <i name="e_0_energy">   3766.62788921 </i>
   </energy>
  </scstep>
  <scstep>
   <time name="dav">   34.07   34.36</time>
   <time name="total">   35.20   35.63</time>
   <energy>
    <i name="alphaZ">    667.05022527 </i>
    <i name="ewald">  -8778.59489857 </i>
    <i name="hartreedc">  -1900.72637679 </i>
    <i name="XCdc">   -962.97016583 </i>
    <i name="pawpsdc">3063212.25306680 </i>
    <i name="pawaedc">**************** </i>
    <i name="eentropy">     -0.00213937 </i>
    <i name="bandstr">    375.66846979 </i>
    <i name="atom">  12460.60057749 </i>
    <i name="e_fr_energy">   3766.55780647 </i>
    <i name="e_wo_entrp">   3766.55994584 </i>
    <i name="e_0_energy">   3766.55887615 </i>
   </energy>
  </scstep>
  <structure>
   <crystal>
    <varray name="basis" >
     <v>       7.68059444       0.00000000       0.00000000 </v>
     <v>       0.00000000      16.29299927       0.00000000 </v>
     <v>       0.00000000       0.00000000      16.67299271 </v>
    </varray>
    <i name="volume">   2086.45696762 </i>
    <varray name="rec_basis" >
     <v>       0.13019826       0.00000000       0.00000000 </v>
     <v>       0.00000000       0.06137605       0.00000000 </v>
     <v>       0.00000000       0.00000000       0.05997723 </v>
    </varray>
   </crystal>
   <varray name="positions" >
    <v>       0.97851729       0.98567820       0.00000000 </v>
    <v>       0.98274255       0.22411394       0.91516531 </v>
    <v>       0.47851718       0.65234476       0.23033045 </v>
    <v>       0.22851723       0.48567814       0.34549564 </v>
    <v>       0.23274262       0.72411388       0.66066086 </v>
    <v>       0.47851718       0.98567814       0.46066088 </v>
    <v>       0.97851729       0.31901154       0.00000000 </v>
    <v>       0.23274255       0.22411388       0.00000012 </v>
    <v>       0.47851718       0.98567814       0.23033045 </v>
    <v>       0.22851723       0.81901151       0.34549564 </v>
    <v>       0.48274255       0.72411382       0.57582611 </v>
    <v>       0.47851718       0.65234476       0.46066088 </v>
    <v>       0.97851729       0.65234494       0.00000000 </v>
    <v>       0.22851729       0.56901163       0.00000000 </v>
    <v>       0.47851718       0.31901151       0.23033045 </v>
    <v>       0.22851723       0.15234487       0.34549564 </v>
    <v>       0.47851723       0.06901138       0.57582605 </v>
    <v>       0.72851718       0.81901139       0.57582611 </v>
    <v>       0.22851725       0.15234485       0.11516523 </v>
    <v>       0.22851725       0.81901145       0.11516523 </v>
    <v>       0.97851723       0.65234476       0.23033045 </v>
    <v>       0.72851729       0.48567814       0.34549561 </v>
    <v>       0.47851718       0.31901139       0.46066088 </v>
    <v>       0.22851712       0.15234470       0.57582611 </v>
    <v>       0.47851729       0.31901154       0.00000000 </v>
    <v>       0.47851729       0.98567820       0.00000000 </v>
    <v>       0.97851723       0.98567814       0.23033045 </v>
    <v>       0.72851729       0.81901151       0.34549561 </v>
    <v>       0.72851718       0.48567808       0.57582611 </v>
    <v>       0.22851712       0.48567808       0.57582611 </v>
    <v>       0.22851725       0.48567820       0.11516523 </v>
    <v>       0.47851729       0.65234494       0.00000000 </v>
    <v>       0.97851723       0.31901151       0.23033045 </v>
    <v>       0.72851729       0.15234487       0.34549561 </v>
    <v>       0.72851718       0.15234470       0.57582611 </v>
    <v>       0.22851712       0.81901139       0.57582611 </v>
    <v>       0.72851735       0.23567820       0.00000000 </v>
    <v>       0.47851729       0.06901149       0.11516522 </v>
    <v>       0.22851726       0.90234476       0.23033045 </v>
    <v>       0.97851729       0.73567814       0.34549564 </v>
    <v>       0.72851723       0.56901145       0.46066088 </v>
    <v>       0.47851723       0.40234464       0.57582605 </v>
    <v>       0.72851735       0.56901163       0.00000000 </v>
    <v>       0.47851729       0.40234488       0.11516522 </v>
    <v>       0.22851726       0.23567820       0.23033045 </v>
    <v>       0.97851729       0.06901154       0.34549564 </v>
    <v>       0.72851723       0.90234482       0.46066088 </v>
    <v>       0.47851723       0.73567808       0.57582605 </v>
    <v>       0.72851735       0.90234494       0.00000000 </v>
    <v>       0.47851729       0.73567820       0.11516522 </v>
    <v>       0.22851726       0.56901151       0.23033045 </v>
    <v>       0.48274258       0.47411385       0.57582611 </v>
    <v>       0.72851723       0.23567812       0.46066088 </v>
    <v>       0.97851718       0.98567814       0.46066088 </v>
    <v>       0.22851729       0.23567820       0.00000000 </v>
    <v>       0.97851723       0.06901149       0.11516523 </v>
    <v>       0.23274255       0.97411382       0.00000012 </v>
    <v>       0.47851729       0.73567814       0.34549561 </v>
    <v>       0.22851718       0.56901145       0.46066088 </v>
    <v>       0.97851706       0.40234464       0.57582611 </v>
    <v>       0.72851723       0.48567820       0.11516523 </v>
    <v>       0.97851723       0.40234488       0.11516523 </v>
    <v>       0.72851718       0.23567820       0.23033045 </v>
    <v>       0.47851729       0.06901154       0.34549561 </v>
    <v>       0.22851718       0.90234482       0.46066088 </v>
    <v>       0.97851706       0.73567808       0.57582611 </v>
    <v>       0.22851729       0.90234494       0.00000000 </v>
    <v>       0.97851723       0.73567820       0.11516523 </v>
    <v>       0.72851718       0.56901151       0.23033045 </v>
    <v>       0.47851729       0.40234485       0.34549561 </v>
    <v>       0.22851718       0.23567812       0.46066088 </v>
    <v>       0.97851706       0.06901138       0.57582611 </v>
    <v>       0.98274255       0.47411382       0.57582611 </v>
    <v>       0.73274261       0.09911388       0.74549568 </v>
    <v>       0.48274261       0.72411394       0.91516531 </v>
    <v>       0.97851718       0.65234476       0.46066088 </v>
    <v>       0.23274258       0.34911385       0.74549568 </v>
    <v>       0.98274261       0.97411388       0.91516531 </v>
    <v>       0.98274261       0.97411388       0.57582611 </v>
    <v>       0.73274261       0.59911394       0.74549568 </v>
    <v>       0.48274261       0.22411388       0.91516531 </v>
    <v>       0.48274252       0.22411384       0.57582611 </v>
    <v>       0.23274258       0.84911388       0.74549568 </v>
    <v>       0.98274261       0.47411388       0.91516531 </v>
    <v>       0.23274253       0.47411382       0.66066086 </v>
    <v>       0.98274261       0.09911388       0.83033055 </v>
    <v>       0.73274261       0.72411382       0.00000012 </v>
    <v>       0.73274255       0.72411382       0.66066086 </v>
    <v>       0.48274258       0.34911385       0.83033055 </v>
    <v>       0.72851718       0.90234476       0.23033045 </v>
    <v>       0.23274259       0.97411388       0.66066086 </v>
    <v>       0.98274261       0.59911394       0.83033055 </v>
    <v>       0.73274255       0.22411388       0.00000012 </v>
    <v>       0.73274249       0.22411384       0.66066086 </v>
    <v>       0.48274258       0.84911388       0.83033055 </v>
    <v>       0.23274256       0.47411388       0.00000012 </v>
    <v>       0.98274261       0.72411388       0.57582611 </v>
    <v>       0.73274267       0.34911391       0.74549568 </v>
[...]
       <r>    -6.7263     0.0000    25.0000 </r>
       <r>    -6.6562     0.0000    25.0000 </r>
       <r>    -6.5860     0.0000    25.0000 </r>
       <r>    -6.5159     0.0000    25.0000 </r>
       <r>    -6.4457    14.2340    25.9984 </r>
       <r>    -6.3756     0.0000    26.0000 </r>
       <r>    -6.3055     6.4024    26.4491 </r>
       <r>    -6.2353     7.8549    27.0000 </r>
       <r>    -6.1652     0.0000    27.0000 </r>
       <r>    -6.0950     2.6773    27.1878 </r>
       <r>    -6.0249     9.1954    27.8327 </r>
       <r>    -5.9548     9.6037    28.5063 </r>
       <r>    -5.8846    14.1668    29.5000 </r>
       <r>    -5.8145    14.2550    30.4998 </r>
       <r>    -5.7443     1.9636    30.6377 </r>
       <r>    -5.6742    11.3416    31.4404 </r>
       <r>    -5.6041     9.4485    32.1057 </r>
       <r>    -5.5339    25.1039    33.8665 </r>
       <r>    -5.4638    12.5731    34.7503 </r>
       <r>    -5.3936    19.7348    36.1345 </r>
       <r>    -5.3235    12.8735    37.0389 </r>
       <r>    -5.2534    20.4173    38.4709 </r>
       <r>    -5.1832    32.6032    40.7713 </r>
       <r>    -5.1131    18.4730    42.0803 </r>
       <r>    -5.0429    26.7589    43.9593 </r>
       <r>    -4.9728    20.0042    45.3676 </r>
       <r>    -4.9027    20.5600    46.8219 </r>
       <r>    -4.8325    24.6643    48.5656 </r>
       <r>    -4.7624    14.7444    49.6096 </r>
       <r>    -4.6922    18.2794    50.8917 </r>
       <r>    -4.6221    19.5896    52.2670 </r>
       <r>    -4.5520    21.4199    53.7694 </r>
       <r>    -4.4818    21.8775    55.3039 </r>
       <r>    -4.4117    13.7250    56.2740 </r>
       <r>    -4.3415    23.0582    57.8924 </r>
       <r>    -4.2714    23.1622    59.5170 </r>
       <r>    -4.2013    22.5795    61.1009 </r>
       <r>    -4.1311    32.5670    63.3851 </r>
       <r>    -4.0610    31.3858    65.5928 </r>
       <r>    -3.9908    36.2149    68.1336 </r>
       <r>    -3.9207    41.9218    71.1172 </r>
       <r>    -3.8506    22.1582    72.6900 </r>
       <r>    -3.7804    29.2200    74.7428 </r>
       <r>    -3.7103    17.7301    75.9961 </r>
       <r>    -3.6402    26.3310    77.8431 </r>
       <r>    -3.5700    27.8719    79.7981 </r>
       <r>    -3.4999    39.6721    82.5897 </r>
       <r>    -3.4297    44.3907    85.7125 </r>
       <r>    -3.3596    35.5855    88.2161 </r>
       <r>    -3.2895    15.4060    89.2983 </r>
       <r>    -3.2193    21.9738    90.8496 </r>
       <r>    -3.1492    35.8901    93.3678 </r>
       <r>    -3.0790    39.0557    96.1158 </r>
       <r>    -3.0089    43.3209    99.1848 </r>
       <r>    -2.9388    25.9673   101.0066 </r>
       <r>    -2.8686    35.8719   103.5424 </r>
       <r>    -2.7985    23.1810   105.1689 </r>
       <r>    -2.7283    30.9976   107.3526 </r>
       <r>    -2.6582    29.2547   109.4053 </r>
       <r>    -2.5881    28.9273   111.4489 </r>
       <r>    -2.5179    25.8593   113.2902 </r>
       <r>    -2.4478    32.0983   115.5673 </r>
       <r>    -2.3776    33.0468   117.8989 </r>
       <r>    -2.3075    26.0364   119.7294 </r>
       <r>    -2.2374    21.4216   121.2328 </r>
       <r>    -2.1672    37.0287   123.8400 </r>
       <r>    -2.0971    16.0223   124.9641 </r>
       <r>    -2.0269    13.3756   125.9023 </r>
       <r>    -1.9568    29.8471   127.9959 </r>
       <r>    -1.8867    22.0635   129.5503 </r>
       <r>    -1.8165    14.8065   130.5918 </r>
       <r>    -1.7464    22.6573   132.1873 </r>
       <r>    -1.6762    18.4073   133.4824 </r>
       <r>    -1.6061    22.2986   135.0467 </r>
       <r>    -1.5360    36.4331   137.6032 </r>
       <r>    -1.4658    23.7193   139.2764 </r>
       <r>    -1.3957    28.8182   141.3186 </r>
       <r>    -1.3255    25.7518   143.1271 </r>
       <r>    -1.2554    31.1339   145.3212 </r>
       <r>    -1.1853    41.1595   148.2124 </r>
       <r>    -1.1151     7.7031   148.7693 </r>
       <r>    -1.0450    21.7277   150.2938 </r>
       <r>    -0.9748    23.1762   151.9329 </r>
       <r>    -0.9047    25.0973   153.6935 </r>
       <r>    -0.8346    30.2300   155.8296 </r>
       <r>    -0.7644    30.4087   157.9907 </r>
       <r>    -0.6943    50.0324   161.5221 </r>
       <r>    -0.6242    31.9157   163.7679 </r>
       <r>    -0.5540    41.7521   166.7030 </r>
       <r>    -0.4839    33.2701   169.0599 </r>
       <r>    -0.4137    26.1944   170.8974 </r>
       <r>    -0.3436    39.4216   173.6731 </r>
       <r>    -0.2735    31.0546   175.8557 </r>
       <r>    -0.2033    33.6619   178.2192 </r>
       <r>    -0.1332    38.3067   180.9256 </r>
       <r>    -0.0630    35.3754   183.4151 </r>
       <r>     0.0071    23.4137   185.0714 </r>
       <r>     0.0772    37.0262   187.6697 </r>
       <r>     0.1474    25.0599   189.4452 </r>
       <r>     0.2175    50.5826   192.9937 </r>
       <r>     0.2877    16.1361   194.1426 </r>
       <r>     0.3578    28.2296   196.1240 </r>
       <r>     0.4279    25.1070   197.9051 </r>
       <r>     0.4981    39.5235   200.6773 </r>
       <r>     0.5682    37.3480   203.3141 </r>
       <r>     0.6384    35.8563   205.8395 </r>
       <r>     0.7085    29.6781   207.9235 </r>
       <r>     0.7786    27.1797   209.8362 </r>
       <r>     0.8488    26.2217   211.6768 </r>
       <r>     0.9189    36.6537   214.2601 </r>
       <r>     0.9891    34.5097   216.6814 </r>
       <r>     1.0592    56.7134   220.6691 </r>
       <r>     1.1293    39.9406   223.4807 </r>
       <r>     1.1995    38.9265   226.2230 </r>
       <r>     1.2696    32.1591   228.4943 </r>
       <r>     1.3398    34.6864   230.9274 </r>
       <r>     1.4099    30.2483   233.0661 </r>
       <r>     1.4800    27.5532   235.0372 </r>
       <r>     1.5502    39.7175   237.8239 </r>
       <r>     1.6203    39.7500   240.6224 </r>
       <r>     1.6905    25.8856   242.4421 </r>
       <r>     1.7606    30.4121   244.5752 </r>
       <r>     1.8307    44.5299   247.7087 </r>
       <r>     1.9009    44.5508   250.8344 </r>
       <r>     1.9710    35.6039   253.3484 </r>
       <r>     2.0412    30.3917   255.4907 </r>
       <r>     2.1113    43.9689   258.5799 </r>
       <r>     2.1814    40.5447   261.4296 </r>
       <r>     2.2516    33.1701   263.7595 </r>
       <r>     2.3217    42.2906   266.7376 </r>
       <r>     2.3918    46.1069   269.9827 </r>
       <r>     2.4620    49.5568   273.4641 </r>
       <r>     2.5321    55.0905   277.3422 </r>
       <r>     2.6023    36.1989   279.9020 </r>
       <r>     2.6724    48.6169   283.3153 </r>
       <r>     2.7425    56.6222   287.3208 </r>
       <r>     2.8127    42.3636   290.3113 </r>
       <r>     2.8828    45.5983   293.5176 </r>
       <r>     2.9530    57.9713   297.5863 </r>
       <r>     3.0231    57.9801   301.6743 </r>
       <r>     3.0932    45.6336   304.8776 </r>
       <r>     3.1634    62.5312   309.2651 </r>
       <r>     3.2335    65.2791   313.8894 </r>
       <r>     3.3037    49.7531   317.4029 </r>
       <r>     3.3738    63.0109   321.8280 </r>
       <r>     3.4439    44.4917   324.9821 </r>
       <r>     3.5141    52.8542   328.7008 </r>
       <r>     3.5842    57.4125   332.7300 </r>
       <r>     3.6544    47.6045   336.0725 </r>
       <r>     3.7245    58.1429   340.1538 </r>
       <r>     3.7946    80.6996   345.8265 </r>
       <r>     3.8648    51.8797   349.4946 </r>
       <r>     3.9349    69.4695   354.3799 </r>
       <r>     4.0051    53.7481   358.1617 </r>
       <r>     4.0752    44.6345   361.3121 </r>
       <r>     4.1453    58.3570   365.4098 </r>
       <r>     4.2155    64.7154   369.9628 </r>
       <r>     4.2856    55.3348   373.8723 </r>
       <r>     4.3558    63.3994   378.3315 </r>
       <r>     4.4259    53.9097   382.1340 </r>
       <r>     4.4960    42.0633   385.1022 </r>
       <r>     4.5662    46.0481   388.3321 </r>
       <r>     4.6363    55.7598   392.2447 </r>
       <r>     4.7065    43.0359   395.2888 </r>
       <r>     4.7766    50.3239   398.8271 </r>
       <r>     4.8467    46.1379   402.0782 </r>
       <r>     4.9169    39.2880   404.8404 </r>
       <r>     4.9870    28.5573   406.8514 </r>
       <r>     5.0572    48.6022   410.2819 </r>
       <r>     5.1273    55.0243   414.1468 </r>
       <r>     5.1974    49.5367   417.6467 </r>
       <r>     5.2676    51.9679   421.2926 </r>
       <r>     5.3377    33.1713   423.6310 </r>
       <r>     5.4078    35.1466   426.0988 </r>
       <r>     5.4780    31.3543   428.3019 </r>
       <r>     5.5481    43.5408   431.3560 </r>
       <r>     5.6183    45.0267   434.5148 </r>
       <r>     5.6884    42.3229   437.4957 </r>
       <r>     5.7585    46.0536   440.7259 </r>
       <r>     5.8287    35.4521   443.2227 </r>
       <r>     5.8988    58.5335   447.3343 </r>
       <r>     5.9690    44.7024   450.4752 </r>
       <r>     6.0391    42.7107   453.4746 </r>
       <r>     6.1092    33.6452   455.8439 </r>
       <r>     6.1794    37.1011   458.4516 </r>
       <r>     6.2495    34.7872   460.9085 </r>
       <r>     6.3197    37.8190   463.5665 </r>
       <r>     6.3898    40.8628   466.4436 </r>
       <r>     6.4599    37.0819   469.0605 </r>
       <r>     6.5301    39.9724   471.8646 </r>
       <r>     6.6002    34.3992   474.2800 </r>
       <r>     6.6704    38.7295   477.0061 </r>
       <r>     6.7405    35.3558   479.4874 </r>
       <r>     6.8106    44.0755   482.6127 </r>
       <r>     6.8808    47.8660   485.9734 </r>
       <r>     6.9509    32.1947   488.2578 </r>
       <r>     7.0211    42.4592   491.2428 </r>
       <r>     7.0912    41.2904   494.1402 </r>
       <r>     7.1613    37.5376   496.7731 </r>
       <r>     7.2315    37.3545   499.3953 </r>
       <r>     7.3016    40.5724   502.2461 </r>
       <r>     7.3718    37.4844   504.8823 </r>
       <r>     7.4419    45.2982   508.0607 </r>
       <r>     7.5120    49.2533   511.5249 </r>
       <r>     7.5822    45.5003   514.7578 </r>
       <r>     7.6523    39.7394   517.5676 </r>
       <r>     7.7225    56.0333   521.5006 </r>
       <r>     7.7926    34.9544   523.9619 </r>
       <r>     7.8627    43.4855   527.0122 </r>
       <r>     7.9329    43.2737   530.0477 </r>
       <r>     8.0030    41.2449   532.9574 </r>
       <r>     8.0732    59.3073   537.1224 </r>
       <r>     8.1433    56.4475   541.0915 </r>
       <r>     8.2134    39.0430   543.8592 </r>
       <r>     8.2836    47.5883   547.2098 </r>
       <r>     8.3537    59.3729   551.3976 </r>
       <r>     8.4238    50.2489   554.9320 </r>
       <r>     8.4940    56.6291   558.9121 </r>
       <r>     8.5641    53.6646   562.6855 </r>
       <r>     8.6343    55.7336   566.6076 </r>
       <r>     8.7044    36.3965   569.1930 </r>
       <r>     8.7745    40.7481   572.0825 </r>
       <r>     8.8447    32.0621   574.3560 </r>
       <r>     8.9148    13.6276   575.3122 </r>
       <r>     8.9850     6.8232   575.7908 </r>
       <r>     9.0551     2.9675   576.0000 </r>
       <r>     9.1252     0.0000   576.0000 </r>
       <r>     9.1954     0.0000   576.0000 </r>
       <r>     9.2655     0.0000   576.0000 </r>
       <r>     9.3357     0.0000   576.0000 </r>
       <r>     9.4058     0.0000   576.0000 </r>
       <r>     9.4759     0.0000   576.0000 </r>
       <r>     9.5461     0.0000   576.0000 </r>
       <r>     9.6162     0.0000   576.0000 </r>
       <r>     9.6864     0.0000   576.0000 </r>
       <r>     9.7565     0.0000   576.0000 </r>
       <r>     9.8266     0.0000   576.0000 </r>
       <r>     9.8968     0.0000   576.0000 </r>
       <r>     9.9669     0.0000   576.0000 </r>
      </set>
     </set>
    </array>
   </total>
  </dos>
 </calculation>
 <structure name="finalpos" >
  <crystal>
   <varray name="basis" >
    <v>       7.68059444       0.00000000       0.00000000 </v>
    <v>       0.00000000      16.29299927       0.00000000 </v>
    <v>       0.00000000       0.00000000      16.67299271 </v>
   </varray>
   <i name="volume">   2086.45696762 </i>
   <varray name="rec_basis" >
    <v>       0.13019826       0.00000000       0.00000000 </v>
    <v>       0.00000000       0.06137605       0.00000000 </v>
    <v>       0.00000000       0.00000000       0.05997723 </v>
   </varray>
  </crystal>
  <varray name="positions" >
   <v>       0.97851729       0.98567820       0.00000000 </v>
   <v>       0.98274255       0.22411394       0.91516531 </v>
   <v>       0.47851718       0.65234476       0.23033045 </v>
   <v>       0.22851723       0.48567814       0.34549564 </v>
   <v>       0.23274262       0.72411388       0.66066086 </v>
   <v>       0.47851718       0.98567814       0.46066088 </v>
   <v>       0.97851729       0.31901154       0.00000000 </v>
   <v>       0.23274255       0.22411388       0.00000012 </v>
   <v>       0.47851718       0.98567814       0.23033045 </v>
   <v>       0.22851723       0.81901151       0.34549564 </v>
   <v>       0.48274255       0.72411382       0.57582611 </v>
   <v>       0.47851718       0.65234476       0.46066088 </v>
   <v>       0.97851729       0.65234494       0.00000000 </v>
   <v>       0.22851729       0.56901163       0.00000000 </v>
   <v>       0.47851718       0.31901151       0.23033045 </v>
   <v>       0.22851723       0.15234487       0.34549564 </v>
   <v>       0.47851723       0.06901138       0.57582605 </v>
   <v>       0.72851718       0.81901139       0.57582611 </v>
   <v>       0.22851725       0.15234485       0.11516523 </v>
   <v>       0.22851725       0.81901145       0.11516523 </v>
   <v>       0.97851723       0.65234476       0.23033045 </v>
   <v>       0.72851729       0.48567814       0.34549561 </v>
   <v>       0.47851718       0.31901139       0.46066088 </v>
   <v>       0.22851712       0.15234470       0.57582611 </v>
   <v>       0.47851729       0.31901154       0.00000000 </v>
   <v>       0.47851729       0.98567820       0.00000000 </v>
   <v>       0.97851723       0.98567814       0.23033045 </v>
   <v>       0.72851729       0.81901151       0.34549561 </v>
   <v>       0.72851718       0.48567808       0.57582611 </v>
   <v>       0.22851712       0.48567808       0.57582611 </v>
   <v>       0.22851725       0.48567820       0.11516523 </v>
   <v>       0.47851729       0.65234494       0.00000000 </v>
   <v>       0.97851723       0.31901151       0.23033045 </v>
   <v>       0.72851729       0.15234487       0.34549561 </v>
   <v>       0.72851718       0.15234470       0.57582611 </v>
   <v>       0.22851712       0.81901139       0.57582611 </v>
   <v>       0.72851735       0.23567820       0.00000000 </v>
   <v>       0.47851729       0.06901149       0.11516522 </v>
   <v>       0.22851726       0.90234476       0.23033045 </v>
   <v>       0.97851729       0.73567814       0.34549564 </v>
   <v>       0.72851723       0.56901145       0.46066088 </v>
   <v>       0.47851723       0.40234464       0.57582605 </v>
   <v>       0.72851735       0.56901163       0.00000000 </v>
   <v>       0.47851729       0.40234488       0.11516522 </v>
   <v>       0.22851726       0.23567820       0.23033045 </v>
   <v>       0.97851729       0.06901154       0.34549564 </v>
   <v>       0.72851723       0.90234482       0.46066088 </v>
   <v>       0.47851723       0.73567808       0.57582605 </v>
   <v>       0.72851735       0.90234494       0.00000000 </v>
   <v>       0.47851729       0.73567820       0.11516522 </v>
   <v>       0.22851726       0.56901151       0.23033045 </v>
   <v>       0.48274258       0.47411385       0.57582611 </v>
   <v>       0.72851723       0.23567812       0.46066088 </v>
   <v>       0.97851718       0.98567814       0.46066088 </v>
   <v>       0.22851729       0.23567820       0.00000000 </v>
   <v>       0.97851723       0.06901149       0.11516523 </v>
   <v>       0.23274255       0.97411382       0.00000012 </v>
   <v>       0.47851729       0.73567814       0.34549561 </v>
   <v>       0.22851718       0.56901145       0.46066088 </v>
   <v>       0.97851706       0.40234464       0.57582611 </v>
   <v>       0.72851723       0.48567820       0.11516523 </v>
   <v>       0.97851723       0.40234488       0.11516523 </v>
   <v>       0.72851718       0.23567820       0.23033045 </v>
   <v>       0.47851729       0.06901154       0.34549561 </v>
   <v>       0.22851718       0.90234482       0.46066088 </v>
   <v>       0.97851706       0.73567808       0.57582611 </v>
   <v>       0.22851729       0.90234494       0.00000000 </v>
   <v>       0.97851723       0.73567820       0.11516523 </v>
   <v>       0.72851718       0.56901151       0.23033045 </v>
   <v>       0.47851729       0.40234485       0.34549561 </v>
   <v>       0.22851718       0.23567812       0.46066088 </v>
   <v>       0.97851706       0.06901138       0.57582611 </v>
   <v>       0.98274255       0.47411382       0.57582611 </v>
   <v>       0.73274261       0.09911388       0.74549568 </v>
   <v>       0.48274261       0.72411394       0.91516531 </v>
   <v>       0.97851718       0.65234476       0.46066088 </v>
   <v>       0.23274258       0.34911385       0.74549568 </v>
   <v>       0.98274261       0.97411388       0.91516531 </v>
   <v>       0.98274261       0.97411388       0.57582611 </v>
   <v>       0.73274261       0.59911394       0.74549568 </v>
   <v>       0.48274261       0.22411388       0.91516531 </v>
   <v>       0.48274252       0.22411384       0.57582611 </v>
   <v>       0.23274258       0.84911388       0.74549568 </v>
   <v>       0.98274261       0.47411388       0.91516531 </v>
   <v>       0.23274253       0.47411382       0.66066086 </v>
   <v>       0.98274261       0.09911388       0.83033055 </v>
   <v>       0.73274261       0.72411382       0.00000012 </v>
   <v>       0.73274255       0.72411382       0.66066086 </v>
   <v>       0.48274258       0.34911385       0.83033055 </v>
   <v>       0.72851718       0.90234476       0.23033045 </v>
   <v>       0.23274259       0.97411388       0.66066086 </v>
   <v>       0.98274261       0.59911394       0.83033055 </v>
   <v>       0.73274255       0.22411388       0.00000012 </v>
   <v>       0.73274249       0.22411384       0.66066086 </v>
   <v>       0.48274258       0.84911388       0.83033055 </v>
   <v>       0.23274256       0.47411388       0.00000012 </v>
   <v>       0.98274261       0.72411388       0.57582611 </v>
   <v>       0.73274267       0.34911391       0.74549568 </v>
   <v>       0.48274261       0.97411394       0.91516531 </v>
   <v>       0.98274261       0.22411385       0.57582611 </v>
   <v>       0.73274261       0.84911388       0.74549568 </v>
   <v>       0.48274261       0.47411388       0.91516531 </v>
   <v>       0.97851729       0.40234485       0.34549564 </v>
   <v>       0.23274261       0.09911391       0.74549568 </v>
   <v>       0.98274261       0.72411394       0.91516531 </v>
   <v>       0.48274255       0.97411388       0.57582611 </v>
   <v>       0.23274258       0.59911388       0.74549568 </v>
   <v>       0.72851723       0.81901145       0.11516523 </v>
   <v>       0.97851718       0.31901139       0.46066088 </v>
   <v>       0.98274261       0.34911391       0.83033055 </v>
   <v>       0.73274255       0.97411388       0.00000012 </v>
   <v>       0.23274258       0.22411387       0.66066086 </v>
   <v>       0.98274261       0.84911388       0.83033055 </v>
   <v>       0.73274255       0.47411388       0.00000012 </v>
   <v>       0.73274255       0.47411382       0.66066086 </v>
   <v>       0.48274255       0.09911384       0.83033055 </v>
   <v>       0.23274250       0.72411382       0.00000012 </v>
   <v>       0.73274255       0.97411388       0.66066086 </v>
   <v>       0.48274258       0.59911394       0.83033055 </v>
   <v>       0.72851723       0.15234485       0.11516523 </v>
  </varray>
 </structure>
</modeling>
