  96  96   0   0
  0.2009955E+02  0.1789154E-08  0.1789153E-08  0.1382884E-08  0.5000000E-15
  1.000000000000000E-004
  CAR 
 Si and Ge interface calculation         
      7.89722196     -9.91140665  301      4.63808773      1.00000000
     -9.911  0.0000E+00  0.0000E+00  0.0000E+00  0.0000E+00
     -9.852  0.0000E+00  0.0000E+00  0.0000E+00  0.0000E+00
     -9.793  0.0000E+00  0.0000E+00  0.0000E+00  0.0000E+00
     -9.733  0.0000E+00  0.0000E+00  0.0000E+00  0.0000E+00
     -9.674  0.0000E+00  0.0000E+00  0.0000E+00  0.0000E+00
     -9.615  0.0000E+00  0.0000E+00  0.0000E+00  0.0000E+00
     -9.555  0.0000E+00  0.0000E+00  0.0000E+00  0.0000E+00
     -9.496  0.0000E+00  0.0000E+00  0.0000E+00  0.0000E+00
     -9.437  0.0000E+00  0.0000E+00  0.0000E+00  0.0000E+00
     -9.377  0.0000E+00  0.0000E+00  0.0000E+00  0.0000E+00
     -9.318  0.0000E+00  0.0000E+00  0.0000E+00  0.0000E+00
     -9.258  0.0000E+00  0.0000E+00  0.0000E+00  0.0000E+00
     -9.199  0.0000E+00  0.0000E+00  0.0000E+00  0.0000E+00
     -9.140  0.4876E-07  0.6249E-12  0.2895E-08  0.3710E-13
     -9.080  0.5208E+01  0.2624E+01  0.3092E+00  0.1557E+00
     -9.021  0.1125E+02  0.9624E+01  0.9768E+00  0.7271E+00
     -8.962  0.1852E+02  0.2128E+02  0.2076E+01  0.1990E+01
     -8.902  0.1929E+02  0.1998E+02  0.3222E+01  0.3176E+01
     -8.843  0.4676E+01  0.5129E+01  0.3499E+01  0.3481E+01
     -8.784  0.8375E+01  0.5053E+01  0.3996E+01  0.3781E+01
     -8.724  0.2217E+02  0.2150E+02  0.5312E+01  0.5057E+01
     -8.665  0.2630E+02  0.2846E+02  0.6874E+01  0.6747E+01
     -8.605  0.8534E+01  0.8823E+01  0.7380E+01  0.7271E+01
     -8.546  0.2036E+01  0.3859E+01  0.7501E+01  0.7500E+01
     -8.487  0.1678E+02  0.1588E+02  0.8497E+01  0.8443E+01
     -8.427  0.1370E+00  0.9658E+00  0.8506E+01  0.8500E+01
     -8.368  0.3289E+01  0.2384E+01  0.8701E+01  0.8642E+01
     -8.309  0.2487E+02  0.1417E+02  0.1018E+02  0.9483E+01
     -8.249  0.2993E+02  0.3854E+02  0.1195E+02  0.1177E+02
     -8.190  0.7094E+01  0.1007E+02  0.1237E+02  0.1237E+02
     -8.131  0.6429E-15  0.9665E-01  0.1238E+02  0.1238E+02
     -8.071  0.2287E+01  0.2895E+00  0.1251E+02  0.1239E+02
     -8.012  0.1372E+02  0.1170E+02  0.1333E+02  0.1309E+02
     -7.952  0.3777E+01  0.7126E+01  0.1355E+02  0.1351E+02
     -7.893  0.2301E+02  0.1861E+02  0.1492E+02  0.1461E+02
     -7.834  0.1701E+02  0.1866E+02  0.1593E+02  0.1572E+02
     -7.774  0.1261E+01  0.4690E+01  0.1600E+02  0.1600E+02
     -7.715  0.1177E+02  0.7533E+01  0.1670E+02  0.1645E+02
     -7.656  0.5257E+01  0.9316E+01  0.1701E+02  0.1700E+02
     -7.596  0.7187E+01  0.7122E+01  0.1744E+02  0.1742E+02
     -7.537  0.5245E+01  0.3935E+01  0.1775E+02  0.1766E+02
     -7.478  0.6931E+01  0.7930E+01  0.1816E+02  0.1813E+02
     -7.418  0.2208E+02  0.2125E+02  0.1947E+02  0.1939E+02
     -7.359  0.1933E+02  0.1797E+02  0.2062E+02  0.2046E+02
     -7.299  0.1176E+02  0.1259E+02  0.2132E+02  0.2120E+02
     -7.240  0.2579E+02  0.2257E+02  0.2285E+02  0.2254E+02
     -7.181  0.1683E+02  0.1808E+02  0.2385E+02  0.2362E+02
     -7.121  0.2084E+02  0.2114E+02  0.2508E+02  0.2487E+02
     -7.062  0.1478E+02  0.1577E+02  0.2596E+02  0.2581E+02
     -7.003  0.2433E+02  0.2392E+02  0.2741E+02  0.2723E+02
     -6.943  0.1235E+02  0.1313E+02  0.2814E+02  0.2801E+02
     -6.884  0.2617E+02  0.2097E+02  0.2969E+02  0.2925E+02
     -6.825  0.5225E+02  0.4991E+02  0.3279E+02  0.3222E+02
     -6.765  0.2982E+02  0.3489E+02  0.3456E+02  0.3429E+02
     -6.706  0.1919E+02  0.2020E+02  0.3570E+02  0.3549E+02
     -6.646  0.2868E+02  0.2728E+02  0.3741E+02  0.3711E+02
     -6.587  0.2801E+02  0.3117E+02  0.3907E+02  0.3896E+02
     -6.528  0.2160E+02  0.2012E+02  0.4035E+02  0.4015E+02
     -6.468  0.2101E+02  0.2008E+02  0.4160E+02  0.4134E+02
     -6.409  0.1595E+02  0.1759E+02  0.4255E+02  0.4239E+02
     -6.350  0.2359E+02  0.2147E+02  0.4395E+02  0.4366E+02
     -6.290  0.4001E+02  0.4050E+02  0.4632E+02  0.4607E+02
     -6.231  0.3118E+02  0.2866E+02  0.4817E+02  0.4777E+02
     -6.172  0.3620E+02  0.3695E+02  0.5032E+02  0.4996E+02
     -6.112  0.2985E+02  0.3061E+02  0.5209E+02  0.5178E+02
     -6.053  0.2370E+02  0.2447E+02  0.5350E+02  0.5323E+02
     -5.994  0.4292E+02  0.4065E+02  0.5605E+02  0.5564E+02
     -5.934  0.3329E+02  0.3605E+02  0.5802E+02  0.5778E+02
     -5.875  0.3152E+02  0.2993E+02  0.5990E+02  0.5956E+02
     -5.815  0.2856E+02  0.3225E+02  0.6159E+02  0.6148E+02
     -5.756  0.2453E+02  0.2032E+02  0.6305E+02  0.6268E+02
     -5.697  0.3629E+02  0.3650E+02  0.6520E+02  0.6485E+02
     -5.637  0.3800E+02  0.3934E+02  0.6746E+02  0.6719E+02
     -5.578  0.2732E+02  0.2546E+02  0.6908E+02  0.6870E+02
     -5.519  0.3908E+02  0.3743E+02  0.7140E+02  0.7092E+02
     -5.459  0.2264E+02  0.2696E+02  0.7274E+02  0.7252E+02
     -5.400  0.2286E+02  0.2445E+02  0.7410E+02  0.7397E+02
     -5.341  0.3097E+02  0.2980E+02  0.7594E+02  0.7574E+02
     -5.281  0.4221E+02  0.3479E+02  0.7844E+02  0.7781E+02
     -5.222  0.3362E+02  0.4032E+02  0.8044E+02  0.8020E+02
     -5.162  0.3252E+02  0.3411E+02  0.8237E+02  0.8222E+02
     -5.103  0.1614E+02  0.1568E+02  0.8333E+02  0.8316E+02
     -5.044  0.3163E+02  0.3230E+02  0.8521E+02  0.8507E+02
     -4.984  0.1619E+02  0.1541E+02  0.8617E+02  0.8599E+02
     -4.925  0.3643E+02  0.3372E+02  0.8833E+02  0.8799E+02
     -4.866  0.1653E+02  0.1735E+02  0.8931E+02  0.8902E+02
     -4.806  0.2886E+02  0.2975E+02  0.9103E+02  0.9078E+02
     -4.747  0.2444E+02  0.2560E+02  0.9248E+02  0.9230E+02
     -4.688  0.1400E+02  0.1400E+02  0.9331E+02  0.9313E+02
     -4.628  0.2058E+02  0.2046E+02  0.9453E+02  0.9435E+02
     -4.569  0.1836E+02  0.1951E+02  0.9562E+02  0.9551E+02
     -4.509  0.2215E+02  0.2013E+02  0.9693E+02  0.9670E+02
     -4.450  0.2209E+02  0.2056E+02  0.9825E+02  0.9792E+02
     -4.391  0.2805E+02  0.2658E+02  0.9991E+02  0.9950E+02
     -4.331  0.2650E+02  0.2829E+02  0.1015E+03  0.1012E+03
     -4.272  0.2894E+02  0.2949E+02  0.1032E+03  0.1029E+03
     -4.213  0.2240E+02  0.2384E+02  0.1045E+03  0.1043E+03
     -4.153  0.2800E+02  0.2890E+02  0.1062E+03  0.1061E+03
     -4.094  0.1375E+02  0.1117E+02  0.1070E+03  0.1067E+03
     -4.035  0.2605E+02  0.2543E+02  0.1086E+03  0.1082E+03
     -3.975  0.2636E+02  0.2761E+02  0.1101E+03  0.1099E+03
     -3.916  0.2352E+02  0.2416E+02  0.1115E+03  0.1113E+03
     -3.856  0.2115E+02  0.2159E+02  0.1128E+03  0.1126E+03
     -3.797  0.2726E+02  0.2401E+02  0.1144E+03  0.1140E+03
     -3.738  0.2052E+02  0.2284E+02  0.1156E+03  0.1154E+03
     -3.678  0.2545E+02  0.2459E+02  0.1171E+03  0.1168E+03
     -3.619  0.1422E+02  0.1374E+02  0.1180E+03  0.1176E+03
     -3.560  0.3410E+02  0.3478E+02  0.1200E+03  0.1197E+03
     -3.500  0.1978E+02  0.1934E+02  0.1212E+03  0.1209E+03
     -3.441  0.2260E+02  0.2629E+02  0.1225E+03  0.1224E+03
     -3.382  0.1767E+02  0.1622E+02  0.1236E+03  0.1234E+03
     -3.322  0.2190E+02  0.1938E+02  0.1249E+03  0.1245E+03
     -3.263  0.2034E+02  0.2221E+02  0.1261E+03  0.1259E+03
     -3.203  0.2977E+02  0.2852E+02  0.1278E+03  0.1275E+03
     -3.144  0.2485E+02  0.2590E+02  0.1293E+03  0.1291E+03
     -3.085  0.2985E+02  0.2591E+02  0.1311E+03  0.1306E+03
     -3.025  0.2447E+02  0.2848E+02  0.1325E+03  0.1323E+03
     -2.966  0.2929E+02  0.2748E+02  0.1343E+03  0.1339E+03
     -2.907  0.2792E+02  0.2802E+02  0.1359E+03  0.1356E+03
     -2.847  0.2898E+02  0.2886E+02  0.1376E+03  0.1373E+03
     -2.788  0.2826E+02  0.2967E+02  0.1393E+03  0.1391E+03
     -2.729  0.3089E+02  0.2864E+02  0.1412E+03  0.1408E+03
     -2.669  0.2754E+02  0.3069E+02  0.1428E+03  0.1426E+03
     -2.610  0.1835E+02  0.1690E+02  0.1439E+03  0.1436E+03
     -2.551  0.2903E+02  0.3196E+02  0.1456E+03  0.1455E+03
     -2.491  0.1951E+02  0.1765E+02  0.1468E+03  0.1466E+03
     -2.432  0.2509E+02  0.2459E+02  0.1483E+03  0.1480E+03
     -2.372  0.2681E+02  0.2567E+02  0.1498E+03  0.1495E+03
     -2.313  0.3621E+02  0.3881E+02  0.1520E+03  0.1518E+03
     -2.254  0.1524E+02  0.1310E+02  0.1529E+03  0.1526E+03
     -2.194  0.2236E+02  0.2539E+02  0.1542E+03  0.1541E+03
     -2.135  0.2896E+02  0.2723E+02  0.1559E+03  0.1557E+03
     -2.076  0.1646E+02  0.1738E+02  0.1569E+03  0.1568E+03
     -2.016  0.1597E+02  0.1719E+02  0.1579E+03  0.1578E+03
     -1.957  0.1966E+02  0.1649E+02  0.1590E+03  0.1588E+03
     -1.898  0.2554E+02  0.2584E+02  0.1606E+03  0.1603E+03
     -1.838  0.1037E+02  0.1291E+02  0.1612E+03  0.1611E+03
     -1.779  0.1937E+02  0.1705E+02  0.1623E+03  0.1621E+03
     -1.719  0.1254E+02  0.1295E+02  0.1631E+03  0.1629E+03
     -1.660  0.2577E+02  0.2609E+02  0.1646E+03  0.1644E+03
     -1.601  0.1791E+02  0.1562E+02  0.1657E+03  0.1653E+03
     -1.541  0.2501E+02  0.2675E+02  0.1671E+03  0.1669E+03
     -1.482  0.2015E+02  0.2158E+02  0.1683E+03  0.1682E+03
     -1.423  0.3086E+02  0.2813E+02  0.1702E+03  0.1699E+03
     -1.363  0.2477E+02  0.2583E+02  0.1716E+03  0.1714E+03
     -1.304  0.2822E+02  0.2663E+02  0.1733E+03  0.1730E+03
     -1.245  0.2078E+02  0.2154E+02  0.1745E+03  0.1743E+03
     -1.185  0.2879E+02  0.3049E+02  0.1763E+03  0.1761E+03
     -1.126  0.3727E+02  0.3343E+02  0.1785E+03  0.1781E+03
     -1.066  0.2494E+02  0.3019E+02  0.1800E+03  0.1798E+03
     -1.007  0.2615E+02  0.2501E+02  0.1815E+03  0.1813E+03
     -0.948  0.2618E+02  0.2319E+02  0.1831E+03  0.1827E+03
     -0.888  0.2277E+02  0.2624E+02  0.1844E+03  0.1843E+03
     -0.829  0.2444E+02  0.2436E+02  0.1859E+03  0.1857E+03
     -0.770  0.2243E+02  0.2189E+02  0.1872E+03  0.1870E+03
     -0.710  0.2921E+02  0.2846E+02  0.1889E+03  0.1887E+03
     -0.651  0.2458E+02  0.2567E+02  0.1904E+03  0.1902E+03
     -0.592  0.2938E+02  0.2707E+02  0.1921E+03  0.1918E+03
     -0.532  0.2172E+02  0.2376E+02  0.1934E+03  0.1932E+03
     -0.473  0.2654E+02  0.2512E+02  0.1950E+03  0.1947E+03
     -0.413  0.2738E+02  0.2544E+02  0.1966E+03  0.1962E+03
     -0.354  0.2683E+02  0.2951E+02  0.1982E+03  0.1980E+03
     -0.295  0.1144E+02  0.1393E+02  0.1989E+03  0.1988E+03
     -0.235  0.1487E+02  0.1202E+02  0.1998E+03  0.1995E+03
     -0.176  0.1668E+02  0.1917E+02  0.2008E+03  0.2007E+03
     -0.117  0.7671E+01  0.7785E+01  0.2012E+03  0.2011E+03
     -0.057  0.1675E+02  0.1588E+02  0.2022E+03  0.2021E+03
      0.002  0.1711E+02  0.1601E+02  0.2032E+03  0.2030E+03
      0.061  0.1712E+02  0.1758E+02  0.2042E+03  0.2041E+03
      0.121  0.1779E+02  0.1848E+02  0.2053E+03  0.2052E+03
      0.180  0.2110E+02  0.1923E+02  0.2066E+03  0.2063E+03
      0.240  0.2368E+02  0.2355E+02  0.2080E+03  0.2077E+03
      0.299  0.2583E+02  0.2589E+02  0.2095E+03  0.2092E+03
      0.358  0.2602E+02  0.2657E+02  0.2110E+03  0.2108E+03
      0.418  0.3389E+02  0.3317E+02  0.2131E+03  0.2128E+03
      0.477  0.3486E+02  0.3177E+02  0.2151E+03  0.2147E+03
      0.536  0.2722E+02  0.2789E+02  0.2167E+03  0.2163E+03
      0.596  0.2560E+02  0.2810E+02  0.2183E+03  0.2180E+03
      0.655  0.2405E+02  0.2361E+02  0.2197E+03  0.2194E+03
      0.714  0.3123E+02  0.3143E+02  0.2215E+03  0.2213E+03
      0.774  0.3326E+02  0.3301E+02  0.2235E+03  0.2232E+03
      0.833  0.2617E+02  0.2602E+02  0.2251E+03  0.2248E+03
      0.892  0.3071E+02  0.3068E+02  0.2269E+03  0.2266E+03
      0.952  0.3290E+02  0.3228E+02  0.2288E+03  0.2285E+03
      1.011  0.3622E+02  0.3522E+02  0.2310E+03  0.2306E+03
      1.071  0.3880E+02  0.4091E+02  0.2333E+03  0.2330E+03
      1.130  0.2727E+02  0.2883E+02  0.2349E+03  0.2347E+03
      1.189  0.4435E+02  0.3953E+02  0.2375E+03  0.2371E+03
      1.249  0.3856E+02  0.4041E+02  0.2398E+03  0.2395E+03
      1.308  0.3155E+02  0.3243E+02  0.2417E+03  0.2414E+03
      1.367  0.3266E+02  0.3282E+02  0.2436E+03  0.2434E+03
      1.427  0.4693E+02  0.4498E+02  0.2464E+03  0.2460E+03
      1.486  0.3514E+02  0.3703E+02  0.2485E+03  0.2482E+03
      1.545  0.5648E+02  0.5433E+02  0.2519E+03  0.2515E+03
      1.605  0.4116E+02  0.4207E+02  0.2543E+03  0.2540E+03
      1.664  0.4180E+02  0.4015E+02  0.2568E+03  0.2563E+03
      1.724  0.5443E+02  0.5516E+02  0.2600E+03  0.2596E+03
      1.783  0.3879E+02  0.3989E+02  0.2623E+03  0.2620E+03
      1.842  0.4992E+02  0.4935E+02  0.2653E+03  0.2649E+03
      1.902  0.4412E+02  0.4190E+02  0.2679E+03  0.2674E+03
      1.961  0.5304E+02  0.5163E+02  0.2711E+03  0.2705E+03
      2.020  0.4447E+02  0.4853E+02  0.2737E+03  0.2733E+03
      2.080  0.5060E+02  0.4923E+02  0.2767E+03  0.2763E+03
      2.139  0.5294E+02  0.5479E+02  0.2799E+03  0.2795E+03
      2.198  0.5461E+02  0.4959E+02  0.2831E+03  0.2825E+03
      2.258  0.4882E+02  0.5291E+02  0.2860E+03  0.2856E+03
      2.317  0.4537E+02  0.4456E+02  0.2887E+03  0.2883E+03
      2.377  0.4849E+02  0.5001E+02  0.2916E+03  0.2912E+03
      2.436  0.4713E+02  0.4535E+02  0.2944E+03  0.2939E+03
      2.495  0.4352E+02  0.4551E+02  0.2969E+03  0.2966E+03
      2.555  0.4585E+02  0.4158E+02  0.2997E+03  0.2991E+03
      2.614  0.4141E+02  0.4352E+02  0.3021E+03  0.3017E+03
      2.673  0.4705E+02  0.4943E+02  0.3049E+03  0.3046E+03
      2.733  0.5202E+02  0.4918E+02  0.3080E+03  0.3075E+03
      2.792  0.3702E+02  0.4286E+02  0.3102E+03  0.3101E+03
      2.851  0.4158E+02  0.3813E+02  0.3127E+03  0.3123E+03
      2.911  0.2896E+02  0.2900E+02  0.3144E+03  0.3140E+03
      2.970  0.4143E+02  0.4050E+02  0.3169E+03  0.3165E+03
      3.030  0.4103E+02  0.4063E+02  0.3193E+03  0.3189E+03
      3.089  0.3619E+02  0.3714E+02  0.3214E+03  0.3211E+03
      3.148  0.3562E+02  0.3485E+02  0.3236E+03  0.3231E+03
      3.208  0.4741E+02  0.4599E+02  0.3264E+03  0.3259E+03
      3.267  0.5392E+02  0.5106E+02  0.3296E+03  0.3289E+03
      3.326  0.3435E+02  0.3656E+02  0.3316E+03  0.3311E+03
      3.386  0.4065E+02  0.4387E+02  0.3340E+03  0.3337E+03
      3.445  0.4655E+02  0.4479E+02  0.3368E+03  0.3363E+03
      3.504  0.4111E+02  0.4064E+02  0.3392E+03  0.3387E+03
      3.564  0.4400E+02  0.4172E+02  0.3418E+03  0.3412E+03
      3.623  0.3839E+02  0.4239E+02  0.3441E+03  0.3437E+03
      3.683  0.4571E+02  0.4727E+02  0.3468E+03  0.3465E+03
      3.742  0.4125E+02  0.3914E+02  0.3493E+03  0.3489E+03
      3.801  0.3500E+02  0.3140E+02  0.3514E+03  0.3507E+03
      3.861  0.3181E+02  0.3349E+02  0.3532E+03  0.3527E+03
      3.920  0.3872E+02  0.3896E+02  0.3555E+03  0.3550E+03
      3.979  0.4155E+02  0.4191E+02  0.3580E+03  0.3575E+03
      4.039  0.4243E+02  0.4271E+02  0.3605E+03  0.3601E+03
      4.098  0.4175E+02  0.3962E+02  0.3630E+03  0.3624E+03
      4.157  0.3503E+02  0.3714E+02  0.3651E+03  0.3646E+03
      4.217  0.3976E+02  0.3837E+02  0.3674E+03  0.3669E+03
      4.276  0.4154E+02  0.4504E+02  0.3699E+03  0.3696E+03
      4.335  0.4523E+02  0.3981E+02  0.3726E+03  0.3719E+03
      4.395  0.4328E+02  0.4512E+02  0.3752E+03  0.3746E+03
      4.454  0.2981E+02  0.3068E+02  0.3769E+03  0.3764E+03
      4.514  0.3984E+02  0.3931E+02  0.3793E+03  0.3788E+03
      4.573  0.3265E+02  0.3509E+02  0.3812E+03  0.3808E+03
      4.632  0.3394E+02  0.3326E+02  0.3833E+03  0.3828E+03
      4.692  0.3965E+02  0.4025E+02  0.3856E+03  0.3852E+03
      4.751  0.3492E+02  0.3143E+02  0.3877E+03  0.3871E+03
      4.810  0.3398E+02  0.3718E+02  0.3897E+03  0.3893E+03
      4.870  0.3167E+02  0.3354E+02  0.3916E+03  0.3913E+03
      4.929  0.3588E+02  0.3549E+02  0.3937E+03  0.3934E+03
      4.988  0.3683E+02  0.3354E+02  0.3959E+03  0.3954E+03
      5.048  0.3221E+02  0.3405E+02  0.3978E+03  0.3974E+03
      5.107  0.3244E+02  0.2987E+02  0.3997E+03  0.3992E+03
      5.167  0.3488E+02  0.3653E+02  0.4018E+03  0.4013E+03
      5.226  0.2986E+02  0.3068E+02  0.4036E+03  0.4032E+03
      5.285  0.2510E+02  0.2868E+02  0.4051E+03  0.4049E+03
      5.345  0.3247E+02  0.2721E+02  0.4070E+03  0.4065E+03
      5.404  0.3615E+02  0.3848E+02  0.4091E+03  0.4088E+03
      5.463  0.2114E+02  0.2574E+02  0.4104E+03  0.4103E+03
      5.523  0.4032E+02  0.3294E+02  0.4128E+03  0.4122E+03
      5.582  0.4524E+02  0.4912E+02  0.4155E+03  0.4152E+03
      5.641  0.3767E+02  0.3621E+02  0.4177E+03  0.4173E+03
      5.701  0.3260E+02  0.3255E+02  0.4196E+03  0.4192E+03
      5.760  0.3275E+02  0.3467E+02  0.4216E+03  0.4213E+03
      5.820  0.3408E+02  0.3066E+02  0.4236E+03  0.4231E+03
      5.879  0.3483E+02  0.3633E+02  0.4257E+03  0.4253E+03
      5.938  0.4449E+02  0.4248E+02  0.4283E+03  0.4278E+03
      5.998  0.3001E+02  0.3316E+02  0.4301E+03  0.4298E+03
      6.057  0.3584E+02  0.3475E+02  0.4322E+03  0.4318E+03
      6.116  0.3415E+02  0.3426E+02  0.4343E+03  0.4339E+03
      6.176  0.3831E+02  0.3931E+02  0.4365E+03  0.4362E+03
      6.235  0.4039E+02  0.3911E+02  0.4389E+03  0.4385E+03
      6.294  0.4229E+02  0.3979E+02  0.4414E+03  0.4409E+03
      6.354  0.3657E+02  0.4112E+02  0.4436E+03  0.4433E+03
      6.413  0.3333E+02  0.3401E+02  0.4456E+03  0.4453E+03
      6.473  0.3257E+02  0.3036E+02  0.4475E+03  0.4471E+03
      6.532  0.3896E+02  0.4001E+02  0.4498E+03  0.4495E+03
      6.591  0.3695E+02  0.3475E+02  0.4520E+03  0.4516E+03
      6.651  0.3526E+02  0.3488E+02  0.4541E+03  0.4537E+03
      6.710  0.2927E+02  0.3283E+02  0.4559E+03  0.4556E+03
      6.769  0.2166E+02  0.2263E+02  0.4571E+03  0.4569E+03
      6.829  0.2284E+02  0.2163E+02  0.4585E+03  0.4582E+03
      6.888  0.3563E+02  0.3274E+02  0.4606E+03  0.4602E+03
      6.947  0.2948E+02  0.3324E+02  0.4624E+03  0.4622E+03
      7.007  0.1872E+02  0.2052E+02  0.4635E+03  0.4634E+03
      7.066  0.6893E+01  0.8143E+01  0.4639E+03  0.4639E+03
      7.126  0.1863E+01  0.2495E+01  0.4640E+03  0.4640E+03
      7.185  0.0000E+00  0.0000E+00  0.4640E+03  0.4640E+03
      7.244  0.0000E+00  0.0000E+00  0.4640E+03  0.4640E+03
      7.304  0.0000E+00  0.0000E+00  0.4640E+03  0.4640E+03
      7.363  0.0000E+00  0.0000E+00  0.4640E+03  0.4640E+03
      7.422  0.0000E+00  0.0000E+00  0.4640E+03  0.4640E+03
      7.482  0.0000E+00  0.0000E+00  0.4640E+03  0.4640E+03
      7.541  0.0000E+00  0.0000E+00  0.4640E+03  0.4640E+03
      7.600  0.0000E+00  0.0000E+00  0.4640E+03  0.4640E+03
      7.660  0.0000E+00  0.0000E+00  0.4640E+03  0.4640E+03
      7.719  0.0000E+00  0.0000E+00  0.4640E+03  0.4640E+03
      7.778  0.0000E+00  0.0000E+00  0.4640E+03  0.4640E+03
      7.838  0.0000E+00  0.0000E+00  0.4640E+03  0.4640E+03
      7.897  0.0000E+00  0.0000E+00  0.4640E+03  0.4640E+03
