  48  48   0   0
  0.1886564E+02  0.1265123E-08  0.1265123E-08  0.9429669E-09  0.5000000E-15
  1.000000000000000E-004
  CAR 
 Si and Ge interface calculation         
      8.62281490    -13.39980774  301      5.47753711      1.00000000
    -13.400  0.0000E+00  0.0000E+00  0.0000E+00  0.0000E+00
    -13.326  0.0000E+00  0.0000E+00  0.0000E+00  0.0000E+00
    -13.253  0.0000E+00  0.0000E+00  0.0000E+00  0.0000E+00
    -13.180  0.0000E+00  0.0000E+00  0.0000E+00  0.0000E+00
    -13.106  0.0000E+00  0.0000E+00  0.0000E+00  0.0000E+00
    -13.033  0.0000E+00  0.0000E+00  0.0000E+00  0.0000E+00
    -12.959  0.0000E+00  0.0000E+00  0.0000E+00  0.0000E+00
    -12.886  0.0000E+00  0.0000E+00  0.0000E+00  0.0000E+00
    -12.813  0.0000E+00  0.0000E+00  0.0000E+00  0.0000E+00
    -12.739  0.0000E+00  0.0000E+00  0.0000E+00  0.0000E+00
    -12.666  0.0000E+00  0.0000E+00  0.0000E+00  0.0000E+00
    -12.592  0.0000E+00  0.0000E+00  0.0000E+00  0.0000E+00
    -12.519  0.0000E+00  0.0000E+00  0.0000E+00  0.0000E+00
    -12.445  0.3769E-10  0.0000E+00  0.2767E-11  0.0000E+00
    -12.372  0.6810E+01  0.4842E+01  0.4999E+00  0.3554E+00
    -12.299  0.1362E+02  0.1469E+02  0.1500E+01  0.1434E+01
    -12.225  0.0000E+00  0.0000E+00  0.1500E+01  0.1500E+01
    -12.152  0.1098E+02  0.2443E+00  0.2306E+01  0.1518E+01
    -12.078  0.2088E+01  0.1338E+02  0.2500E+01  0.2500E+01
    -12.005  0.1853E-06  0.0000E+00  0.2500E+01  0.2500E+01
    -11.932  0.1362E+02  0.1318E+02  0.3500E+01  0.3468E+01
    -11.858  0.6799E+01  0.3275E+01  0.3999E+01  0.3740E+01
    -11.785  0.0000E+00  0.3536E+01  0.4000E+01  0.4000E+01
    -11.711  0.0000E+00  0.0000E+00  0.4000E+01  0.4000E+01
    -11.638  0.0000E+00  0.0000E+00  0.4000E+01  0.4000E+01
    -11.565  0.0000E+00  0.0000E+00  0.4000E+01  0.4000E+01
    -11.491  0.0000E+00  0.0000E+00  0.4000E+01  0.4000E+01
    -11.418  0.0000E+00  0.0000E+00  0.4000E+01  0.4000E+01
    -11.344  0.0000E+00  0.0000E+00  0.4000E+01  0.4000E+01
    -11.271  0.0000E+00  0.0000E+00  0.4000E+01  0.4000E+01
    -11.198  0.0000E+00  0.0000E+00  0.4000E+01  0.4000E+01
    -11.124  0.0000E+00  0.0000E+00  0.4000E+01  0.4000E+01
    -11.051  0.0000E+00  0.0000E+00  0.4000E+01  0.4000E+01
    -10.977  0.3536E-09  0.0000E+00  0.4000E+01  0.4000E+01
    -10.904  0.6535E+01  0.2252E+01  0.4480E+01  0.4165E+01
    -10.831  0.2275E+00  0.4473E+01  0.4517E+01  0.4500E+01
    -10.757  0.1339E+02  0.1362E+02  0.5500E+01  0.5500E+01
    -10.684  0.0000E+00  0.0000E+00  0.5500E+01  0.5500E+01
    -10.610  0.0000E+00  0.0000E+00  0.5500E+01  0.5500E+01
    -10.537  0.2106E-04  0.8564E-13  0.5500E+01  0.5500E+01
    -10.463  0.1362E+02  0.1083E+02  0.6500E+01  0.6295E+01
    -10.390  0.0000E+00  0.2100E+01  0.6500E+01  0.6500E+01
    -10.317  0.0000E+00  0.0000E+00  0.6500E+01  0.6500E+01
    -10.243  0.0000E+00  0.0000E+00  0.6500E+01  0.6500E+01
    -10.170  0.1021E-01  0.1307E-07  0.6501E+01  0.6500E+01
    -10.096  0.7180E+01  0.5253E+01  0.7028E+01  0.6886E+01
    -10.023  0.2153E+02  0.1885E+02  0.8611E+01  0.8279E+01
     -9.950  0.5292E+01  0.9818E+01  0.9000E+01  0.9000E+01
     -9.876  0.1565E-01  0.5165E-07  0.9001E+01  0.9000E+01
     -9.803  0.6797E+01  0.6717E+01  0.9500E+01  0.9493E+01
     -9.729  0.1317E+02  0.9116E+01  0.1047E+02  0.1017E+02
     -9.656  0.2610E+00  0.4260E+01  0.1050E+02  0.1050E+02
     -9.583  0.0000E+00  0.0000E+00  0.1050E+02  0.1050E+02
     -9.509  0.0000E+00  0.0000E+00  0.1050E+02  0.1050E+02
     -9.436  0.1031E+01  0.1120E-03  0.1058E+02  0.1050E+02
     -9.362  0.1259E+02  0.1343E+02  0.1150E+02  0.1149E+02
     -9.289  0.3032E-06  0.2206E-15  0.1150E+02  0.1150E+02
     -9.216  0.5409E+01  0.2295E+01  0.1190E+02  0.1167E+02
     -9.142  0.1354E+01  0.4491E+01  0.1200E+02  0.1200E+02
     -9.069  0.0000E+00  0.0000E+00  0.1200E+02  0.1200E+02
     -8.995  0.0000E+00  0.0000E+00  0.1200E+02  0.1200E+02
     -8.922  0.0000E+00  0.0000E+00  0.1200E+02  0.1200E+02
     -8.848  0.0000E+00  0.0000E+00  0.1200E+02  0.1200E+02
     -8.775  0.0000E+00  0.0000E+00  0.1200E+02  0.1200E+02
     -8.702  0.0000E+00  0.0000E+00  0.1200E+02  0.1200E+02
     -8.628  0.0000E+00  0.0000E+00  0.1200E+02  0.1200E+02
     -8.555  0.0000E+00  0.0000E+00  0.1200E+02  0.1200E+02
     -8.481  0.0000E+00  0.0000E+00  0.1200E+02  0.1200E+02
     -8.408  0.0000E+00  0.0000E+00  0.1200E+02  0.1200E+02
     -8.335  0.0000E+00  0.0000E+00  0.1200E+02  0.1200E+02
     -8.261  0.0000E+00  0.0000E+00  0.1200E+02  0.1200E+02
     -8.188  0.0000E+00  0.0000E+00  0.1200E+02  0.1200E+02
     -8.114  0.0000E+00  0.0000E+00  0.1200E+02  0.1200E+02
     -8.041  0.1796E-01  0.9593E-06  0.1200E+02  0.1200E+02
     -7.968  0.3332E+01  0.1753E+01  0.1225E+02  0.1213E+02
     -7.894  0.9907E+01  0.9951E+01  0.1299E+02  0.1286E+02
     -7.821  0.6934E+01  0.6194E+01  0.1350E+02  0.1333E+02
     -7.747  0.4714E-02  0.2156E+01  0.1350E+02  0.1350E+02
     -7.674  0.5269E+01  0.3414E+01  0.1389E+02  0.1375E+02
     -7.601  0.7797E+01  0.6960E+01  0.1446E+02  0.1426E+02
     -7.527  0.4238E+00  0.3248E+01  0.1450E+02  0.1450E+02
     -7.454  0.3984E-01  0.1050E-05  0.1450E+02  0.1450E+02
     -7.380  0.6999E+01  0.6811E+01  0.1502E+02  0.1500E+02
     -7.307  0.1165E+02  0.9957E+01  0.1587E+02  0.1573E+02
     -7.233  0.9488E+01  0.8939E+01  0.1657E+02  0.1639E+02
     -7.160  0.5776E+01  0.6253E+01  0.1700E+02  0.1687E+02
     -7.087  0.0000E+00  0.1683E+01  0.1700E+02  0.1700E+02
     -7.013  0.1267E-05  0.2080E-14  0.1700E+02  0.1700E+02
     -6.940  0.5339E+01  0.2043E+01  0.1739E+02  0.1715E+02
     -6.866  0.1129E+02  0.9620E+01  0.1823E+02  0.1786E+02
     -6.793  0.1651E+02  0.2143E+02  0.1946E+02  0.1943E+02
     -6.720  0.7907E+01  0.5973E+01  0.2004E+02  0.1987E+02
     -6.646  0.8518E+01  0.5793E+01  0.2067E+02  0.2031E+02
     -6.573  0.1645E+02  0.1777E+02  0.2190E+02  0.2162E+02
     -6.499  0.4543E+01  0.6108E+01  0.2223E+02  0.2208E+02
     -6.426  0.5368E+01  0.6620E+01  0.2263E+02  0.2257E+02
     -6.353  0.9861E+01  0.9666E+01  0.2335E+02  0.2328E+02
     -6.279  0.1106E+02  0.1052E+02  0.2416E+02  0.2406E+02
     -6.206  0.1259E+02  0.1098E+02  0.2509E+02  0.2488E+02
     -6.132  0.7659E+01  0.8399E+01  0.2567E+02  0.2552E+02
     -6.059  0.9050E+01  0.8528E+01  0.2634E+02  0.2615E+02
     -5.986  0.1537E+02  0.1332E+02  0.2747E+02  0.2713E+02
     -5.912  0.2280E+02  0.1745E+02  0.2916E+02  0.2843E+02
     -5.839  0.1569E+02  0.2218E+02  0.3037E+02  0.3007E+02
     -5.765  0.9348E+01  0.1122E+02  0.3107E+02  0.3089E+02
     -5.692  0.1439E+02  0.1003E+02  0.3214E+02  0.3163E+02
     -5.618  0.1318E+02  0.1765E+02  0.3312E+02  0.3294E+02
     -5.545  0.1082E+02  0.1160E+02  0.3391E+02  0.3379E+02
     -5.472  0.1077E+02  0.8777E+01  0.3471E+02  0.3444E+02
     -5.398  0.1296E+02  0.1459E+02  0.3568E+02  0.3552E+02
     -5.325  0.1342E+02  0.1027E+02  0.3667E+02  0.3627E+02
     -5.251  0.7473E+01  0.1124E+02  0.3723E+02  0.3710E+02
     -5.178  0.1086E+02  0.1169E+02  0.3803E+02  0.3796E+02
     -5.105  0.1027E+02  0.7661E+01  0.3879E+02  0.3854E+02
     -5.031  0.1768E+02  0.1727E+02  0.4009E+02  0.3981E+02
     -4.958  0.1211E+02  0.1383E+02  0.4098E+02  0.4084E+02
     -4.884  0.1132E+02  0.8859E+01  0.4181E+02  0.4151E+02
     -4.811  0.1274E+02  0.1288E+02  0.4276E+02  0.4246E+02
     -4.738  0.1234E+02  0.1424E+02  0.4367E+02  0.4351E+02
     -4.664  0.1081E+02  0.8239E+01  0.4447E+02  0.4412E+02
     -4.591  0.1748E+02  0.1711E+02  0.4577E+02  0.4539E+02
     -4.517  0.1371E+02  0.1708E+02  0.4678E+02  0.4666E+02
     -4.444  0.8852E+01  0.6612E+01  0.4744E+02  0.4716E+02
     -4.371  0.1415E+02  0.1315E+02  0.4849E+02  0.4813E+02
     -4.297  0.8099E+01  0.1167E+02  0.4911E+02  0.4899E+02
     -4.224  0.1111E+02  0.1057E+02  0.4993E+02  0.4976E+02
     -4.150  0.1316E+02  0.1091E+02  0.5090E+02  0.5057E+02
     -4.077  0.1103E+02  0.1379E+02  0.5171E+02  0.5159E+02
     -4.003  0.9241E+01  0.8702E+01  0.5239E+02  0.5223E+02
     -3.930  0.1301E+02  0.1061E+02  0.5334E+02  0.5300E+02
     -3.857  0.1104E+02  0.1415E+02  0.5416E+02  0.5405E+02
     -3.783  0.7935E+01  0.4626E+01  0.5475E+02  0.5439E+02
     -3.710  0.9905E+01  0.1302E+02  0.5548E+02  0.5535E+02
     -3.636  0.1341E+02  0.1439E+02  0.5647E+02  0.5641E+02
     -3.563  0.1472E+02  0.1235E+02  0.5755E+02  0.5733E+02
     -3.490  0.1393E+02  0.1431E+02  0.5857E+02  0.5839E+02
     -3.416  0.9618E+01  0.1042E+02  0.5928E+02  0.5919E+02
     -3.343  0.9762E+01  0.6741E+01  0.6000E+02  0.5970E+02
     -3.269  0.1123E+02  0.1096E+02  0.6083E+02  0.6053E+02
     -3.196  0.1694E+02  0.1540E+02  0.6208E+02  0.6166E+02
     -3.123  0.8653E+01  0.1255E+02  0.6273E+02  0.6260E+02
     -3.049  0.6743E+01  0.6364E+01  0.6323E+02  0.6308E+02
     -2.976  0.8537E+01  0.9202E+01  0.6385E+02  0.6376E+02
     -2.902  0.1132E+02  0.1094E+02  0.6468E+02  0.6456E+02
     -2.829  0.1435E+02  0.1105E+02  0.6574E+02  0.6538E+02
     -2.756  0.8107E+01  0.1041E+02  0.6634E+02  0.6615E+02
     -2.682  0.9254E+01  0.9992E+01  0.6703E+02  0.6688E+02
     -2.609  0.1116E+02  0.8624E+01  0.6785E+02  0.6752E+02
     -2.535  0.1113E+02  0.1298E+02  0.6868E+02  0.6849E+02
     -2.462  0.4653E+01  0.6538E+01  0.6903E+02  0.6897E+02
     -2.388  0.1143E+02  0.9019E+01  0.6987E+02  0.6963E+02
     -2.315  0.1287E+02  0.1085E+02  0.7082E+02  0.7044E+02
     -2.242  0.5060E+01  0.9846E+01  0.7121E+02  0.7117E+02
     -2.168  0.8575E+01  0.6582E+01  0.7184E+02  0.7165E+02
     -2.095  0.1557E+02  0.9672E+01  0.7298E+02  0.7236E+02
     -2.021  0.1359E+02  0.1999E+02  0.7400E+02  0.7384E+02
     -1.948  0.7642E+01  0.7882E+01  0.7457E+02  0.7446E+02
     -1.875  0.1028E+02  0.7725E+01  0.7532E+02  0.7503E+02
     -1.801  0.9763E+01  0.1201E+02  0.7605E+02  0.7591E+02
     -1.728  0.9604E+01  0.1100E+02  0.7676E+02  0.7672E+02
     -1.654  0.9828E+01  0.5169E+01  0.7748E+02  0.7710E+02
     -1.581  0.2461E+02  0.2256E+02  0.7931E+02  0.7877E+02
     -1.508  0.1496E+02  0.1958E+02  0.8042E+02  0.8021E+02
     -1.434  0.1980E+02  0.1242E+02  0.8187E+02  0.8113E+02
     -1.361  0.1386E+02  0.2059E+02  0.8291E+02  0.8268E+02
     -1.287  0.1594E+02  0.1433E+02  0.8409E+02  0.8375E+02
     -1.214  0.1823E+02  0.1579E+02  0.8542E+02  0.8492E+02
     -1.141  0.1334E+02  0.1763E+02  0.8642E+02  0.8623E+02
     -1.067  0.1360E+02  0.1339E+02  0.8742E+02  0.8721E+02
     -0.994  0.1619E+02  0.1207E+02  0.8861E+02  0.8810E+02
     -0.920  0.6776E+01  0.1268E+02  0.8913E+02  0.8903E+02
     -0.847  0.1171E+02  0.1142E+02  0.8999E+02  0.8987E+02
     -0.774  0.1769E+02  0.1487E+02  0.9129E+02  0.9097E+02
     -0.700  0.1488E+02  0.1649E+02  0.9238E+02  0.9220E+02
     -0.627  0.7638E+01  0.8574E+01  0.9295E+02  0.9284E+02
     -0.553  0.1681E+02  0.1334E+02  0.9418E+02  0.9382E+02
     -0.480  0.9554E+01  0.1098E+02  0.9489E+02  0.9464E+02
     -0.406  0.1408E+02  0.1313E+02  0.9595E+02  0.9561E+02
     -0.333  0.1358E+02  0.1436E+02  0.9696E+02  0.9667E+02
     -0.260  0.1276E+02  0.1456E+02  0.9791E+02  0.9776E+02
     -0.186  0.1360E+02  0.1219E+02  0.9891E+02  0.9865E+02
     -0.113  0.1237E+02  0.1130E+02  0.9984E+02  0.9950E+02
     -0.039  0.1435E+02  0.1617E+02  0.1009E+03  0.1007E+03
      0.034  0.1685E+02  0.1456E+02  0.1022E+03  0.1018E+03
      0.107  0.7415E+01  0.1174E+02  0.1027E+03  0.1027E+03
      0.181  0.8126E+01  0.5217E+01  0.1033E+03  0.1031E+03
      0.254  0.1393E+02  0.1307E+02  0.1043E+03  0.1040E+03
      0.328  0.1243E+02  0.1292E+02  0.1053E+03  0.1050E+03
      0.401  0.1351E+02  0.1371E+02  0.1063E+03  0.1060E+03
      0.474  0.1419E+02  0.1493E+02  0.1073E+03  0.1071E+03
      0.548  0.1957E+02  0.1585E+02  0.1088E+03  0.1083E+03
      0.621  0.1342E+02  0.1847E+02  0.1098E+03  0.1097E+03
      0.695  0.9465E+01  0.7126E+01  0.1105E+03  0.1102E+03
      0.768  0.1345E+02  0.1189E+02  0.1115E+03  0.1111E+03
      0.841  0.1565E+02  0.1875E+02  0.1126E+03  0.1124E+03
      0.915  0.1632E+02  0.1528E+02  0.1138E+03  0.1136E+03
      0.988  0.1145E+02  0.1295E+02  0.1147E+03  0.1145E+03
      1.062  0.8499E+01  0.8456E+01  0.1153E+03  0.1152E+03
      1.135  0.2315E+02  0.1778E+02  0.1170E+03  0.1165E+03
      1.209  0.1405E+02  0.1924E+02  0.1181E+03  0.1179E+03
      1.282  0.1113E+02  0.8024E+01  0.1189E+03  0.1185E+03
      1.355  0.1744E+02  0.2043E+02  0.1202E+03  0.1200E+03
      1.429  0.7584E+01  0.6731E+01  0.1208E+03  0.1205E+03
      1.502  0.1710E+02  0.1644E+02  0.1220E+03  0.1217E+03
      1.576  0.1511E+02  0.1525E+02  0.1231E+03  0.1229E+03
      1.649  0.1722E+02  0.1853E+02  0.1244E+03  0.1242E+03
      1.722  0.1306E+02  0.1083E+02  0.1254E+03  0.1251E+03
      1.796  0.2652E+02  0.2426E+02  0.1273E+03  0.1268E+03
      1.869  0.1606E+02  0.1994E+02  0.1285E+03  0.1283E+03
      1.943  0.2115E+02  0.1594E+02  0.1301E+03  0.1295E+03
      2.016  0.2075E+02  0.2543E+02  0.1317E+03  0.1314E+03
      2.089  0.1913E+02  0.1571E+02  0.1331E+03  0.1325E+03
      2.163  0.2535E+02  0.2517E+02  0.1349E+03  0.1344E+03
      2.236  0.2281E+02  0.2061E+02  0.1366E+03  0.1359E+03
      2.310  0.1589E+02  0.2183E+02  0.1378E+03  0.1376E+03
      2.383  0.2378E+02  0.2310E+02  0.1396E+03  0.1393E+03
      2.456  0.2095E+02  0.1962E+02  0.1412E+03  0.1407E+03
      2.530  0.2095E+02  0.2488E+02  0.1427E+03  0.1426E+03
      2.603  0.1356E+02  0.1269E+02  0.1437E+03  0.1435E+03
      2.677  0.2180E+02  0.2093E+02  0.1453E+03  0.1451E+03
      2.750  0.2052E+02  0.1585E+02  0.1468E+03  0.1462E+03
      2.824  0.2576E+02  0.2730E+02  0.1487E+03  0.1483E+03
      2.897  0.2743E+02  0.2639E+02  0.1508E+03  0.1502E+03
      2.970  0.1899E+02  0.2135E+02  0.1522E+03  0.1518E+03
      3.044  0.2374E+02  0.2486E+02  0.1539E+03  0.1536E+03
      3.117  0.2367E+02  0.2156E+02  0.1557E+03  0.1552E+03
      3.191  0.1291E+02  0.1487E+02  0.1567E+03  0.1564E+03
      3.264  0.2576E+02  0.2465E+02  0.1586E+03  0.1582E+03
      3.337  0.2607E+02  0.2692E+02  0.1605E+03  0.1602E+03
      3.411  0.1354E+02  0.1503E+02  0.1615E+03  0.1613E+03
      3.484  0.2227E+02  0.1692E+02  0.1631E+03  0.1625E+03
      3.558  0.1851E+02  0.2083E+02  0.1645E+03  0.1641E+03
      3.631  0.1334E+02  0.1578E+02  0.1655E+03  0.1653E+03
      3.704  0.1978E+02  0.1872E+02  0.1670E+03  0.1667E+03
      3.778  0.1492E+02  0.1448E+02  0.1681E+03  0.1677E+03
      3.851  0.1692E+02  0.1699E+02  0.1694E+03  0.1690E+03
      3.925  0.1256E+02  0.1247E+02  0.1703E+03  0.1699E+03
      3.998  0.1415E+02  0.1504E+02  0.1713E+03  0.1710E+03
      4.071  0.2325E+02  0.2011E+02  0.1730E+03  0.1725E+03
      4.145  0.1111E+02  0.1663E+02  0.1739E+03  0.1737E+03
      4.218  0.6057E+01  0.5860E+01  0.1743E+03  0.1742E+03
      4.292  0.1594E+02  0.1503E+02  0.1755E+03  0.1753E+03
      4.365  0.1519E+02  0.1443E+02  0.1766E+03  0.1764E+03
      4.439  0.1636E+02  0.1402E+02  0.1778E+03  0.1774E+03
      4.512  0.1031E+02  0.1383E+02  0.1786E+03  0.1784E+03
      4.585  0.8887E+01  0.6778E+01  0.1792E+03  0.1789E+03
      4.659  0.1208E+02  0.1318E+02  0.1801E+03  0.1799E+03
      4.732  0.1311E+02  0.1374E+02  0.1811E+03  0.1809E+03
      4.806  0.1118E+02  0.1218E+02  0.1819E+03  0.1818E+03
      4.879  0.1287E+02  0.8704E+01  0.1828E+03  0.1825E+03
      4.952  0.1330E+02  0.1318E+02  0.1838E+03  0.1835E+03
      5.026  0.9088E+01  0.1196E+02  0.1845E+03  0.1843E+03
      5.099  0.1154E+02  0.1057E+02  0.1854E+03  0.1851E+03
      5.173  0.1413E+02  0.9962E+01  0.1864E+03  0.1859E+03
      5.246  0.1789E+02  0.1916E+02  0.1877E+03  0.1873E+03
      5.319  0.1196E+02  0.1261E+02  0.1886E+03  0.1882E+03
      5.393  0.1651E+02  0.1707E+02  0.1898E+03  0.1895E+03
      5.466  0.1952E+02  0.1770E+02  0.1913E+03  0.1908E+03
      5.540  0.1070E+02  0.1459E+02  0.1921E+03  0.1919E+03
      5.613  0.1390E+02  0.9696E+01  0.1931E+03  0.1926E+03
      5.686  0.2043E+02  0.1632E+02  0.1946E+03  0.1938E+03
      5.760  0.1763E+02  0.2143E+02  0.1959E+03  0.1954E+03
      5.833  0.1558E+02  0.1715E+02  0.1971E+03  0.1967E+03
      5.907  0.1388E+02  0.1157E+02  0.1981E+03  0.1975E+03
      5.980  0.2406E+02  0.2615E+02  0.1999E+03  0.1994E+03
      6.054  0.2056E+02  0.2028E+02  0.2014E+03  0.2009E+03
      6.127  0.2064E+02  0.2075E+02  0.2029E+03  0.2025E+03
      6.200  0.1806E+02  0.1813E+02  0.2043E+03  0.2038E+03
      6.274  0.2439E+02  0.2161E+02  0.2061E+03  0.2055E+03
      6.347  0.2207E+02  0.2184E+02  0.2077E+03  0.2071E+03
      6.421  0.1438E+02  0.1957E+02  0.2088E+03  0.2085E+03
      6.494  0.2333E+02  0.1779E+02  0.2105E+03  0.2098E+03
      6.567  0.2690E+02  0.2645E+02  0.2125E+03  0.2118E+03
      6.641  0.1694E+02  0.2185E+02  0.2138E+03  0.2134E+03
      6.714  0.2455E+02  0.2247E+02  0.2156E+03  0.2151E+03
      6.788  0.1902E+02  0.2059E+02  0.2170E+03  0.2166E+03
      6.861  0.2025E+02  0.2075E+02  0.2185E+03  0.2181E+03
      6.934  0.2072E+02  0.2186E+02  0.2200E+03  0.2197E+03
      7.008  0.2351E+02  0.1834E+02  0.2218E+03  0.2211E+03
      7.081  0.1390E+02  0.1838E+02  0.2228E+03  0.2224E+03
      7.155  0.2946E+02  0.2574E+02  0.2250E+03  0.2243E+03
      7.228  0.2450E+02  0.2476E+02  0.2268E+03  0.2262E+03
      7.301  0.2024E+02  0.2716E+02  0.2283E+03  0.2282E+03
      7.375  0.1815E+02  0.1364E+02  0.2296E+03  0.2292E+03
      7.448  0.2086E+02  0.2377E+02  0.2312E+03  0.2309E+03
      7.522  0.4530E+01  0.6101E+01  0.2315E+03  0.2314E+03
      7.595  0.5745E+01  0.6286E+01  0.2319E+03  0.2319E+03
      7.669  0.1119E+01  0.2037E+01  0.2320E+03  0.2320E+03
      7.742  0.0000E+00  0.0000E+00  0.2320E+03  0.2320E+03
      7.815  0.0000E+00  0.0000E+00  0.2320E+03  0.2320E+03
      7.889  0.0000E+00  0.0000E+00  0.2320E+03  0.2320E+03
      7.962  0.0000E+00  0.0000E+00  0.2320E+03  0.2320E+03
      8.036  0.0000E+00  0.0000E+00  0.2320E+03  0.2320E+03
      8.109  0.0000E+00  0.0000E+00  0.2320E+03  0.2320E+03
      8.182  0.0000E+00  0.0000E+00  0.2320E+03  0.2320E+03
      8.256  0.0000E+00  0.0000E+00  0.2320E+03  0.2320E+03
      8.329  0.0000E+00  0.0000E+00  0.2320E+03  0.2320E+03
      8.403  0.0000E+00  0.0000E+00  0.2320E+03  0.2320E+03
      8.476  0.0000E+00  0.0000E+00  0.2320E+03  0.2320E+03
      8.549  0.0000E+00  0.0000E+00  0.2320E+03  0.2320E+03
      8.623  0.0000E+00  0.0000E+00  0.2320E+03  0.2320E+03
