<?xml version="1.0" encoding="ISO-8859-1"?>
<modeling>
 <generator>
  <i name="program" type="string">vasp </i>
  <i name="version" type="string">6.4.3  </i>
  <i name="subversion" type="string">19Mar24 (build Oct 22 2024 11:23:12) complex                          parallel </i>
  <i name="platform" type="string">LinuxIFC </i>
  <i name="date" type="string">2025 06 04 </i>
  <i name="time" type="string">00:17:56 </i>
 </generator>
 <incar>
  <i type="string" name="SYSTEM">Si and Ge interface calculation</i>
  <i type="int" name="ISTART">     0</i>
  <i type="logical" name="ADDGRID"> T  </i>
  <i type="int" name="ISPIN">     2</i>
  <i name="AMIX">      0.60000000</i>
  <i type="int" name="ICHARG">     2</i>
  <i type="int" name="NELM">   100</i>
  <i name="EDIFF">      0.00000010</i>
  <i name="ENCUT">    700.00000000</i>
  <i name="ENAUG">    900.00000000</i>
  <i type="int" name="NBANDS">   116</i>
  <i name="NUPDOWN">      1.00000000</i>
  <i name="NELECT">    192.00000000</i>
  <i type="string" name="LREAL">AUTO</i>
  <i type="int" name="ISMEAR">     0</i>
  <i name="SIGMA">      0.01000000</i>
  <i type="int" name="LMAXMIX">     6</i>
  <i type="logical" name="LWAVE"> F  </i>
  <i type="logical" name="LVTOT"> F  </i>
  <i type="logical" name="LVHAR"> T  </i>
  <i type="logical" name="LASPH"> T  </i>
  <i type="logical" name="LMIXTAU"> T  </i>
 </incar>
 <primitive_cell>
  <structure name="primitive_cell" >
   <crystal>
    <varray name="basis" >
     <v>      -1.26512271      -3.79536750      -0.00000003 </v>
     <v>       0.00000000       0.00000000       9.42966843 </v>
     <v>     -11.38610392       3.79536794      -0.00000003 </v>
    </varray>
    <i name="volume">    452.77547701 </i>
    <varray name="rec_basis" >
     <v>      -0.07904373      -0.23713118       0.00000000 </v>
     <v>      -0.00000000      -0.00000000       0.10604827 </v>
     <v>      -0.07904372       0.02634791       0.00000000 </v>
    </varray>
   </crystal>
   <varray name="positions" >
    <v>       0.04776854       0.99999999       0.02653819 </v>
    <v>       0.54776872       0.10000004       0.30431594 </v>
    <v>       0.04776882       0.20000003       0.58209373 </v>
    <v>       0.54776865       0.05000001       0.91542703 </v>
    <v>       0.04776874       0.15000003       0.19320486 </v>
    <v>       0.54776895       0.25000008       0.47098267 </v>
    <v>       0.98291644       0.25000005       0.32763890 </v>
    <v>       0.48291649       0.55000007       0.16097222 </v>
    <v>       0.98291635       0.85000002       0.99430561 </v>
    <v>       0.98291654       0.25000006       0.99430552 </v>
    <v>       0.48291649       0.55000007       0.82763897 </v>
    <v>       0.98291640       0.85000002       0.66097231 </v>
    <v>       0.98291672       0.25000006       0.66097214 </v>
    <v>       0.48291650       0.55000007       0.49430558 </v>
    <v>       0.98291655       0.85000002       0.32763891 </v>
    <v>       0.98291659       0.40000004       0.82763887 </v>
    <v>       0.48291636       0.69999998       0.66097223 </v>
    <v>       0.98291631       1.00000000       0.49430566 </v>
    <v>       0.98291643       0.40000003       0.16097228 </v>
    <v>       0.48291637       0.69999998       0.99430560 </v>
    <v>       0.98291623       1.00000000       0.82763899 </v>
    <v>       0.98291658       0.40000003       0.49430563 </v>
    <v>       0.48291644       0.69999998       0.32763890 </v>
    <v>       0.98291618       0.99999999       0.16097229 </v>
   </varray>
  </structure>
  <varray name="primitive_index" >
   <v type="int" >        1 </v>
   <v type="int" >        5 </v>
   <v type="int" >        3 </v>
   <v type="int" >       10 </v>
   <v type="int" >       11 </v>
   <v type="int" >        9 </v>
   <v type="int" >       37 </v>
   <v type="int" >       14 </v>
   <v type="int" >       15 </v>
   <v type="int" >       16 </v>
   <v type="int" >       35 </v>
   <v type="int" >       36 </v>
   <v type="int" >       31 </v>
   <v type="int" >       32 </v>
   <v type="int" >       33 </v>
   <v type="int" >       22 </v>
   <v type="int" >       44 </v>
   <v type="int" >       24 </v>
   <v type="int" >       46 </v>
   <v type="int" >       26 </v>
   <v type="int" >       27 </v>
   <v type="int" >       28 </v>
   <v type="int" >       41 </v>
   <v type="int" >       42 </v>
  </varray>
 </primitive_cell>
 <kpoints>
  <generation param="Gamma">
   <v type="int" name="divisions">       4        4        3 </v>
   <v name="usershift">      0.00000000       0.00000000       0.00000000 </v>
   <v name="genvec1">      0.25000000       0.00000000       0.00000000 </v>
   <v name="genvec2">      0.00000000       0.25000000       0.00000000 </v>
   <v name="genvec3">      0.00000000       0.00000000       0.33333333 </v>
   <v name="shift">      0.00000000       0.00000000       0.00000000 </v>
  </generation>
  <varray name="kpointlist" >
   <v>       0.00000000       0.00000000       0.00000000 </v>
   <v>       0.25000000       0.00000000       0.00000000 </v>
   <v>       0.00000000       0.25000000       0.00000000 </v>
   <v>       0.50000000       0.00000000       0.00000000 </v>
   <v>       0.00000000       0.50000000       0.00000000 </v>
   <v>       0.25000000       0.25000000       0.00000000 </v>
   <v>       0.50000000       0.25000000       0.00000000 </v>
   <v>       0.25000000       0.50000000       0.00000000 </v>
   <v>      -0.25000000       0.25000000       0.00000000 </v>
   <v>       0.50000000       0.50000000       0.00000000 </v>
   <v>       0.00000000       0.00000000       0.33333333 </v>
   <v>       0.25000000       0.00000000       0.33333333 </v>
   <v>      -0.25000000      -0.00000000       0.33333333 </v>
   <v>       0.00000000       0.25000000      -0.33333333 </v>
   <v>       0.00000000      -0.25000000      -0.33333333 </v>
   <v>       0.50000000       0.00000000       0.33333333 </v>
   <v>       0.00000000       0.50000000      -0.33333333 </v>
   <v>       0.25000000       0.25000000       0.33333333 </v>
   <v>      -0.25000000      -0.25000000       0.33333333 </v>
   <v>       0.50000000       0.25000000       0.33333333 </v>
   <v>       0.50000000      -0.25000000       0.33333333 </v>
   <v>       0.25000000       0.50000000      -0.33333333 </v>
   <v>      -0.25000000       0.50000000      -0.33333333 </v>
   <v>      -0.25000000       0.25000000       0.33333333 </v>
   <v>       0.25000000      -0.25000000       0.33333333 </v>
   <v>       0.50000000       0.50000000       0.33333333 </v>
  </varray>
  <varray name="weights" >
   <v>       0.02083333 </v>
   <v>       0.04166667 </v>
   <v>       0.04166667 </v>
   <v>       0.02083333 </v>
   <v>       0.02083333 </v>
   <v>       0.04166667 </v>
   <v>       0.04166667 </v>
   <v>       0.04166667 </v>
   <v>       0.04166667 </v>
   <v>       0.02083333 </v>
   <v>       0.04166667 </v>
   <v>       0.04166667 </v>
   <v>       0.04166667 </v>
   <v>       0.04166667 </v>
   <v>       0.04166667 </v>
   <v>       0.04166667 </v>
   <v>       0.04166667 </v>
   <v>       0.04166667 </v>
   <v>       0.04166667 </v>
   <v>       0.04166667 </v>
   <v>       0.04166667 </v>
   <v>       0.04166667 </v>
   <v>       0.04166667 </v>
   <v>       0.04166667 </v>
   <v>       0.04166667 </v>
   <v>       0.04166667 </v>
  </varray>
 </kpoints>
 <parameters>
  <separator name="general" >
   <i type="string" name="SYSTEM">Si and Ge interface calculation</i>
   <i type="logical" name="LCOMPAT"> F  </i>
  </separator>
  <separator name="electronic" >
   <i type="string" name="PREC">normal</i>
   <i name="ENMAX">    700.00000000</i>
   <i name="ENAUG">    900.00000000</i>
   <i name="EDIFF">      0.00000010</i>
   <i type="int" name="IALGO">    38</i>
   <i type="int" name="IWAVPR">    10</i>
   <i type="int" name="NBANDS">   116</i>
   <i type="int" name="NBANDSLOW">    -1</i>
   <i type="int" name="NBANDSHIGH">    -1</i>
   <i name="NELECT">    192.00000000</i>
   <i type="int" name="TURBO">     0</i>
   <i type="int" name="IRESTART">     0</i>
   <i type="int" name="NREBOOT">     0</i>
   <i type="int" name="NMIN">     0</i>
   <i name="EREF">      0.00000000</i>
   <separator name="electronic smearing" >
    <i type="int" name="ISMEAR">     0</i>
    <i name="SIGMA">      0.01000000</i>
    <i name="KSPACING">      0.50000000</i>
    <i type="logical" name="KGAMMA"> T  </i>
    <i type="logical" name="KBLOWUP"> T  </i>
   </separator>
   <separator name="electronic projectors" >
    <i type="logical" name="LREAL"> T  </i>
    <v name="ROPT">     -0.00050000</v>
    <i type="int" name="LMAXPAW">  -100</i>
    <i type="int" name="LMAXMIX">     6</i>
    <i type="logical" name="NLSPLINE"> F  </i>
   </separator>
   <separator name="electronic startup" >
    <i type="int" name="ISTART">     0</i>
    <i type="int" name="ICHARG">     2</i>
    <i type="int" name="INIWAV">     1</i>
   </separator>
   <separator name="electronic spin" >
    <i type="int" name="ISPIN">     2</i>
    <i type="logical" name="LNONCOLLINEAR"> F  </i>
    <v name="MAGMOM">      0.02083333      0.02083333      0.02083333      0.02083333      0.02083333      0.02083333      0.02083333      0.02083333      0.02083333      0.02083333      0.02083333      0.02083333      0.02083333      0.02083333      0.02083333      0.02083333      0.02083333      0.02083333      0.02083333      0.02083333
      0.02083333      0.02083333      0.02083333      0.02083333      0.02083333      0.02083333      0.02083333      0.02083333      0.02083333      0.02083333      0.02083333      0.02083333      0.02083333      0.02083333      0.02083333      0.02083333      0.02083333      0.02083333      0.02083333      0.02083333
      0.02083333      0.02083333      0.02083333      0.02083333      0.02083333      0.02083333      0.02083333      0.02083333</v>
    <i name="NUPDOWN">      1.00000000</i>
    <i type="logical" name="LSORBIT"> F  </i>
    <v name="SAXIS">      0.00000000      0.00000000      1.00000000</v>
    <i type="logical" name="LSPIRAL"> F  </i>
    <v name="QSPIRAL">      0.00000000      0.00000000      0.00000000</v>
    <i type="logical" name="LZEROZ"> F  </i>
   </separator>
   <separator name="electronic exchange-correlation" >
    <i type="logical" name="LASPH"> T  </i>
   </separator>
   <separator name="electronic convergence" >
    <i type="int" name="NELM">   100</i>
    <i type="int" name="NELMDL">    -5</i>
    <i type="int" name="NELMIN">     2</i>
    <i name="ENINI">    700.00000000</i>
    <separator name="electronic convergence detail" >
     <i type="logical" name="LDIAG"> T  </i>
     <i type="logical" name="LSUBROT"> F  </i>
     <i name="WEIMIN">      0.00000000</i>
     <i name="EBREAK">      0.00000000</i>
     <i name="DEPER">      0.30000000</i>
     <i type="int" name="NRMM">     4</i>
     <i name="TIME">      0.40000000</i>
    </separator>
   </separator>
   <separator name="electronic mixer" >
    <i name="AMIX">      0.60000000</i>
    <i name="BMIX">      1.00000000</i>
    <i name="AMIN">      0.10000000</i>
    <i name="AMIX_MAG">      2.40000000</i>
    <i name="BMIX_MAG">      1.00000000</i>
    <separator name="electronic mixer details" >
     <i type="int" name="IMIX">     4</i>
     <i type="logical" name="MIXFIRST"> F  </i>
     <i type="int" name="MAXMIX">   -45</i>
     <i name="WC">    100.00000000</i>
     <i type="int" name="INIMIX">     1</i>
     <i type="int" name="MIXPRE">     1</i>
     <i type="int" name="MREMOVE">     5</i>
    </separator>
   </separator>
   <separator name="electronic dipolcorrection" >
    <i type="logical" name="LDIPOL"> F  </i>
    <i type="logical" name="LMONO"> F  </i>
    <i type="int" name="IDIPOL">     0</i>
    <i name="EPSILON">      1.00000000</i>
    <v name="DIPOL">   -100.00000000   -100.00000000   -100.00000000</v>
    <i name="EFIELD">      0.00000000</i>
    <i type="logical" name="LVACPOTAV"> F  </i>
   </separator>
  </separator>
  <separator name="grids" >
   <i type="int" name="NGX">    84</i>
   <i type="int" name="NGY">    84</i>
   <i type="int" name="NGZ">    64</i>
   <i type="int" name="NGXF">   168</i>
   <i type="int" name="NGYF">   168</i>
   <i type="int" name="NGZF">   128</i>
   <i type="logical" name="ADDGRID"> T  </i>
  </separator>
  <separator name="ionic" >
   <i type="int" name="NSW">     0</i>
   <i type="int" name="IBRION">    -1</i>
   <i type="int" name="MDALGO">     0</i>
   <i type="int" name="ISIF">     2</i>
   <i name="PSTRESS">      0.00000000</i>
   <i name="EDIFFG">      0.00000100</i>
   <i type="int" name="NFREE">     0</i>
   <i name="POTIM">      0.50000000</i>
   <i name="SMASS">     -3.00000000</i>
   <i name="SCALEE">      1.00000000</i>
  </separator>
  <separator name="ionic md" >
   <i name="TEBEG">      0.00010000</i>
   <i name="TEEND">      0.00010000</i>
   <i type="int" name="NBLOCK">     1</i>
   <i type="int" name="KBLOCK">     1</i>
   <i type="int" name="NPACO">   256</i>
   <i name="APACO">     10.00000000</i>
  </separator>
  <separator name="symmetry" >
   <i type="int" name="ISYM">     2</i>
   <i name="SYMPREC">      0.00001000</i>
  </separator>
  <separator name="dos" >
   <i type="int" name="LORBIT">     0</i>
   <v name="RWIGS">     -1.00000000</v>
   <i type="int" name="NEDOS">   301</i>
   <i name="EMIN">     10.00000000</i>
   <i name="EMAX">    -10.00000000</i>
   <i name="EFERMI">      0.00000000</i>
  </separator>
  <separator name="writing" >
   <i type="int" name="NWRITE">     2</i>
   <i type="logical" name="LWAVE"> F  </i>
   <i type="logical" name="LDOWNSAMPLE"> F  </i>
   <i type="logical" name="LCHARG"> T  </i>
   <i type="logical" name="LPARD"> F  </i>
   <i type="logical" name="LVTOT"> F  </i>
   <i type="logical" name="LVHAR"> T  </i>
   <i type="logical" name="LELF"> F  </i>
   <i type="logical" name="LOPTICS"> F  </i>
   <v name="STM">      0.00000000      0.00000000      0.00000000      0.00000000      0.00000000      0.00000000      0.00000000</v>
  </separator>
  <separator name="performance" >
   <i type="int" name="NPAR">     4</i>
   <i type="int" name="NSIM">     4</i>
   <i type="int" name="NBLK">    -1</i>
   <i type="logical" name="LPLANE"> T  </i>
   <i type="logical" name="LSCALAPACK"> T  </i>
   <i type="logical" name="LSCAAWARE"> F  </i>
   <i type="logical" name="LSCALU"> F  </i>
   <i type="logical" name="LASYNC"> F  </i>
   <i type="logical" name="LORBITALREAL"> F  </i>
  </separator>
  <separator name="miscellaneous" >
   <i type="int" name="IDIOT">     3</i>
   <i type="int" name="PHON_NSTRUCT">    -1</i>
   <i type="logical" name="LMUSIC"> F  </i>
   <v name="POMASS">     72.61000000</v>
   <v name="DARWINR">      0.00000000</v>
   <v name="DARWINV">      1.00000000</v>
   <i type="logical" name="LCORR"> T  </i>
  </separator>
  <i type="logical" name="GGA_COMPAT"> T  </i>
  <i type="logical" name="LBERRY"> F  </i>
  <i type="int" name="ICORELEVEL">     0</i>
  <i type="logical" name="LDAU"> F  </i>
  <i type="int" name="I_CONSTRAINED_M">     0</i>
  <separator name="electronic exchange-correlation" >
   <i type="string" name="GGA    ">PE</i>
   <i type="string" name="XC_C">1</i>
   <i type="int" name="VOSKOWN">     0</i>
   <i type="logical" name="LHFCALC"> F  </i>
   <i type="string" name="PRECFOCK"></i>
   <i type="logical" name="LSYMGRAD"> F  </i>
   <i type="logical" name="LHFONE"> F  </i>
   <i type="logical" name="LRHFCALC"> F  </i>
   <i type="logical" name="LTHOMAS"> F  </i>
   <i type="logical" name="LMODELHF"> F  </i>
   <i type="logical" name="LFOCKACE"> F  </i>
   <i name="ENCUT4O">     -1.00000000</i>
   <i type="int" name="EXXOEP">     0</i>
   <i type="int" name="FOURORBIT">     0</i>
   <i name="AEXX">      0.00000000</i>
   <i name="HFALPHA">      0.00000000</i>
   <i name="MCALPHA">      0.00000000</i>
   <i name="ALDAX">      1.00000000</i>
   <i name="AGGAX">      1.00000000</i>
   <i name="AMGGAX">      1.00000000</i>
   <i name="ALDAC">      1.00000000</i>
   <i name="AGGAC">      1.00000000</i>
   <i name="AMGGAC">      1.00000000</i>
   <i type="int" name="NKREDX">     1</i>
   <i type="int" name="NKREDY">     1</i>
   <i type="int" name="NKREDZ">     1</i>
   <i type="logical" name="SHIFTRED"> F  </i>
   <i type="logical" name="ODDONLY"> F  </i>
   <i type="logical" name="EVENONLY"> F  </i>
   <i type="int" name="LMAXFOCK">     0</i>
   <i type="int" name="NMAXFOCKAE">     0</i>
   <i type="logical" name="LFOCKAEDFT"> F  </i>
   <i name="HFSCREEN">      0.00000000</i>
   <i name="HFSCREENC">      0.00000000</i>
   <i type="int" name="NBANDSGWLOW">     0</i>
  </separator>
  <separator name="vdW DFT" >
   <i type="logical" name="LUSE_VDW"> F  </i>
   <i type="int" name="IVDW_NL">    -1</i>
   <i type="logical" name="LSPIN_VDW"> F  </i>
   <i name="ZAB_VDW">     -0.84910000</i>
   <i name="GAMMA_VDW">      1.39626340</i>
   <i name="ALPHA_VDW">      0.00000000</i>
   <i name="PARAM1">      0.12340000</i>
   <i name="PARAM2">      1.00000000</i>
   <i name="BPARAM">      6.30000000</i>
   <i name="CPARAM">      0.00930000</i>
  </separator>
  <separator name="model GW" >
   <i type="int" name="MODEL_GW">     0</i>
   <i name="MODEL_EPS0">     11.31938693</i>
   <i name="MODEL_ALPHA">      1.00000000</i>
  </separator>
  <separator name="linear response parameters" >
   <i type="logical" name="LEPSILON"> F  </i>
   <i type="logical" name="LRPA"> F  </i>
   <i type="logical" name="LNABLA"> F  </i>
   <i type="logical" name="LVEL"> F  </i>
   <i name="CSHIFT">      0.10000000</i>
   <i name="OMEGAMAX">     -1.00000000</i>
   <i name="DEG_THRESHOLD">      0.00200000</i>
   <i name="RTIME">     -0.10000000</i>
   <i name="WPLASMAI">      0.00000000</i>
   <v name="DFIELD">      0.00000000      0.00000000      0.00000000</v>
   <v name="WPLASMA">      0.00000000      0.00000000      0.00000000      0.00000000      0.00000000      0.00000000      0.00000000      0.00000000      0.00000000</v>
  </separator>
  <separator name="orbital magnetization" >
   <i type="logical" name="NUCIND"> F  </i>
   <v name="MAGPOS">      0.00000000      0.00000000      0.00000000</v>
   <i type="logical" name="LNICSALL"> T  </i>
   <i type="logical" name="ORBITALMAG"> F  </i>
   <i type="logical" name="LMAGBLOCH"> F  </i>
   <i type="logical" name="LCHIMAG"> F  </i>
   <i type="logical" name="LGAUGE"> T  </i>
   <i type="int" name="MAGATOM">     0</i>
   <v name="MAGDIPOL">      0.00000000      0.00000000      0.00000000</v>
   <v name="AVECCONST">      0.00000000      0.00000000      0.00000000</v>
  </separator>
  <separator name="response functions" >
   <i type="logical" name="LALL_IN_ONE"> F  </i>
   <i type="int" name="IALL_IN_ONE">    -1</i>
   <i type="int" name="NBANDS_WAVE">    -1</i>
   <i type="logical" name="LFINITE_TEMPERATURE"> F  </i>
   <i type="logical" name="LADDER"> F  </i>
   <i type="logical" name="LRPAFORCE"> F  </i>
   <i type="logical" name="LFXC"> F  </i>
   <i type="logical" name="LHARTREE"> T  </i>
   <i type="int" name="IBSE">     0</i>
   <v type="int" name="KPOINT">    -1     0     0     0</v>
   <i type="logical" name="LTCTC"> F  </i>
   <i type="logical" name="LTCTE"> F  </i>
   <i type="logical" name="LTETE"> F  </i>
   <i type="logical" name="LTRIPLET"> F  </i>
   <i type="logical" name="LFXCEPS"> F  </i>
   <i type="logical" name="LFXHEG"> F  </i>
   <i type="int" name="NATURALO">     2</i>
   <i type="logical" name="LHOLEGF"> F  </i>
   <i type="logical" name="L2ORDER"> F  </i>
   <i type="logical" name="LDMP1"> F  </i>
   <i type="logical" name="LMP2LT"> F  </i>
   <i type="logical" name="LSMP2LT"> F  </i>
   <i type="logical" name="LGWLF"> F  </i>
   <i name="ENCUTGW">     -1.60000002</i>
   <i name="ENCUTGWSOFT">     -1.60000002</i>
   <i name="ENCUTLF">     -1.00000000</i>
   <i type="logical" name="ESF_SPLINES"> F  </i>
   <i name="ESF_CONV">      0.01000000</i>
   <i type="int" name="ESF_NINTER">    15</i>
   <i type="int" name="LMAXMP2">    -1</i>
   <i name="SCISSOR">      0.00000000</i>
   <i type="int" name="NOMEGA">     0</i>
   <i type="int" name="NOMEGAR">     0</i>
   <i type="int" name="NBANDSGW">    -1</i>
   <i type="int" name="NBANDSO">    -1</i>
   <i type="int" name="NBANDSV">    -1</i>
   <i type="int" name="NELMGW">     1</i>
   <i type="int" name="NELMHF">     1</i>
   <i type="int" name="DIM">     3</i>
   <i type="int" name="IESPILON">     4</i>
   <i type="int" name="ANTIRES">     0</i>
   <i name="OMEGAMAX">    -30.00000000</i>
   <i name="OMEGAMIN">    -30.00000000</i>
   <i name="OMEGATL">   -200.00000000</i>
   <i type="int" name="OMEGAGRID">     0</i>
   <i name="CSHIFT">     -0.10000000</i>
   <i type="logical" name="LSELFENERGY"> F  </i>
   <i type="logical" name="LSPECTRAL"> F  </i>
   <i type="logical" name="LSPECTRALGW"> F  </i>
   <i type="logical" name="LSINGLES"> F  </i>
   <i type="logical" name="LFERMIGW"> F  </i>
   <i type="logical" name="ODDONLYGW"> F  </i>
   <i type="logical" name="EVENONLYGW"> F  </i>
   <i type="int" name="NKREDLFX">     1</i>
   <i type="int" name="NKREDLFY">     1</i>
   <i type="int" name="NKREDLFZ">     1</i>
   <i type="int" name="MAXMEM">  2800</i>
   <i type="int" name="TELESCOPE">     0</i>
   <i type="int" name="NTAUPAR">    -1</i>
   <i type="int" name="NOMEGAPAR">    -1</i>
   <i name="DAMP_NEWTON">      0.80000001</i>
   <i name="LAMBDA">      1.00000000</i>
  </separator>
  <separator name="External order field" >
   <i name="OFIELD_KAPPA">      0.00000000</i>
   <v name="OFIELD_K">      0.00000000      0.00000000      0.00000000</v>
   <i name="OFIELD_Q6_NEAR">      0.00000000</i>
   <i name="OFIELD_Q6_FAR">      0.00000000</i>
   <i name="OFIELD_A">      0.00000000</i>
  </separator>
  <separator name="optional k-points parameters" >
   <i type="int" name="KPOINTS_OPT_MODE">     1</i>
   <i type="logical" name="LKPOINTS_OPT"> F  </i>
  </separator>
 </parameters>
 <atominfo>
  <atoms>      48 </atoms>
  <types>       1 </types>
  <array name="atoms" >
   <dimension dim="1">ion</dimension>
   <field type="string">element</field>
   <field type="int">atomtype</field>
   <set>
    <rc><c>Ge</c><c>   1</c></rc>
    <rc><c>Ge</c><c>   1</c></rc>
    <rc><c>Ge</c><c>   1</c></rc>
    <rc><c>Ge</c><c>   1</c></rc>
    <rc><c>Ge</c><c>   1</c></rc>
    <rc><c>Ge</c><c>   1</c></rc>
    <rc><c>Ge</c><c>   1</c></rc>
    <rc><c>Ge</c><c>   1</c></rc>
    <rc><c>Ge</c><c>   1</c></rc>
    <rc><c>Ge</c><c>   1</c></rc>
    <rc><c>Ge</c><c>   1</c></rc>
    <rc><c>Ge</c><c>   1</c></rc>
    <rc><c>Ge</c><c>   1</c></rc>
    <rc><c>Ge</c><c>   1</c></rc>
    <rc><c>Ge</c><c>   1</c></rc>
    <rc><c>Ge</c><c>   1</c></rc>
    <rc><c>Ge</c><c>   1</c></rc>
    <rc><c>Ge</c><c>   1</c></rc>
    <rc><c>Ge</c><c>   1</c></rc>
    <rc><c>Ge</c><c>   1</c></rc>
    <rc><c>Ge</c><c>   1</c></rc>
    <rc><c>Ge</c><c>   1</c></rc>
    <rc><c>Ge</c><c>   1</c></rc>
    <rc><c>Ge</c><c>   1</c></rc>
    <rc><c>Ge</c><c>   1</c></rc>
    <rc><c>Ge</c><c>   1</c></rc>
    <rc><c>Ge</c><c>   1</c></rc>
    <rc><c>Ge</c><c>   1</c></rc>
    <rc><c>Ge</c><c>   1</c></rc>
    <rc><c>Ge</c><c>   1</c></rc>
    <rc><c>Ge</c><c>   1</c></rc>
    <rc><c>Ge</c><c>   1</c></rc>
    <rc><c>Ge</c><c>   1</c></rc>
    <rc><c>Ge</c><c>   1</c></rc>
    <rc><c>Ge</c><c>   1</c></rc>
    <rc><c>Ge</c><c>   1</c></rc>
    <rc><c>Ge</c><c>   1</c></rc>
    <rc><c>Ge</c><c>   1</c></rc>
    <rc><c>Ge</c><c>   1</c></rc>
    <rc><c>Ge</c><c>   1</c></rc>
    <rc><c>Ge</c><c>   1</c></rc>
    <rc><c>Ge</c><c>   1</c></rc>
    <rc><c>Ge</c><c>   1</c></rc>
    <rc><c>Ge</c><c>   1</c></rc>
    <rc><c>Ge</c><c>   1</c></rc>
    <rc><c>Ge</c><c>   1</c></rc>
    <rc><c>Ge</c><c>   1</c></rc>
    <rc><c>Ge</c><c>   1</c></rc>
   </set>
  </array>
  <array name="atomtypes" >
   <dimension dim="1">type</dimension>
   <field type="int">atomspertype</field>
   <field type="string">element</field>
   <field>mass</field>
   <field>valence</field>
   <field type="string">pseudopotential</field>
   <set>
    <rc><c>  48</c><c>Ge</c><c>     72.61000000</c><c>      4.00000000</c><c>  PAW_PBE Ge 05Jan2001                  </c></rc>
   </set>
  </array>
 </atominfo>
 <structure name="initialpos" >
  <crystal>
   <varray name="basis" >
    <v>      12.65122604       0.00000000       0.00000000 </v>
    <v>     -10.12098122       7.59073544       0.00000000 </v>
    <v>       0.00000000       0.00000000       9.42966843 </v>
   </varray>
   <i name="volume">    905.55095403 </i>
   <varray name="rec_basis" >
    <v>       0.07904372       0.10539164       0.00000000 </v>
    <v>       0.00000000       0.13173954       0.00000000 </v>
    <v>       0.00000000       0.00000000       0.10604827 </v>
   </varray>
  </crystal>
  <varray name="positions" >
   <v>       0.96284664       0.98938477       0.00000000 </v>
   <v>       0.57395768       0.87827361       0.10000004 </v>
   <v>       0.18506873       0.76716244       0.20000003 </v>
   <v>       0.46284664       0.48938474       0.00000000 </v>
   <v>       0.07395767       0.37827361       0.10000004 </v>
   <v>       0.68506873       0.26716244       0.20000003 </v>
   <v>       0.76840210       0.68382919       0.05000002 </v>
   <v>       0.37951314       0.57271802       0.15000004 </v>
   <v>       0.99062419       0.46160680       0.25000009 </v>
   <v>       0.26840216       0.18382917       0.05000001 </v>
   <v>       0.87951320       0.07271801       0.15000004 </v>
   <v>       0.49062419       0.96160680       0.25000009 </v>
   <v>       0.34472227       0.67236114       0.25000006 </v>
   <v>       0.67805564       0.83902782       0.55000007 </v>
   <v>       0.01138902       0.00569463       0.85000002 </v>
   <v>       0.01138897       0.00569449       0.25000006 </v>
   <v>       0.34472233       0.17236123       0.55000007 </v>
   <v>       0.67805570       0.33902797       0.85000002 </v>
   <v>       0.67805564       0.33902782       0.25000006 </v>
   <v>       0.01138890       0.50569451       0.55000007 </v>
   <v>       0.34472239       0.67236131       0.85000002 </v>
   <v>       0.09472227       0.92236114       0.40000004 </v>
   <v>       0.42805564       0.08902788       0.69999999 </v>
   <v>       0.76138902       0.25569463       0.00000000 </v>
   <v>       0.42805564       0.58902788       0.40000004 </v>
   <v>       0.76138902       0.75569457       0.69999999 </v>
   <v>       0.09472239       0.92236137       0.00000000 </v>
   <v>       0.76138890       0.25569448       0.40000004 </v>
   <v>       0.09472239       0.42236123       0.69999999 </v>
   <v>       0.42805564       0.58902794       0.00000000 </v>
   <v>       0.17805557       0.83902770       0.25000006 </v>
   <v>       0.51138896       0.00569451       0.55000007 </v>
   <v>       0.84472227       0.17236114       0.85000002 </v>
   <v>       0.51138896       0.50569451       0.25000006 </v>
   <v>       0.84472227       0.67236120       0.55000007 </v>
   <v>       0.17805564       0.83902794       0.85000002 </v>
   <v>       0.84472233       0.17236118       0.25000006 </v>
   <v>       0.17805564       0.33902791       0.55000007 </v>
   <v>       0.51138902       0.50569463       0.85000002 </v>
   <v>       0.26138896       0.75569445       0.40000004 </v>
   <v>       0.59472233       0.92236120       0.69999999 </v>
   <v>       0.92805576       0.08902800       0.00000000 </v>
   <v>       0.59472233       0.42236116       0.40000004 </v>
   <v>       0.92805570       0.58902788       0.69999999 </v>
   <v>       0.26138902       0.75569463       0.00000000 </v>
   <v>       0.92805564       0.08902787       0.40000004 </v>
   <v>       0.26138902       0.25569463       0.69999999 </v>
   <v>       0.59472239       0.42236134       0.00000000 </v>
  </varray>
 </structure>
 <calculation>
  <scstep>
   <time name="dav">   13.67   13.78</time>
   <time name="total">   14.68   14.79</time>
   <energy>
    <i name="alphaZ">    486.29936737 </i>
    <i name="ewald">  -4796.22332612 </i>
    <i name="hartreedc">   -753.34210419 </i>
    <i name="XCdc">   -348.06982931 </i>
    <i name="pawpsdc">   4230.96766597 </i>
    <i name="pawaedc">  -3535.56392164 </i>
    <i name="eentropy">     -0.00088302 </i>
    <i name="bandstr">    966.80108184 </i>
    <i name="atom">   5039.80367324 </i>
    <i name="e_fr_energy">   1290.67172414 </i>
    <i name="e_wo_entrp">   1290.67260716 </i>
    <i name="e_0_energy">   1290.67216565 </i>
   </energy>
  </scstep>
  <scstep>
   <time name="dav">   15.17   15.29</time>
   <time name="total">   15.18   15.30</time>
   <energy>
    <i name="e_fr_energy">    148.19686714 </i>
    <i name="e_wo_entrp">    148.19754347 </i>
    <i name="e_0_energy">    148.19720530 </i>
   </energy>
  </scstep>
  <scstep>
   <time name="dav">   16.00   16.13</time>
   <time name="total">   16.00   16.14</time>
   <energy>
    <i name="e_fr_energy">     31.46556287 </i>
    <i name="e_wo_entrp">     31.46641342 </i>
    <i name="e_0_energy">     31.46598815 </i>
   </energy>
  </scstep>
  <scstep>
   <time name="dav">   15.65   15.77</time>
   <time name="total">   15.65   15.78</time>
   <energy>
    <i name="e_fr_energy">     26.77543978 </i>
    <i name="e_wo_entrp">     26.77678035 </i>
    <i name="e_0_energy">     26.77611006 </i>
   </energy>
  </scstep>
  <scstep>
   <time name="dav">   16.06   16.21</time>
   <time name="total">   16.93   17.09</time>
   <energy>
    <i name="e_fr_energy">     26.60905717 </i>
    <i name="e_wo_entrp">     26.61031105 </i>
    <i name="e_0_energy">     26.60968411 </i>
   </energy>
  </scstep>
  <scstep>
   <time name="dav">   15.23   15.36</time>
   <time name="total">   17.08   17.23</time>
   <energy>
    <i name="e_fr_energy">     36.62097255 </i>
    <i name="e_wo_entrp">     36.62188703 </i>
    <i name="e_0_energy">     36.62142979 </i>
   </energy>
  </scstep>
  <scstep>
   <time name="dav">   15.36   15.51</time>
   <time name="total">   17.22   17.38</time>
   <energy>
    <i name="e_fr_energy">     37.89776068 </i>
    <i name="e_wo_entrp">     37.89886870 </i>
    <i name="e_0_energy">     37.89831469 </i>
   </energy>
  </scstep>
  <scstep>
   <time name="dav">   15.53   15.66</time>
   <time name="total">   17.38   17.52</time>
   <energy>
    <i name="e_fr_energy">     38.39073007 </i>
    <i name="e_wo_entrp">     38.39185836 </i>
    <i name="e_0_energy">     38.39129421 </i>
   </energy>
  </scstep>
  <scstep>
   <time name="dav">   15.57   15.70</time>
   <time name="total">   17.42   17.56</time>
   <energy>
    <i name="e_fr_energy">     38.47682990 </i>
    <i name="e_wo_entrp">     38.47752777 </i>
    <i name="e_0_energy">     38.47717883 </i>
   </energy>
  </scstep>
  <scstep>
   <time name="dav">   15.63   15.75</time>
   <time name="total">   17.48   17.61</time>
   <energy>
    <i name="e_fr_energy">     38.47760736 </i>
    <i name="e_wo_entrp">     38.47862434 </i>
    <i name="e_0_energy">     38.47811585 </i>
   </energy>
  </scstep>
  <scstep>
   <time name="dav">   15.25   15.37</time>
   <time name="total">   17.09   17.23</time>
   <energy>
    <i name="e_fr_energy">     38.47826815 </i>
    <i name="e_wo_entrp">     38.47925733 </i>
    <i name="e_0_energy">     38.47876274 </i>
   </energy>
  </scstep>
  <scstep>
   <time name="dav">   15.25   15.38</time>
   <time name="total">   17.09   17.28</time>
   <energy>
    <i name="e_fr_energy">     38.47809598 </i>
    <i name="e_wo_entrp">     38.47904422 </i>
    <i name="e_0_energy">     38.47857010 </i>
   </energy>
  </scstep>
  <scstep>
   <time name="dav">   14.80   14.92</time>
   <time name="total">   16.63   16.76</time>
   <energy>
    <i name="e_fr_energy">     38.47778807 </i>
    <i name="e_wo_entrp">     38.47873997 </i>
    <i name="e_0_energy">     38.47826402 </i>
   </energy>
  </scstep>
  <scstep>
   <time name="dav">   15.10   15.22</time>
   <time name="total">   16.93   17.06</time>
   <energy>
    <i name="e_fr_energy">     38.47777569 </i>
    <i name="e_wo_entrp">     38.47873587 </i>
    <i name="e_0_energy">     38.47825578 </i>
   </energy>
  </scstep>
  <scstep>
   <time name="dav">   15.01   15.13</time>
   <time name="total">   16.87   17.00</time>
   <energy>
    <i name="e_fr_energy">     38.47776100 </i>
    <i name="e_wo_entrp">     38.47871972 </i>
    <i name="e_0_energy">     38.47824036 </i>
   </energy>
  </scstep>
  <scstep>
   <time name="dav">   15.08   15.20</time>
   <time name="total">   16.92   17.06</time>
   <energy>
    <i name="e_fr_energy">     38.47775819 </i>
    <i name="e_wo_entrp">     38.47871765 </i>
    <i name="e_0_energy">     38.47823792 </i>
   </energy>
  </scstep>
  <scstep>
   <time name="dav">   15.43   15.55</time>
   <time name="total">   17.28   17.42</time>
   <energy>
    <i name="e_fr_energy">     38.47775767 </i>
    <i name="e_wo_entrp">     38.47871747 </i>
    <i name="e_0_energy">     38.47823757 </i>
   </energy>
  </scstep>
  <scstep>
   <time name="dav">   10.67   10.76</time>
   <time name="total">   11.64   11.73</time>
   <energy>
    <i name="alphaZ">    486.29936737 </i>
    <i name="ewald">  -4796.22332612 </i>
    <i name="hartreedc">   -827.29851889 </i>
    <i name="XCdc">   -334.92754980 </i>
    <i name="pawpsdc">  17811.92788786 </i>
    <i name="pawaedc"> -17138.12991841 </i>
    <i name="eentropy">     -0.00095964 </i>
    <i name="bandstr">   -202.97289798 </i>
    <i name="atom">   5039.80367324 </i>
    <i name="e_fr_energy">     38.47775763 </i>
    <i name="e_wo_entrp">     38.47871727 </i>
    <i name="e_0_energy">     38.47823745 </i>
   </energy>
  </scstep>
  <structure>
   <crystal>
    <varray name="basis" >
     <v>      12.65122604       0.00000000       0.00000000 </v>
     <v>     -10.12098122       7.59073544       0.00000000 </v>
     <v>       0.00000000       0.00000000       9.42966843 </v>
    </varray>
    <i name="volume">    905.55095403 </i>
    <varray name="rec_basis" >
     <v>       0.07904372       0.10539164       0.00000000 </v>
     <v>       0.00000000       0.13173954       0.00000000 </v>
     <v>       0.00000000       0.00000000       0.10604827 </v>
    </varray>
   </crystal>
   <varray name="positions" >
    <v>       0.96284664       0.98938477       0.00000000 </v>
    <v>       0.57395768       0.87827361       0.10000004 </v>
    <v>       0.18506873       0.76716244       0.20000003 </v>
    <v>       0.46284664       0.48938474       0.00000000 </v>
    <v>       0.07395767       0.37827361       0.10000004 </v>
    <v>       0.68506873       0.26716244       0.20000003 </v>
    <v>       0.76840210       0.68382919       0.05000002 </v>
    <v>       0.37951314       0.57271802       0.15000004 </v>
    <v>       0.99062419       0.46160680       0.25000009 </v>
    <v>       0.26840216       0.18382917       0.05000001 </v>
    <v>       0.87951320       0.07271801       0.15000004 </v>
    <v>       0.49062419       0.96160680       0.25000009 </v>
    <v>       0.34472227       0.67236114       0.25000006 </v>
    <v>       0.67805564       0.83902782       0.55000007 </v>
    <v>       0.01138902       0.00569463       0.85000002 </v>
    <v>       0.01138897       0.00569449       0.25000006 </v>
    <v>       0.34472233       0.17236123       0.55000007 </v>
    <v>       0.67805570       0.33902797       0.85000002 </v>
    <v>       0.67805564       0.33902782       0.25000006 </v>
    <v>       0.01138890       0.50569451       0.55000007 </v>
    <v>       0.34472239       0.67236131       0.85000002 </v>
    <v>       0.09472227       0.92236114       0.40000004 </v>
    <v>       0.42805564       0.08902788       0.69999999 </v>
    <v>       0.76138902       0.25569463       0.00000000 </v>
    <v>       0.42805564       0.58902788       0.40000004 </v>
    <v>       0.76138902       0.75569457       0.69999999 </v>
    <v>       0.09472239       0.92236137       0.00000000 </v>
    <v>       0.76138890       0.25569448       0.40000004 </v>
    <v>       0.09472239       0.42236123       0.69999999 </v>
    <v>       0.42805564       0.58902794       0.00000000 </v>
    <v>       0.17805557       0.83902770       0.25000006 </v>
    <v>       0.51138896       0.00569451       0.55000007 </v>
    <v>       0.84472227       0.17236114       0.85000002 </v>
    <v>       0.51138896       0.50569451       0.25000006 </v>
    <v>       0.84472227       0.67236120       0.55000007 </v>
    <v>       0.17805564       0.83902794       0.85000002 </v>
    <v>       0.84472233       0.17236118       0.25000006 </v>
    <v>       0.17805564       0.33902791       0.55000007 </v>
    <v>       0.51138902       0.50569463       0.85000002 </v>
    <v>       0.26138896       0.75569445       0.40000004 </v>
    <v>       0.59472233       0.92236120       0.69999999 </v>
    <v>       0.92805576       0.08902800       0.00000000 </v>
    <v>       0.59472233       0.42236116       0.40000004 </v>
    <v>       0.92805570       0.58902788       0.69999999 </v>
    <v>       0.26138902       0.75569463       0.00000000 </v>
    <v>       0.92805564       0.08902787       0.40000004 </v>
    <v>       0.26138902       0.25569463       0.69999999 </v>
    <v>       0.59472239       0.42236134       0.00000000 </v>
   </varray>
  </structure>
  <varray name="forces" >
   <v>      10.16713306     -21.62056111      55.41818751 </v>
   <v>      -0.16336888       3.10010408      -2.88475813 </v>
   <v>     127.42678964     -88.84860132     -78.75618449 </v>
   <v>      10.16713306     -21.62056111      55.41818751 </v>
   <v>      -0.16336888       3.10010408      -2.88475813 </v>
   <v>     127.42678964     -88.84860132     -78.75618449 </v>
   <v>       0.95933982       5.51461564       3.27012160 </v>
   <v>      -9.87890697     -10.94369259      51.37059660 </v>
   <v>       2.50744316       3.10715256      -2.18811657 </v>
   <v>       0.95933982       5.51461564       3.27012160 </v>
   <v>      -9.87890697     -10.94369259      51.37059660 </v>
   <v>       2.50744316       3.10715256      -2.18811657 </v>
   <v>     -10.51350984       2.54771764       9.15312492 </v>
   <v>      -0.00793312      -0.08120565       0.20962319 </v>
   <v>      19.53710589       4.72524924     -61.79364553 </v>
   <v>       2.11665496      -0.35420167       1.83167918 </v>
   <v>       0.01218320      -0.07216623      -0.02181736 </v>
   <v>       0.13755907       0.12164870      -0.27962905 </v>
   <v>    -137.31612514      90.00565791      77.24420180 </v>
   <v>      -0.32368075       0.10991138       1.13509927 </v>
   <v>      -0.15205160      -0.02895672      -0.86507603 </v>
   <v>       0.14513050       0.01677789       0.08926262 </v>
   <v>      -0.16778910       0.03751170       0.01134386 </v>
   <v>       2.01872820      -0.16724421      -3.40493979 </v>
   <v>       0.63157160       0.15471248       2.36472026 </v>
   <v>       0.11506867      -0.21735470      -0.75340133 </v>
   <v>       5.43456719      -6.50134355      -0.86505388 </v>
   <v>       1.70493152      -2.09777819       7.56796089 </v>
   <v>      -0.03740403      -0.01546241      -0.24212389 </v>
   <v>     -14.35343706      21.50750914     -57.61117563 </v>
   <v>    -137.31612514      90.00565791      77.24420180 </v>
   <v>      -0.32368075       0.10991138       1.13509927 </v>
   <v>      -0.15205160      -0.02895672      -0.86507603 </v>
   <v>       2.11665496      -0.35420167       1.83167918 </v>
   <v>       0.01218320      -0.07216623      -0.02181736 </v>
   <v>       0.13755907       0.12164870      -0.27962905 </v>
   <v>     -10.51350984       2.54771764       9.15312492 </v>
   <v>      -0.00793312      -0.08120565       0.20962319 </v>
   <v>      19.53710589       4.72524924     -61.79364553 </v>
   <v>       1.70493152      -2.09777819       7.56796089 </v>
   <v>      -0.03740403      -0.01546241      -0.24212389 </v>
   <v>     -14.35343706      21.50750914     -57.61117563 </v>
   <v>       0.14513050       0.01677789       0.08926262 </v>
   <v>      -0.16778910       0.03751170       0.01134386 </v>
   <v>       2.01872820      -0.16724421      -3.40493979 </v>
   <v>       0.63157160       0.15471248       2.36472026 </v>
   <v>       0.11506867      -0.21735470      -0.75340133 </v>
   <v>       5.43456719      -6.50134355      -0.86505388 </v>
  </varray>
  <varray name="stress" >
   <v>     938.89342027    -374.02182023    -461.58842053 </v>
   <v>    -374.02186086     494.83632455     127.68346455 </v>
   <v>    -461.58844240     127.68347651     987.08645896 </v>
  </varray>
  <energy>
   <i name="e_fr_energy">     38.47775763 </i>
   <i name="e_wo_entrp">     38.47871727 </i>
   <i name="e_0_energy">     38.47823745 </i>
  </energy>
  <time name="totalsc">  323.99  327.10</time>
  <eigenvalues>
   <array>
    <dimension dim="1">band</dimension>
    <dimension dim="2">kpoint</dimension>
    <dimension dim="3">spin</dimension>
    <field>eigene</field>
    <field>occ</field>
    <set>
     <set comment="spin 1">
      <set comment="kpoint 1">
       <r>  -12.3988    1.0000 </r>
       <r>  -11.8788    1.0000 </r>
       <r>  -10.9111    1.0000 </r>
       <r>  -10.1520    1.0000 </r>
       <r>   -9.8598    1.0000 </r>
       <r>   -9.2088    1.0000 </r>
       <r>   -7.8992    1.0000 </r>
       <r>   -7.3275    1.0000 </r>
       <r>   -6.9808    1.0000 </r>
       <r>   -6.8631    1.0000 </r>
       <r>   -6.8371    1.0000 </r>
       <r>   -6.7446    1.0000 </r>
       <r>   -6.2686    1.0000 </r>
       <r>   -6.0468    1.0000 </r>
       <r>   -6.0197    1.0000 </r>
       <r>   -5.9054    1.0000 </r>
       <r>   -5.5319    1.0000 </r>
       <r>   -5.5031    1.0000 </r>
       <r>   -5.3196    1.0000 </r>
       <r>   -5.1364    1.0000 </r>
       <r>   -4.9110    1.0000 </r>
       <r>   -4.8758    1.0000 </r>
       <r>   -4.8021    1.0000 </r>
       <r>   -4.5520    1.0000 </r>
       <r>   -4.0387    1.0000 </r>
       <r>   -4.0078    1.0000 </r>
       <r>   -3.6752    1.0000 </r>
       <r>   -3.5798    1.0000 </r>
       <r>   -3.5796    1.0000 </r>
       <r>   -3.4383    1.0000 </r>
       <r>   -3.2248    1.0000 </r>
       <r>   -2.9523    1.0000 </r>
       <r>   -2.8227    1.0000 </r>
       <r>   -2.6491    1.0000 </r>
       <r>   -2.5503    1.0000 </r>
       <r>   -2.3369    1.0000 </r>
       <r>   -2.0290    1.0000 </r>
       <r>   -1.9761    1.0000 </r>
       <r>   -1.6585    1.0000 </r>
       <r>   -1.5472    1.0000 </r>
       <r>   -1.5200    1.0000 </r>
       <r>   -1.3330    1.0000 </r>
       <r>   -1.2396    1.0000 </r>
       <r>   -1.2221    1.0000 </r>
       <r>   -1.1104    1.0000 </r>
       <r>   -0.7771    1.0000 </r>
       <r>   -0.6392    1.0000 </r>
       <r>   -0.3398    1.0000 </r>
       <r>   -0.2126    1.0000 </r>
       <r>   -0.0207    1.0000 </r>
       <r>    0.0603    1.0000 </r>
       <r>    0.1405    1.0000 </r>
       <r>    0.1950    1.0000 </r>
       <r>    0.4195    1.0000 </r>
       <r>    0.6028    1.0000 </r>
       <r>    0.6255    1.0000 </r>
       <r>    0.8101    1.0000 </r>
       <r>    0.9790    1.0000 </r>
       <r>    0.9885    1.0000 </r>
       <r>    1.1637    1.0000 </r>
       <r>    1.4847    1.0000 </r>
       <r>    1.5299    1.0000 </r>
       <r>    1.7722    1.0000 </r>
       <r>    1.8262    1.0000 </r>
       <r>    1.9611    1.0000 </r>
       <r>    2.2320    1.0000 </r>
       <r>    2.3251    1.0000 </r>
       <r>    2.3290    1.0000 </r>
       <r>    2.3349    1.0000 </r>
       <r>    2.4659    1.0000 </r>
       <r>    2.5186    1.0000 </r>
       <r>    2.6182    1.0000 </r>
       <r>    2.6676    1.0000 </r>
       <r>    2.7526    1.0000 </r>
       <r>    2.7827    1.0000 </r>
       <r>    2.9449    1.0000 </r>
       <r>    3.0196    1.0000 </r>
       <r>    3.0368    1.0000 </r>
       <r>    3.1249    1.0000 </r>
       <r>    3.2596    1.0000 </r>
       <r>    3.4189    1.0000 </r>
       <r>    3.4635    1.0000 </r>
       <r>    3.4750    1.0000 </r>
       <r>    3.5480    1.0000 </r>
       <r>    3.6583    1.0000 </r>
       <r>    3.7715    1.0000 </r>
       <r>    4.1414    1.0000 </r>
       <r>    4.3158    1.0000 </r>
       <r>    4.4016    1.0000 </r>
       <r>    4.5469    1.0000 </r>
       <r>    4.6828    1.0000 </r>
       <r>    4.9464    1.0000 </r>
       <r>    5.1465    1.0000 </r>
       <r>    5.3133    1.0000 </r>
       <r>    5.3529    1.0000 </r>
       <r>    5.4044    1.0000 </r>
       <r>    5.4220    1.0000 </r>
       <r>    5.6340    0.0002 </r>
       <r>    5.8213    0.0000 </r>
       <r>    5.9927    0.0000 </r>
       <r>    6.0484    0.0000 </r>
       <r>    6.0623    0.0000 </r>
       <r>    6.1692    0.0000 </r>
       <r>    6.2435    0.0000 </r>
       <r>    6.2788    0.0000 </r>
       <r>    6.3838    0.0000 </r>
       <r>    6.4278    0.0000 </r>
       <r>    6.4949    0.0000 </r>
       <r>    6.5703    0.0000 </r>
       <r>    6.6856    0.0000 </r>
       <r>    6.8596    0.0000 </r>
       <r>    6.8962    0.0000 </r>
       <r>    6.9859    0.0000 </r>
       <r>    7.0533    0.0000 </r>
       <r>    7.0730    0.0000 </r>
       <r>    7.2226    0.0000 </r>
      </set>
      <set comment="kpoint 2">
       <r>  -12.3318    1.0000 </r>
       <r>  -11.9658    1.0000 </r>
       <r>  -10.8024    1.0000 </r>
       <r>  -10.0861    1.0000 </r>
       <r>  -10.0457    1.0000 </r>
       <r>   -9.3968    1.0000 </r>
       <r>   -7.8413    1.0000 </r>
       <r>   -7.4370    1.0000 </r>
       <r>   -6.8898    1.0000 </r>
       <r>   -6.7352    1.0000 </r>
       <r>   -6.6054    1.0000 </r>
       <r>   -6.5786    1.0000 </r>
       <r>   -6.1968    1.0000 </r>
       <r>   -6.1204    1.0000 </r>
       <r>   -5.9156    1.0000 </r>
       <r>   -5.8905    1.0000 </r>
       <r>   -5.6604    1.0000 </r>
       <r>   -5.4912    1.0000 </r>
       <r>   -5.4795    1.0000 </r>
       <r>   -5.3738    1.0000 </r>
       <r>   -4.9798    1.0000 </r>
       <r>   -4.8325    1.0000 </r>
       <r>   -4.6708    1.0000 </r>
       <r>   -4.3773    1.0000 </r>
       <r>   -4.0259    1.0000 </r>
       <r>   -3.9016    1.0000 </r>
       <r>   -3.5996    1.0000 </r>
       <r>   -3.5927    1.0000 </r>
       <r>   -3.4451    1.0000 </r>
       <r>   -3.2734    1.0000 </r>
       <r>   -3.2504    1.0000 </r>
       <r>   -2.8896    1.0000 </r>
       <r>   -2.8292    1.0000 </r>
       <r>   -2.7992    1.0000 </r>
       <r>   -2.5682    1.0000 </r>
       <r>   -2.4129    1.0000 </r>
       <r>   -2.4085    1.0000 </r>
       <r>   -2.1238    1.0000 </r>
       <r>   -2.0098    1.0000 </r>
       <r>   -1.8200    1.0000 </r>
       <r>   -1.5850    1.0000 </r>
       <r>   -1.3980    1.0000 </r>
       <r>   -1.3273    1.0000 </r>
       <r>   -1.0193    1.0000 </r>
       <r>   -0.8693    1.0000 </r>
       <r>   -0.8056    1.0000 </r>
       <r>   -0.6831    1.0000 </r>
       <r>   -0.4372    1.0000 </r>
       <r>   -0.3018    1.0000 </r>
       <r>   -0.0006    1.0000 </r>
       <r>    0.0302    1.0000 </r>
       <r>    0.3107    1.0000 </r>
       <r>    0.4771    1.0000 </r>
       <r>    0.5398    1.0000 </r>
       <r>    0.7615    1.0000 </r>
       <r>    0.7864    1.0000 </r>
       <r>    0.9727    1.0000 </r>
       <r>    1.0008    1.0000 </r>
       <r>    1.1158    1.0000 </r>
       <r>    1.3475    1.0000 </r>
       <r>    1.4177    1.0000 </r>
       <r>    1.5006    1.0000 </r>
       <r>    1.6085    1.0000 </r>
       <r>    1.7771    1.0000 </r>
       <r>    1.8330    1.0000 </r>
       <r>    2.0296    1.0000 </r>
       <r>    2.0403    1.0000 </r>
       <r>    2.2257    1.0000 </r>
       <r>    2.2516    1.0000 </r>
       <r>    2.3570    1.0000 </r>
       <r>    2.4561    1.0000 </r>
       <r>    2.4874    1.0000 </r>
       <r>    2.5463    1.0000 </r>
       <r>    2.6162    1.0000 </r>
       <r>    2.8729    1.0000 </r>
       <r>    2.8818    1.0000 </r>
       <r>    2.9122    1.0000 </r>
       <r>    2.9407    1.0000 </r>
       <r>    3.0651    1.0000 </r>
       <r>    3.1116    1.0000 </r>
       <r>    3.4072    1.0000 </r>
       <r>    3.4571    1.0000 </r>
       <r>    3.4678    1.0000 </r>
       <r>    3.6442    1.0000 </r>
       <r>    3.7214    1.0000 </r>
       <r>    3.8827    1.0000 </r>
       <r>    3.9282    1.0000 </r>
       <r>    4.3656    1.0000 </r>
       <r>    4.4584    1.0000 </r>
       <r>    4.5879    1.0000 </r>
       <r>    4.7124    1.0000 </r>
       <r>    5.0539    1.0000 </r>
       <r>    5.1891    1.0000 </r>
       <r>    5.2872    1.0000 </r>
       <r>    5.3382    1.0000 </r>
       <r>    5.5773    1.0000 </r>
       <r>    5.6052    0.6906 </r>
       <r>    5.6869    0.0000 </r>
       <r>    5.9571    0.0000 </r>
       <r>    5.9770    0.0000 </r>
       <r>    6.1137    0.0000 </r>
       <r>    6.1995    0.0000 </r>
       <r>    6.2505    0.0000 </r>
       <r>    6.3468    0.0000 </r>
       <r>    6.5295    0.0000 </r>
       <r>    6.5800    0.0000 </r>
       <r>    6.6884    0.0000 </r>
       <r>    6.7398    0.0000 </r>
       <r>    6.7440    0.0000 </r>
       <r>    6.8143    0.0000 </r>
       <r>    6.8974    0.0000 </r>
       <r>    7.0850    0.0000 </r>
       <r>    7.1715    0.0000 </r>
       <r>    7.2007    0.0000 </r>
       <r>    7.2298    0.0000 </r>
       <r>    7.5519    0.0000 </r>
      </set>
      <set comment="kpoint 3">
       <r>  -12.3318    1.0000 </r>
       <r>  -11.9658    1.0000 </r>
       <r>  -10.8024    1.0000 </r>
       <r>  -10.0861    1.0000 </r>
       <r>  -10.0457    1.0000 </r>
       <r>   -9.3967    1.0000 </r>
       <r>   -7.8416    1.0000 </r>
       <r>   -7.4379    1.0000 </r>
       <r>   -6.8908    1.0000 </r>
       <r>   -6.7344    1.0000 </r>
       <r>   -6.6040    1.0000 </r>
       <r>   -6.5777    1.0000 </r>
       <r>   -6.1984    1.0000 </r>
       <r>   -6.1299    1.0000 </r>
       <r>   -5.9142    1.0000 </r>
       <r>   -5.8495    1.0000 </r>
       <r>   -5.6925    1.0000 </r>
       <r>   -5.5627    1.0000 </r>
       <r>   -5.4795    1.0000 </r>
       <r>   -5.2634    1.0000 </r>
       <r>   -5.0022    1.0000 </r>
       <r>   -4.8298    1.0000 </r>
       <r>   -4.6305    1.0000 </r>
       <r>   -4.4538    1.0000 </r>
       <r>   -4.0434    1.0000 </r>
       <r>   -3.8913    1.0000 </r>
       <r>   -3.6626    1.0000 </r>
       <r>   -3.5294    1.0000 </r>
       <r>   -3.4027    1.0000 </r>
       <r>   -3.3352    1.0000 </r>
       <r>   -3.2145    1.0000 </r>
       <r>   -2.9254    1.0000 </r>
       <r>   -2.8265    1.0000 </r>
       <r>   -2.8020    1.0000 </r>
       <r>   -2.6138    1.0000 </r>
       <r>   -2.3994    1.0000 </r>
       <r>   -2.3114    1.0000 </r>
       <r>   -2.1099    1.0000 </r>
       <r>   -2.0041    1.0000 </r>
       <r>   -1.7788    1.0000 </r>
       <r>   -1.5794    1.0000 </r>
       <r>   -1.3481    1.0000 </r>
       <r>   -1.3113    1.0000 </r>
       <r>   -1.1339    1.0000 </r>
       <r>   -0.9928    1.0000 </r>
       <r>   -0.8425    1.0000 </r>
       <r>   -0.5495    1.0000 </r>
       <r>   -0.4133    1.0000 </r>
       <r>   -0.3738    1.0000 </r>
       <r>    0.0053    1.0000 </r>
       <r>    0.0779    1.0000 </r>
       <r>    0.3577    1.0000 </r>
       <r>    0.3856    1.0000 </r>
       <r>    0.5121    1.0000 </r>
       <r>    0.7470    1.0000 </r>
       <r>    0.7569    1.0000 </r>
       <r>    0.9461    1.0000 </r>
       <r>    0.9486    1.0000 </r>
       <r>    1.1461    1.0000 </r>
       <r>    1.3829    1.0000 </r>
       <r>    1.4360    1.0000 </r>
       <r>    1.5375    1.0000 </r>
       <r>    1.7049    1.0000 </r>
       <r>    1.7360    1.0000 </r>
       <r>    1.8862    1.0000 </r>
       <r>    2.0888    1.0000 </r>
       <r>    2.0975    1.0000 </r>
       <r>    2.1756    1.0000 </r>
       <r>    2.2586    1.0000 </r>
       <r>    2.3488    1.0000 </r>
       <r>    2.3704    1.0000 </r>
       <r>    2.4608    1.0000 </r>
       <r>    2.5405    1.0000 </r>
       <r>    2.6354    1.0000 </r>
       <r>    2.8625    1.0000 </r>
       <r>    2.8745    1.0000 </r>
       <r>    2.8988    1.0000 </r>
       <r>    3.0105    1.0000 </r>
       <r>    3.0894    1.0000 </r>
       <r>    3.2034    1.0000 </r>
       <r>    3.2912    1.0000 </r>
       <r>    3.4598    1.0000 </r>
       <r>    3.4936    1.0000 </r>
       <r>    3.6265    1.0000 </r>
       <r>    3.8102    1.0000 </r>
       <r>    3.8259    1.0000 </r>
       <r>    3.9053    1.0000 </r>
       <r>    4.2293    1.0000 </r>
       <r>    4.4118    1.0000 </r>
       <r>    4.6290    1.0000 </r>
       <r>    4.7601    1.0000 </r>
       <r>    4.9060    1.0000 </r>
       <r>    5.2112    1.0000 </r>
       <r>    5.2179    1.0000 </r>
       <r>    5.4167    1.0000 </r>
       <r>    5.5524    1.0000 </r>
       <r>    5.6761    0.0000 </r>
       <r>    5.7304    0.0000 </r>
       <r>    5.8985    0.0000 </r>
       <r>    5.9820    0.0000 </r>
       <r>    6.1375    0.0000 </r>
       <r>    6.1727    0.0000 </r>
       <r>    6.3151    0.0000 </r>
       <r>    6.3760    0.0000 </r>
       <r>    6.4786    0.0000 </r>
       <r>    6.6506    0.0000 </r>
       <r>    6.6745    0.0000 </r>
       <r>    6.7575    0.0000 </r>
       <r>    6.7966    0.0000 </r>
       <r>    6.8708    0.0000 </r>
       <r>    6.8870    0.0000 </r>
       <r>    7.0531    0.0000 </r>
       <r>    7.1389    0.0000 </r>
       <r>    7.2550    0.0000 </r>
       <r>    7.2601    0.0000 </r>
       <r>    7.3894    0.0000 </r>
      </set>
      <set comment="kpoint 4">
       <r>  -12.1586    1.0000 </r>
       <r>  -12.1586    1.0000 </r>
       <r>  -10.4957    1.0000 </r>
       <r>  -10.4956    1.0000 </r>
       <r>   -9.7569    1.0000 </r>
       <r>   -9.7569    1.0000 </r>
       <r>   -7.6708    1.0000 </r>
       <r>   -7.6708    1.0000 </r>
       <r>   -6.6541    1.0000 </r>
       <r>   -6.6541    1.0000 </r>
       <r>   -6.3803    1.0000 </r>
       <r>   -6.3803    1.0000 </r>
       <r>   -6.2461    1.0000 </r>
       <r>   -6.2461    1.0000 </r>
       <r>   -5.9617    1.0000 </r>
       <r>   -5.9617    1.0000 </r>
       <r>   -5.6499    1.0000 </r>
       <r>   -5.6499    1.0000 </r>
       <r>   -5.3322    1.0000 </r>
       <r>   -5.3322    1.0000 </r>
       <r>   -4.9047    1.0000 </r>
       <r>   -4.9047    1.0000 </r>
       <r>   -4.4598    1.0000 </r>
       <r>   -4.4598    1.0000 </r>
       <r>   -3.8022    1.0000 </r>
       <r>   -3.8022    1.0000 </r>
       <r>   -3.5802    1.0000 </r>
       <r>   -3.5802    1.0000 </r>
       <r>   -3.3991    1.0000 </r>
       <r>   -3.3991    1.0000 </r>
       <r>   -3.1519    1.0000 </r>
       <r>   -3.1519    1.0000 </r>
       <r>   -2.8964    1.0000 </r>
       <r>   -2.8964    1.0000 </r>
       <r>   -2.7399    1.0000 </r>
       <r>   -2.7399    1.0000 </r>
       <r>   -2.5109    1.0000 </r>
       <r>   -2.5109    1.0000 </r>
       <r>   -1.9200    1.0000 </r>
       <r>   -1.9200    1.0000 </r>
       <r>   -1.5256    1.0000 </r>
       <r>   -1.5256    1.0000 </r>
       <r>   -1.0812    1.0000 </r>
       <r>   -1.0812    1.0000 </r>
       <r>   -0.7136    1.0000 </r>
       <r>   -0.7136    1.0000 </r>
       <r>   -0.1767    1.0000 </r>
       <r>   -0.1767    1.0000 </r>
       <r>    0.0241    1.0000 </r>
       <r>    0.0241    1.0000 </r>
       <r>    0.2270    1.0000 </r>
       <r>    0.2270    1.0000 </r>
       <r>    0.4509    1.0000 </r>
       <r>    0.4509    1.0000 </r>
       <r>    0.6496    1.0000 </r>
       <r>    0.6496    1.0000 </r>
       <r>    0.8493    1.0000 </r>
       <r>    0.8493    1.0000 </r>
       <r>    1.1353    1.0000 </r>
       <r>    1.1353    1.0000 </r>
       <r>    1.3358    1.0000 </r>
       <r>    1.3358    1.0000 </r>
       <r>    1.4754    1.0000 </r>
       <r>    1.4754    1.0000 </r>
       <r>    1.7588    1.0000 </r>
       <r>    1.7588    1.0000 </r>
       <r>    1.9292    1.0000 </r>
       <r>    1.9292    1.0000 </r>
       <r>    2.1717    1.0000 </r>
       <r>    2.1717    1.0000 </r>
       <r>    2.3807    1.0000 </r>
       <r>    2.3807    1.0000 </r>
       <r>    2.5161    1.0000 </r>
       <r>    2.5161    1.0000 </r>
       <r>    2.7897    1.0000 </r>
       <r>    2.7897    1.0000 </r>
       <r>    2.9804    1.0000 </r>
       <r>    2.9804    1.0000 </r>
       <r>    3.2288    1.0000 </r>
       <r>    3.2288    1.0000 </r>
       <r>    3.5687    1.0000 </r>
       <r>    3.5687    1.0000 </r>
       <r>    3.7579    1.0000 </r>
       <r>    3.7579    1.0000 </r>
       <r>    4.0662    1.0000 </r>
       <r>    4.0662    1.0000 </r>
       <r>    4.3809    1.0000 </r>
       <r>    4.3809    1.0000 </r>
       <r>    4.6826    1.0000 </r>
       <r>    4.6826    1.0000 </r>
       <r>    4.9111    1.0000 </r>
       <r>    4.9111    1.0000 </r>
       <r>    5.1528    1.0000 </r>
       <r>    5.1528    1.0000 </r>
       <r>    5.3947    1.0000 </r>
       <r>    5.3947    1.0000 </r>
       <r>    5.7102    0.0000 </r>
       <r>    5.7102    0.0000 </r>
       <r>    6.0181    0.0000 </r>
       <r>    6.0181    0.0000 </r>
       <r>    6.2302    0.0000 </r>
       <r>    6.2302    0.0000 </r>
       <r>    6.3062    0.0000 </r>
       <r>    6.3062    0.0000 </r>
       <r>    6.4867    0.0000 </r>
       <r>    6.4867    0.0000 </r>
       <r>    6.6951    0.0000 </r>
       <r>    6.6951    0.0000 </r>
       <r>    6.8664    0.0000 </r>
       <r>    6.8664    0.0000 </r>
       <r>    6.9697    0.0000 </r>
       <r>    6.9697    0.0000 </r>
       <r>    7.1925    0.0000 </r>
       <r>    7.1925    0.0000 </r>
       <r>    7.3673    0.0000 </r>
       <r>    7.3674    0.0000 </r>
      </set>
      <set comment="kpoint 5">
       <r>  -12.1586    1.0000 </r>
       <r>  -12.1586    1.0000 </r>
       <r>  -10.4956    1.0000 </r>
       <r>  -10.4956    1.0000 </r>
       <r>   -9.7569    1.0000 </r>
       <r>   -9.7569    1.0000 </r>
       <r>   -7.6717    1.0000 </r>
       <r>   -7.6717    1.0000 </r>
       <r>   -6.6548    1.0000 </r>
       <r>   -6.6548    1.0000 </r>
       <r>   -6.3835    1.0000 </r>
       <r>   -6.3835    1.0000 </r>
       <r>   -6.2339    1.0000 </r>
       <r>   -6.2339    1.0000 </r>
       <r>   -5.9770    1.0000 </r>
       <r>   -5.9770    1.0000 </r>
       <r>   -5.6410    1.0000 </r>
       <r>   -5.6410    1.0000 </r>
       <r>   -5.3293    1.0000 </r>
       <r>   -5.3293    1.0000 </r>
       <r>   -4.9075    1.0000 </r>
       <r>   -4.9075    1.0000 </r>
       <r>   -4.4095    1.0000 </r>
       <r>   -4.4095    1.0000 </r>
       <r>   -3.8574    1.0000 </r>
       <r>   -3.8574    1.0000 </r>
       <r>   -3.7050    1.0000 </r>
       <r>   -3.7050    1.0000 </r>
       <r>   -3.3553    1.0000 </r>
       <r>   -3.3553    1.0000 </r>
       <r>   -3.0692    1.0000 </r>
       <r>   -3.0692    1.0000 </r>
       <r>   -2.9474    1.0000 </r>
       <r>   -2.9474    1.0000 </r>
       <r>   -2.7094    1.0000 </r>
       <r>   -2.7094    1.0000 </r>
       <r>   -2.4456    1.0000 </r>
       <r>   -2.4456    1.0000 </r>
       <r>   -1.9083    1.0000 </r>
       <r>   -1.9083    1.0000 </r>
       <r>   -1.5228    1.0000 </r>
       <r>   -1.5228    1.0000 </r>
       <r>   -1.1415    1.0000 </r>
       <r>   -1.1415    1.0000 </r>
       <r>   -0.6162    1.0000 </r>
       <r>   -0.6162    1.0000 </r>
       <r>   -0.2990    1.0000 </r>
       <r>   -0.2990    1.0000 </r>
       <r>   -0.0637    1.0000 </r>
       <r>   -0.0637    1.0000 </r>
       <r>    0.2458    1.0000 </r>
       <r>    0.2458    1.0000 </r>
       <r>    0.4309    1.0000 </r>
       <r>    0.4309    1.0000 </r>
       <r>    0.7208    1.0000 </r>
       <r>    0.7208    1.0000 </r>
       <r>    0.8877    1.0000 </r>
       <r>    0.8877    1.0000 </r>
       <r>    1.1044    1.0000 </r>
       <r>    1.1044    1.0000 </r>
       <r>    1.2977    1.0000 </r>
       <r>    1.2977    1.0000 </r>
       <r>    1.5081    1.0000 </r>
       <r>    1.5081    1.0000 </r>
       <r>    1.7786    1.0000 </r>
       <r>    1.7786    1.0000 </r>
       <r>    1.9787    1.0000 </r>
       <r>    1.9787    1.0000 </r>
       <r>    2.1096    1.0000 </r>
       <r>    2.1096    1.0000 </r>
       <r>    2.4405    1.0000 </r>
       <r>    2.4405    1.0000 </r>
       <r>    2.5741    1.0000 </r>
       <r>    2.5741    1.0000 </r>
       <r>    2.8405    1.0000 </r>
       <r>    2.8405    1.0000 </r>
       <r>    2.9661    1.0000 </r>
       <r>    2.9661    1.0000 </r>
       <r>    3.2835    1.0000 </r>
       <r>    3.2835    1.0000 </r>
       <r>    3.5349    1.0000 </r>
       <r>    3.5349    1.0000 </r>
       <r>    3.6796    1.0000 </r>
       <r>    3.6796    1.0000 </r>
       <r>    3.9726    1.0000 </r>
       <r>    3.9726    1.0000 </r>
       <r>    4.3630    1.0000 </r>
       <r>    4.3630    1.0000 </r>
       <r>    4.5832    1.0000 </r>
       <r>    4.5832    1.0000 </r>
       <r>    4.9293    1.0000 </r>
       <r>    4.9293    1.0000 </r>
       <r>    5.2270    1.0000 </r>
       <r>    5.2270    1.0000 </r>
       <r>    5.3907    1.0000 </r>
       <r>    5.3907    1.0000 </r>
       <r>    5.7438    0.0000 </r>
       <r>    5.7438    0.0000 </r>
       <r>    6.0631    0.0000 </r>
       <r>    6.0631    0.0000 </r>
       <r>    6.2273    0.0000 </r>
       <r>    6.2273    0.0000 </r>
       <r>    6.2909    0.0000 </r>
       <r>    6.2909    0.0000 </r>
       <r>    6.5198    0.0000 </r>
       <r>    6.5198    0.0000 </r>
       <r>    6.6662    0.0000 </r>
       <r>    6.6662    0.0000 </r>
       <r>    6.7901    0.0000 </r>
       <r>    6.7901    0.0000 </r>
       <r>    7.0349    0.0000 </r>
       <r>    7.0349    0.0000 </r>
       <r>    7.1921    0.0000 </r>
       <r>    7.1921    0.0000 </r>
       <r>    7.4080    0.0000 </r>
       <r>    7.4081    0.0000 </r>
      </set>
      <set comment="kpoint 6">
       <r>  -12.1592    1.0000 </r>
       <r>  -12.1581    1.0000 </r>
       <r>  -10.5069    1.0000 </r>
       <r>  -10.4839    1.0000 </r>
       <r>   -9.7794    1.0000 </r>
       <r>   -9.7346    1.0000 </r>
       <r>   -7.7286    1.0000 </r>
       <r>   -7.6070    1.0000 </r>
       <r>   -6.6955    1.0000 </r>
       <r>   -6.6139    1.0000 </r>
       <r>   -6.4608    1.0000 </r>
       <r>   -6.3345    1.0000 </r>
       <r>   -6.3061    1.0000 </r>
       <r>   -6.1244    1.0000 </r>
       <r>   -6.0279    1.0000 </r>
       <r>   -5.8581    1.0000 </r>
       <r>   -5.7743    1.0000 </r>
       <r>   -5.5724    1.0000 </r>
       <r>   -5.4412    1.0000 </r>
       <r>   -5.2019    1.0000 </r>
       <r>   -5.0502    1.0000 </r>
       <r>   -4.7589    1.0000 </r>
       <r>   -4.5287    1.0000 </r>
       <r>   -4.3637    1.0000 </r>
       <r>   -4.0046    1.0000 </r>
       <r>   -3.8093    1.0000 </r>
       <r>   -3.5500    1.0000 </r>
       <r>   -3.5353    1.0000 </r>
       <r>   -3.4471    1.0000 </r>
       <r>   -3.3698    1.0000 </r>
       <r>   -3.1150    1.0000 </r>
       <r>   -3.0740    1.0000 </r>
       <r>   -2.9440    1.0000 </r>
       <r>   -2.8342    1.0000 </r>
       <r>   -2.7520    1.0000 </r>
       <r>   -2.7487    1.0000 </r>
       <r>   -2.5665    1.0000 </r>
       <r>   -2.4386    1.0000 </r>
       <r>   -1.9982    1.0000 </r>
       <r>   -1.7789    1.0000 </r>
       <r>   -1.6636    1.0000 </r>
       <r>   -1.4627    1.0000 </r>
       <r>   -1.3529    1.0000 </r>
       <r>   -0.8086    1.0000 </r>
       <r>   -0.6572    1.0000 </r>
       <r>   -0.5544    1.0000 </r>
       <r>   -0.3635    1.0000 </r>
       <r>   -0.1754    1.0000 </r>
       <r>   -0.1391    1.0000 </r>
       <r>    0.0622    1.0000 </r>
       <r>    0.1764    1.0000 </r>
       <r>    0.3194    1.0000 </r>
       <r>    0.3552    1.0000 </r>
       <r>    0.5142    1.0000 </r>
       <r>    0.5962    1.0000 </r>
       <r>    0.6832    1.0000 </r>
       <r>    0.8568    1.0000 </r>
       <r>    0.8834    1.0000 </r>
       <r>    1.0565    1.0000 </r>
       <r>    1.0840    1.0000 </r>
       <r>    1.1908    1.0000 </r>
       <r>    1.4255    1.0000 </r>
       <r>    1.5812    1.0000 </r>
       <r>    1.6136    1.0000 </r>
       <r>    1.7663    1.0000 </r>
       <r>    1.7875    1.0000 </r>
       <r>    1.8712    1.0000 </r>
       <r>    1.9784    1.0000 </r>
       <r>    2.0857    1.0000 </r>
       <r>    2.2113    1.0000 </r>
       <r>    2.2821    1.0000 </r>
       <r>    2.4109    1.0000 </r>
       <r>    2.4696    1.0000 </r>
       <r>    2.6287    1.0000 </r>
       <r>    2.7899    1.0000 </r>
       <r>    2.8543    1.0000 </r>
       <r>    2.9771    1.0000 </r>
       <r>    3.1461    1.0000 </r>
       <r>    3.2311    1.0000 </r>
       <r>    3.3230    1.0000 </r>
       <r>    3.4639    1.0000 </r>
       <r>    3.5532    1.0000 </r>
       <r>    3.6367    1.0000 </r>
       <r>    3.9072    1.0000 </r>
       <r>    3.9266    1.0000 </r>
       <r>    4.0767    1.0000 </r>
       <r>    4.2241    1.0000 </r>
       <r>    4.3950    1.0000 </r>
       <r>    4.4726    1.0000 </r>
       <r>    4.5882    1.0000 </r>
       <r>    4.8771    1.0000 </r>
       <r>    4.9334    1.0000 </r>
       <r>    5.1954    1.0000 </r>
       <r>    5.3288    1.0000 </r>
       <r>    5.3753    1.0000 </r>
       <r>    5.4900    1.0000 </r>
       <r>    5.6846    0.0000 </r>
       <r>    5.8368    0.0000 </r>
       <r>    5.9288    0.0000 </r>
       <r>    5.9845    0.0000 </r>
       <r>    6.1916    0.0000 </r>
       <r>    6.2454    0.0000 </r>
       <r>    6.3416    0.0000 </r>
       <r>    6.4312    0.0000 </r>
       <r>    6.5728    0.0000 </r>
       <r>    6.5942    0.0000 </r>
       <r>    6.6197    0.0000 </r>
       <r>    6.6935    0.0000 </r>
       <r>    6.8856    0.0000 </r>
       <r>    6.8943    0.0000 </r>
       <r>    6.9874    0.0000 </r>
       <r>    7.0112    0.0000 </r>
       <r>    7.0618    0.0000 </r>
       <r>    7.1350    0.0000 </r>
       <r>    7.3151    0.0000 </r>
       <r>    7.3336    0.0000 </r>
      </set>
      <set comment="kpoint 7">
       <r>  -12.3308    1.0000 </r>
       <r>  -11.9663    1.0000 </r>
       <r>  -10.8186    1.0000 </r>
       <r>  -10.0694    1.0000 </r>
       <r>  -10.0141    1.0000 </r>
       <r>   -9.4284    1.0000 </r>
       <r>   -7.9303    1.0000 </r>
       <r>   -7.3564    1.0000 </r>
       <r>   -6.8433    1.0000 </r>
       <r>   -6.6656    1.0000 </r>
       <r>   -6.6354    1.0000 </r>
       <r>   -6.3920    1.0000 </r>
       <r>   -6.3371    1.0000 </r>
       <r>   -6.1662    1.0000 </r>
       <r>   -6.0115    1.0000 </r>
       <r>   -5.9969    1.0000 </r>
       <r>   -5.7167    1.0000 </r>
       <r>   -5.6038    1.0000 </r>
       <r>   -5.3711    1.0000 </r>
       <r>   -5.2239    1.0000 </r>
       <r>   -4.9815    1.0000 </r>
       <r>   -4.7833    1.0000 </r>
       <r>   -4.6626    1.0000 </r>
       <r>   -4.2787    1.0000 </r>
       <r>   -3.9665    1.0000 </r>
       <r>   -3.9209    1.0000 </r>
       <r>   -3.8087    1.0000 </r>
       <r>   -3.5796    1.0000 </r>
       <r>   -3.4821    1.0000 </r>
       <r>   -3.2718    1.0000 </r>
       <r>   -3.1003    1.0000 </r>
       <r>   -3.0023    1.0000 </r>
       <r>   -2.8537    1.0000 </r>
       <r>   -2.8232    1.0000 </r>
       <r>   -2.5395    1.0000 </r>
       <r>   -2.3685    1.0000 </r>
       <r>   -2.2991    1.0000 </r>
       <r>   -2.0972    1.0000 </r>
       <r>   -2.0860    1.0000 </r>
       <r>   -1.7526    1.0000 </r>
       <r>   -1.5828    1.0000 </r>
       <r>   -1.4950    1.0000 </r>
       <r>   -1.4381    1.0000 </r>
       <r>   -1.0334    1.0000 </r>
       <r>   -0.8689    1.0000 </r>
       <r>   -0.7702    1.0000 </r>
       <r>   -0.6670    1.0000 </r>
       <r>   -0.4753    1.0000 </r>
       <r>   -0.2191    1.0000 </r>
       <r>   -0.2149    1.0000 </r>
       <r>    0.1282    1.0000 </r>
       <r>    0.3000    1.0000 </r>
       <r>    0.4158    1.0000 </r>
       <r>    0.5538    1.0000 </r>
       <r>    0.7961    1.0000 </r>
       <r>    0.8644    1.0000 </r>
       <r>    1.0781    1.0000 </r>
       <r>    1.1538    1.0000 </r>
       <r>    1.2884    1.0000 </r>
       <r>    1.3328    1.0000 </r>
       <r>    1.4501    1.0000 </r>
       <r>    1.4893    1.0000 </r>
       <r>    1.6638    1.0000 </r>
       <r>    1.7183    1.0000 </r>
       <r>    1.8112    1.0000 </r>
       <r>    1.8349    1.0000 </r>
       <r>    1.9353    1.0000 </r>
       <r>    2.1530    1.0000 </r>
       <r>    2.1657    1.0000 </r>
       <r>    2.2483    1.0000 </r>
       <r>    2.4021    1.0000 </r>
       <r>    2.4747    1.0000 </r>
       <r>    2.6455    1.0000 </r>
       <r>    2.7147    1.0000 </r>
       <r>    2.7413    1.0000 </r>
       <r>    2.8133    1.0000 </r>
       <r>    2.8960    1.0000 </r>
       <r>    3.0132    1.0000 </r>
       <r>    3.0570    1.0000 </r>
       <r>    3.1953    1.0000 </r>
       <r>    3.3816    1.0000 </r>
       <r>    3.4714    1.0000 </r>
       <r>    3.5880    1.0000 </r>
       <r>    3.6958    1.0000 </r>
       <r>    3.7009    1.0000 </r>
       <r>    4.0327    1.0000 </r>
       <r>    4.1005    1.0000 </r>
       <r>    4.3203    1.0000 </r>
       <r>    4.3223    1.0000 </r>
       <r>    4.6189    1.0000 </r>
       <r>    4.6615    1.0000 </r>
       <r>    5.0321    1.0000 </r>
       <r>    5.0623    1.0000 </r>
       <r>    5.2702    1.0000 </r>
       <r>    5.4352    1.0000 </r>
       <r>    5.4408    1.0000 </r>
       <r>    5.6260    0.0071 </r>
       <r>    5.8373    0.0000 </r>
       <r>    5.9191    0.0000 </r>
       <r>    6.0133    0.0000 </r>
       <r>    6.1414    0.0000 </r>
       <r>    6.1678    0.0000 </r>
       <r>    6.2616    0.0000 </r>
       <r>    6.3785    0.0000 </r>
       <r>    6.4201    0.0000 </r>
       <r>    6.5457    0.0000 </r>
       <r>    6.5800    0.0000 </r>
       <r>    6.7357    0.0000 </r>
       <r>    6.7841    0.0000 </r>
       <r>    6.8837    0.0000 </r>
       <r>    6.9809    0.0000 </r>
       <r>    7.1492    0.0000 </r>
       <r>    7.1582    0.0000 </r>
       <r>    7.2496    0.0000 </r>
       <r>    7.3765    0.0000 </r>
       <r>    7.4319    0.0000 </r>
      </set>
      <set comment="kpoint 8">
       <r>  -12.3308    1.0000 </r>
       <r>  -11.9663    1.0000 </r>
       <r>  -10.8186    1.0000 </r>
       <r>  -10.0694    1.0000 </r>
       <r>  -10.0141    1.0000 </r>
       <r>   -9.4283    1.0000 </r>
       <r>   -7.9306    1.0000 </r>
       <r>   -7.3576    1.0000 </r>
       <r>   -6.8441    1.0000 </r>
       <r>   -6.6648    1.0000 </r>
       <r>   -6.6345    1.0000 </r>
       <r>   -6.3863    1.0000 </r>
       <r>   -6.3430    1.0000 </r>
       <r>   -6.1716    1.0000 </r>
       <r>   -6.0106    1.0000 </r>
       <r>   -5.9851    1.0000 </r>
       <r>   -5.7136    1.0000 </r>
       <r>   -5.6025    1.0000 </r>
       <r>   -5.4518    1.0000 </r>
       <r>   -5.0921    1.0000 </r>
       <r>   -4.9980    1.0000 </r>
       <r>   -4.7855    1.0000 </r>
       <r>   -4.6640    1.0000 </r>
       <r>   -4.3560    1.0000 </r>
       <r>   -3.9889    1.0000 </r>
       <r>   -3.9225    1.0000 </r>
       <r>   -3.7894    1.0000 </r>
       <r>   -3.5160    1.0000 </r>
       <r>   -3.4618    1.0000 </r>
       <r>   -3.3517    1.0000 </r>
       <r>   -3.0721    1.0000 </r>
       <r>   -3.0136    1.0000 </r>
       <r>   -2.8734    1.0000 </r>
       <r>   -2.8400    1.0000 </r>
       <r>   -2.5435    1.0000 </r>
       <r>   -2.3472    1.0000 </r>
       <r>   -2.2364    1.0000 </r>
       <r>   -2.0960    1.0000 </r>
       <r>   -2.0498    1.0000 </r>
       <r>   -1.7182    1.0000 </r>
       <r>   -1.5852    1.0000 </r>
       <r>   -1.4844    1.0000 </r>
       <r>   -1.4679    1.0000 </r>
       <r>   -1.0537    1.0000 </r>
       <r>   -0.9062    1.0000 </r>
       <r>   -0.8767    1.0000 </r>
       <r>   -0.5871    1.0000 </r>
       <r>   -0.3414    1.0000 </r>
       <r>   -0.3112    1.0000 </r>
       <r>   -0.2798    1.0000 </r>
       <r>    0.1723    1.0000 </r>
       <r>    0.2000    1.0000 </r>
       <r>    0.3970    1.0000 </r>
       <r>    0.5863    1.0000 </r>
       <r>    0.8384    1.0000 </r>
       <r>    0.8535    1.0000 </r>
       <r>    1.0590    1.0000 </r>
       <r>    1.1273    1.0000 </r>
       <r>    1.3064    1.0000 </r>
       <r>    1.3278    1.0000 </r>
       <r>    1.4422    1.0000 </r>
       <r>    1.4596    1.0000 </r>
       <r>    1.7265    1.0000 </r>
       <r>    1.7656    1.0000 </r>
       <r>    1.8177    1.0000 </r>
       <r>    1.9195    1.0000 </r>
       <r>    1.9513    1.0000 </r>
       <r>    2.0952    1.0000 </r>
       <r>    2.1228    1.0000 </r>
       <r>    2.2526    1.0000 </r>
       <r>    2.4329    1.0000 </r>
       <r>    2.6113    1.0000 </r>
       <r>    2.6333    1.0000 </r>
       <r>    2.7070    1.0000 </r>
       <r>    2.7093    1.0000 </r>
       <r>    2.7862    1.0000 </r>
       <r>    2.9614    1.0000 </r>
       <r>    2.9958    1.0000 </r>
       <r>    3.0463    1.0000 </r>
       <r>    3.1087    1.0000 </r>
       <r>    3.3704    1.0000 </r>
       <r>    3.4375    1.0000 </r>
       <r>    3.5790    1.0000 </r>
       <r>    3.6753    1.0000 </r>
       <r>    3.9153    1.0000 </r>
       <r>    3.9823    1.0000 </r>
       <r>    4.0048    1.0000 </r>
       <r>    4.2640    1.0000 </r>
       <r>    4.2851    1.0000 </r>
       <r>    4.6334    1.0000 </r>
       <r>    4.6375    1.0000 </r>
       <r>    5.0019    1.0000 </r>
       <r>    5.0816    1.0000 </r>
       <r>    5.2228    1.0000 </r>
       <r>    5.4326    1.0000 </r>
       <r>    5.4505    1.0000 </r>
       <r>    5.6712    0.0000 </r>
       <r>    5.7736    0.0000 </r>
       <r>    5.9495    0.0000 </r>
       <r>    5.9560    0.0000 </r>
       <r>    6.1361    0.0000 </r>
       <r>    6.1749    0.0000 </r>
       <r>    6.3604    0.0000 </r>
       <r>    6.4425    0.0000 </r>
       <r>    6.4580    0.0000 </r>
       <r>    6.5598    0.0000 </r>
       <r>    6.5776    0.0000 </r>
       <r>    6.7836    0.0000 </r>
       <r>    6.7936    0.0000 </r>
       <r>    6.8690    0.0000 </r>
       <r>    6.9227    0.0000 </r>
       <r>    7.0976    0.0000 </r>
       <r>    7.2037    0.0000 </r>
       <r>    7.3224    0.0000 </r>
       <r>    7.3925    0.0000 </r>
       <r>    7.4180    0.0000 </r>
      </set>
      <set comment="kpoint 9">
       <r>  -12.3980    1.0000 </r>
       <r>  -11.8791    1.0000 </r>
       <r>  -10.9228    1.0000 </r>
       <r>  -10.1296    1.0000 </r>
       <r>   -9.8480    1.0000 </r>
       <r>   -9.2307    1.0000 </r>
       <r>   -7.9671    1.0000 </r>
       <r>   -7.2823    1.0000 </r>
       <r>   -6.9530    1.0000 </r>
       <r>   -6.8475    1.0000 </r>
       <r>   -6.8166    1.0000 </r>
       <r>   -6.6036    1.0000 </r>
       <r>   -6.3901    1.0000 </r>
       <r>   -6.0487    1.0000 </r>
       <r>   -6.0435    1.0000 </r>
       <r>   -5.9366    1.0000 </r>
       <r>   -5.6539    1.0000 </r>
       <r>   -5.5862    1.0000 </r>
       <r>   -5.3754    1.0000 </r>
       <r>   -5.0142    1.0000 </r>
       <r>   -4.8446    1.0000 </r>
       <r>   -4.8441    1.0000 </r>
       <r>   -4.6916    1.0000 </r>
       <r>   -4.4294    1.0000 </r>
       <r>   -4.0716    1.0000 </r>
       <r>   -3.9933    1.0000 </r>
       <r>   -3.9613    1.0000 </r>
       <r>   -3.6065    1.0000 </r>
       <r>   -3.5989    1.0000 </r>
       <r>   -3.2213    1.0000 </r>
       <r>   -3.2079    1.0000 </r>
       <r>   -3.0157    1.0000 </r>
       <r>   -2.8864    1.0000 </r>
       <r>   -2.5804    1.0000 </r>
       <r>   -2.4833    1.0000 </r>
       <r>   -2.3842    1.0000 </r>
       <r>   -2.0647    1.0000 </r>
       <r>   -1.9384    1.0000 </r>
       <r>   -1.6624    1.0000 </r>
       <r>   -1.5463    1.0000 </r>
       <r>   -1.5393    1.0000 </r>
       <r>   -1.2843    1.0000 </r>
       <r>   -1.2125    1.0000 </r>
       <r>   -1.1989    1.0000 </r>
       <r>   -1.0952    1.0000 </r>
       <r>   -1.0025    1.0000 </r>
       <r>   -0.8078    1.0000 </r>
       <r>   -0.2835    1.0000 </r>
       <r>   -0.2409    1.0000 </r>
       <r>   -0.1118    1.0000 </r>
       <r>   -0.0019    1.0000 </r>
       <r>    0.2752    1.0000 </r>
       <r>    0.3258    1.0000 </r>
       <r>    0.5368    1.0000 </r>
       <r>    0.6192    1.0000 </r>
       <r>    0.6924    1.0000 </r>
       <r>    0.8988    1.0000 </r>
       <r>    1.0137    1.0000 </r>
       <r>    1.1586    1.0000 </r>
       <r>    1.2917    1.0000 </r>
       <r>    1.3970    1.0000 </r>
       <r>    1.5853    1.0000 </r>
       <r>    1.5865    1.0000 </r>
       <r>    1.7437    1.0000 </r>
       <r>    1.8770    1.0000 </r>
       <r>    2.0996    1.0000 </r>
       <r>    2.1433    1.0000 </r>
       <r>    2.2280    1.0000 </r>
       <r>    2.3211    1.0000 </r>
       <r>    2.3653    1.0000 </r>
       <r>    2.4270    1.0000 </r>
       <r>    2.4863    1.0000 </r>
       <r>    2.7628    1.0000 </r>
       <r>    2.7692    1.0000 </r>
       <r>    2.9478    1.0000 </r>
       <r>    2.9755    1.0000 </r>
       <r>    3.0969    1.0000 </r>
       <r>    3.1219    1.0000 </r>
       <r>    3.2360    1.0000 </r>
       <r>    3.3654    1.0000 </r>
       <r>    3.4273    1.0000 </r>
       <r>    3.4893    1.0000 </r>
       <r>    3.5474    1.0000 </r>
       <r>    3.5701    1.0000 </r>
       <r>    3.6975    1.0000 </r>
       <r>    3.7973    1.0000 </r>
       <r>    4.0593    1.0000 </r>
       <r>    4.3271    1.0000 </r>
       <r>    4.4237    1.0000 </r>
       <r>    4.4504    1.0000 </r>
       <r>    4.7772    1.0000 </r>
       <r>    4.9058    1.0000 </r>
       <r>    4.9503    1.0000 </r>
       <r>    5.2478    1.0000 </r>
       <r>    5.3027    1.0000 </r>
       <r>    5.4069    1.0000 </r>
       <r>    5.5833    0.9998 </r>
       <r>    5.6106    0.3929 </r>
       <r>    5.7672    0.0000 </r>
       <r>    5.8131    0.0000 </r>
       <r>    5.8244    0.0000 </r>
       <r>    6.0665    0.0000 </r>
       <r>    6.2027    0.0000 </r>
       <r>    6.3308    0.0000 </r>
       <r>    6.5177    0.0000 </r>
       <r>    6.5529    0.0000 </r>
       <r>    6.5772    0.0000 </r>
       <r>    6.6333    0.0000 </r>
       <r>    6.6597    0.0000 </r>
       <r>    6.7942    0.0000 </r>
       <r>    6.8552    0.0000 </r>
       <r>    6.9496    0.0000 </r>
       <r>    6.9876    0.0000 </r>
       <r>    7.0431    0.0000 </r>
       <r>    7.1735    0.0000 </r>
       <r>    7.3067    0.0000 </r>
      </set>
      <set comment="kpoint 10">
       <r>  -12.3973    1.0000 </r>
       <r>  -11.8794    1.0000 </r>
       <r>  -10.9341    1.0000 </r>
       <r>  -10.1074    1.0000 </r>
       <r>   -9.8356    1.0000 </r>
       <r>   -9.2531    1.0000 </r>
       <r>   -8.0273    1.0000 </r>
       <r>   -7.2326    1.0000 </r>
       <r>   -6.9178    1.0000 </r>
       <r>   -6.8601    1.0000 </r>
       <r>   -6.7709    1.0000 </r>
       <r>   -6.4924    1.0000 </r>
       <r>   -6.3996    1.0000 </r>
       <r>   -6.1675    1.0000 </r>
       <r>   -6.0676    1.0000 </r>
       <r>   -5.9819    1.0000 </r>
       <r>   -5.7203    1.0000 </r>
       <r>   -5.6131    1.0000 </r>
       <r>   -5.4382    1.0000 </r>
       <r>   -4.9977    1.0000 </r>
       <r>   -4.8501    1.0000 </r>
       <r>   -4.6514    1.0000 </r>
[...]
       <r>     6.4940    23.3265   210.4889 </r>
       <r>     6.5674    26.9049   212.4917 </r>
       <r>     6.6408    16.9390   213.7782 </r>
       <r>     6.7142    24.5526   215.5961 </r>
       <r>     6.7876    19.0247   217.0068 </r>
       <r>     6.8610    20.2538   218.4945 </r>
       <r>     6.9344    20.7181   220.0278 </r>
       <r>     7.0078    23.5052   221.7573 </r>
       <r>     7.0812    13.8951   222.7933 </r>
       <r>     7.1546    29.4639   224.9744 </r>
       <r>     7.2280    24.5011   226.7823 </r>
       <r>     7.3015    20.2414   228.2713 </r>
       <r>     7.3749    18.1453   229.6145 </r>
       <r>     7.4483    20.8556   231.1599 </r>
       <r>     7.5217     4.5303   231.4956 </r>
       <r>     7.5951     5.7447   231.9173 </r>
       <r>     7.6685     1.1194   232.0000 </r>
       <r>     7.7419     0.0000   232.0000 </r>
       <r>     7.8153     0.0000   232.0000 </r>
       <r>     7.8887     0.0000   232.0000 </r>
       <r>     7.9621     0.0000   232.0000 </r>
       <r>     8.0355     0.0000   232.0000 </r>
       <r>     8.1090     0.0000   232.0000 </r>
       <r>     8.1824     0.0000   232.0000 </r>
       <r>     8.2558     0.0000   232.0000 </r>
       <r>     8.3292     0.0000   232.0000 </r>
       <r>     8.4026     0.0000   232.0000 </r>
       <r>     8.4760     0.0000   232.0000 </r>
       <r>     8.5494     0.0000   232.0000 </r>
       <r>     8.6228     0.0000   232.0000 </r>
      </set>
      <set comment="spin 2">
       <r>   -13.3998     0.0000     0.0000 </r>
       <r>   -13.3264     0.0000     0.0000 </r>
       <r>   -13.2530     0.0000     0.0000 </r>
       <r>   -13.1796     0.0000     0.0000 </r>
       <r>   -13.1062     0.0000     0.0000 </r>
       <r>   -13.0328     0.0000     0.0000 </r>
       <r>   -12.9594     0.0000     0.0000 </r>
       <r>   -12.8859     0.0000     0.0000 </r>
       <r>   -12.8125     0.0000     0.0000 </r>
       <r>   -12.7391     0.0000     0.0000 </r>
       <r>   -12.6657     0.0000     0.0000 </r>
       <r>   -12.5923     0.0000     0.0000 </r>
       <r>   -12.5189     0.0000     0.0000 </r>
       <r>   -12.4455     0.0000     0.0000 </r>
       <r>   -12.3721     4.8415     0.3554 </r>
       <r>   -12.2987    14.6917     1.4339 </r>
       <r>   -12.2253     0.0000     1.5000 </r>
       <r>   -12.1519     0.2443     1.5179 </r>
       <r>   -12.0785    13.3780     2.5000 </r>
       <r>   -12.0050     0.0000     2.5000 </r>
       <r>   -11.9316    13.1839     3.4678 </r>
       <r>   -11.8582     3.2750     3.7404 </r>
       <r>   -11.7848     3.5362     4.0000 </r>
       <r>   -11.7114     0.0000     4.0000 </r>
       <r>   -11.6380     0.0000     4.0000 </r>
       <r>   -11.5646     0.0000     4.0000 </r>
       <r>   -11.4912     0.0000     4.0000 </r>
       <r>   -11.4178     0.0000     4.0000 </r>
       <r>   -11.3444     0.0000     4.0000 </r>
       <r>   -11.2710     0.0000     4.0000 </r>
       <r>   -11.1975     0.0000     4.0000 </r>
       <r>   -11.1241     0.0000     4.0000 </r>
       <r>   -11.0507     0.0000     4.0000 </r>
       <r>   -10.9773     0.0000     4.0000 </r>
       <r>   -10.9039     2.2522     4.1653 </r>
       <r>   -10.8305     4.4729     4.5000 </r>
       <r>   -10.7571    13.6168     5.4996 </r>
       <r>   -10.6837     0.0000     5.5000 </r>
       <r>   -10.6103     0.0000     5.5000 </r>
       <r>   -10.5369     0.0000     5.5000 </r>
       <r>   -10.4635    10.8322     6.2952 </r>
       <r>   -10.3900     2.0998     6.5000 </r>
       <r>   -10.3166     0.0000     6.5000 </r>
       <r>   -10.2432     0.0000     6.5000 </r>
       <r>   -10.1698     0.0000     6.5000 </r>
       <r>   -10.0964     5.2529     6.8856 </r>
       <r>   -10.0230    18.8498     8.2791 </r>
       <r>    -9.9496     9.8182     9.0000 </r>
       <r>    -9.8762     0.0000     9.0000 </r>
       <r>    -9.8028     6.7167     9.4931 </r>
       <r>    -9.7294     9.1158    10.1692 </r>
       <r>    -9.6560     4.2596    10.5000 </r>
       <r>    -9.5826     0.0000    10.5000 </r>
       <r>    -9.5091     0.0000    10.5000 </r>
       <r>    -9.4357     0.0001    10.5000 </r>
       <r>    -9.3623    13.4321    11.4860 </r>
       <r>    -9.2889     0.0000    11.5000 </r>
       <r>    -9.2155     2.2951    11.6685 </r>
       <r>    -9.1421     4.4913    12.0000 </r>
       <r>    -9.0687     0.0000    12.0000 </r>
       <r>    -8.9953     0.0000    12.0000 </r>
       <r>    -8.9219     0.0000    12.0000 </r>
       <r>    -8.8485     0.0000    12.0000 </r>
       <r>    -8.7751     0.0000    12.0000 </r>
       <r>    -8.7016     0.0000    12.0000 </r>
       <r>    -8.6282     0.0000    12.0000 </r>
       <r>    -8.5548     0.0000    12.0000 </r>
       <r>    -8.4814     0.0000    12.0000 </r>
       <r>    -8.4080     0.0000    12.0000 </r>
       <r>    -8.3346     0.0000    12.0000 </r>
       <r>    -8.2612     0.0000    12.0000 </r>
       <r>    -8.1878     0.0000    12.0000 </r>
       <r>    -8.1144     0.0000    12.0000 </r>
       <r>    -8.0410     0.0000    12.0000 </r>
       <r>    -7.9676     1.7535    12.1287 </r>
       <r>    -7.8942     9.9505    12.8592 </r>
       <r>    -7.8207     6.1940    13.3290 </r>
       <r>    -7.7473     2.1563    13.5000 </r>
       <r>    -7.6739     3.4142    13.7506 </r>
       <r>    -7.6005     6.9604    14.2616 </r>
       <r>    -7.5271     3.2475    14.5000 </r>
       <r>    -7.4537     0.0000    14.5000 </r>
       <r>    -7.3803     6.8112    15.0000 </r>
       <r>    -7.3069     9.9567    15.7309 </r>
       <r>    -7.2335     8.9393    16.3878 </r>
       <r>    -7.1601     6.2528    16.8741 </r>
       <r>    -7.0867     1.6834    17.0000 </r>
       <r>    -7.0132     0.0000    17.0000 </r>
       <r>    -6.9398     2.0427    17.1499 </r>
       <r>    -6.8664     9.6201    17.8563 </r>
       <r>    -6.7930    21.4343    19.4298 </r>
       <r>    -6.7196     5.9731    19.8734 </r>
       <r>    -6.6462     5.7926    20.3148 </r>
       <r>    -6.5728    17.7665    21.6244 </r>
       <r>    -6.4994     6.1082    22.0793 </r>
       <r>    -6.4260     6.6203    22.5653 </r>
       <r>    -6.3526     9.6662    23.2765 </r>
       <r>    -6.2792    10.5219    24.0641 </r>
       <r>    -6.2058    10.9760    24.8815 </r>
       <r>    -6.1323     8.3992    25.5191 </r>
       <r>    -6.0589     8.5285    26.1491 </r>
       <r>    -5.9855    13.3193    27.1269 </r>
       <r>    -5.9121    17.4548    28.4334 </r>
       <r>    -5.8387    22.1803    30.0673 </r>
       <r>    -5.7653    11.2180    30.8909 </r>
       <r>    -5.6919    10.0346    31.6295 </r>
       <r>    -5.6185    17.6465    32.9363 </r>
       <r>    -5.5451    11.6003    33.7936 </r>
       <r>    -5.4717     8.7773    34.4417 </r>
       <r>    -5.3983    14.5901    35.5158 </r>
       <r>    -5.3248    10.2713    36.2698 </r>
       <r>    -5.2514    11.2447    37.0970 </r>
       <r>    -5.1780    11.6882    37.9617 </r>
       <r>    -5.1046     7.6614    38.5401 </r>
       <r>    -5.0312    17.2667    39.8100 </r>
       <r>    -4.9578    13.8281    40.8373 </r>
       <r>    -4.8844     8.8590    41.5059 </r>
       <r>    -4.8110    12.8792    42.4561 </r>
       <r>    -4.7376    14.2354    43.5056 </r>
       <r>    -4.6642     8.2391    44.1216 </r>
       <r>    -4.5908    17.1123    45.3933 </r>
       <r>    -4.5173    17.0840    46.6621 </r>
       <r>    -4.4439     6.6118    47.1629 </r>
       <r>    -4.3705    13.1490    48.1285 </r>
       <r>    -4.2971    11.6658    48.9858 </r>
       <r>    -4.2237    10.5723    49.7623 </r>
       <r>    -4.1503    10.9056    50.5703 </r>
       <r>    -4.0769    13.7901    51.5852 </r>
       <r>    -4.0035     8.7021    52.2250 </r>
       <r>    -3.9301    10.6091    53.0049 </r>
       <r>    -3.8567    14.1510    54.0495 </r>
       <r>    -3.7833     4.6264    54.3910 </r>
       <r>    -3.7099    13.0209    55.3468 </r>
       <r>    -3.6364    14.3910    56.4084 </r>
       <r>    -3.5630    12.3485    57.3319 </r>
       <r>    -3.4896    14.3135    58.3914 </r>
       <r>    -3.4162    10.4200    59.1922 </r>
       <r>    -3.3428     6.7412    59.7045 </r>
       <r>    -3.2694    10.9571    60.5306 </r>
       <r>    -3.1960    15.3951    61.6638 </r>
       <r>    -3.1226    12.5497    62.6035 </r>
       <r>    -3.0492     6.3645    63.0817 </r>
       <r>    -2.9758     9.2021    63.7573 </r>
       <r>    -2.9024    10.9438    64.5619 </r>
       <r>    -2.8289    11.0490    65.3752 </r>
       <r>    -2.7555    10.4120    66.1459 </r>
       <r>    -2.6821     9.9923    66.8795 </r>
       <r>    -2.6087     8.6241    67.5218 </r>
       <r>    -2.5353    12.9801    68.4881 </r>
       <r>    -2.4619     6.5378    68.9727 </r>
       <r>    -2.3885     9.0192    69.6348 </r>
       <r>    -2.3151    10.8493    70.4413 </r>
       <r>    -2.2417     9.8458    71.1666 </r>
       <r>    -2.1683     6.5816    71.6498 </r>
       <r>    -2.0949     9.6716    72.3598 </r>
       <r>    -2.0215    19.9862    73.8394 </r>
       <r>    -1.9480     7.8818    74.4558 </r>
       <r>    -1.8746     7.7248    75.0287 </r>
       <r>    -1.8012    12.0131    75.9115 </r>
       <r>    -1.7278    10.9970    76.7191 </r>
       <r>    -1.6544     5.1691    77.1034 </r>
       <r>    -1.5810    22.5555    78.7671 </r>
       <r>    -1.5076    19.5840    80.2138 </r>
       <r>    -1.4342    12.4190    81.1339 </r>
       <r>    -1.3608    20.5947    82.6835 </r>
       <r>    -1.2874    14.3342    83.7524 </r>
       <r>    -1.2140    15.7942    84.9185 </r>
       <r>    -1.1405    17.6258    86.2261 </r>
       <r>    -1.0671    13.3921    87.2096 </r>
       <r>    -0.9937    12.0722    88.0969 </r>
       <r>    -0.9203    12.6787    89.0282 </r>
       <r>    -0.8469    11.4207    89.8666 </r>
       <r>    -0.7735    14.8748    90.9729 </r>
       <r>    -0.7001    16.4910    92.1973 </r>
       <r>    -0.6267     8.5739    92.8375 </r>
       <r>    -0.5533    13.3423    93.8239 </r>
       <r>    -0.4799    10.9824    94.6446 </r>
       <r>    -0.4065    13.1292    95.6084 </r>
       <r>    -0.3331    14.3623    96.6710 </r>
       <r>    -0.2596    14.5643    97.7562 </r>
       <r>    -0.1862    12.1870    98.6515 </r>
       <r>    -0.1128    11.2965    99.5034 </r>
       <r>    -0.0394    16.1734   100.6924 </r>
       <r>     0.0340    14.5601   101.7796 </r>
       <r>     0.1074    11.7358   102.6639 </r>
       <r>     0.1808     5.2173   103.0698 </r>
       <r>     0.2542    13.0671   104.0297 </r>
       <r>     0.3276    12.9177   104.9830 </r>
       <r>     0.4010    13.7138   106.0007 </r>
       <r>     0.4744    14.9341   107.0987 </r>
       <r>     0.5479    15.8540   108.2748 </r>
       <r>     0.6213    18.4682   109.6574 </r>
       <r>     0.6947     7.1264   110.1824 </r>
       <r>     0.7681    11.8854   111.0549 </r>
       <r>     0.8415    18.7542   112.4348 </r>
       <r>     0.9149    15.2779   113.5717 </r>
       <r>     0.9883    12.9502   114.5437 </r>
       <r>     1.0617     8.4564   115.1683 </r>
       <r>     1.1351    17.7800   116.4739 </r>
       <r>     1.2085    19.2421   117.9032 </r>
       <r>     1.2819     8.0243   118.4969 </r>
       <r>     1.3553    20.4320   120.0062 </r>
       <r>     1.4288     6.7311   120.5204 </r>
       <r>     1.5022    16.4399   121.7318 </r>
       <r>     1.5756    15.2455   122.8745 </r>
       <r>     1.6490    18.5272   124.2474 </r>
       <r>     1.7224    10.8299   125.0594 </r>
       <r>     1.7958    24.2590   126.8406 </r>
       <r>     1.8692    19.9415   128.3185 </r>
       <r>     1.9426    15.9362   129.4950 </r>
       <r>     2.0160    25.4313   131.3619 </r>
       <r>     2.0894    15.7136   132.5311 </r>
       <r>     2.1628    25.1702   134.4142 </r>
       <r>     2.2363    20.6098   135.9277 </r>
       <r>     2.3097    21.8276   137.5566 </r>
       <r>     2.3831    23.1050   139.2616 </r>
       <r>     2.4565    19.6162   140.7269 </r>
       <r>     2.5299    24.8800   142.5749 </r>
       <r>     2.6033    12.6927   143.5177 </r>
       <r>     2.6767    20.9344   145.0592 </r>
       <r>     2.7501    15.8512   146.2412 </r>
       <r>     2.8235    27.3005   148.2644 </r>
       <r>     2.8969    26.3851   150.2117 </r>
       <r>     2.9703    21.3536   151.7945 </r>
       <r>     3.0438    24.8596   153.6440 </r>
       <r>     3.1172    21.5562   155.2409 </r>
       <r>     3.1906    14.8667   156.3531 </r>
       <r>     3.2640    24.6512   158.1659 </r>
       <r>     3.3374    26.9167   160.1716 </r>
       <r>     3.4108    15.0273   161.2877 </r>
       <r>     3.4842    16.9176   162.5436 </r>
       <r>     3.5576    20.8303   164.1196 </r>
       <r>     3.6310    15.7809   165.2819 </r>
       <r>     3.7044    18.7196   166.6565 </r>
       <r>     3.7778    14.4792   167.7367 </r>
       <r>     3.8512    16.9945   168.9911 </r>
       <r>     3.9247    12.4700   169.9091 </r>
       <r>     3.9981    15.0388   171.0134 </r>
       <r>     4.0715    20.1066   172.5049 </r>
       <r>     4.1449    16.6296   173.7393 </r>
       <r>     4.2183     5.8595   174.1695 </r>
       <r>     4.2917    15.0286   175.2738 </r>
       <r>     4.3651    14.4336   176.3685 </r>
       <r>     4.4385    14.0179   177.4127 </r>
       <r>     4.5119    13.8252   178.4287 </r>
       <r>     4.5853     6.7777   178.9419 </r>
       <r>     4.6587    13.1755   179.9109 </r>
       <r>     4.7322    13.7360   180.9301 </r>
       <r>     4.8056    12.1755   181.8401 </r>
       <r>     4.8790     8.7039   182.4878 </r>
       <r>     4.9524    13.1830   183.4579 </r>
       <r>     5.0258    11.9553   184.3441 </r>
       <r>     5.0992    10.5718   185.1227 </r>
       <r>     5.1726     9.9625   185.8597 </r>
       <r>     5.2460    19.1579   187.2661 </r>
       <r>     5.3194    12.6114   188.1982 </r>
       <r>     5.3928    17.0673   189.4614 </r>
       <r>     5.4662    17.7019   190.7761 </r>
       <r>     5.5396    14.5904   191.8706 </r>
       <r>     5.6131     9.6960   192.5849 </r>
       <r>     5.6865    16.3197   193.8126 </r>
       <r>     5.7599    21.4313   195.3892 </r>
       <r>     5.8333    17.1516   196.6512 </r>
       <r>     5.9067    11.5739   197.5070 </r>
       <r>     5.9801    26.1456   199.4269 </r>
       <r>     6.0535    20.2849   200.9423 </r>
       <r>     6.1269    20.7516   202.4839 </r>
       <r>     6.2003    18.1326   203.8337 </r>
       <r>     6.2737    21.6127   205.4505 </r>
       <r>     6.3471    21.8399   207.0749 </r>
       <r>     6.4206    19.5688   208.5239 </r>
       <r>     6.4940    17.7868   209.8452 </r>
       <r>     6.5674    26.4539   211.8031 </r>
       <r>     6.6408    21.8520   213.4103 </r>
       <r>     6.7142    22.4711   215.0604 </r>
       <r>     6.7876    20.5852   216.5758 </r>
       <r>     6.8610    20.7496   218.1029 </r>
       <r>     6.9344    21.8599   219.7082 </r>
       <r>     7.0078    18.3352   221.0609 </r>
       <r>     7.0812    18.3802   222.4112 </r>
       <r>     7.1546    25.7445   224.3117 </r>
       <r>     7.2280    24.7609   226.1544 </r>
       <r>     7.3015    27.1575   228.1698 </r>
       <r>     7.3749    13.6405   229.1761 </r>
       <r>     7.4483    23.7694   230.9290 </r>
       <r>     7.5217     6.1009   231.3891 </r>
       <r>     7.5951     6.2856   231.8505 </r>
       <r>     7.6685     2.0368   232.0000 </r>
       <r>     7.7419     0.0000   232.0000 </r>
       <r>     7.8153     0.0000   232.0000 </r>
       <r>     7.8887     0.0000   232.0000 </r>
       <r>     7.9621     0.0000   232.0000 </r>
       <r>     8.0355     0.0000   232.0000 </r>
       <r>     8.1090     0.0000   232.0000 </r>
       <r>     8.1824     0.0000   232.0000 </r>
       <r>     8.2558     0.0000   232.0000 </r>
       <r>     8.3292     0.0000   232.0000 </r>
       <r>     8.4026     0.0000   232.0000 </r>
       <r>     8.4760     0.0000   232.0000 </r>
       <r>     8.5494     0.0000   232.0000 </r>
       <r>     8.6228     0.0000   232.0000 </r>
      </set>
     </set>
    </array>
   </total>
  </dos>
 </calculation>
 <structure name="finalpos" >
  <crystal>
   <varray name="basis" >
    <v>      12.65122604       0.00000000       0.00000000 </v>
    <v>     -10.12098122       7.59073544       0.00000000 </v>
    <v>       0.00000000       0.00000000       9.42966843 </v>
   </varray>
   <i name="volume">    905.55095403 </i>
   <varray name="rec_basis" >
    <v>       0.07904372       0.10539164       0.00000000 </v>
    <v>       0.00000000       0.13173954       0.00000000 </v>
    <v>       0.00000000       0.00000000       0.10604827 </v>
   </varray>
  </crystal>
  <varray name="positions" >
   <v>       0.96284664       0.98938477       0.00000000 </v>
   <v>       0.57395768       0.87827361       0.10000004 </v>
   <v>       0.18506873       0.76716244       0.20000003 </v>
   <v>       0.46284664       0.48938474       0.00000000 </v>
   <v>       0.07395767       0.37827361       0.10000004 </v>
   <v>       0.68506873       0.26716244       0.20000003 </v>
   <v>       0.76840210       0.68382919       0.05000002 </v>
   <v>       0.37951314       0.57271802       0.15000004 </v>
   <v>       0.99062419       0.46160680       0.25000009 </v>
   <v>       0.26840216       0.18382917       0.05000001 </v>
   <v>       0.87951320       0.07271801       0.15000004 </v>
   <v>       0.49062419       0.96160680       0.25000009 </v>
   <v>       0.34472227       0.67236114       0.25000006 </v>
   <v>       0.67805564       0.83902782       0.55000007 </v>
   <v>       0.01138902       0.00569463       0.85000002 </v>
   <v>       0.01138897       0.00569449       0.25000006 </v>
   <v>       0.34472233       0.17236123       0.55000007 </v>
   <v>       0.67805570       0.33902797       0.85000002 </v>
   <v>       0.67805564       0.33902782       0.25000006 </v>
   <v>       0.01138890       0.50569451       0.55000007 </v>
   <v>       0.34472239       0.67236131       0.85000002 </v>
   <v>       0.09472227       0.92236114       0.40000004 </v>
   <v>       0.42805564       0.08902788       0.69999999 </v>
   <v>       0.76138902       0.25569463       0.00000000 </v>
   <v>       0.42805564       0.58902788       0.40000004 </v>
   <v>       0.76138902       0.75569457       0.69999999 </v>
   <v>       0.09472239       0.92236137       0.00000000 </v>
   <v>       0.76138890       0.25569448       0.40000004 </v>
   <v>       0.09472239       0.42236123       0.69999999 </v>
   <v>       0.42805564       0.58902794       0.00000000 </v>
   <v>       0.17805557       0.83902770       0.25000006 </v>
   <v>       0.51138896       0.00569451       0.55000007 </v>
   <v>       0.84472227       0.17236114       0.85000002 </v>
   <v>       0.51138896       0.50569451       0.25000006 </v>
   <v>       0.84472227       0.67236120       0.55000007 </v>
   <v>       0.17805564       0.83902794       0.85000002 </v>
   <v>       0.84472233       0.17236118       0.25000006 </v>
   <v>       0.17805564       0.33902791       0.55000007 </v>
   <v>       0.51138902       0.50569463       0.85000002 </v>
   <v>       0.26138896       0.75569445       0.40000004 </v>
   <v>       0.59472233       0.92236120       0.69999999 </v>
   <v>       0.92805576       0.08902800       0.00000000 </v>
   <v>       0.59472233       0.42236116       0.40000004 </v>
   <v>       0.92805570       0.58902788       0.69999999 </v>
   <v>       0.26138902       0.75569463       0.00000000 </v>
   <v>       0.92805564       0.08902787       0.40000004 </v>
   <v>       0.26138902       0.25569463       0.69999999 </v>
   <v>       0.59472239       0.42236134       0.00000000 </v>
  </varray>
 </structure>
</modeling>
