 vasp.6.4.3 19Mar24 (build Oct 22 2024 11:23:12) complex                        
  
 executed on             LinuxIFC date 2025.06.08  16:00:44
 running   64 mpi-ranks, on    4 nodes
 distrk:  each k-point on   64 cores,    1 groups
 distr:  one band on NCORE=  16 cores,    4 groups


--------------------------------------------------------------------------------------------------------


 INCAR:
   SYSTEM = Si and Ge interface calculation
   ISTART = 0
   ICHARG = 2
   LWAVE = .FALSE.
   LREAL = AUTO
   ENCUT = 700
   ENAUG = 900
   ADDGRID = .TRUE.
   LMAXMIX = 6
   LASPH = .TRUE.
   LMIXTAU = .TRUE.
   NCORE = 16
   NELM = 100
   NBANDS = 288
   EDIFF = 1d-7
   AMIX = 0.6
   ISMEAR = 0
   SIGMA = 0.01
   NELECT = 480
   ISPIN = 2
   NUPDOWN = 1
   LVTOT = .FALSE.
   LVHAR = .TRUE.

 POTCAR:    PAW_PBE Si 05Jan2001                  
 POTCAR:    PAW_PBE Sn 08Apr2002                  
 -----------------------------------------------------------------------------
|                                                                             |
|           W    W    AA    RRRRR   N    N  II  N    N   GGGG   !!!           |
|           W    W   A  A   R    R  NN   N  II  NN   N  G    G  !!!           |
|           W    W  A    A  R    R  N N  N  II  N N  N  G       !!!           |
|           W WW W  AAAAAA  RRRRR   N  N N  II  N  N N  G  GGG   !            |
|           WW  WW  A    A  R   R   N   NN  II  N   NN  G    G                |
|           W    W  A    A  R    R  N    N  II  N    N   GGGG   !!!           |
|                                                                             |
|     You use a magnetic or noncollinear calculation, but did not specify     |
|     the initial magnetic moment with the MAGMOM tag. Note that a            |
|     default of 8.333e-3 will be used for all atoms. This ferromagnetic      |
|     setup may break the symmetry of the crystal, in particular it may       |
|     rule out finding an antiferromagnetic solution. Thence, we              |
|     recommend setting the initial magnetic moment manually or verifying     |
|     carefully that this magnetic setup is desired.                          |
|                                                                             |
 -----------------------------------------------------------------------------

 POTCAR:    PAW_PBE Si 05Jan2001                  
   VRHFIN =Si: s2p2                                                                                 
   LEXCH  = PE                                                                                      
   EATOM  =   103.0669 eV,    7.5752 Ry                                                             
                                                                                                    
   TITEL  = PAW_PBE Si 05Jan2001                                                                    
   LULTRA =        F    use ultrasoft PP ?                                                          
   IUNSCR =        1    unscreen: 0-lin 1-nonlin 2-no                                               
   RPACOR =    1.500    partial core radius                                                         
   POMASS =   28.085; ZVAL   =    4.000    mass and valenz                                          
   RCORE  =    1.900    outmost cutoff radius                                                       
   RWIGS  =    2.480; RWIGS  =    1.312    wigner-seitz radius (au A)                               
   ENMAX  =  245.345; ENMIN  =  184.009 eV                                                          
   ICORE  =        2    local potential                                                             
   LCOR   =        T    correct aug charges                                                         
   LPAW   =        T    paw PP                                                                      
   EAUG   =  322.069                                                                                
   DEXC   =    0.000                                                                                
   RMAX   =    1.950    core radius for proj-oper                                                   
   RAUG   =    1.300    factor for augmentation sphere                                              
   RDEP   =    1.993    radius for radial grids                                                     
   RDEPT  =    1.837    core radius for aug-charge                                                  
                                                                                                    
   Atomic configuration                                                                             
    6 entries                                                                                       
     n  l   j            E        occ.                                                              
     1  0  0.50     -1785.8828   2.0000                                                             
     2  0  0.50      -139.4969   2.0000                                                             
     2  1  1.50       -95.5546   6.0000                                                             
     3  0  0.50       -10.8127   2.0000                                                             
     3  1  0.50        -4.0811   2.0000                                                             
     3  2  1.50        -4.0817   0.0000                                                             
   Description                                                                                      
     l       E           TYP  RCUT    TYP  RCUT                                                     
     0    -10.8127223     23  1.900                                                                 
     0     -7.6451159     23  1.900                                                                 
     1     -4.0811372     23  1.900                                                                 
     1      2.4879257     23  1.900                                                                 
     2     -4.0817478      7  1.900                                                                 
  local pseudopotential read in
  partial core-charges read in
  partial kinetic energy density read in
  atomic valenz-charges read in
  non local Contribution for L=           0  read in
    real space projection operators read in
  non local Contribution for L=           0  read in
    real space projection operators read in
  non local Contribution for L=           1  read in
    real space projection operators read in
  non local Contribution for L=           1  read in
    real space projection operators read in
    PAW grid and wavefunctions read in
 
   number of l-projection  operators is LMAX  =           4
   number of lm-projection operators is LMMAX =           8
 
 POTCAR:    PAW_PBE Sn 08Apr2002                  
   VRHFIN =Sn: s2p2                                                                                 
   LEXCH  = PE                                                                                      
   EATOM  =    94.0860 eV,    6.9151 Ry                                                             
                                                                                                    
   TITEL  = PAW_PBE Sn 08Apr2002                                                                    
   LULTRA =        F    use ultrasoft PP ?                                                          
   IUNSCR =        1    unscreen: 0-lin 1-nonlin 2-no                                               
   RPACOR =    2.000    partial core radius                                                         
   POMASS =  118.710; ZVAL   =    4.000    mass and valenz                                          
   RCORE  =    3.000    outmost cutoff radius                                                       
   RWIGS  =    2.960; RWIGS  =    1.566    wigner-seitz radius (au A)                               
   ENMAX  =  103.236; ENMIN  =   77.427 eV                                                          
   ICORE  =        3    local potential                                                             
   LCOR   =        T    correct aug charges                                                         
   LPAW   =        T    paw PP                                                                      
   EAUG   =  263.585                                                                                
   DEXC   =    0.000                                                                                
   RMAX   =    3.078    core radius for proj-oper                                                   
   RAUG   =    1.300    factor for augmentation sphere                                              
   RDEP   =    3.022    radius for radial grids                                                     
   RDEPT  =    2.655    core radius for aug-charge                                                  
                                                                                                    
   Atomic configuration                                                                             
   13 entries                                                                                       
     n  l   j            E        occ.                                                              
     1  0  0.50    -29007.2859   2.0000                                                             
     2  0  0.50     -4378.8056   2.0000                                                             
     2  1  1.50     -3930.4293   6.0000                                                             
     3  0  0.50      -845.0264   2.0000                                                             
     3  1  1.50      -698.5725   6.0000                                                             
     3  2  2.50      -473.2839  10.0000                                                             
     4  0  0.50      -133.9036   2.0000                                                             
     4  1  1.50       -89.6752   6.0000                                                             
     4  2  2.50       -25.8375  10.0000                                                             
     5  0  0.50       -10.5484   2.0000                                                             
     5  1  0.50        -3.6940   2.0000                                                             
     5  2  1.50        -1.3606   0.0000                                                             
     4  3  2.50        -4.0817   0.0000                                                             
   Description                                                                                      
     l       E           TYP  RCUT    TYP  RCUT                                                     
     0    -10.5483727     23  3.000                                                                 
     0     27.2116520     23  3.000                                                                 
     1     -3.6939829     23  3.000                                                                 
     1      1.9821976     23  3.000                                                                 
     2     -1.3605826     23  3.000                                                                 
     3     -2.7211652     23  3.000                                                                 
  local pseudopotential read in
  partial core-charges read in
  partial kinetic energy density read in
  atomic valenz-charges read in
  non local Contribution for L=           0  read in
    real space projection operators read in
  non local Contribution for L=           0  read in
    real space projection operators read in
  non local Contribution for L=           1  read in
    real space projection operators read in
  non local Contribution for L=           1  read in
    real space projection operators read in
  non local Contribution for L=           2  read in
    real space projection operators read in
    PAW grid and wavefunctions read in
 
   number of l-projection  operators is LMAX  =           5
   number of lm-projection operators is LMMAX =          13
 
 Optimization of the real space projectors (new method)

 maximal supplied QI-value         = 19.84
 optimisation between [QCUT,QGAM] = [ 13.49, 26.99] = [ 50.98,203.92] Ry 
 Optimized for a Real-space Cutoff    1.07 Angstroem

   l    n(q)    QCUT    max X(q) W(low)/X(q) W(high)/X(q)  e(spline) 
   0      9    13.493   159.560    0.22E-03    0.15E-03    0.72E-07
   0      9    13.493   115.863    0.21E-03    0.15E-03    0.71E-07
   1      8    13.493    88.339    0.15E-03    0.11E-03    0.13E-06
   1      8    13.493    48.592    0.15E-03    0.10E-03    0.13E-06
 Optimization of the real space projectors (new method)

 maximal supplied QI-value         = 12.47
 optimisation between [QCUT,QGAM] = [ 12.47, 27.06] = [ 43.56,205.12] Ry 
 Optimized for a Real-space Cutoff    1.58 Angstroem

   l    n(q)    QCUT    max X(q) W(low)/X(q) W(high)/X(q)  e(spline) 
   0     13    12.472    14.688    0.45E-04    0.45E-04    0.25E-05
   0     13    12.472     7.308    0.94E-04    0.11E-03    0.61E-05
   1     12    12.472    45.102    0.34E-03    0.14E-03    0.21E-05
   1     12    12.472    30.691    0.31E-03    0.13E-03    0.20E-05
   2     12    12.472     7.156    0.86E-04    0.11E-03    0.17E-05
 WARNING: PSMAXN for non-local potential too small
          PSMAXN should be >   13.5545592237991       NTYP=           2
  PAW_PBE Si 05Jan2001                  :
 energy of atom  1       EATOM= -103.0669
 kinetic energy error for atom=    0.0003 (will be added to EATOM!!)
  PAW_PBE Sn 08Apr2002                  :
 energy of atom  2       EATOM=  -94.0860
 kinetic energy error for atom=    0.0000 (will be added to EATOM!!)
 
 
 POSCAR: Si+Sn
  positions in direct lattice
  No initial velocities read in


 exchange-correlation table for PE
   RHO(1)=    0.500       N(1)  =     2000
   RHO(2)=  100.500       N(2)  =     4000
 


--------------------------------------------------------------------------------------------------------


 ion  position               nearest neighbor table
   1  0.667  0.645  0.000-  61 2.35  37 2.35  62 2.35  96 3.26
   2  0.667  0.395  0.076-  62 2.35  43 2.35  38 2.35  63 2.35
   3  0.667  0.145  0.151-  63 2.35  44 2.35  64 2.35  39 2.35
   4  0.667  0.895  0.227-  64 2.35  45 2.35  65 2.35  40 2.35
   5  0.667  0.645  0.302-  65 2.35  46 2.35  41 2.35  66 2.35
   6  0.667  0.395  0.378-  66 2.35  47 2.35  42 2.35  73 2.79
   7  0.333  0.312  0.000-  67 2.35  43 2.35  68 2.35 102 3.24
   8  0.333  0.062  0.076-  49 2.35  44 2.35  68 2.35  69 2.35
   9  0.333  0.812  0.151-  69 2.35  50 2.35  45 2.35  70 2.35
  10  0.333  0.562  0.227-  70 2.35  46 2.35  51 2.35  71 2.35
  11  0.333  0.312  0.302-  52 2.35  71 2.35  47 2.35  72 2.35
  12  0.333  0.062  0.378-  72 2.35  48 2.35  53 2.35 103 2.44
  13  0.000  0.979  0.000-  55 2.35  49 2.35  56 2.35  90 2.61 108 2.63
  14  1.000  0.729  0.076-  37 2.35  56 2.35  50 2.35  57 2.35
  15  1.000  0.479  0.151-  38 2.35  51 2.35  58 2.35  57 2.35
  16  1.000  0.229  0.227-  39 2.35  52 2.35  58 2.35  59 2.35
  17  1.000  0.979  0.302-  40 2.35  53 2.35  59 2.35  60 2.35
  18  1.000  0.729  0.378-  60 2.35  54 2.35  41 2.35  91 2.44 109 2.79
  19  0.667  0.145  0.000-  44 2.35  55 2.35  43 2.35  90 3.26
  20  0.667  0.895  0.076-  56 2.35  61 2.35  45 2.35  44 2.35
  21  0.667  0.645  0.151-  57 2.35  62 2.35  46 2.35  45 2.35
  22  0.667  0.395  0.227-  63 2.35  58 2.35  46 2.35  47 2.35
  23  0.667  0.145  0.302-  59 2.35  64 2.35  47 2.35  48 2.35
  24  0.667  0.895  0.378-  60 2.35  48 2.35  65 2.35  79 2.79
  25  0.333  0.812  0.000-  61 2.35  49 2.35  50 2.35 108 3.24
  26  0.333  0.562  0.076-  50 2.35  62 2.35  67 2.35  51 2.35
  27  0.333  0.312  0.151-  63 2.35  51 2.35  68 2.35  52 2.35
  28  0.333  0.062  0.227-  64 2.35  52 2.35  69 2.35  53 2.35
  29  0.333  0.812  0.302-  53 2.35  65 2.35  70 2.35  54 2.35
  30  0.333  0.562  0.378-  54 2.35  66 2.35  71 2.35  97 2.44
  31  0.000  0.479  0.000-  37 2.35  67 2.35  38 2.35  96 2.61 102 2.63
  32  1.000  0.229  0.076-  38 2.35  55 2.35  68 2.35  39 2.35
  33  1.000  0.979  0.151-  56 2.35  39 2.35  69 2.35  40 2.35
  34  1.000  0.729  0.227-  57 2.35  40 2.35  70 2.35  41 2.35
  35  1.000  0.479  0.302-  41 2.35  58 2.35  71 2.35  42 2.35
  36  1.000  0.229  0.378-  42 2.35  72 2.35  59 2.35  85 2.44 115 2.79
  37  0.917  0.645  0.000-  14 2.35  31 2.35   1 2.35  96 2.79
  38  0.917  0.395  0.076-  32 2.35  15 2.35   2 2.35  31 2.35
  39  0.917  0.145  0.151-  16 2.35  33 2.35  32 2.35   3 2.35
  40  0.917  0.895  0.227-  17 2.35  34 2.35  33 2.35   4 2.35
  41  0.917  0.645  0.302-  35 2.35   5 2.35  18 2.35  34 2.35
  42  0.917  0.395  0.378-  36 2.35   6 2.35  35 2.35  85 3.26
  43  0.583  0.312  0.000-   2 2.35   7 2.35  19 2.35 114 2.44
  44  0.583  0.062  0.076-   3 2.35   8 2.35  19 2.35  20 2.35
  45  0.583  0.812  0.151-   4 2.35   9 2.35  21 2.35  20 2.35
  46  0.583  0.562  0.227-   5 2.35  10 2.35  21 2.35  22 2.35
  47  0.583  0.312  0.302-  23 2.35  11 2.35   6 2.35  22 2.35
  48  0.583  0.062  0.378-  12 2.35  24 2.35  23 2.35 103 3.24
  49  0.250  0.979  0.000-   8 2.35  25 2.35  13 2.35  78 2.44 108 2.79
  50  0.250  0.729  0.076-  26 2.35   9 2.35  14 2.35  25 2.35
  51  0.250  0.479  0.151-  27 2.35  15 2.35  10 2.35  26 2.35
  52  0.250  0.229  0.227-  11 2.35  28 2.35  16 2.35  27 2.35
  53  0.250  0.979  0.302-  29 2.35  17 2.35  12 2.35  28 2.35
  54  0.250  0.729  0.378-  30 2.35  18 2.35  29 2.35  91 2.61  97 2.63
  55  0.917  0.145  0.000-  32 2.35  13 2.35  19 2.35  90 2.79
  56  0.917  0.895  0.076-  33 2.35  20 2.35  14 2.35  13 2.35
  57  0.917  0.645  0.151-  34 2.35  21 2.35  15 2.35  14 2.35
  58  0.917  0.395  0.227-  35 2.35  22 2.35  15 2.35  16 2.35
  59  0.917  0.145  0.302-  23 2.35  17 2.35  16 2.35  36 2.35
  60  0.917  0.895  0.378-  18 2.35  24 2.35  17 2.35  91 3.26
  61  0.583  0.812  0.000-   1 2.35  25 2.35  20 2.35 120 2.44
  62  0.583  0.562  0.076-  26 2.35   2 2.35  21 2.35   1 2.35
  63  0.583  0.312  0.151-  27 2.35   3 2.35  22 2.35   2 2.35
  64  0.583  0.062  0.227-  28 2.35   4 2.35  23 2.35   3 2.35
  65  0.583  0.812  0.302-   5 2.35  29 2.35  24 2.35   4 2.35
  66  0.583  0.562  0.378-  30 2.35   6 2.35   5 2.35  97 3.24
  67  0.250  0.479  0.000-  31 2.35   7 2.35  26 2.35  84 2.44 102 2.79
  68  0.250  0.229  0.076-  32 2.35   8 2.35  27 2.35   7 2.35
  69  0.250  0.979  0.151-   9 2.35  33 2.35   8 2.35  28 2.35
  70  0.250  0.729  0.227-  10 2.35  34 2.35  29 2.35   9 2.35
  71  0.250  0.479  0.302-  11 2.35  35 2.35  10 2.35  30 2.35
  72  0.250  0.229  0.378-  12 2.35  36 2.35  11 2.35  85 2.61 103 2.63
  73  0.606  0.270  0.463-   6 2.79 110 2.83 103 2.88 115 2.88
  74  0.356  0.020  0.554- 111 2.83 103 2.83 104 2.88 116 2.88
  75  0.106  0.770  0.644- 112 2.83 104 2.83 117 2.88 105 2.88
  76  0.856  0.520  0.734- 105 2.83 113 2.83 118 2.88 106 2.88
  77  0.606  0.270  0.824- 114 2.83 106 2.83 119 2.88 107 2.88
  78  0.356  0.020  0.915-  49 2.44 107 2.83 120 2.88 108 2.88
  79  0.606  0.770  0.463-  24 2.79 116 2.83 109 2.88  97 2.88
  80  0.356  0.520  0.554- 117 2.83  97 2.83 110 2.88  98 2.88
  81  0.106  0.270  0.644- 118 2.83  98 2.83 111 2.88  99 2.88
  82  0.856  0.020  0.734-  99 2.83 119 2.83 112 2.88 100 2.88
  83  0.606  0.770  0.824- 120 2.83 100 2.83 113 2.88 101 2.88
  84  0.356  0.520  0.915-  67 2.44 101 2.83 114 2.88 102 2.88
  85  0.106  0.270  0.463-  36 2.44  72 2.61  98 2.83 103 2.88 115 2.88  42 3.26
  86  0.856  0.020  0.554-  99 2.83 115 2.83 104 2.88 116 2.88
  87  0.606  0.770  0.644- 100 2.83 116 2.83 105 2.88 117 2.88
  88  0.356  0.520  0.734- 117 2.83 101 2.83 106 2.88 118 2.88
  89  0.106  0.270  0.824- 102 2.83 118 2.83 107 2.88 119 2.88
  90  0.856  0.020  0.915-  13 2.61  55 2.79 119 2.83 108 2.88 120 2.88  19 3.26
  91  0.106  0.770  0.463-  18 2.44  54 2.61 104 2.83  97 2.88 109 2.88  60 3.26
  92  0.856  0.520  0.554- 105 2.83 109 2.83  98 2.88 110 2.88
  93  0.606  0.270  0.644- 106 2.83 110 2.83  99 2.88 111 2.88
  94  0.356  0.020  0.734- 111 2.83 107 2.83 100 2.88 112 2.88
  95  0.106  0.770  0.824- 108 2.83 112 2.83 101 2.88 113 2.88
  96  0.856  0.520  0.915-  31 2.61  37 2.79 113 2.83 102 2.88 114 2.88   1 3.26
  97  0.356  0.645  0.463-  30 2.44  54 2.63  80 2.83  79 2.88  91 2.88  66 3.24
  98  0.106  0.395  0.554-  85 2.83  81 2.83  80 2.88  92 2.88
  99  0.856  0.145  0.644-  82 2.83  86 2.83  93 2.88  81 2.88
 100  0.606  0.895  0.734-  87 2.83  83 2.83  94 2.88  82 2.88
 101  0.356  0.645  0.824-  88 2.83  84 2.83  95 2.88  83 2.88
 102  0.106  0.395  0.915-  31 2.63  67 2.79  89 2.83  96 2.88  84 2.88   7 3.24
 103  0.356  0.145  0.463-  12 2.44  72 2.63  74 2.83  73 2.88  85 2.88  48 3.24
 104  0.106  0.895  0.554-  91 2.83  75 2.83  86 2.88  74 2.88
 105  0.856  0.645  0.644-  76 2.83  92 2.83  87 2.88  75 2.88
 106  0.606  0.395  0.734-  93 2.83  77 2.83  88 2.88  76 2.88
 107  0.356  0.145  0.824-  78 2.83  94 2.83  89 2.88  77 2.88
 108  0.106  0.895  0.915-  13 2.63  49 2.79  95 2.83  90 2.88  78 2.88  25 3.24
 109  0.856  0.645  0.463-  18 2.79  92 2.83  91 2.88  79 2.88
 110  0.606  0.395  0.554-  73 2.83  93 2.83  92 2.88  80 2.88
 111  0.356  0.145  0.644-  94 2.83  74 2.83  81 2.88  93 2.88
 112  0.106  0.895  0.734-  75 2.83  95 2.83  82 2.88  94 2.88
 113  0.856  0.645  0.824-  76 2.83  96 2.83  95 2.88  83 2.88
 114  0.606  0.395  0.915-  43 2.44  77 2.83  96 2.88  84 2.88
 115  0.856  0.145  0.463-  36 2.79  86 2.83  85 2.88  73 2.88
 116  0.606  0.895  0.554-  79 2.83  87 2.83  86 2.88  74 2.88
 117  0.356  0.645  0.644-  88 2.83  80 2.83  75 2.88  87 2.88
 118  0.106  0.395  0.734-  81 2.83  89 2.83  76 2.88  88 2.88
 119  0.856  0.145  0.824-  90 2.83  82 2.83  89 2.88  77 2.88
 120  0.606  0.895  0.915-  61 2.44  83 2.83  90 2.88  78 2.88
 
  LATTYP: Found a simple orthorhombic cell.
 ALAT       =     9.4067678450
 B/A-ratio  =     1.4142136768
 C/A-ratio  =     2.7001845452
  
  Lattice vectors:
  
 A1 = (   9.4067678450,   0.0000000000,   0.0000000000)
 A2 = (   0.0000000000,  13.3031797410,   0.0000000000)
 A3 = (   0.0000000000,   0.0000000000,  25.4000091550)


Analysis of symmetry for initial positions (statically):
=====================================================================
 Subroutine PRICEL returns following result:
 
  LATTYP: Found a simple orthorhombic cell.
 ALAT       =     6.6515898705
 B/A-ratio  =     1.4142134479
 C/A-ratio  =     3.8186372957
  
  Lattice vectors:
  
 A1 = (   0.0000000000,  -6.6515898705,   0.0000000000)
 A2 = (   9.4067678450,   0.0000000000,   0.0000000000)
 A3 = (   0.0000000000,   0.0000000000,  25.4000091550)
 
   2 primitive cells build up your supercell.
 

 Routine SETGRP: Setting up the symmetry group for a 
 simple orthorhombic supercell.


 Subroutine GETGRP returns: Found  1 space group operations
 (whereof  1 operations were pure point group operations)
 out of a pool of  8 trial point group operations.


The static configuration has the point symmetry C_1 .


Analysis of symmetry for dynamics (positions and initial velocities):
=====================================================================
 Subroutine PRICEL returns following result:
 
  LATTYP: Found a simple orthorhombic cell.
 ALAT       =     6.6515898705
 B/A-ratio  =     1.4142134479
 C/A-ratio  =     3.8186372957
  
  Lattice vectors:
  
 A1 = (   0.0000000000,  -6.6515898705,   0.0000000000)
 A2 = (   9.4067678450,   0.0000000000,   0.0000000000)
 A3 = (   0.0000000000,   0.0000000000,  25.4000091550)
 
   2 primitive cells build up your supercell.
 

 Routine SETGRP: Setting up the symmetry group for a 
 simple orthorhombic supercell.


 Subroutine GETGRP returns: Found  1 space group operations
 (whereof  1 operations were pure point group operations)
 out of a pool of  8 trial point group operations.


The dynamic configuration has the point symmetry C_1 .


Analysis of structural, dynamic, and magnetic symmetry:
=====================================================================
 Subroutine PRICEL returns following result:
 
  LATTYP: Found a simple orthorhombic cell.
 ALAT       =     6.6515898705
 B/A-ratio  =     1.4142134479
 C/A-ratio  =     3.8186372957
  
  Lattice vectors:
  
 A1 = (   0.0000000000,  -6.6515898705,   0.0000000000)
 A2 = (   9.4067678450,   0.0000000000,   0.0000000000)
 A3 = (   0.0000000000,   0.0000000000,  25.4000091550)
 
   2 primitive cells build up your supercell.
 

 Routine SETGRP: Setting up the symmetry group for a 
 simple orthorhombic supercell.


 Subroutine GETGRP returns: Found  1 space group operations
 (whereof  1 operations were pure point group operations)
 out of a pool of  8 trial point group operations.


The overall configuration has the point symmetry C_1 .


 Subroutine INISYM returns: Found  1 space group operations
 (whereof  1 operations are pure point group operations),
 and found     2 'primitive' translations


----------------------------------------------------------------------------------------

                                     Primitive cell                                     

  volume of cell :    1589.2776

  direct lattice vectors                    reciprocal lattice vectors
     0.000000000 -6.651589871  0.000000000     0.000000000 -0.150339997  0.000000000
     9.406767845  0.000000000  0.000000000     0.106306440  0.000000000  0.000000000
     0.000000000  0.000000000 25.400009155     0.000000000  0.000000000  0.039370065

  length of vectors
     6.651589871  9.406767845 25.400009155     0.150339997  0.106306440  0.039370065

  position of ions in fractional coordinates (direct lattice)
     0.709632040  0.666666687  0.000000001
     0.209632278  0.666666687  0.075596377
     0.709632396  0.666666627  0.151192755
     0.209632516  0.666666567  0.226789147
     0.709632636  0.666666567  0.302385509
     0.209632874  0.666666508  0.377981931
     0.376298666  0.333333373  0.000000000
     0.876298786  0.333333343  0.075596377
     0.376299024  0.333333284  0.151192755
     0.876299142  0.333333254  0.226789147
     0.376299142  0.333333194  0.302385509
     0.876299382  0.333333164  0.377981931
     0.042965412  0.000000000  0.000000000
     0.542965650  0.999999940  0.075596377
     0.042965770  0.999999940  0.151192755
     0.542965888  0.999999881  0.226789117
     0.042966128  0.999999821  0.302385509
     0.542966366  0.999999821  0.377981961
     0.709632158  0.916666746  0.000000001
     0.209632278  0.916666687  0.075596377
     0.709632396  0.916666627  0.151192755
     0.209632636  0.916666687  0.226789147
     0.709632874  0.916666627  0.302385509
     0.209633112  0.916666508  0.377981931
     0.376298904  0.583333313  0.000000000
     0.876299024  0.583333254  0.075596377
     0.376299024  0.583333313  0.151192755
     0.876299142  0.583333254  0.226789117
     0.376299500  0.583333194  0.302385509
     0.876299738  0.583333135  0.377981931
     0.042965472  0.249999985  0.000000001
     0.542965650  0.249999970  0.075596377
     0.042965650  0.249999925  0.151192755
     0.542965888  0.249999866  0.226789117
     0.042966128  0.249999851  0.302385509
     0.542966366  0.249999791  0.377981931
     0.460201502  0.605676413  0.463176161
     0.960201502  0.355676413  0.553502083
     0.460201502  0.105676413  0.643828034
     0.960201502  0.855676353  0.734153926
     0.460201740  0.605676293  0.824479818
     0.960201740  0.355676293  0.914805710
     0.460201502  0.105676413  0.463176161
     0.960201502  0.855676413  0.553502083
     0.460201502  0.605676413  0.643828034
     0.960201502  0.355676293  0.734153926
     0.460201740  0.105676293  0.824479818
     0.960201740  0.855676234  0.914805710
     0.710201502  0.355676413  0.463176161
     0.210201502  0.105676413  0.553502083
     0.710201740  0.855676293  0.643828034
     0.210201740  0.605676174  0.734153926
     0.710201740  0.355676174  0.824479818
     0.210201978  0.105676174  0.914805710
     0.710201502  0.855676413  0.463176161
     0.210201502  0.605676413  0.553502083
     0.710201740  0.355676293  0.643828034
     0.210201740  0.105676174  0.734153926
     0.710201740  0.855676293  0.824479818
     0.210201978  0.605676293  0.914805710

  ion indices of the primitive-cell ions
   primitive index   ion index
                 1           1
                 2          20
                 3          21
                 4           4
                 5           5
                 6          24
                 7          25
                 8          26
                 9           9
                10          10
                11          29
                12          30
                13          31
                14          14
                15          15
                16          34
                17          35
                18          18
                19          37
                20          56
                21          57
                22          40
                23          41
                24          60
                25          61
                26          62
                27          45
                28          46
                29          65
                30          66
                31          67
                32          50
                33          51
                34          70
                35          71
                36          54
                37          79
                38          80
                39          75
                40          76
                41          83
                42          84
                43          91
                44          92
                45          87
                46          88
                47          95
                48          96
                49          97
                50         104
                51         105
                52         100
                53         101
                54         108
                55         109
                56         116
                57         117
                58         112
                59         113
                60         120

----------------------------------------------------------------------------------------

 
 
 KPOINTS: Automatic KPOINTS generated             

Automatic generation of k-mesh.
 Grid dimensions read from file:
 generate k-points for:    3    2    1

 Generating k-lattice:

  Cartesian coordinates                     Fractional coordinates (reciprocal lattice)
     0.035435480  0.000000000  0.000000000     0.333333333  0.000000000  0.000000000
     0.000000000  0.037584999  0.000000000     0.000000000  0.500000000  0.000000000
     0.000000000  0.000000000  0.039370065     0.000000000  0.000000000  1.000000000

  Length of vectors
     0.035435480  0.037584999  0.039370065

  Shift w.r.t. Gamma in fractional coordinates (k-lattice)
     0.000000000  0.000000000  0.000000000

 
 Subroutine IBZKPT returns following result:
 ===========================================
 
 Found      4 irreducible k-points:
 
 Following reciprocal coordinates:
            Coordinates               Weight
  0.000000  0.000000  0.000000      1.000000
  0.333333  0.000000  0.000000      2.000000
  0.000000  0.500000  0.000000      1.000000
  0.333333  0.500000  0.000000      2.000000
 
 Following cartesian coordinates:
            Coordinates               Weight
  0.000000  0.000000  0.000000      1.000000
  0.035435  0.000000  0.000000      2.000000
  0.000000  0.037585  0.000000      1.000000
  0.035435  0.037585  0.000000      2.000000
 


--------------------------------------------------------------------------------------------------------




 Dimension of arrays:
   k-points           NKPTS =      4   k-points in BZ     NKDIM =      4   number of bands    NBANDS=    288
   number of dos      NEDOS =    301   number of ions     NIONS =    120
   non local maximal  LDIM  =      5   non local SUM 2l+1 LMDIM =     13
   total plane-waves  NPLWV = 967680
   max r-space proj   IRMAX =   5065   max aug-charges    IRDMAX= 234610
   dimension x,y,z NGX =    64 NGY =   90 NGZ =  168
   dimension x,y,z NGXF=   128 NGYF=  180 NGZF=  336
   support grid    NGXF=   256 NGYF=  360 NGZF=  672
   ions per type =              72  48
   NGX,Y,Z   is equivalent  to a cutoff of  11.31, 11.25, 11.00 a.u.
   NGXF,Y,Z  is equivalent  to a cutoff of  22.62, 22.49, 21.99 a.u.

 SYSTEM =  Si and Ge interface calculation         
 POSCAR =  Si+Sn                                   

 Startparameter for this run:
   NWRITE =      2    write-flag & timer
   PREC   = normal    normal or accurate (medium, high low for compatibility)
   ISTART =      0    job   : 0-new  1-cont  2-samecut
   ICHARG =      2    charge: 1-file 2-atom 10-const
   ISPIN  =      2    spin polarized calculation?
   LNONCOLLINEAR =      F non collinear calculations
   LSORBIT =      F    spin-orbit coupling
   INIWAV =      1    electr: 0-lowe 1-rand  2-diag
   LASPH  =      T    aspherical Exc in radial PAW
 Electronic Relaxation 1
   ENCUT  =  700.0 eV  51.45 Ry    7.17 a.u.  20.29 28.70 54.79*2*pi/ulx,y,z
   ENINI  =  700.0     initial cutoff
   ENAUG  =  900.0 eV  augmentation charge cutoff
   NELM   =    100;   NELMIN=  2; NELMDL= -5     # of ELM steps 
   EDIFF  = 0.1E-06   stopping-criterion for ELM
   LREAL  =      T    real-space projection
   NLSPLINE    = F    spline interpolate recip. space projectors
   LCOMPAT=      F    compatible to vasp.4.4
   GGA_COMPAT  = T    GGA compatible to vasp.4.4-vasp.4.6
   LMAXPAW     = -100 max onsite density
   LMAXMIX     =    6 max onsite mixed and CHGCAR
   VOSKOWN=      0    Vosko Wilk Nusair interpolation
   ROPT   =   -0.00050  -0.00050
 Ionic relaxation
   EDIFFG = 0.1E-05   stopping-criterion for IOM
   NSW    =      0    number of steps for IOM
   NBLOCK =      1;   KBLOCK =      1    inner block; outer block 
   IBRION =     -1    ionic relax: 0-MD 1-quasi-New 2-CG
   NFREE  =      0    steps in history (QN), initial steepest desc. (CG)
   ISIF   =      2    stress and relaxation
   IWAVPR =     10    prediction:  0-non 1-charg 2-wave 3-comb
   ISYM   =      2    0-nonsym 1-usesym 2-fastsym
   LCORR  =      T    Harris-Foulkes like correction to forces

   POTIM  = 0.5000    time-step for ionic-motion
   TEIN   =    0.0    initial temperature
   TEBEG  =    0.0;   TEEND  =   0.0 temperature during run
   SMASS  =  -3.00    Nose mass-parameter (am)
   estimated Nose-frequenzy (Omega)   =  0.10E-29 period in steps = 0.13E+47 mass=  -0.202E-26a.u.
   SCALEE = 1.0000    scale energy and forces
   NPACO  =    256;   APACO  = 10.0  distance and # of slots for P.C.
   PSTRESS=    0.0 pullay stress

  Mass of Ions in am
   POMASS =  28.09118.71
  Ionic Valenz
   ZVAL   =   4.00  4.00
  Atomic Wigner-Seitz radii
   RWIGS  =  -1.00 -1.00
  virtual crystal weights 
   VCA    =   1.00  1.00
   NELECT =     480.0000    total number of electrons
   NUPDOWN=       1.0000    fix difference up-down

 DOS related values:
   EMIN   =  10.00;   EMAX   =-10.00  energy-range for DOS
   EFERMI =   0.00;   METHOD = LEGACY      
   ISMEAR =     0;   SIGMA  =   0.01  broadening in eV -4-tet -1-fermi 0-gaus

 Electronic relaxation 2 (details)
   IALGO  =     38    algorithm
   LDIAG  =      T    sub-space diagonalisation (order eigenvalues)
   LSUBROT=      F    optimize rotation matrix (better conditioning)
   TURBO    =      0    0=normal 1=particle mesh
   IRESTART =      0    0=no restart 2=restart with 2 vectors
   NREBOOT  =      0    no. of reboots
   NMIN     =      0    reboot dimension
   EREF     =   0.00    reference energy to select bands
   IMIX   =      4    mixing-type and parameters
     AMIX     =   0.60;   BMIX     =  1.00
     AMIX_MAG =   2.40;   BMIX_MAG =  1.00
     AMIN     =   0.10
     WC   =   100.;   INIMIX=   1;  MIXPRE=   1;  MAXMIX= -45

 Intra band minimization:
   WEIMIN = 0.0000     energy-eigenvalue tresh-hold
   EBREAK =  0.87E-10  absolut break condition
   DEPER  =   0.30     relativ break condition  

   TIME   =   0.40     timestep for ELM

  volume/ion in A,a.u.               =      26.49       178.75
  Fermi-wavevector in a.u.,A,eV,Ry     =   0.871790  1.647445 10.340675  0.760018
  Thomas-Fermi vector in A             =   1.990948
 
 Write flags
   LWAVE        =      F    write WAVECAR
   LDOWNSAMPLE  =      F    k-point downsampling of WAVECAR
   LCHARG       =      T    write CHGCAR
   LVTOT        =      F    write LOCPOT, total local potential
   LVHAR        =      T    write LOCPOT, Hartree potential only
   WRT_POTENTIAL=  hartree ionic  ! write potential to hdf5 file
   LELF         =      F    write electronic localiz. function (ELF)
   LORBIT       =      0    0 simple, 1 ext, 2 COOP (PROOUT), +10 PAW based schemes


 Dipole corrections
   LMONO      =      F    monopole corrections only (constant potential shift)
   LDIPOL     =      F    correct potential (dipole corrections)
   IDIPOL     =      0    1-x, 2-y, 3-z, 4-all directions 
   EPSILON    =  1.0000000 bulk dielectric constant
   LVACPOTAV  =      F  vacuum potentials using an averaging scheme for the charge density
   VACPOTFLAT =  0.1000000 required flatness to determine vacuum potential
 Exchange correlation treatment:
   GGA     = PE    functional components
   XC_C    = 1    coefficients multiplying the functional components
   LIBXC   =     F    Libxc                    
   VOSKOWN =     0    Vosko Wilk Nusair interpolation
   LHFCALC =     F    Hartree Fock is set to
   LHFONE  =     F    Hartree Fock one center treatment
   AEXX    =    0.0000 exact exchange contribution

 Parameters of functionals:
   PE:
     No parameter
 
 Van der Waals corrections
   IVDW    =     0    specifies the selected vdW correction

 Linear response parameters
   LEPSILON=     F    determine dielectric tensor
   LRPA    =     F    only Hartree local field effects (RPA)
   LNABLA  =     F    use nabla operator in PAW spheres
   LVEL    =     F    velocity operator in full k-point grid
   CSHIFT  =0.1000    complex shift for real part using Kramers Kronig
   OMEGAMAX=  -1.0    maximum frequency
   DEG_THRESHOLD= 0.2000000E-02 threshold for treating states as degnerate
   RTIME   =   -0.100 relaxation time in fs
  (WPLASMAI=    0.000 imaginary part of plasma frequency in eV, 0.658/RTIME)
   DFIELD  = 0.0000000 0.0000000 0.0000000 field for delta impulse in time
 
  Optional k-point grid parameters
   LKPOINTS_OPT  =     F    use optional k-point grid
   KPOINTS_OPT_MODE=     1    mode for optional k-point grid
 
 Orbital magnetization related:
   ORBITALMAG=     F  switch on orbital magnetization
   LCHIMAG   =     F  perturbation theory with respect to B field
   DQ        =  0.001000  dq finite difference perturbation B field
   LLRAUG    =     F  two centre corrections for induced B field
   LBONE     =     F  B-component reconstruction in AE one-centre
   LVGVCALC  =     T  calculate vGv susceptibility
   LVGVAPPL  =     F  apply vGv susceptibility instead of pGv for G=0

 Random number generation:
   RANDOM_GENERATOR = DEFAULT
   PCG_SEED         = not used


--------------------------------------------------------------------------------------------------------


 Static calculation
 charge density and potential will be updated during run
 spin polarized calculation
 Variant of blocked Davidson
 Davidson routine will perform the subspace rotation
 perform sub-space diagonalisation
    after iterative eigenvector-optimisation
 modified Broyden-mixing scheme, WC =      100.0
 initial mixing is a Kerker type mixing with AMIX =  0.6000 and BMIX =      1.0000
 Hartree-type preconditioning will be used
 using additional bands           48
 real space projection scheme for non local part
 use partial core corrections
 calculate Harris-corrections to forces 
   (improved forces if not selfconsistent)
 use gradient corrections 
 use of overlap-Matrix (Vanderbilt PP)
 Gauss-broadening in eV      SIGMA  =   0.01


--------------------------------------------------------------------------------------------------------


  energy-cutoff  :      700.00
  volume of cell :     3178.56
      direct lattice vectors                 reciprocal lattice vectors
     9.406767845  0.000000000  0.000000000     0.106306440  0.000000000  0.000000000
     0.000000000 13.303179741  0.000000000     0.000000000  0.075169998  0.000000000
     0.000000000  0.000000000 25.400009155     0.000000000  0.000000000  0.039370065

  length of vectors
     9.406767845 13.303179741 25.400009155     0.106306440  0.075169998  0.039370065


 
 k-points in units of 2pi/SCALE and weight: Automatic KPOINTS generated             
   0.00000000  0.00000000  0.00000000       0.167
   0.03543548  0.00000000  0.00000000       0.333
   0.00000000  0.03758500  0.00000000       0.167
   0.03543548  0.03758500  0.00000000       0.333
 
 k-points in reciprocal lattice and weights: Automatic KPOINTS generated             
   0.00000000  0.00000000  0.00000000       0.167
   0.33333333  0.00000000  0.00000000       0.333
   0.00000000  0.50000000  0.00000000       0.167
   0.33333333  0.50000000  0.00000000       0.333
 
 position of ions in fractional coordinates (direct lattice) 
   0.66666669  0.64518398  0.00000000
   0.66666663  0.39518389  0.07559638
   0.66666663  0.14518382  0.15119275
   0.66666657  0.89518374  0.22678915
   0.66666657  0.64518368  0.30238551
   0.66666651  0.39518350  0.37798196
   0.33333331  0.31185061  0.00000000
   0.33333331  0.06185054  0.07559638
   0.33333328  0.81185049  0.15119275
   0.33333325  0.56185043  0.22678915
   0.33333319  0.31185031  0.30238551
   0.33333316  0.06185019  0.37798196
   0.00000000  0.97851729  0.00000000
   0.99999994  0.72851718  0.07559638
   0.99999994  0.47851712  0.15119275
   0.99999988  0.22851706  0.22678915
   0.99999982  0.97851694  0.30238551
   0.99999982  0.72851682  0.37798196
   0.66666669  0.14518392  0.00000000
   0.66666669  0.89518386  0.07559638
   0.66666663  0.64518380  0.15119275
   0.66666657  0.39518374  0.22678912
   0.66666651  0.14518362  0.30238551
   0.66666651  0.89518356  0.37798193
   0.33333337  0.81185067  0.00000000
   0.33333334  0.56185061  0.07559638
   0.33333331  0.31185058  0.15119275
   0.33333328  0.06185051  0.22678915
   0.33333319  0.81185043  0.30238551
   0.33333316  0.56185031  0.37798193
   0.00000000  0.47851729  0.00000000
   0.99999994  0.22851721  0.07559638
   0.99999994  0.97851712  0.15119275
   0.99999988  0.72851706  0.22678912
   0.99999982  0.47851694  0.30238551
   0.99999982  0.22851688  0.37798196
   0.91666675  0.64518392  0.00000000
   0.91666675  0.39518380  0.07559638
   0.91666675  0.14518379  0.15119275
   0.91666669  0.89518368  0.22678915
   0.91666663  0.64518356  0.30238551
   0.91666663  0.39518344  0.37798196
   0.58333337  0.31185064  0.00000000
   0.58333331  0.06185056  0.07559637
   0.58333331  0.81185049  0.15119275
   0.58333325  0.56185043  0.22678912
   0.58333325  0.31185031  0.30238551
   0.58333319  0.06185025  0.37798193
   0.25000000  0.97851729  0.00000000
   0.24999997  0.72851718  0.07559638
   0.24999992  0.47851718  0.15119275
   0.24999991  0.22851712  0.22678912
   0.24999982  0.97851694  0.30238551
   0.24999979  0.72851682  0.37798193
   0.91666675  0.14518394  0.00000001
   0.91666669  0.89518386  0.07559638
   0.91666663  0.64518380  0.15119275
   0.91666657  0.39518374  0.22678912
   0.91666651  0.14518362  0.30238551
   0.91666651  0.89518344  0.37798193
   0.58333331  0.81185055  0.00000000
   0.58333325  0.56185049  0.07559638
   0.58333325  0.31185043  0.15119275
   0.58333319  0.06185036  0.22678912
   0.58333319  0.81185025  0.30238551
   0.58333313  0.56185013  0.37798193
   0.24999999  0.47851726  0.00000000
   0.24999995  0.22851721  0.07559638
   0.24999992  0.97851712  0.15119275
   0.24999987  0.72851706  0.22678912
   0.24999985  0.47851694  0.30238551
   0.24999982  0.22851682  0.37798196
   0.60567641  0.26989925  0.46317616
   0.35567641  0.01989925  0.55350208
   0.10567641  0.76989925  0.64382803
   0.85567635  0.51989925  0.73415393
   0.60567629  0.26989913  0.82447982
   0.35567629  0.01989913  0.91480571
   0.60567641  0.76989925  0.46317616
   0.35567641  0.51989925  0.55350208
   0.10567641  0.26989925  0.64382803
   0.85567635  0.01989913  0.73415393
   0.60567629  0.76989913  0.82447982
   0.35567629  0.51989913  0.91480571
   0.10567641  0.26989925  0.46317616
   0.85567641  0.01989925  0.55350208
   0.60567641  0.76989925  0.64382803
   0.35567629  0.51989925  0.73415393
   0.10567629  0.26989913  0.82447982
   0.85567623  0.01989913  0.91480571
   0.10567641  0.76989925  0.46317616
   0.85567641  0.51989925  0.55350208
   0.60567641  0.26989925  0.64382803
   0.35567629  0.01989913  0.73415393
   0.10567629  0.76989913  0.82447982
   0.85567623  0.51989913  0.91480571
   0.35567641  0.64489925  0.46317616
   0.10567641  0.39489925  0.55350208
   0.85567629  0.14489913  0.64382803
   0.60567617  0.89489913  0.73415393
   0.35567617  0.64489913  0.82447982
   0.10567617  0.39489910  0.91480571
   0.35567641  0.14489925  0.46317616
   0.10567641  0.89489925  0.55350208
   0.85567629  0.64489913  0.64382803
   0.60567617  0.39489913  0.73415393
   0.35567617  0.14489913  0.82447982
   0.10567617  0.89489901  0.91480571
   0.85567641  0.64489925  0.46317616
   0.60567641  0.39489925  0.55350208
   0.35567629  0.14489913  0.64382803
   0.10567617  0.89489913  0.73415393
   0.85567629  0.64489913  0.82447982
   0.60567629  0.39489910  0.91480571
   0.85567641  0.14489925  0.46317616
   0.60567641  0.89489925  0.55350208
   0.35567629  0.64489913  0.64382803
   0.10567617  0.39489913  0.73415393
   0.85567629  0.14489913  0.82447982
   0.60567629  0.89489901  0.91480571
 
 position of ions in cartesian coordinates  (Angst):
   6.27117875  8.58299845  0.00000003
   6.27117819  5.25720233  1.92014867
   6.27117819  1.93140641  3.84029736
   6.27117763 11.90879022  5.76044641
   6.27117763  8.58299449  7.68059470
   6.27117707  5.25719718  9.60074527
   3.13558909  4.14860468  0.00000003
   3.13558909  0.82280881  1.92014867
   3.13558882 10.80019296  3.84029736
   3.13558854  7.47439724  5.76044641
   3.13558797  4.14860071  7.68059470
   3.13558769  0.82280419  9.60074527
   0.00000000 13.01739144  0.00000003
   9.40676728  9.69159492  1.92014867
   9.40676728  6.36579919  3.84029736
   9.40676673  3.04000347  5.76044641
   9.40676616 13.01738668  7.68059470
   9.40676616  9.69159016  9.60074527
   6.27117875  1.93140780  0.00000005
   6.27117875 11.90879180  1.92014867
   6.27117819  8.58299608  3.84029736
   6.27117763  5.25720035  5.76044565
   6.27117707  1.93140383  7.68059470
   6.27117707 11.90878784  9.60074451
   3.13558965 10.80019535  0.00000000
   3.13558937  7.47439961  1.92014867
   3.13558909  4.14860429  3.84029736
   3.13558882  0.82280841  5.76044641
   3.13558797 10.80019218  7.68059470
   3.13558769  7.47439565  9.60074451
   0.00000000  6.36580157  0.00000000
   9.40676728  3.04000545  1.92014867
   9.40676728 13.01738906  3.84029736
   9.40676673  9.69159334  5.76044565
   9.40676616  6.36579681  7.68059470
   9.40676616  3.04000109  9.60074527
   8.62287127  8.58299767  0.00000003
   8.62287127  5.25720115  1.92014887
   8.62287127  1.93140601  3.84029736
   8.62287072 11.90878942  5.76044641
   8.62287015  8.58299290  7.68059470
   8.62287015  5.25719639  9.60074527
   5.48728162  4.14860508  0.00000005
   5.48728105  0.82280910  1.92014849
   5.48728105 10.80019296  3.84029736
   5.48728050  7.47439724  5.76044565
   5.48728050  4.14860071  7.68059470
   5.48727993  0.82280499  9.60074451
   2.35169196 13.01739144  0.00000005
   2.35169168  9.69159492  1.92014867
   2.35169126  6.36579999  3.84029736
   2.35169112  3.04000425  5.76044565
   2.35169028 13.01738668  7.68059470
   2.35169000  9.69159016  9.60074451
   8.62287127  1.93140800  0.00000023
   8.62287072 11.90879180  1.92014867
   8.62287015  8.58299608  3.84029736
   8.62286959  5.25720035  5.76044565
   8.62286903  1.93140383  7.68059470
   8.62286903 11.90878626  9.60074451
   5.48728105 10.80019376  0.00000000
   5.48728050  7.47439803  1.92014867
   5.48728050  4.14860231  3.84029736
   5.48727993  0.82280652  5.76044565
   5.48727993 10.80018980  7.68059470
   5.48727938  7.47439328  9.60074451
   2.35169182  6.36580117  0.00000003
   2.35169154  3.04000545  1.92014867
   2.35169126 13.01738906  3.84029736
   2.35169070  9.69159334  5.76044565
   2.35169056  6.36579681  7.68059470
   2.35169028  3.04000029  9.60074527
   5.69745741  3.59051822 11.76467873
   3.34576545  0.26472329 14.05895798
   0.99407348 10.24210809 16.35323796
   8.04914880  6.91631316 18.64751644
   5.69745628  3.59051664 20.94179493
   3.34576432  0.26472170 23.23607341
   5.69745741 10.24210809 11.76467873
   3.34576545  6.91631316 14.05895798
   0.99407348  3.59051822 16.35323796
   8.04914880  0.26472170 18.64751644
   5.69745628 10.24210651 20.94179493
   3.34576432  6.91631157 23.23607341
   0.99407348  3.59051822 11.76467873
   8.04914937  0.26472329 14.05895798
   5.69745741 10.24210809 16.35323796
   3.34576432  6.91631316 18.64751644
   0.99407235  3.59051664 20.94179493
   8.04914768  0.26472170 23.23607341
   0.99407348 10.24210809 11.76467873
   8.04914937  6.91631316 14.05895798
   5.69745741  3.59051822 16.35323796
   3.34576432  0.26472170 18.64751644
   0.99407235 10.24210651 20.94179493
   8.04914768  6.91631157 23.23607341
   3.34576545  8.57921062 11.76467873
   0.99407348  5.25341569 14.05895798
   8.04914824  1.92761917 16.35323796
   5.69745516 11.90500398 18.64751644
   3.34576320  8.57920904 20.94179493
   0.99407124  5.25341371 23.23607341
   3.34576545  1.92762075 11.76467873
   0.99407348 11.90500556 14.05895798
   8.04914824  8.57920904 16.35323796
   5.69745516  5.25341411 18.64751644
   3.34576320  1.92761917 20.94179493
   0.99407124 11.90500239 23.23607341
   8.04914937  8.57921062 11.76467873
   5.69745741  5.25341569 14.05895798
   3.34576432  1.92761917 16.35323796
   0.99407124 11.90500398 18.64751644
   8.04914824  8.57920904 20.94179493
   5.69745628  5.25341371 23.23607341
   8.04914937  1.92762075 11.76467873
   5.69745741 11.90500556 14.05895798
   3.34576432  8.57920904 16.35323796
   0.99407124  5.25341411 18.64751644
   8.04914824  1.92761917 20.94179493
   5.69745628 11.90500239 23.23607341
 


--------------------------------------------------------------------------------------------------------


 k-point     1 :   0.0000 0.0000 0.0000  plane waves:  133593
 k-point     2 :   0.3333 0.0000 0.0000  plane waves:  133702
 k-point     3 :   0.0000 0.5000 0.0000  plane waves:  133790
 k-point     4 :   0.3333 0.5000 0.0000  plane waves:  133634

 maximum and minimum number of plane-waves per node :      8393     8315

 maximum number of plane-waves:    133790
 maximum index in each direction: 
   IXMAX=   20   IYMAX=   28   IZMAX=   54
   IXMIN=  -20   IYMIN=  -29   IZMIN=  -54


 real space projection operators:
  total allocation   :      30627.44 KBytes
  max/ min on nodes  :       2112.94       1696.62


 parallel 3D FFT for wavefunctions:
    minimum data exchange during FFTs selected (reduces bandwidth)
 parallel 3D FFT for charge:
    minimum data exchange during FFTs selected (reduces bandwidth)


 total amount of memory used by VASP MPI-rank0   154854. kBytes
=======================================================================

   base      :      30000. kBytes
   nonlr-proj:      12583. kBytes
   fftplans  :      19539. kBytes
   grid      :      14747. kBytes
   one-center:        129. kBytes
   wavefun   :      77856. kBytes
 
     INWAV:  cpu time      0.0000: real time      0.0002
 Broyden mixing: mesh for mixing (old mesh)
   NGX = 41   NGY = 57   NGZ =109
  (NGX  =128   NGY  =180   NGZ  =336)
  gives a total of 254733 points

 initial charge density was supplied:
 charge density of overlapping atoms calculated
 number of electron     480.0000000 magnetization       1.0000000
 keeping initial charge density in first step


--------------------------------------------------------------------------------------------------------


 Maximum index for non-local projection operator          293
 Maximum index for augmentation-charges         2541 (set IRDMAX)


--------------------------------------------------------------------------------------------------------


 First call to EWALD:  gamma=   0.121
 Maximum number of real-space cells 4x 3x 2
 Maximum number of reciprocal cells 2x 3x 4

    FEWALD:  cpu time      0.0036: real time      0.0036


--------------------------------------- Ionic step        1  -------------------------------------------




--------------------------------------- Iteration      1(   1)  ---------------------------------------


    POTLOK:  cpu time      0.2341: real time      0.2364
    SETDIJ:  cpu time      1.2625: real time      1.2720
     EDDAV:  cpu time     14.7582: real time     14.9179
       DOS:  cpu time      0.0019: real time      0.0019
    --------------------------------------------
      LOOP:  cpu time     16.2568: real time     16.4283

 eigenvalue-minimisations  :  4608
 total energy-change (2. order) : 0.2085518E+04  (-0.2036359E+05)
 number of electron     480.0000000 magnetization       1.0000000
 augmentation part      480.0000000 magnetization       1.0000000

 Free energy of the ion-electron system (eV)
  ---------------------------------------------------
  alpha Z        PSCENC =       318.18852309
  Ewald energy   TEWEN  =     -5122.96833958
  -Hartree energ DENC   =     -8018.97503528
  -exchange      EXHF   =         0.00000000
  -V(xc)+E(xc)   XCENC  =     -6352.47036054
  PAW double counting   =     15436.84863564    -8225.15040161
  entropy T*S    EENTRO =        -0.00013043
  eigenvalues    EBANDS =      2113.12102819
  atomic energy  EATOM  =     11936.92408711
  Solvation  Ediel_sol  =         0.00000000
  ---------------------------------------------------
  free energy    TOTEN  =      2085.51800659 eV

  energy without entropy =     2085.51813702  energy(sigma->0) =     2085.51807181


--------------------------------------------------------------------------------------------------------




--------------------------------------- Iteration      1(   2)  ---------------------------------------


     EDDAV:  cpu time     16.7298: real time     16.8787
       DOS:  cpu time      0.0011: real time      0.0011
    --------------------------------------------
      LOOP:  cpu time     16.7309: real time     16.8799

 eigenvalue-minimisations  :  5440
 total energy-change (2. order) :-0.2406838E+04  (-0.2324777E+04)
 number of electron     480.0000000 magnetization       1.0000000
 augmentation part      480.0000000 magnetization       1.0000000

 Free energy of the ion-electron system (eV)
  ---------------------------------------------------
  alpha Z        PSCENC =       318.18852309
  Ewald energy   TEWEN  =     -5122.96833958
  -Hartree energ DENC   =     -8018.97503528
  -exchange      EXHF   =         0.00000000
  -V(xc)+E(xc)   XCENC  =     -6352.47036054
  PAW double counting   =     15436.84863564    -8225.15040161
  entropy T*S    EENTRO =        -0.00009276
  eigenvalues    EBANDS =      -293.71708796
  atomic energy  EATOM  =     11936.92408711
  Solvation  Ediel_sol  =         0.00000000
  ---------------------------------------------------
  free energy    TOTEN  =      -321.32007189 eV

  energy without entropy =     -321.31997913  energy(sigma->0) =     -321.32002551


--------------------------------------------------------------------------------------------------------




--------------------------------------- Iteration      1(   3)  ---------------------------------------


     EDDAV:  cpu time     17.7453: real time     17.9069
       DOS:  cpu time      0.0034: real time      0.0034
    --------------------------------------------
      LOOP:  cpu time     17.7487: real time     17.9104

 eigenvalue-minimisations  :  5880
 total energy-change (2. order) :-0.2332822E+03  (-0.2261173E+03)
 number of electron     480.0000000 magnetization       1.0000000
 augmentation part      480.0000000 magnetization       1.0000000

 Free energy of the ion-electron system (eV)
  ---------------------------------------------------
  alpha Z        PSCENC =       318.18852309
  Ewald energy   TEWEN  =     -5122.96833958
  -Hartree energ DENC   =     -8018.97503528
  -exchange      EXHF   =         0.00000000
  -V(xc)+E(xc)   XCENC  =     -6352.47036054
  PAW double counting   =     15436.84863564    -8225.15040161
  entropy T*S    EENTRO =        -0.00226087
  eigenvalues    EBANDS =      -526.99714238
  atomic energy  EATOM  =     11936.92408711
  Solvation  Ediel_sol  =         0.00000000
  ---------------------------------------------------
  free energy    TOTEN  =      -554.60229442 eV

  energy without entropy =     -554.60003355  energy(sigma->0) =     -554.60116398


--------------------------------------------------------------------------------------------------------




--------------------------------------- Iteration      1(   4)  ---------------------------------------


     EDDAV:  cpu time     17.4015: real time     17.5582
       DOS:  cpu time      0.0014: real time      0.0014
    --------------------------------------------
      LOOP:  cpu time     17.4029: real time     17.5596

 eigenvalue-minimisations  :  5720
 total energy-change (2. order) :-0.9262556E+01  (-0.9073517E+01)
 number of electron     480.0000000 magnetization       1.0000000
 augmentation part      480.0000000 magnetization       1.0000000

 Free energy of the ion-electron system (eV)
  ---------------------------------------------------
  alpha Z        PSCENC =       318.18852309
  Ewald energy   TEWEN  =     -5122.96833958
  -Hartree energ DENC   =     -8018.97503528
  -exchange      EXHF   =         0.00000000
  -V(xc)+E(xc)   XCENC  =     -6352.47036054
  PAW double counting   =     15436.84863564    -8225.15040161
  entropy T*S    EENTRO =        -0.00417077
  eigenvalues    EBANDS =      -536.25778814
  atomic energy  EATOM  =     11936.92408711
  Solvation  Ediel_sol  =         0.00000000
  ---------------------------------------------------
  free energy    TOTEN  =      -563.86485009 eV

  energy without entropy =     -563.86067931  energy(sigma->0) =     -563.86276470


--------------------------------------------------------------------------------------------------------




--------------------------------------- Iteration      1(   5)  ---------------------------------------


     EDDAV:  cpu time     18.4387: real time     18.6038
       DOS:  cpu time      0.0015: real time      0.0015
    CHARGE:  cpu time      1.1605: real time      1.1782
    MIXING:  cpu time      0.0111: real time      0.0112
    --------------------------------------------
      LOOP:  cpu time     19.6119: real time     19.7947

 eigenvalue-minimisations  :  6152
 total energy-change (2. order) :-0.4014174E+00  (-0.3982590E+00)
 number of electron     479.9999995 magnetization       1.0000000
 augmentation part      -68.3422393 magnetization      -0.0986867

 Broyden mixing:
  rms(total) = 0.32661E+01    rms(broyden)= 0.32661E+01
  rms(prec ) = 0.35159E+01
  weight for this iteration     100.00

 Free energy of the ion-electron system (eV)
  ---------------------------------------------------
  alpha Z        PSCENC =       318.18852309
  Ewald energy   TEWEN  =     -5122.96833958
  -Hartree energ DENC   =     -8018.97503528
  -exchange      EXHF   =         0.00000000
  -V(xc)+E(xc)   XCENC  =     -6352.47036054
  PAW double counting   =     15436.84863564    -8225.15040161
  entropy T*S    EENTRO =        -0.00440162
  eigenvalues    EBANDS =      -536.65897472
  atomic energy  EATOM  =     11936.92408711
  Solvation  Ediel_sol  =         0.00000000
  ---------------------------------------------------
  free energy    TOTEN  =      -564.26626751 eV

  energy without entropy =     -564.26186588  energy(sigma->0) =     -564.26406670


--------------------------------------------------------------------------------------------------------




--------------------------------------- Iteration      1(   6)  ---------------------------------------


    POTLOK:  cpu time      0.2345: real time      0.2370
    SETDIJ:  cpu time      1.2643: real time      1.2730
     EDDAV:  cpu time     21.7693: real time     21.9690
       DOS:  cpu time      0.0017: real time      0.0017
    CHARGE:  cpu time      1.1542: real time      1.1647
    MIXING:  cpu time      0.0085: real time      0.0086
    --------------------------------------------
      LOOP:  cpu time     24.4326: real time     24.6540

 eigenvalue-minimisations  :  7544
 total energy-change (2. order) : 0.8859537E+01  (-0.6325571E+01)
 number of electron     479.9999995 magnetization       1.0000000
 augmentation part      -70.2817642 magnetization      -0.1006342

 Broyden mixing:
  rms(total) = 0.15796E+01    rms(broyden)= 0.15796E+01
  rms(prec ) = 0.22487E+01
  weight for this iteration     100.00

 eigenvalues of (default mixing * dielectric matrix)
  average eigenvalue GAMMA=   1.5050
  1.5050

 Free energy of the ion-electron system (eV)
  ---------------------------------------------------
  alpha Z        PSCENC =       318.18852309
  Ewald energy   TEWEN  =     -5122.96833958
  -Hartree energ DENC   =     -8294.69569342
  -exchange      EXHF   =         0.00000000
  -V(xc)+E(xc)   XCENC  =     -6330.45947136
  PAW double counting   =     27081.14508487   -19882.33850899
  entropy T*S    EENTRO =        -0.00369918
  eigenvalues    EBANDS =      -261.19871348
  atomic energy  EATOM  =     11936.92408711
  Solvation  Ediel_sol  =         0.00000000
  ---------------------------------------------------
  free energy    TOTEN  =      -555.40673094 eV

  energy without entropy =     -555.40303176  energy(sigma->0) =     -555.40488135


--------------------------------------------------------------------------------------------------------




--------------------------------------- Iteration      1(   7)  ---------------------------------------


    POTLOK:  cpu time      0.2242: real time      0.2269
    SETDIJ:  cpu time      1.2665: real time      1.2748
     EDDAV:  cpu time     21.9121: real time     22.1110
       DOS:  cpu time      0.0021: real time      0.0021
    CHARGE:  cpu time      1.1591: real time      1.1696
    MIXING:  cpu time      0.0096: real time      0.0097
    --------------------------------------------
      LOOP:  cpu time     24.5736: real time     24.7940

 eigenvalue-minimisations  :  7568
 total energy-change (2. order) :-0.2798591E+01  (-0.8051901E+01)
 number of electron     479.9999995 magnetization       1.0000000
 augmentation part      -67.9896067 magnetization      -0.1063331

 Broyden mixing:
  rms(total) = 0.13657E+01    rms(broyden)= 0.13657E+01
  rms(prec ) = 0.23520E+01
  weight for this iteration     100.00

 eigenvalues of (default mixing * dielectric matrix)
  average eigenvalue GAMMA=   1.0955
  1.8398  0.3511

 Free energy of the ion-electron system (eV)
  ---------------------------------------------------
  alpha Z        PSCENC =       318.18852309
  Ewald energy   TEWEN  =     -5122.96833958
  -Hartree energ DENC   =     -8154.63700505
  -exchange      EXHF   =         0.00000000
  -V(xc)+E(xc)   XCENC  =     -6324.21382952
  PAW double counting   =     32709.93192284   -25516.31594055
  entropy T*S    EENTRO =        -0.00300571
  eigenvalues    EBANDS =      -405.11173447
  atomic energy  EATOM  =     11936.92408711
  Solvation  Ediel_sol  =         0.00000000
  ---------------------------------------------------
  free energy    TOTEN  =      -558.20532184 eV

  energy without entropy =     -558.20231613  energy(sigma->0) =     -558.20381899


--------------------------------------------------------------------------------------------------------




--------------------------------------- Iteration      1(   8)  ---------------------------------------


    POTLOK:  cpu time      0.2265: real time      0.2283
    SETDIJ:  cpu time      1.2635: real time      1.2722
     EDDAV:  cpu time     21.9553: real time     22.1597
       DOS:  cpu time      0.0014: real time      0.0014
    CHARGE:  cpu time      1.1546: real time      1.1652
    MIXING:  cpu time      0.0078: real time      0.0078
    --------------------------------------------
      LOOP:  cpu time     24.6091: real time     24.8347

 eigenvalue-minimisations  :  7624
 total energy-change (2. order) : 0.1657851E+01  (-0.4907033E+01)
 number of electron     479.9999995 magnetization       1.0000000
 augmentation part      -68.4103918 magnetization      -0.0825691

 Broyden mixing:
  rms(total) = 0.79892E+00    rms(broyden)= 0.79892E+00
  rms(prec ) = 0.19824E+01
  weight for this iteration     100.00

 eigenvalues of (default mixing * dielectric matrix)
  average eigenvalue GAMMA=   0.8947
  1.9146  0.3847  0.3847

 Free energy of the ion-electron system (eV)
  ---------------------------------------------------
  alpha Z        PSCENC =       318.18852309
  Ewald energy   TEWEN  =     -5122.96833958
  -Hartree energ DENC   =     -8241.69819904
  -exchange      EXHF   =         0.00000000
  -V(xc)+E(xc)   XCENC  =     -6316.60440702
  PAW double counting   =     41501.30755352   -34312.40994299
  entropy T*S    EENTRO =        -0.00238095
  eigenvalues    EBANDS =      -319.28436526
  atomic energy  EATOM  =     11936.92408711
  Solvation  Ediel_sol  =         0.00000000
  ---------------------------------------------------
  free energy    TOTEN  =      -556.54747111 eV

  energy without entropy =     -556.54509016  energy(sigma->0) =     -556.54628064


--------------------------------------------------------------------------------------------------------




--------------------------------------- Iteration      1(   9)  ---------------------------------------


    POTLOK:  cpu time      0.2266: real time      0.2284
    SETDIJ:  cpu time      1.2645: real time      1.2739
     EDDAV:  cpu time     20.4324: real time     20.6562
       DOS:  cpu time      0.0014: real time      0.0014
    CHARGE:  cpu time      1.1739: real time      1.1856
    MIXING:  cpu time      0.0088: real time      0.0089
    --------------------------------------------
      LOOP:  cpu time     23.1075: real time     23.3544

 eigenvalue-minimisations  :  6984
 total energy-change (2. order) : 0.6303038E+01  (-0.2199171E+01)
 number of electron     479.9999995 magnetization       1.0000000
 augmentation part      -68.3534397 magnetization      -0.1199777

 Broyden mixing:
  rms(total) = 0.27755E+00    rms(broyden)= 0.27755E+00
  rms(prec ) = 0.39420E+00
  weight for this iteration     100.00

 eigenvalues of (default mixing * dielectric matrix)
  average eigenvalue GAMMA=   0.8418
  1.8983  0.7391  0.4929  0.2368

 Free energy of the ion-electron system (eV)
  ---------------------------------------------------
  alpha Z        PSCENC =       318.18852309
  Ewald energy   TEWEN  =     -5122.96833958
  -Hartree energ DENC   =     -8278.87514864
  -exchange      EXHF   =         0.00000000
  -V(xc)+E(xc)   XCENC  =     -6314.44799559
  PAW double counting   =     44496.01657588   -37308.39646449
  entropy T*S    EENTRO =        -0.00024656
  eigenvalues    EBANDS =      -276.68542434
  atomic energy  EATOM  =     11936.92408711
  Solvation  Ediel_sol  =         0.00000000
  ---------------------------------------------------
  free energy    TOTEN  =      -550.24443312 eV

  energy without entropy =     -550.24418656  energy(sigma->0) =     -550.24430984


--------------------------------------------------------------------------------------------------------




--------------------------------------- Iteration      1(  10)  ---------------------------------------


    POTLOK:  cpu time      0.2255: real time      0.2276
    SETDIJ:  cpu time      1.2621: real time      1.2712
     EDDAV:  cpu time     16.5451: real time     16.7177
       DOS:  cpu time      0.0011: real time      0.0011
    CHARGE:  cpu time      1.1753: real time      1.1869
    MIXING:  cpu time      0.0087: real time      0.0088
    --------------------------------------------
      LOOP:  cpu time     19.2178: real time     19.4133

 eigenvalue-minimisations  :  5368
 total energy-change (2. order) : 0.3941797E-01  (-0.6467924E+00)
 number of electron     479.9999995 magnetization       1.0000000
 augmentation part      -68.5339472 magnetization      -0.1193076

 Broyden mixing:
  rms(total) = 0.17796E+00    rms(broyden)= 0.17796E+00
  rms(prec ) = 0.21221E+00
  weight for this iteration     100.00

 eigenvalues of (default mixing * dielectric matrix)
  average eigenvalue GAMMA=   0.7963
  1.8234  0.8568  0.6563  0.2578  0.3873

 Free energy of the ion-electron system (eV)
  ---------------------------------------------------
  alpha Z        PSCENC =       318.18852309
  Ewald energy   TEWEN  =     -5122.96833958
  -Hartree energ DENC   =     -8274.06211336
  -exchange      EXHF   =         0.00000000
  -V(xc)+E(xc)   XCENC  =     -6314.53192707
  PAW double counting   =     44663.59668363   -37475.92884872
  entropy T*S    EENTRO =        -0.00049531
  eigenvalues    EBANDS =      -281.42258495
  atomic energy  EATOM  =     11936.92408711
  Solvation  Ediel_sol  =         0.00000000
  ---------------------------------------------------
  free energy    TOTEN  =      -550.20501515 eV

  energy without entropy =     -550.20451985  energy(sigma->0) =     -550.20476750


--------------------------------------------------------------------------------------------------------




--------------------------------------- Iteration      1(  11)  ---------------------------------------


    POTLOK:  cpu time      0.2254: real time      0.2287
    SETDIJ:  cpu time      1.2624: real time      1.2709
     EDDAV:  cpu time     17.4909: real time     17.6600
       DOS:  cpu time      0.0012: real time      0.0012
    CHARGE:  cpu time      1.1646: real time      1.1750
    MIXING:  cpu time      0.0081: real time      0.0081
    --------------------------------------------
      LOOP:  cpu time     20.1527: real time     20.3440

 eigenvalue-minimisations  :  5744
 total energy-change (2. order) : 0.1373039E-01  (-0.8720088E-01)
 number of electron     479.9999995 magnetization       1.0000000
 augmentation part      -68.5695152 magnetization      -0.1193498

 Broyden mixing:
  rms(total) = 0.98897E-01    rms(broyden)= 0.98897E-01
  rms(prec ) = 0.10778E+00
  weight for this iteration     100.00

 eigenvalues of (default mixing * dielectric matrix)
  average eigenvalue GAMMA=   0.8113
  1.7518  0.9062  0.9062  0.2553  0.5656  0.4827

 Free energy of the ion-electron system (eV)
  ---------------------------------------------------
  alpha Z        PSCENC =       318.18852309
  Ewald energy   TEWEN  =     -5122.96833958
  -Hartree energ DENC   =     -8270.69126608
  -exchange      EXHF   =         0.00000000
  -V(xc)+E(xc)   XCENC  =     -6315.04162349
  PAW double counting   =     44546.10490222   -37358.15794541
  entropy T*S    EENTRO =        -0.00022110
  eigenvalues    EBANDS =      -284.54940152
  atomic energy  EATOM  =     11936.92408711
  Solvation  Ediel_sol  =         0.00000000
  ---------------------------------------------------
  free energy    TOTEN  =      -550.19128476 eV

  energy without entropy =     -550.19106366  energy(sigma->0) =     -550.19117421


--------------------------------------------------------------------------------------------------------




--------------------------------------- Iteration      1(  12)  ---------------------------------------


    POTLOK:  cpu time      0.2254: real time      0.2271
    SETDIJ:  cpu time      1.2679: real time      1.2762
     EDDAV:  cpu time     17.2738: real time     17.4327
       DOS:  cpu time      0.0011: real time      0.0011
    CHARGE:  cpu time      1.1708: real time      1.1812
    MIXING:  cpu time      0.0095: real time      0.0096
    --------------------------------------------
      LOOP:  cpu time     19.9485: real time     20.1278

 eigenvalue-minimisations  :  5632
 total energy-change (2. order) : 0.4440084E-02  (-0.9532211E-02)
 number of electron     479.9999995 magnetization       1.0000000
 augmentation part      -68.5668574 magnetization      -0.1208968

 Broyden mixing:
  rms(total) = 0.64562E-01    rms(broyden)= 0.64562E-01
  rms(prec ) = 0.68258E-01
  weight for this iteration     100.00

 eigenvalues of (default mixing * dielectric matrix)
  average eigenvalue GAMMA=   0.8890
  1.6694  1.2428  1.2428  0.2551  0.4559  0.6785  0.6785

 Free energy of the ion-electron system (eV)
  ---------------------------------------------------
  alpha Z        PSCENC =       318.18852309
  Ewald energy   TEWEN  =     -5122.96833958
  -Hartree energ DENC   =     -8272.07848949
  -exchange      EXHF   =         0.00000000
  -V(xc)+E(xc)   XCENC  =     -6315.14565466
  PAW double counting   =     44274.80804680   -37086.79793060
  entropy T*S    EENTRO =        -0.00022087
  eigenvalues    EBANDS =      -283.11686648
  atomic energy  EATOM  =     11936.92408711
  Solvation  Ediel_sol  =         0.00000000
  ---------------------------------------------------
  free energy    TOTEN  =      -550.18684467 eV

  energy without entropy =     -550.18662381  energy(sigma->0) =     -550.18673424


--------------------------------------------------------------------------------------------------------




--------------------------------------- Iteration      1(  13)  ---------------------------------------


    POTLOK:  cpu time      0.2262: real time      0.2277
    SETDIJ:  cpu time      1.2666: real time      1.2751
     EDDAV:  cpu time     16.5765: real time     16.7296
       DOS:  cpu time      0.0013: real time      0.0013
    CHARGE:  cpu time      1.1590: real time      1.1696
    MIXING:  cpu time      0.0089: real time      0.0089
    --------------------------------------------
      LOOP:  cpu time     19.2385: real time     19.4122

 eigenvalue-minimisations  :  5384
 total energy-change (2. order) :-0.2015659E-02  (-0.3488633E-02)
 number of electron     479.9999995 magnetization       1.0000000
 augmentation part      -68.5783613 magnetization      -0.1189784

 Broyden mixing:
  rms(total) = 0.33903E-01    rms(broyden)= 0.33903E-01
  rms(prec ) = 0.36258E-01
  weight for this iteration     100.00

 eigenvalues of (default mixing * dielectric matrix)
  average eigenvalue GAMMA=   0.9271
  1.6554  1.5443  1.5443  0.2550  0.6769  0.6769  0.4600  0.6039

 Free energy of the ion-electron system (eV)
  ---------------------------------------------------
  alpha Z        PSCENC =       318.18852309
  Ewald energy   TEWEN  =     -5122.96833958
  -Hartree energ DENC   =     -8272.21777959
  -exchange      EXHF   =         0.00000000
  -V(xc)+E(xc)   XCENC  =     -6315.19601424
  PAW double counting   =     43967.25332790   -36779.20998337
  entropy T*S    EENTRO =        -0.00022360
  eigenvalues    EBANDS =      -282.96245806
  atomic energy  EATOM  =     11936.92408711
  Solvation  Ediel_sol  =         0.00000000
  ---------------------------------------------------
  free energy    TOTEN  =      -550.18886033 eV

  energy without entropy =     -550.18863673  energy(sigma->0) =     -550.18874853


--------------------------------------------------------------------------------------------------------




--------------------------------------- Iteration      1(  14)  ---------------------------------------


    POTLOK:  cpu time      0.2264: real time      0.2280
    SETDIJ:  cpu time      1.2706: real time      1.2787
     EDDAV:  cpu time     16.5605: real time     16.7113
       DOS:  cpu time      0.0013: real time      0.0013
    CHARGE:  cpu time      1.1598: real time      1.1703
    MIXING:  cpu time      0.0085: real time      0.0086
    --------------------------------------------
      LOOP:  cpu time     19.2270: real time     19.3981

 eigenvalue-minimisations  :  5376
 total energy-change (2. order) :-0.5518502E-03  (-0.6278901E-03)
 number of electron     479.9999995 magnetization       1.0000000
 augmentation part      -68.5771571 magnetization      -0.1204572

 Broyden mixing:
  rms(total) = 0.23326E-01    rms(broyden)= 0.23326E-01
  rms(prec ) = 0.24238E-01
  weight for this iteration     100.00

 eigenvalues of (default mixing * dielectric matrix)
  average eigenvalue GAMMA=   0.9536
  1.8521  1.6147  1.6147  0.8048  0.8048  0.2551  0.6871  0.4582  0.4907

 Free energy of the ion-electron system (eV)
  ---------------------------------------------------
  alpha Z        PSCENC =       318.18852309
  Ewald energy   TEWEN  =     -5122.96833958
  -Hartree energ DENC   =     -8272.93978106
  -exchange      EXHF   =         0.00000000
  -V(xc)+E(xc)   XCENC  =     -6315.10645353
  PAW double counting   =     43944.31403987   -36756.31890445
  entropy T*S    EENTRO =        -0.00028206
  eigenvalues    EBANDS =      -282.28230158
  atomic energy  EATOM  =     11936.92408711
  Solvation  Ediel_sol  =         0.00000000
  ---------------------------------------------------
  free energy    TOTEN  =      -550.18941218 eV

  energy without entropy =     -550.18913013  energy(sigma->0) =     -550.18927116


--------------------------------------------------------------------------------------------------------




--------------------------------------- Iteration      1(  15)  ---------------------------------------


    POTLOK:  cpu time      0.2266: real time      0.2288
    SETDIJ:  cpu time      1.2694: real time      1.2779
     EDDAV:  cpu time     17.5798: real time     17.7456
       DOS:  cpu time      0.0012: real time      0.0012
    CHARGE:  cpu time      1.1605: real time      1.1718
    MIXING:  cpu time      0.0092: real time      0.0092
    --------------------------------------------
      LOOP:  cpu time     20.2467: real time     20.4345

 eigenvalue-minimisations  :  5776
 total energy-change (2. order) :-0.3460639E-03  (-0.2203477E-03)
 number of electron     479.9999995 magnetization       1.0000000
 augmentation part      -68.5756891 magnetization      -0.1198179

 Broyden mixing:
  rms(total) = 0.12126E-01    rms(broyden)= 0.12126E-01
  rms(prec ) = 0.13161E-01
  weight for this iteration     100.00

 eigenvalues of (default mixing * dielectric matrix)
  average eigenvalue GAMMA=   0.9677
  1.9421  1.6330  1.6330  0.9211  0.9211  0.2551  0.7894  0.6382  0.4549  0.4893

 Free energy of the ion-electron system (eV)
  ---------------------------------------------------
  alpha Z        PSCENC =       318.18852309
  Ewald energy   TEWEN  =     -5122.96833958
  -Hartree energ DENC   =     -8273.34465949
  -exchange      EXHF   =         0.00000000
  -V(xc)+E(xc)   XCENC  =     -6315.04993881
  PAW double counting   =     43978.26573405   -36790.30089284
  entropy T*S    EENTRO =        -0.00032018
  eigenvalues    EBANDS =      -281.90395159
  atomic energy  EATOM  =     11936.92408711
  Solvation  Ediel_sol  =         0.00000000
  ---------------------------------------------------
  free energy    TOTEN  =      -550.18975825 eV

  energy without entropy =     -550.18943806  energy(sigma->0) =     -550.18959816


--------------------------------------------------------------------------------------------------------




--------------------------------------- Iteration      1(  16)  ---------------------------------------


[...]
   -.241E+00 0.365E-01 0.338E+02   0.799E-01 -.212E+00 -.338E+02   0.162E+00 0.107E+00 -.111E+00   -.159E-04 -.135E-05 -.759E-04
   0.116E+00 0.419E+00 -.340E+02   0.865E-01 -.207E+00 0.338E+02   -.202E+00 -.275E+00 0.127E+00   -.531E-04 -.264E-04 0.730E-04
   0.112E+01 -.126E+01 -.102E+03   -.884E+00 0.122E+01 0.102E+03   -.181E+00 -.312E-01 -.133E+00   -.781E-04 -.170E-05 0.245E-03
   -.111E+02 -.140E+01 -.171E+03   0.110E+02 0.133E+01 0.169E+03   0.427E+00 0.245E+00 0.122E+01   -.871E-04 0.396E-04 0.239E-03
   -.547E+01 -.170E+02 0.147E+03   0.685E+01 0.160E+02 -.145E+03   -.994E+00 0.134E+01 0.613E+00   0.875E-04 -.702E-04 0.596E-04
   0.710E+00 0.161E+01 0.106E+03   -.745E+00 -.175E+01 -.106E+03   -.160E-01 0.165E+00 0.218E-01   0.103E-03 0.493E-04 -.454E-04
   -.202E-02 -.299E+00 0.330E+02   0.799E-01 0.204E+00 -.332E+02   -.112E+00 0.404E-01 0.271E+00   0.264E-04 -.124E-04 -.444E-05
   -.133E+00 -.257E+00 -.336E+02   0.864E-01 0.208E+00 0.332E+02   -.342E-01 -.295E-01 0.376E+00   0.145E-04 0.857E-05 0.109E-03
   0.286E+00 0.110E+01 -.107E+03   -.869E+00 -.183E+01 0.106E+03   0.320E+00 0.515E+00 0.107E+01   0.413E-04 -.953E-05 0.215E-03
   -.114E+02 -.197E+02 -.149E+03   0.116E+02 0.190E+02 0.147E+03   -.451E-01 0.130E+01 0.395E+00   0.137E-04 -.661E-04 0.211E-03
   0.385E+01 -.399E+01 -.158E+03   -.330E+01 0.431E+01 0.159E+03   -.123E+00 0.184E+00 -.937E+00   0.171E-04 -.530E-04 -.229E-04
   0.727E+00 0.328E+01 -.981E+02   -.514E+00 -.312E+01 0.978E+02   -.122E+00 -.459E+00 0.642E+00   0.155E-04 0.210E-04 -.160E-03
   0.534E-01 0.112E+01 -.330E+02   0.149E-01 -.118E+01 0.330E+02   -.513E-01 -.279E+00 -.718E-01   -.477E-05 -.734E-05 -.118E-03
   -.165E-01 0.129E+01 0.331E+02   -.358E-01 -.125E+01 -.330E+02   0.710E-01 -.334E+00 -.915E-01   -.263E-05 0.685E-05 -.733E-04
   -.158E+00 0.207E+01 0.983E+02   0.227E+00 -.204E+01 -.983E+02   0.236E-01 -.302E+00 0.747E-01   -.337E-04 -.217E-04 -.643E-04
   -.105E+02 -.212E+02 0.169E+03   0.106E+02 0.210E+02 -.168E+03   0.870E+00 0.878E+00 -.171E+01   0.325E-04 -.647E-05 0.132E-04
   0.385E+01 -.399E+01 -.158E+03   -.330E+01 0.431E+01 0.159E+03   -.123E+00 0.184E+00 -.937E+00   0.180E-04 -.551E-04 -.186E-04
   0.727E+00 0.328E+01 -.981E+02   -.514E+00 -.312E+01 0.978E+02   -.122E+00 -.459E+00 0.642E+00   0.144E-04 0.184E-04 -.159E-03
   0.534E-01 0.112E+01 -.330E+02   0.149E-01 -.118E+01 0.330E+02   -.513E-01 -.279E+00 -.718E-01   -.403E-05 -.917E-05 -.120E-03
   -.165E-01 0.129E+01 0.331E+02   -.358E-01 -.125E+01 -.330E+02   0.710E-01 -.334E+00 -.915E-01   -.225E-05 0.208E-05 -.695E-04
   -.158E+00 0.207E+01 0.983E+02   0.227E+00 -.204E+01 -.983E+02   0.236E-01 -.302E+00 0.747E-01   -.341E-04 -.142E-04 -.657E-04
   -.105E+02 -.212E+02 0.169E+03   0.106E+02 0.210E+02 -.168E+03   0.870E+00 0.878E+00 -.171E+01   0.339E-04 -.130E-05 0.108E-04
   -.364E+01 -.182E+02 -.181E+03   0.362E+01 0.177E+02 0.182E+03   0.704E+00 0.186E+01 0.151E+01   -.155E-04 -.818E-04 -.829E-04
   -.603E+00 0.127E+01 -.964E+02   0.514E+00 -.157E+01 0.969E+02   0.215E+00 -.118E+00 -.470E+00   -.197E-04 0.373E-04 -.170E-03
   -.422E-01 0.130E+01 -.330E+02   -.150E-01 -.123E+01 0.329E+02   0.580E-01 -.229E+00 0.457E-01   0.322E-05 -.165E-05 -.127E-03
   0.324E-01 0.108E+01 0.328E+02   0.357E-01 -.115E+01 -.330E+02   -.768E-01 -.179E+00 0.122E+00   0.329E-05 0.131E-04 -.457E-04
   0.755E-01 0.264E+01 0.965E+02   -.227E+00 -.264E+01 -.964E+02   -.130E+00 -.512E+00 -.233E+00   0.358E-04 -.183E-04 -.897E-04
   0.966E+01 -.133E+01 0.172E+03   -.103E+02 0.107E+01 -.173E+03   -.601E+00 0.111E+01 0.208E+00   -.296E-04 -.234E-04 -.330E-04
   -.364E+01 -.182E+02 -.181E+03   0.362E+01 0.177E+02 0.182E+03   0.704E+00 0.186E+01 0.151E+01   -.177E-04 -.844E-04 -.784E-04
   -.603E+00 0.127E+01 -.964E+02   0.514E+00 -.157E+01 0.969E+02   0.215E+00 -.118E+00 -.470E+00   -.189E-04 0.376E-04 -.173E-03
   -.422E-01 0.130E+01 -.330E+02   -.150E-01 -.123E+01 0.329E+02   0.580E-01 -.229E+00 0.457E-01   0.214E-05 -.408E-05 -.128E-03
   0.324E-01 0.108E+01 0.328E+02   0.357E-01 -.115E+01 -.330E+02   -.768E-01 -.179E+00 0.122E+00   0.235E-05 0.873E-05 -.433E-04
   0.755E-01 0.264E+01 0.965E+02   -.227E+00 -.264E+01 -.964E+02   -.130E+00 -.512E+00 -.233E+00   0.359E-04 -.925E-05 -.878E-04
   0.966E+01 -.133E+01 0.172E+03   -.103E+02 0.107E+01 -.173E+03   -.601E+00 0.111E+01 0.208E+00   -.322E-04 -.203E-04 -.380E-04
   -.596E+01 0.410E+01 -.181E+03   0.555E+01 -.464E+01 0.182E+03   0.876E+00 0.268E+00 0.190E+01   0.558E-05 0.161E-04 -.128E-03
   -.458E+00 -.297E+01 -.968E+02   0.559E+00 0.309E+01 0.969E+02   0.114E-01 0.415E+00 -.456E-01   -.194E-04 -.205E-04 -.162E-03
   -.776E-01 -.109E+01 -.328E+02   -.151E-01 0.118E+01 0.329E+02   0.124E+00 0.226E+00 -.970E-01   -.404E-05 -.505E-05 -.146E-03
   0.182E-01 -.132E+01 0.329E+02   0.353E-01 0.125E+01 -.330E+02   -.177E-01 0.238E+00 0.899E-01   -.186E-04 -.632E-05 -.558E-04
   0.274E+00 -.173E+01 0.958E+02   -.208E+00 0.203E+01 -.964E+02   -.115E+00 0.857E-01 0.742E+00   0.573E-05 0.389E-04 -.831E-04
   0.662E+01 0.232E+02 0.172E+03   -.567E+01 -.233E+02 -.173E+03   -.317E+00 -.147E+01 -.120E+00   0.426E-04 -.270E-04 -.189E-04
   -.596E+01 0.410E+01 -.181E+03   0.555E+01 -.464E+01 0.182E+03   0.876E+00 0.268E+00 0.190E+01   0.569E-06 0.214E-04 -.126E-03
   -.458E+00 -.297E+01 -.968E+02   0.559E+00 0.309E+01 0.969E+02   0.114E-01 0.415E+00 -.456E-01   -.187E-04 -.173E-04 -.156E-03
   -.776E-01 -.109E+01 -.328E+02   -.151E-01 0.118E+01 0.329E+02   0.124E+00 0.226E+00 -.970E-01   -.447E-05 -.175E-05 -.144E-03
   0.182E-01 -.132E+01 0.329E+02   0.353E-01 0.125E+01 -.330E+02   -.177E-01 0.238E+00 0.899E-01   -.177E-04 -.525E-05 -.569E-04
   0.274E+00 -.173E+01 0.958E+02   -.208E+00 0.203E+01 -.964E+02   -.115E+00 0.857E-01 0.742E+00   0.626E-05 0.293E-04 -.801E-04
   0.662E+01 0.232E+02 0.172E+03   -.567E+01 -.233E+02 -.173E+03   -.317E+00 -.147E+01 -.120E+00   0.422E-04 -.201E-04 -.156E-04
   0.377E+01 0.156E+02 -.158E+03   -.481E+01 -.158E+02 0.159E+03   0.373E+00 -.193E+00 -.934E+00   -.174E-05 0.504E-04 0.438E-05
   0.225E+00 -.195E+01 -.982E+02   -.561E+00 0.160E+01 0.978E+02   0.165E+00 0.608E+00 0.438E+00   0.257E-04 -.927E-05 -.167E-03
   0.193E-02 -.133E+01 -.333E+02   0.152E-01 0.123E+01 0.331E+02   -.479E-01 0.323E+00 0.198E+00   0.576E-05 -.236E-05 -.109E-03
   -.240E-01 -.113E+01 0.330E+02   -.353E-01 0.115E+01 -.330E+02   0.515E-02 0.312E+00 0.822E-02   0.184E-04 -.112E-04 -.465E-04
   -.153E+00 -.258E+01 0.983E+02   0.206E+00 0.266E+01 -.983E+02   0.440E-01 0.320E+00 -.247E+00   -.892E-05 0.228E-04 -.851E-04
   -.662E+01 -.324E+01 0.169E+03   0.640E+01 0.286E+01 -.168E+03   0.335E+00 0.114E+01 -.163E+01   -.491E-04 -.481E-04 0.354E-04
   0.377E+01 0.156E+02 -.158E+03   -.481E+01 -.158E+02 0.159E+03   0.373E+00 -.193E+00 -.934E+00   0.139E-05 0.597E-04 0.458E-05
   0.225E+00 -.195E+01 -.982E+02   -.561E+00 0.160E+01 0.978E+02   0.165E+00 0.608E+00 0.438E+00   0.243E-04 -.748E-05 -.163E-03
   0.193E-02 -.133E+01 -.333E+02   0.152E-01 0.123E+01 0.330E+02   -.479E-01 0.323E+00 0.198E+00   0.620E-05 0.239E-05 -.107E-03
   -.240E-01 -.113E+01 0.330E+02   -.353E-01 0.115E+01 -.330E+02   0.515E-02 0.312E+00 0.822E-02   0.169E-04 -.111E-04 -.496E-04
   -.153E+00 -.258E+01 0.983E+02   0.206E+00 0.266E+01 -.983E+02   0.440E-01 0.320E+00 -.247E+00   -.938E-05 0.142E-04 -.799E-04
   -.662E+01 -.324E+01 0.169E+03   0.641E+01 0.286E+01 -.168E+03   0.335E+00 0.114E+01 -.163E+01   -.496E-04 -.396E-04 0.358E-04
 -----------------------------------------------------------------------------------------------
   0.172E+01 0.147E+01 -.509E+01   0.231E-13 -.799E-14 0.284E-13   -.171E+01 -.150E+01 0.490E+01   -.111E-03 -.389E-03 0.275E-02
 
 
 POSITION                                       TOTAL-FORCE (eV/Angst)
 -----------------------------------------------------------------------------------
      6.27118      8.58300      0.00000         0.183301     -0.361498     -0.171573
      6.27118      5.25720      1.92015        -0.011242      0.161682     -0.032061
      6.27118      1.93141      3.84030         0.016107      0.053864      0.006195
      6.27118     11.90879      5.76045        -0.026870      0.056002      0.042431
      6.27118      8.58299      7.68059         0.116730     -0.063530      0.177209
      6.27118      5.25720      9.60075        -0.117140     -0.423221      0.469280
      3.13559      4.14860      0.00000        -0.564480     -0.113909     -0.170190
      3.13559      0.82281      1.92015        -0.064948      0.220730      0.098691
      3.13559     10.80019      3.84030         0.052975      0.126019     -0.009810
      3.13559      7.47440      5.76045         0.060197      0.125141      0.146343
      3.13559      4.14860      7.68059        -0.035616      0.409609      0.099444
      3.13559      0.82280      9.60075         0.091557     -0.743240     -1.395802
      0.00000     13.01739      0.00000         0.077008      0.031327      1.861437
      9.40677      9.69159      1.92015         0.396034      0.054041     -0.027166
      9.40677      6.36580      3.84030         0.101495      0.104201     -0.004362
      9.40677      3.04000      5.76045         0.109965      0.081443      0.075351
      9.40677     13.01739      7.68059         0.014471     -0.005843      0.094215
      9.40677      9.69159      9.60075        -1.535722     -0.646820     -2.670587
      6.27118      1.93141      0.00000         0.183301     -0.361498     -0.171573
      6.27118     11.90879      1.92015        -0.011242      0.161682     -0.032061
      6.27118      8.58300      3.84030         0.016107      0.053864      0.006195
      6.27118      5.25720      5.76045        -0.026870      0.056002      0.042431
      6.27118      1.93140      7.68059         0.116730     -0.063530      0.177209
      6.27118     11.90879      9.60074        -0.117140     -0.423221      0.469280
      3.13559     10.80020      0.00000        -0.564480     -0.113909     -0.170190
      3.13559      7.47440      1.92015        -0.064948      0.220730      0.098691
      3.13559      4.14860      3.84030         0.052975      0.126019     -0.009810
      3.13559      0.82281      5.76045         0.060197      0.125141      0.146343
      3.13559     10.80019      7.68059        -0.035616      0.409609      0.099444
      3.13559      7.47440      9.60074         0.091557     -0.743240     -1.395802
      0.00000      6.36580      0.00000         0.077008      0.031327      1.861437
      9.40677      3.04001      1.92015         0.396034      0.054041     -0.027166
      9.40677     13.01739      3.84030         0.101495      0.104201     -0.004362
      9.40677      9.69159      5.76045         0.109965      0.081443      0.075351
      9.40677      6.36580      7.68059         0.014471     -0.005843      0.094215
      9.40677      3.04000      9.60075        -1.535722     -0.646820     -2.670587
      8.62287      8.58300      0.00000        -0.286006      0.360090      0.036711
      8.62287      5.25720      1.92015        -0.051304     -0.371217     -0.199636
      8.62287      1.93141      3.84030        -0.122496     -0.132757     -0.092795
      8.62287     11.90879      5.76045        -0.048102     -0.116728     -0.012015
      8.62287      8.58299      7.68059        -0.145920     -0.390623     -0.079265
      8.62287      5.25720      9.60075         0.157310      0.134391      0.349556
      5.48728      4.14861      0.00000        -0.267372     -0.989612      1.116747
      5.48728      0.82281      1.92015        -0.077981      0.000433     -0.234055
      5.48728     10.80019      3.84030         0.001023     -0.068536     -0.079784
      5.48728      7.47440      5.76045        -0.000008     -0.062820     -0.023826
      5.48728      4.14860      7.68059         0.057569     -0.070053      0.079621
      5.48728      0.82280      9.60074         0.364688      0.172348     -0.034252
      2.35169     13.01739      0.00000         0.384875      0.321296      2.379439
      2.35169      9.69159      1.92015        -0.050961      0.030470     -0.041469
      2.35169      6.36580      3.84030        -0.033898     -0.054216     -0.019690
      2.35169      3.04000      5.76045        -0.080661     -0.077591      0.000582
      2.35169     13.01739      7.68059        -0.261918     -0.207216      0.028580
      2.35169      9.69159      9.60074         0.141729      0.533509     -1.952504
      8.62287      1.93141      0.00000        -0.286006      0.360090      0.036711
      8.62287     11.90879      1.92015        -0.051304     -0.371217     -0.199636
      8.62287      8.58300      3.84030        -0.122496     -0.132757     -0.092795
      8.62287      5.25720      5.76045        -0.048102     -0.116728     -0.012015
      8.62287      1.93140      7.68059        -0.145920     -0.390623     -0.079265
      8.62287     11.90879      9.60074         0.157310      0.134391      0.349556
      5.48728     10.80019      0.00000        -0.267372     -0.989612      1.116747
      5.48728      7.47440      1.92015        -0.077981      0.000433     -0.234055
      5.48728      4.14860      3.84030         0.001023     -0.068536     -0.079784
      5.48728      0.82281      5.76045        -0.000008     -0.062820     -0.023826
      5.48728     10.80019      7.68059         0.057569     -0.070053      0.079621
      5.48728      7.47439      9.60074         0.364688      0.172348     -0.034252
      2.35169      6.36580      0.00000         0.384875      0.321296      2.379439
      2.35169      3.04001      1.92015        -0.050961      0.030470     -0.041469
      2.35169     13.01739      3.84030        -0.033898     -0.054216     -0.019690
      2.35169      9.69159      5.76045        -0.080661     -0.077591      0.000582
      2.35169      6.36580      7.68059        -0.261918     -0.207216      0.028580
      2.35169      3.04000      9.60075         0.141729      0.533509     -1.952504
      5.69746      3.59052     11.76468         0.426193      0.505270     -0.665724
      3.34577      0.26472     14.05896         0.090846     -0.299839      0.293658
      0.99407     10.24211     16.35324         0.016886     -0.340878      0.002165
      8.04915      6.91631     18.64752         0.018576     -0.295815      0.025410
      5.69746      3.59052     20.94179         0.092462     -0.279452      0.058356
      3.34576      0.26472     23.23607         0.969528      0.676410     -1.155914
      5.69746     10.24211     11.76468         0.426193      0.505270     -0.665724
      3.34577      6.91631     14.05896         0.090846     -0.299839      0.293658
      0.99407      3.59052     16.35324         0.016886     -0.340878      0.002165
      8.04915      0.26472     18.64752         0.018576     -0.295815      0.025410
      5.69746     10.24211     20.94179         0.092462     -0.279452      0.058356
      3.34576      6.91631     23.23607         0.969528      0.676410     -1.155914
      0.99407      3.59052     11.76468         0.685699      1.367959      2.943900
      8.04915      0.26472     14.05896         0.125893     -0.412599      0.032392
      5.69746     10.24211     16.35324         0.000678     -0.151160     -0.006144
      3.34576      6.91631     18.64752        -0.008716     -0.250490     -0.015500
      0.99407      3.59052     20.94179        -0.281587     -0.512320     -0.062246
      8.04915      0.26472     23.23607        -1.205228      0.841291     -0.890581
      0.99407     10.24211     11.76468         0.685699      1.367959      2.943900
      8.04915      6.91631     14.05896         0.125893     -0.412599      0.032392
      5.69746      3.59052     16.35324         0.000678     -0.151160     -0.006144
      3.34576      0.26472     18.64752        -0.008716     -0.250490     -0.015500
      0.99407     10.24211     20.94179        -0.281587     -0.512320     -0.062246
      8.04915      6.91631     23.23607        -1.205228      0.841291     -0.890581
      3.34577      8.57921     11.76468         0.469696     -0.276064      2.626519
      0.99407      5.25342     14.05896         0.111744      0.536048      0.010431
      8.04915      1.92762     16.35324         0.030887      0.321653      0.016988
      5.69746     11.90500     18.64752         0.035715      0.169661      0.000495
      3.34576      8.57921     20.94179        -0.049101      0.383723      0.199119
      0.99407      5.25341     23.23607         0.637074     -1.578605     -1.009064
      3.34577      1.92762     11.76468         0.469696     -0.276064      2.626519
      0.99407     11.90501     14.05896         0.111744      0.536048      0.010431
      8.04915      8.57921     16.35324         0.030887      0.321653      0.016988
      5.69746      5.25341     18.64752         0.035715      0.169661      0.000495
      3.34576      1.92762     20.94179        -0.049101      0.383723      0.199119
      0.99407     11.90500     23.23607         0.637074     -1.578605     -1.009064
      8.04915      8.57921     11.76468        -0.671299     -0.447116     -0.848144
      5.69746      5.25342     14.05896        -0.170454      0.256564      0.028110
      3.34576      1.92762     16.35324        -0.030875      0.219499     -0.019483
      0.99407     11.90500     18.64752        -0.054246      0.334663     -0.016709
      8.04915      8.57921     20.94179         0.097402      0.393782     -0.201590
      5.69746      5.25341     23.23607         0.117838      0.760646     -1.157431
      8.04915      1.92762     11.76468        -0.671299     -0.447116     -0.848144
      5.69746     11.90501     14.05896        -0.170454      0.256564      0.028110
      3.34576      8.57921     16.35324        -0.030875      0.219499     -0.019483
      0.99407      5.25341     18.64752        -0.054246      0.334663     -0.016709
      8.04915      1.92762     20.94179         0.097402      0.393782     -0.201590
      5.69746     11.90500     23.23607         0.117838      0.760646     -1.157431
 -----------------------------------------------------------------------------------
    total drift:                                0.012288     -0.029388     -0.188677


--------------------------------------------------------------------------------------------------------



  FREE ENERGIE OF THE ION-ELECTRON SYSTEM (eV)
  ---------------------------------------------------
  free  energy   TOTEN  =      -550.18992281 eV

  energy  without entropy=     -550.18962279  energy(sigma->0) =     -550.18977280
 


--------------------------------------------------------------------------------------------------------


    POTLOK:  cpu time      1.5005: real time      1.5120


--------------------------------------------------------------------------------------------------------


     LOOP+:  cpu time    545.4805: real time    551.2664
    4ORBIT:  cpu time      0.0000: real time      0.0000

 total amount of memory used by VASP MPI-rank0   154854. kBytes
=======================================================================

   base      :      30000. kBytes
   nonlr-proj:      12583. kBytes
   fftplans  :      19539. kBytes
   grid      :      14747. kBytes
   one-center:        129. kBytes
   wavefun   :      77856. kBytes
 
  
  
 General timing and accounting informations for this job:
 ========================================================
  
                  Total CPU time used (sec):      602.950
                            User time (sec):      565.476
                          System time (sec):       37.474
                         Elapsed time (sec):      611.195
  
                   Maximum memory used (kb):      434848.
                   Average memory used (kb):          N/A
  
                          Minor page faults:       378842
                          Major page faults:           25
                 Voluntary context switches:         1919
