       N       E                     dE             d eps       ncg     rms          rms(c)
DAV:   1     0.180352076660E+04    0.18035E+04   -0.16892E+05 18560   0.171E+03
DAV:   2    -0.338915979062E+03   -0.21424E+04   -0.20730E+04 21688   0.214E+02
DAV:   3    -0.564620238144E+03   -0.22570E+03   -0.21651E+03 22776   0.661E+01
DAV:   4    -0.573932128774E+03   -0.93119E+01   -0.90856E+01 22064   0.131E+01
DAV:   5    -0.574325211009E+03   -0.39308E+00   -0.39026E+00 24384   0.241E+00    0.489E+01
DAV:   6    -0.577717705592E+03   -0.33925E+01   -0.23606E+02 20664   0.254E+01    0.242E+01
DAV:   7    -0.561993235731E+03    0.15724E+02   -0.59259E+01 29224   0.209E+01    0.225E+01
DAV:   8    -0.560080786671E+03    0.19124E+01   -0.14956E+02 21936   0.198E+01    0.942E+00
DAV:   9    -0.555673150203E+03    0.44076E+01   -0.21908E+01 20456   0.900E+00    0.612E+00
DAV:  10    -0.553911821745E+03    0.17613E+01   -0.60779E+00 21080   0.354E+00    0.386E+00
DAV:  11    -0.553503557371E+03    0.40826E+00   -0.18717E+00 21632   0.199E+00    0.213E+00
DAV:  12    -0.553356844083E+03    0.14671E+00   -0.58239E-01 21144   0.139E+00    0.118E+00
DAV:  13    -0.553320072601E+03    0.36771E-01   -0.22541E-01 22616   0.780E-01    0.500E-01
DAV:  14    -0.553319263061E+03    0.80954E-03   -0.82350E-02 22272   0.447E-01    0.325E-01
DAV:  15    -0.553322076493E+03   -0.28134E-02   -0.26781E-02 21256   0.247E-01    0.341E-01
DAV:  16    -0.553319323470E+03    0.27530E-02   -0.18303E-02 22704   0.196E-01    0.224E-01
DAV:  17    -0.553318745797E+03    0.57767E-03   -0.70435E-03 22632   0.140E-01    0.122E-01
DAV:  18    -0.553318286282E+03    0.45951E-03   -0.11555E-03 21856   0.620E-02    0.424E-02
DAV:  19    -0.553318345549E+03   -0.59267E-04   -0.65258E-04 22472   0.339E-02    0.389E-02
DAV:  20    -0.553318355408E+03   -0.98588E-05   -0.15530E-04 20768   0.181E-02    0.233E-02
DAV:  21    -0.553318372587E+03   -0.17179E-04   -0.46236E-05 20944   0.114E-02    0.132E-02
DAV:  22    -0.553318381691E+03   -0.91044E-05   -0.46551E-05 20824   0.845E-03    0.145E-02
DAV:  23    -0.553318381999E+03   -0.30761E-06   -0.13161E-05 20968   0.546E-03    0.734E-03
DAV:  24    -0.553318388628E+03   -0.66293E-05   -0.16380E-05 23216   0.570E-03    0.719E-03
DAV:  25    -0.553318387824E+03    0.80372E-06   -0.36410E-06 22328   0.309E-03    0.418E-03
DAV:  26    -0.553318387046E+03    0.77847E-06   -0.20150E-06 22848   0.190E-03    0.175E-03
DAV:  27    -0.553318387126E+03   -0.80283E-07   -0.43356E-07 16800   0.944E-04
   1 F= -.55331839E+03 E0= -.55331691E+03  d E =-.296025E-02  mag=     1.0000
