  96  96   0   0
  0.2276159E+02  0.1265123E-08  0.1265123E-08  0.1393391E-08  0.5000000E-15
  1.000000000000000E-004
  CAR 
 Si and Ge interface calculation         
      6.50319659    -10.96280412  301      3.58767735      1.00000000
    -10.963  0.0000E+00  0.0000E+00  0.0000E+00  0.0000E+00
    -10.905  0.0000E+00  0.0000E+00  0.0000E+00  0.0000E+00
    -10.846  0.0000E+00  0.0000E+00  0.0000E+00  0.0000E+00
    -10.788  0.0000E+00  0.0000E+00  0.0000E+00  0.0000E+00
    -10.730  0.0000E+00  0.0000E+00  0.0000E+00  0.0000E+00
    -10.672  0.0000E+00  0.0000E+00  0.0000E+00  0.0000E+00
    -10.613  0.0000E+00  0.0000E+00  0.0000E+00  0.0000E+00
    -10.555  0.0000E+00  0.0000E+00  0.0000E+00  0.0000E+00
    -10.497  0.0000E+00  0.0000E+00  0.0000E+00  0.0000E+00
    -10.439  0.0000E+00  0.0000E+00  0.0000E+00  0.0000E+00
    -10.381  0.0000E+00  0.0000E+00  0.0000E+00  0.0000E+00
    -10.322  0.0000E+00  0.0000E+00  0.0000E+00  0.0000E+00
    -10.264  0.0000E+00  0.0000E+00  0.0000E+00  0.0000E+00
    -10.206  0.1536E-06  0.3269E-11  0.8944E-08  0.1903E-12
    -10.148  0.5871E+01  0.2105E+01  0.3418E+00  0.1226E+00
    -10.090  0.1710E+02  0.1354E+02  0.1337E+01  0.9107E+00
    -10.031  0.1138E+02  0.1871E+02  0.2000E+01  0.2000E+01
     -9.973  0.1530E+01  0.6448E+00  0.2089E+01  0.2038E+01
     -9.915  0.2069E+02  0.1471E+02  0.3294E+01  0.2894E+01
     -9.857  0.3503E+02  0.4190E+02  0.5333E+01  0.5333E+01
     -9.798  0.1306E-11  0.6356E-15  0.5333E+01  0.5333E+01
     -9.740  0.4110E+01  0.2078E+01  0.5573E+01  0.5454E+01
     -9.682  0.1879E+02  0.2082E+02  0.6667E+01  0.6667E+01
     -9.624  0.8608E+01  0.2567E+01  0.7168E+01  0.6816E+01
     -9.566  0.1429E+02  0.2033E+02  0.8000E+01  0.8000E+01
     -9.507  0.3757E-09  0.3197E-12  0.8000E+01  0.8000E+01
     -9.449  0.1051E+02  0.6542E+01  0.8612E+01  0.8381E+01
     -9.391  0.1239E+02  0.1636E+02  0.9333E+01  0.9333E+01
     -9.333  0.0000E+00  0.0000E+00  0.9333E+01  0.9333E+01
     -9.274  0.8670E-03  0.4451E-06  0.9333E+01  0.9333E+01
     -9.216  0.1976E+02  0.9658E+01  0.1048E+02  0.9896E+01
     -9.158  0.3144E+01  0.1324E+02  0.1067E+02  0.1067E+02
     -9.100  0.2659E+00  0.2510E-01  0.1068E+02  0.1067E+02
     -9.042  0.2262E+02  0.2259E+02  0.1200E+02  0.1198E+02
     -8.983  0.1377E-01  0.2851E+00  0.1200E+02  0.1200E+02
     -8.925  0.0000E+00  0.0000E+00  0.1200E+02  0.1200E+02
     -8.867  0.0000E+00  0.0000E+00  0.1200E+02  0.1200E+02
     -8.809  0.5538E+00  0.8445E-02  0.1203E+02  0.1200E+02
     -8.750  0.2235E+02  0.2277E+02  0.1333E+02  0.1333E+02
     -8.692  0.3155E+01  0.9555E+00  0.1352E+02  0.1338E+02
     -8.634  0.1431E+02  0.1096E+02  0.1435E+02  0.1402E+02
     -8.576  0.3125E+02  0.3221E+02  0.1617E+02  0.1590E+02
     -8.518  0.1697E+02  0.1519E+02  0.1716E+02  0.1678E+02
     -8.459  0.1087E+02  0.1547E+02  0.1779E+02  0.1768E+02
     -8.401  0.1039E+02  0.7781E+01  0.1840E+02  0.1813E+02
     -8.343  0.5629E+01  0.6190E+01  0.1872E+02  0.1849E+02
     -8.285  0.1536E+02  0.1734E+02  0.1962E+02  0.1950E+02
     -8.226  0.2670E+02  0.2711E+02  0.2117E+02  0.2108E+02
     -8.168  0.1493E+02  0.1104E+02  0.2204E+02  0.2172E+02
     -8.110  0.4013E+02  0.4146E+02  0.2438E+02  0.2414E+02
     -8.052  0.2436E+02  0.2413E+02  0.2580E+02  0.2554E+02
     -7.994  0.2143E+02  0.2214E+02  0.2704E+02  0.2683E+02
     -7.935  0.9022E+01  0.9689E+01  0.2757E+02  0.2740E+02
     -7.877  0.1885E+02  0.2178E+02  0.2867E+02  0.2866E+02
     -7.819  0.2386E+02  0.1977E+02  0.3006E+02  0.2982E+02
     -7.761  0.3267E+02  0.3183E+02  0.3196E+02  0.3167E+02
     -7.702  0.4475E+02  0.4277E+02  0.3456E+02  0.3416E+02
     -7.644  0.2747E+02  0.3014E+02  0.3616E+02  0.3591E+02
     -7.586  0.2722E+02  0.2806E+02  0.3775E+02  0.3755E+02
     -7.528  0.4442E+01  0.7768E+01  0.3801E+02  0.3800E+02
     -7.470  0.2600E+02  0.2302E+02  0.3952E+02  0.3934E+02
     -7.411  0.3587E+02  0.3277E+02  0.4161E+02  0.4125E+02
     -7.353  0.1958E+02  0.2253E+02  0.4275E+02  0.4256E+02
     -7.295  0.3214E+02  0.3250E+02  0.4462E+02  0.4445E+02
     -7.237  0.8124E+01  0.8873E+01  0.4509E+02  0.4497E+02
     -7.179  0.1461E+02  0.1523E+02  0.4594E+02  0.4586E+02
     -7.120  0.3717E+02  0.3152E+02  0.4811E+02  0.4769E+02
     -7.062  0.2043E+02  0.2471E+02  0.4930E+02  0.4913E+02
     -7.004  0.2705E+02  0.2523E+02  0.5087E+02  0.5060E+02
     -6.946  0.1468E+02  0.1792E+02  0.5173E+02  0.5164E+02
     -6.887  0.1891E+02  0.1511E+02  0.5283E+02  0.5252E+02
     -6.829  0.2657E+02  0.2856E+02  0.5437E+02  0.5418E+02
     -6.771  0.5167E+02  0.4784E+02  0.5738E+02  0.5697E+02
     -6.713  0.2153E+02  0.2685E+02  0.5864E+02  0.5853E+02
     -6.655  0.1918E+02  0.1962E+02  0.5975E+02  0.5968E+02
     -6.596  0.2675E+02  0.2406E+02  0.6131E+02  0.6108E+02
     -6.538  0.1542E+02  0.1791E+02  0.6221E+02  0.6212E+02
     -6.480  0.1892E+02  0.1613E+02  0.6331E+02  0.6306E+02
     -6.422  0.5654E+02  0.5301E+02  0.6660E+02  0.6614E+02
     -6.363  0.4203E+02  0.4533E+02  0.6905E+02  0.6878E+02
     -6.305  0.3725E+02  0.3579E+02  0.7122E+02  0.7087E+02
     -6.247  0.2557E+02  0.2858E+02  0.7271E+02  0.7253E+02
     -6.189  0.2919E+02  0.2475E+02  0.7440E+02  0.7397E+02
     -6.131  0.2344E+02  0.2576E+02  0.7577E+02  0.7547E+02
     -6.072  0.3288E+02  0.3497E+02  0.7768E+02  0.7751E+02
     -6.014  0.1808E+02  0.1805E+02  0.7874E+02  0.7856E+02
     -5.956  0.1691E+02  0.1636E+02  0.7972E+02  0.7951E+02
     -5.898  0.3990E+02  0.3469E+02  0.8204E+02  0.8153E+02
     -5.839  0.1705E+02  0.2505E+02  0.8304E+02  0.8299E+02
     -5.781  0.1134E+02  0.9138E+01  0.8370E+02  0.8352E+02
     -5.723  0.2503E+02  0.2343E+02  0.8515E+02  0.8489E+02
     -5.665  0.1694E+02  0.1705E+02  0.8614E+02  0.8588E+02
     -5.607  0.2865E+02  0.2999E+02  0.8781E+02  0.8762E+02
     -5.548  0.2859E+02  0.2764E+02  0.8947E+02  0.8923E+02
     -5.490  0.3290E+02  0.3191E+02  0.9139E+02  0.9109E+02
     -5.432  0.3249E+02  0.2989E+02  0.9328E+02  0.9283E+02
     -5.374  0.3271E+02  0.3799E+02  0.9518E+02  0.9504E+02
     -5.315  0.2589E+02  0.1997E+02  0.9669E+02  0.9621E+02
     -5.257  0.2259E+02  0.2723E+02  0.9801E+02  0.9779E+02
     -5.199  0.3823E+02  0.4012E+02  0.1002E+03  0.1001E+03
     -5.141  0.1226E+02  0.1059E+02  0.1009E+03  0.1007E+03
     -5.083  0.2284E+02  0.1666E+02  0.1023E+03  0.1017E+03
     -5.024  0.3351E+02  0.3704E+02  0.1042E+03  0.1039E+03
     -4.966  0.2065E+02  0.2303E+02  0.1054E+03  0.1052E+03
     -4.908  0.2433E+02  0.2467E+02  0.1068E+03  0.1066E+03
     -4.850  0.2756E+02  0.2635E+02  0.1085E+03  0.1082E+03
     -4.791  0.4107E+02  0.4316E+02  0.1108E+03  0.1107E+03
     -4.733  0.2207E+02  0.1656E+02  0.1121E+03  0.1117E+03
     -4.675  0.2487E+02  0.2805E+02  0.1136E+03  0.1133E+03
     -4.617  0.2722E+02  0.2296E+02  0.1152E+03  0.1146E+03
     -4.559  0.2764E+02  0.3459E+02  0.1168E+03  0.1166E+03
     -4.500  0.1768E+02  0.1603E+02  0.1178E+03  0.1176E+03
     -4.442  0.1403E+02  0.1502E+02  0.1186E+03  0.1185E+03
     -4.384  0.1062E+02  0.9737E+01  0.1192E+03  0.1190E+03
     -4.326  0.2831E+02  0.3008E+02  0.1209E+03  0.1208E+03
     -4.268  0.2266E+02  0.2264E+02  0.1222E+03  0.1221E+03
     -4.209  0.1535E+02  0.1311E+02  0.1231E+03  0.1228E+03
     -4.151  0.1478E+02  0.1804E+02  0.1240E+03  0.1239E+03
     -4.093  0.1744E+02  0.1600E+02  0.1250E+03  0.1248E+03
     -4.035  0.8166E+01  0.1033E+02  0.1254E+03  0.1254E+03
     -3.976  0.2015E+02  0.1761E+02  0.1266E+03  0.1265E+03
     -3.918  0.1985E+02  0.2046E+02  0.1278E+03  0.1276E+03
     -3.860  0.2100E+02  0.1801E+02  0.1290E+03  0.1287E+03
     -3.802  0.3893E+02  0.3812E+02  0.1313E+03  0.1309E+03
     -3.744  0.2444E+02  0.2644E+02  0.1327E+03  0.1325E+03
     -3.685  0.2632E+02  0.2588E+02  0.1342E+03  0.1340E+03
     -3.627  0.1091E+02  0.1283E+02  0.1349E+03  0.1347E+03
     -3.569  0.3588E+02  0.3478E+02  0.1369E+03  0.1367E+03
     -3.511  0.2911E+02  0.2844E+02  0.1386E+03  0.1384E+03
     -3.452  0.1483E+02  0.1812E+02  0.1395E+03  0.1394E+03
     -3.394  0.4653E+02  0.4090E+02  0.1422E+03  0.1418E+03
     -3.336  0.2041E+02  0.2546E+02  0.1434E+03  0.1433E+03
     -3.278  0.1450E+02  0.1334E+02  0.1442E+03  0.1441E+03
     -3.220  0.1929E+02  0.1878E+02  0.1454E+03  0.1452E+03
     -3.161  0.1427E+02  0.1058E+02  0.1462E+03  0.1458E+03
     -3.103  0.4954E+02  0.4690E+02  0.1491E+03  0.1485E+03
     -3.045  0.2213E+02  0.2716E+02  0.1504E+03  0.1501E+03
     -2.987  0.2592E+02  0.2814E+02  0.1519E+03  0.1517E+03
     -2.928  0.4081E+02  0.3413E+02  0.1543E+03  0.1537E+03
     -2.870  0.3220E+02  0.3977E+02  0.1561E+03  0.1560E+03
     -2.812  0.3622E+02  0.3297E+02  0.1582E+03  0.1580E+03
     -2.754  0.2899E+02  0.3062E+02  0.1599E+03  0.1598E+03
     -2.696  0.2119E+02  0.1958E+02  0.1612E+03  0.1609E+03
     -2.637  0.3388E+02  0.3151E+02  0.1631E+03  0.1627E+03
     -2.579  0.2712E+02  0.2902E+02  0.1647E+03  0.1644E+03
     -2.521  0.1996E+02  0.2271E+02  0.1659E+03  0.1657E+03
     -2.463  0.1742E+02  0.1895E+02  0.1669E+03  0.1668E+03
     -2.404  0.1538E+02  0.1390E+02  0.1678E+03  0.1676E+03
     -2.346  0.1750E+02  0.1620E+02  0.1688E+03  0.1686E+03
     -2.288  0.3488E+02  0.3166E+02  0.1708E+03  0.1704E+03
     -2.230  0.2301E+02  0.2708E+02  0.1722E+03  0.1720E+03
     -2.172  0.1725E+02  0.1578E+02  0.1732E+03  0.1729E+03
     -2.113  0.1460E+02  0.1837E+02  0.1740E+03  0.1740E+03
     -2.055  0.2622E+02  0.2548E+02  0.1756E+03  0.1755E+03
     -1.997  0.7995E+01  0.6289E+01  0.1760E+03  0.1759E+03
     -1.939  0.3007E+01  0.4598E+01  0.1762E+03  0.1761E+03
     -1.880  0.8134E+01  0.9098E+01  0.1767E+03  0.1766E+03
     -1.822  0.9369E+01  0.7493E+01  0.1772E+03  0.1771E+03
     -1.764  0.3990E+01  0.5569E+01  0.1774E+03  0.1774E+03
     -1.706  0.4948E+01  0.2136E+01  0.1777E+03  0.1775E+03
     -1.648  0.9998E+01  0.1214E+02  0.1783E+03  0.1782E+03
     -1.589  0.2466E+02  0.2434E+02  0.1797E+03  0.1797E+03
     -1.531  0.1380E+02  0.1480E+02  0.1806E+03  0.1805E+03
     -1.473  0.1086E+02  0.5854E+01  0.1812E+03  0.1809E+03
     -1.415  0.1594E+02  0.2137E+02  0.1821E+03  0.1821E+03
     -1.357  0.8842E+01  0.7841E+01  0.1826E+03  0.1826E+03
     -1.298  0.1193E+02  0.1110E+02  0.1833E+03  0.1832E+03
     -1.240  0.4095E+01  0.5990E+01  0.1836E+03  0.1836E+03
     -1.182  0.2127E+02  0.1635E+02  0.1848E+03  0.1845E+03
     -1.124  0.2316E+02  0.2269E+02  0.1861E+03  0.1858E+03
     -1.065  0.2942E+02  0.3137E+02  0.1879E+03  0.1877E+03
     -1.007  0.5494E+02  0.5105E+02  0.1911E+03  0.1906E+03
     -0.949  0.3356E+02  0.3154E+02  0.1930E+03  0.1925E+03
     -0.891  0.3320E+02  0.3450E+02  0.1949E+03  0.1945E+03
     -0.833  0.3172E+02  0.3673E+02  0.1968E+03  0.1966E+03
     -0.774  0.2072E+02  0.2004E+02  0.1980E+03  0.1978E+03
     -0.716  0.4856E+02  0.4377E+02  0.2008E+03  0.2003E+03
     -0.658  0.4580E+02  0.4108E+02  0.2035E+03  0.2027E+03
     -0.600  0.4367E+02  0.5079E+02  0.2060E+03  0.2057E+03
     -0.541  0.5852E+02  0.5792E+02  0.2094E+03  0.2090E+03
     -0.483  0.3225E+02  0.3227E+02  0.2113E+03  0.2109E+03
     -0.425  0.5283E+02  0.5411E+02  0.2144E+03  0.2141E+03
     -0.367  0.5820E+02  0.5630E+02  0.2178E+03  0.2174E+03
     -0.309  0.4568E+02  0.5084E+02  0.2204E+03  0.2203E+03
     -0.250  0.5370E+02  0.5001E+02  0.2236E+03  0.2232E+03
     -0.192  0.3868E+02  0.3837E+02  0.2258E+03  0.2255E+03
     -0.134  0.5460E+02  0.5377E+02  0.2290E+03  0.2286E+03
     -0.076  0.4571E+02  0.4739E+02  0.2317E+03  0.2314E+03
     -0.017  0.4022E+02  0.4131E+02  0.2340E+03  0.2338E+03
      0.041  0.3646E+02  0.3380E+02  0.2361E+03  0.2357E+03
      0.099  0.3574E+02  0.4007E+02  0.2382E+03  0.2381E+03
      0.157  0.5004E+02  0.4376E+02  0.2411E+03  0.2406E+03
      0.215  0.6640E+02  0.6835E+02  0.2450E+03  0.2446E+03
      0.274  0.3760E+02  0.3996E+02  0.2472E+03  0.2469E+03
      0.332  0.3628E+02  0.3694E+02  0.2493E+03  0.2491E+03
      0.390  0.3762E+02  0.3716E+02  0.2515E+03  0.2512E+03
      0.448  0.3568E+02  0.3544E+02  0.2536E+03  0.2533E+03
      0.507  0.5048E+02  0.4612E+02  0.2565E+03  0.2560E+03
      0.565  0.5518E+02  0.6121E+02  0.2597E+03  0.2595E+03
      0.623  0.6060E+02  0.5501E+02  0.2632E+03  0.2627E+03
      0.681  0.6389E+02  0.6335E+02  0.2670E+03  0.2664E+03
      0.739  0.5042E+02  0.5348E+02  0.2699E+03  0.2695E+03
      0.798  0.3348E+02  0.3616E+02  0.2718E+03  0.2716E+03
      0.856  0.4817E+02  0.4477E+02  0.2746E+03  0.2743E+03
      0.914  0.5620E+02  0.5663E+02  0.2779E+03  0.2776E+03
      0.972  0.5510E+02  0.5571E+02  0.2811E+03  0.2808E+03
      1.031  0.4748E+02  0.4388E+02  0.2839E+03  0.2833E+03
      1.089  0.6855E+02  0.6930E+02  0.2879E+03  0.2874E+03
      1.147  0.6061E+02  0.5811E+02  0.2914E+03  0.2908E+03
      1.205  0.5847E+02  0.6177E+02  0.2948E+03  0.2944E+03
      1.263  0.3313E+02  0.3567E+02  0.2967E+03  0.2964E+03
      1.322  0.2607E+02  0.2533E+02  0.2983E+03  0.2979E+03
      1.380  0.4169E+02  0.4134E+02  0.3007E+03  0.3003E+03
      1.438  0.4316E+02  0.4658E+02  0.3032E+03  0.3030E+03
      1.496  0.3808E+02  0.3741E+02  0.3054E+03  0.3052E+03
      1.554  0.5260E+02  0.4560E+02  0.3085E+03  0.3079E+03
      1.613  0.2532E+02  0.3187E+02  0.3100E+03  0.3097E+03
      1.671  0.5150E+02  0.4431E+02  0.3130E+03  0.3123E+03
      1.729  0.4523E+02  0.4726E+02  0.3156E+03  0.3151E+03
      1.787  0.4135E+02  0.4501E+02  0.3180E+03  0.3177E+03
      1.846  0.3367E+02  0.3560E+02  0.3200E+03  0.3197E+03
      1.904  0.4170E+02  0.3762E+02  0.3224E+03  0.3219E+03
      1.962  0.3725E+02  0.3429E+02  0.3245E+03  0.3239E+03
      2.020  0.3021E+02  0.3627E+02  0.3263E+03  0.3260E+03
      2.078  0.5189E+02  0.4753E+02  0.3293E+03  0.3288E+03
      2.137  0.5231E+02  0.5106E+02  0.3324E+03  0.3318E+03
      2.195  0.2553E+02  0.2934E+02  0.3339E+03  0.3335E+03
      2.253  0.4436E+02  0.4745E+02  0.3364E+03  0.3363E+03
      2.311  0.4336E+02  0.3902E+02  0.3390E+03  0.3385E+03
      2.370  0.5880E+02  0.4889E+02  0.3424E+03  0.3414E+03
      2.428  0.3426E+02  0.4484E+02  0.3444E+03  0.3440E+03
      2.486  0.4671E+02  0.4572E+02  0.3471E+03  0.3466E+03
      2.544  0.2079E+02  0.2529E+02  0.3483E+03  0.3481E+03
      2.602  0.2412E+02  0.2649E+02  0.3497E+03  0.3497E+03
      2.661  0.2266E+02  0.1670E+02  0.3510E+03  0.3506E+03
      2.719  0.2464E+02  0.2042E+02  0.3525E+03  0.3518E+03
      2.777  0.5737E+02  0.6038E+02  0.3558E+03  0.3553E+03
      2.835  0.1960E+02  0.2315E+02  0.3570E+03  0.3567E+03
      2.894  0.2480E+02  0.2056E+02  0.3584E+03  0.3579E+03
      2.952  0.5079E+02  0.4281E+02  0.3614E+03  0.3604E+03
      3.010  0.5398E+02  0.5683E+02  0.3645E+03  0.3637E+03
      3.068  0.2980E+02  0.3629E+02  0.3662E+03  0.3658E+03
      3.126  0.2987E+02  0.3580E+02  0.3680E+03  0.3679E+03
      3.185  0.3212E+02  0.1897E+02  0.3698E+03  0.3690E+03
      3.243  0.3283E+02  0.3913E+02  0.3718E+03  0.3713E+03
      3.301  0.2402E+02  0.2384E+02  0.3732E+03  0.3727E+03
      3.359  0.3977E+02  0.4584E+02  0.3755E+03  0.3753E+03
      3.418  0.4072E+02  0.3131E+02  0.3778E+03  0.3771E+03
      3.476  0.3672E+02  0.3973E+02  0.3800E+03  0.3795E+03
      3.534  0.2115E+02  0.2433E+02  0.3812E+03  0.3809E+03
      3.592  0.4209E+02  0.3920E+02  0.3837E+03  0.3832E+03
      3.650  0.2875E+02  0.2966E+02  0.3853E+03  0.3849E+03
      3.709  0.3313E+02  0.3011E+02  0.3873E+03  0.3866E+03
      3.767  0.2520E+02  0.3160E+02  0.3887E+03  0.3885E+03
      3.825  0.4062E+02  0.2578E+02  0.3911E+03  0.3900E+03
      3.883  0.3303E+02  0.4696E+02  0.3930E+03  0.3927E+03
      3.942  0.3231E+02  0.3184E+02  0.3949E+03  0.3946E+03
      4.000  0.2822E+02  0.2472E+02  0.3965E+03  0.3960E+03
      4.058  0.2607E+02  0.2915E+02  0.3981E+03  0.3977E+03
      4.116  0.3043E+02  0.2757E+02  0.3998E+03  0.3993E+03
      4.174  0.2763E+02  0.3062E+02  0.4014E+03  0.4011E+03
      4.233  0.4297E+02  0.4046E+02  0.4039E+03  0.4034E+03
      4.291  0.2308E+02  0.2722E+02  0.4053E+03  0.4050E+03
      4.349  0.4150E+02  0.3695E+02  0.4077E+03  0.4072E+03
      4.407  0.3904E+02  0.4239E+02  0.4100E+03  0.4097E+03
      4.465  0.4420E+02  0.4168E+02  0.4125E+03  0.4121E+03
      4.524  0.3317E+02  0.3172E+02  0.4145E+03  0.4139E+03
      4.582  0.3198E+02  0.3494E+02  0.4163E+03  0.4160E+03
      4.640  0.4481E+02  0.4523E+02  0.4190E+03  0.4186E+03
      4.698  0.3716E+02  0.3449E+02  0.4211E+03  0.4206E+03
      4.757  0.4653E+02  0.5244E+02  0.4238E+03  0.4237E+03
      4.815  0.3779E+02  0.3367E+02  0.4260E+03  0.4256E+03
      4.873  0.4961E+02  0.4776E+02  0.4289E+03  0.4284E+03
      4.931  0.3169E+02  0.3249E+02  0.4308E+03  0.4303E+03
      4.989  0.3607E+02  0.3289E+02  0.4329E+03  0.4322E+03
      5.048  0.4478E+02  0.4773E+02  0.4355E+03  0.4350E+03
      5.106  0.4925E+02  0.5185E+02  0.4383E+03  0.4380E+03
      5.164  0.5250E+02  0.4134E+02  0.4414E+03  0.4404E+03
      5.222  0.4347E+02  0.5325E+02  0.4439E+03  0.4435E+03
      5.281  0.4041E+02  0.4401E+02  0.4463E+03  0.4461E+03
      5.339  0.2605E+02  0.2627E+02  0.4478E+03  0.4476E+03
      5.397  0.4511E+02  0.4039E+02  0.4504E+03  0.4499E+03
      5.455  0.3900E+02  0.4332E+02  0.4527E+03  0.4525E+03
      5.513  0.5609E+02  0.4638E+02  0.4560E+03  0.4552E+03
      5.572  0.4806E+02  0.5765E+02  0.4588E+03  0.4585E+03
      5.630  0.4779E+02  0.4578E+02  0.4615E+03  0.4612E+03
      5.688  0.3489E+02  0.3414E+02  0.4636E+03  0.4632E+03
      5.746  0.7490E+01  0.1407E+02  0.4640E+03  0.4640E+03
      5.805  0.0000E+00  0.0000E+00  0.4640E+03  0.4640E+03
      5.863  0.0000E+00  0.0000E+00  0.4640E+03  0.4640E+03
      5.921  0.0000E+00  0.0000E+00  0.4640E+03  0.4640E+03
      5.979  0.0000E+00  0.0000E+00  0.4640E+03  0.4640E+03
      6.037  0.0000E+00  0.0000E+00  0.4640E+03  0.4640E+03
      6.096  0.0000E+00  0.0000E+00  0.4640E+03  0.4640E+03
      6.154  0.0000E+00  0.0000E+00  0.4640E+03  0.4640E+03
      6.212  0.0000E+00  0.0000E+00  0.4640E+03  0.4640E+03
      6.270  0.0000E+00  0.0000E+00  0.4640E+03  0.4640E+03
      6.329  0.0000E+00  0.0000E+00  0.4640E+03  0.4640E+03
      6.387  0.0000E+00  0.0000E+00  0.4640E+03  0.4640E+03
      6.445  0.0000E+00  0.0000E+00  0.4640E+03  0.4640E+03
      6.503  0.0000E+00  0.0000E+00  0.4640E+03  0.4640E+03
