 168 168   0   0
  0.2780971E+02  0.1600268E-08  0.1959920E-08  0.2580094E-08  0.5000000E-15
  1.000000000000000E-004
  CAR 
 Si and Ge interface calculation         
      6.29871643     -9.85400735  301      3.34554457      1.00000000
     -9.854  0.0000E+00  0.0000E+00  0.0000E+00  0.0000E+00
     -9.800  0.0000E+00  0.0000E+00  0.0000E+00  0.0000E+00
     -9.746  0.0000E+00  0.0000E+00  0.0000E+00  0.0000E+00
     -9.692  0.0000E+00  0.0000E+00  0.0000E+00  0.0000E+00
     -9.639  0.0000E+00  0.0000E+00  0.0000E+00  0.0000E+00
     -9.585  0.0000E+00  0.0000E+00  0.0000E+00  0.0000E+00
     -9.531  0.0000E+00  0.0000E+00  0.0000E+00  0.0000E+00
     -9.477  0.0000E+00  0.0000E+00  0.0000E+00  0.0000E+00
     -9.423  0.0000E+00  0.0000E+00  0.0000E+00  0.0000E+00
     -9.369  0.0000E+00  0.0000E+00  0.0000E+00  0.0000E+00
     -9.316  0.0000E+00  0.0000E+00  0.0000E+00  0.0000E+00
     -9.262  0.0000E+00  0.0000E+00  0.0000E+00  0.0000E+00
     -9.208  0.0000E+00  0.0000E+00  0.0000E+00  0.0000E+00
     -9.154  0.2605E-05  0.3870E-07  0.1403E-06  0.2083E-08
     -9.100  0.4116E+01  0.4031E+01  0.2216E+00  0.2171E+00
     -9.046  0.8215E+01  0.8001E+01  0.6639E+00  0.6479E+00
     -8.993  0.8302E+01  0.8561E+01  0.1111E+01  0.1109E+01
     -8.939  0.1650E+02  0.1641E+02  0.1999E+01  0.1993E+01
     -8.885  0.8084E+01  0.7493E+01  0.2435E+01  0.2396E+01
     -8.831  0.2796E+00  0.9069E+00  0.2450E+01  0.2445E+01
     -8.777  0.2107E+02  0.2048E+02  0.3584E+01  0.3548E+01
     -8.723  0.1728E+02  0.1679E+02  0.4514E+01  0.4452E+01
     -8.669  0.2060E+02  0.1951E+02  0.5624E+01  0.5502E+01
     -8.616  0.2776E+02  0.2343E+02  0.7118E+01  0.6763E+01
     -8.562  0.2734E+02  0.2693E+02  0.8590E+01  0.8214E+01
     -8.508  0.1700E+02  0.2176E+02  0.9506E+01  0.9385E+01
     -8.454  0.3376E+02  0.3283E+02  0.1132E+02  0.1115E+02
     -8.400  0.2106E+02  0.2355E+02  0.1246E+02  0.1242E+02
     -8.346  0.3320E+02  0.3286E+02  0.1424E+02  0.1419E+02
     -8.293  0.2764E+02  0.2638E+02  0.1573E+02  0.1561E+02
     -8.239  0.3323E+02  0.3139E+02  0.1752E+02  0.1730E+02
     -8.185  0.2379E+02  0.2520E+02  0.1880E+02  0.1866E+02
     -8.131  0.2245E+02  0.2232E+02  0.2001E+02  0.1986E+02
     -8.077  0.4690E+02  0.4609E+02  0.2254E+02  0.2234E+02
     -8.023  0.2499E+02  0.2645E+02  0.2388E+02  0.2377E+02
     -7.970  0.8622E+01  0.9689E+01  0.2435E+02  0.2429E+02
     -7.916  0.1515E+02  0.1490E+02  0.2516E+02  0.2509E+02
     -7.862  0.2314E+02  0.2310E+02  0.2641E+02  0.2633E+02
     -7.808  0.2427E+02  0.2365E+02  0.2771E+02  0.2761E+02
     -7.754  0.2256E+02  0.2390E+02  0.2893E+02  0.2889E+02
     -7.700  0.1656E+02  0.1484E+02  0.2982E+02  0.2969E+02
     -7.646  0.3217E+02  0.3010E+02  0.3155E+02  0.3131E+02
     -7.593  0.4445E+02  0.4439E+02  0.3395E+02  0.3370E+02
     -7.539  0.3703E+02  0.3915E+02  0.3594E+02  0.3581E+02
     -7.485  0.3901E+02  0.3784E+02  0.3804E+02  0.3785E+02
     -7.431  0.3125E+02  0.3261E+02  0.3972E+02  0.3960E+02
     -7.377  0.3588E+02  0.3328E+02  0.4166E+02  0.4140E+02
     -7.323  0.4448E+01  0.7578E+01  0.4189E+02  0.4180E+02
     -7.270  0.4176E+02  0.3775E+02  0.4414E+02  0.4384E+02
     -7.216  0.3803E+02  0.3927E+02  0.4619E+02  0.4595E+02
     -7.162  0.4910E+02  0.4834E+02  0.4883E+02  0.4855E+02
     -7.108  0.4988E+02  0.4764E+02  0.5152E+02  0.5112E+02
     -7.054  0.6106E+02  0.6440E+02  0.5481E+02  0.5459E+02
     -7.000  0.3640E+02  0.3837E+02  0.5677E+02  0.5665E+02
     -6.947  0.1646E+02  0.1670E+02  0.5765E+02  0.5755E+02
     -6.893  0.4575E+02  0.4449E+02  0.6012E+02  0.5995E+02
     -6.839  0.3898E+02  0.3771E+02  0.6222E+02  0.6198E+02
     -6.785  0.5873E+02  0.5629E+02  0.6538E+02  0.6501E+02
     -6.731  0.3274E+02  0.3856E+02  0.6714E+02  0.6709E+02
     -6.677  0.3209E+02  0.2702E+02  0.6887E+02  0.6854E+02
     -6.623  0.7481E+02  0.7816E+02  0.7290E+02  0.7275E+02
     -6.570  0.4727E+02  0.4294E+02  0.7544E+02  0.7506E+02
     -6.516  0.3070E+02  0.3517E+02  0.7709E+02  0.7695E+02
     -6.462  0.3689E+02  0.3560E+02  0.7908E+02  0.7887E+02
     -6.408  0.4273E+02  0.3840E+02  0.8138E+02  0.8094E+02
     -6.354  0.5291E+02  0.5666E+02  0.8423E+02  0.8399E+02
     -6.300  0.2387E+02  0.2571E+02  0.8552E+02  0.8537E+02
     -6.247  0.7328E+02  0.7023E+02  0.8946E+02  0.8916E+02
     -6.193  0.5720E+02  0.5798E+02  0.9254E+02  0.9228E+02
     -6.139  0.4577E+02  0.4482E+02  0.9501E+02  0.9469E+02
     -6.085  0.4285E+02  0.4519E+02  0.9731E+02  0.9712E+02
     -6.031  0.3759E+02  0.4083E+02  0.9934E+02  0.9932E+02
     -5.977  0.5756E+02  0.5436E+02  0.1024E+03  0.1022E+03
     -5.924  0.3692E+02  0.3731E+02  0.1044E+03  0.1043E+03
     -5.870  0.4190E+02  0.4361E+02  0.1067E+03  0.1066E+03
     -5.816  0.3540E+02  0.3562E+02  0.1086E+03  0.1085E+03
     -5.762  0.1281E+02  0.1136E+02  0.1093E+03  0.1091E+03
     -5.708  0.3897E+02  0.3653E+02  0.1114E+03  0.1111E+03
     -5.654  0.2013E+02  0.2497E+02  0.1125E+03  0.1124E+03
     -5.600  0.3965E+02  0.3631E+02  0.1146E+03  0.1144E+03
     -5.547  0.4997E+02  0.5105E+02  0.1173E+03  0.1172E+03
     -5.493  0.6826E+02  0.6731E+02  0.1210E+03  0.1208E+03
     -5.439  0.3800E+02  0.3954E+02  0.1230E+03  0.1229E+03
     -5.385  0.7069E+02  0.6796E+02  0.1268E+03  0.1266E+03
     -5.331  0.5974E+02  0.5959E+02  0.1300E+03  0.1298E+03
     -5.277  0.4673E+02  0.4591E+02  0.1325E+03  0.1322E+03
     -5.224  0.6253E+02  0.6353E+02  0.1359E+03  0.1357E+03
     -5.170  0.6109E+02  0.5889E+02  0.1392E+03  0.1388E+03
     -5.116  0.6303E+02  0.6687E+02  0.1426E+03  0.1424E+03
     -5.062  0.4727E+02  0.4542E+02  0.1451E+03  0.1449E+03
     -5.008  0.3758E+02  0.3978E+02  0.1472E+03  0.1470E+03
     -4.954  0.3593E+02  0.3439E+02  0.1491E+03  0.1489E+03
     -4.901  0.6093E+02  0.5985E+02  0.1524E+03  0.1521E+03
     -4.847  0.5810E+02  0.5770E+02  0.1555E+03  0.1552E+03
     -4.793  0.6809E+02  0.6566E+02  0.1592E+03  0.1587E+03
     -4.739  0.5025E+02  0.5627E+02  0.1619E+03  0.1618E+03
     -4.685  0.4452E+02  0.4126E+02  0.1643E+03  0.1640E+03
     -4.631  0.3922E+02  0.4160E+02  0.1664E+03  0.1662E+03
     -4.577  0.6180E+02  0.5906E+02  0.1697E+03  0.1694E+03
     -4.524  0.5193E+02  0.5560E+02  0.1725E+03  0.1724E+03
     -4.470  0.5372E+02  0.5044E+02  0.1754E+03  0.1751E+03
     -4.416  0.5701E+02  0.5614E+02  0.1785E+03  0.1781E+03
     -4.362  0.6018E+02  0.6037E+02  0.1817E+03  0.1814E+03
     -4.308  0.4047E+02  0.4203E+02  0.1839E+03  0.1837E+03
     -4.254  0.1459E+02  0.1565E+02  0.1847E+03  0.1845E+03
     -4.201  0.5577E+02  0.5008E+02  0.1877E+03  0.1872E+03
     -4.147  0.5336E+02  0.5395E+02  0.1906E+03  0.1901E+03
     -4.093  0.6015E+02  0.6204E+02  0.1938E+03  0.1934E+03
     -4.039  0.6391E+02  0.6335E+02  0.1972E+03  0.1969E+03
     -3.985  0.4717E+02  0.4834E+02  0.1998E+03  0.1995E+03
     -3.931  0.4919E+02  0.4871E+02  0.2024E+03  0.2021E+03
     -3.877  0.7075E+02  0.6954E+02  0.2062E+03  0.2058E+03
     -3.824  0.4254E+02  0.4865E+02  0.2085E+03  0.2084E+03
     -3.770  0.4750E+02  0.4529E+02  0.2111E+03  0.2109E+03
     -3.716  0.5402E+02  0.5347E+02  0.2140E+03  0.2138E+03
     -3.662  0.4687E+02  0.4499E+02  0.2165E+03  0.2162E+03
     -3.608  0.5698E+02  0.5733E+02  0.2196E+03  0.2193E+03
     -3.554  0.4614E+02  0.5106E+02  0.2221E+03  0.2220E+03
     -3.501  0.5066E+02  0.4566E+02  0.2248E+03  0.2245E+03
     -3.447  0.3472E+02  0.3539E+02  0.2267E+03  0.2264E+03
     -3.393  0.4966E+02  0.5249E+02  0.2293E+03  0.2292E+03
     -3.339  0.5062E+02  0.4810E+02  0.2321E+03  0.2318E+03
     -3.285  0.6383E+02  0.5808E+02  0.2355E+03  0.2349E+03
     -3.231  0.5080E+02  0.6070E+02  0.2382E+03  0.2382E+03
     -3.178  0.3135E+02  0.2742E+02  0.2399E+03  0.2397E+03
     -3.124  0.3450E+02  0.3706E+02  0.2418E+03  0.2417E+03
     -3.070  0.4018E+02  0.4041E+02  0.2439E+03  0.2438E+03
     -3.016  0.4006E+02  0.3787E+02  0.2461E+03  0.2459E+03
     -2.962  0.3505E+02  0.3758E+02  0.2480E+03  0.2479E+03
     -2.908  0.4328E+02  0.4209E+02  0.2503E+03  0.2502E+03
     -2.854  0.5451E+02  0.5322E+02  0.2532E+03  0.2530E+03
     -2.801  0.3131E+02  0.3229E+02  0.2549E+03  0.2548E+03
     -2.747  0.7617E+02  0.7251E+02  0.2590E+03  0.2587E+03
     -2.693  0.7010E+02  0.7239E+02  0.2628E+03  0.2626E+03
     -2.639  0.4777E+02  0.4943E+02  0.2654E+03  0.2652E+03
     -2.585  0.6909E+02  0.6846E+02  0.2691E+03  0.2689E+03
     -2.531  0.3712E+02  0.3620E+02  0.2711E+03  0.2709E+03
     -2.478  0.5381E+02  0.5713E+02  0.2740E+03  0.2739E+03
     -2.424  0.4908E+02  0.4144E+02  0.2766E+03  0.2762E+03
     -2.370  0.6113E+02  0.6374E+02  0.2799E+03  0.2796E+03
     -2.316  0.4210E+02  0.4488E+02  0.2822E+03  0.2820E+03
     -2.262  0.3822E+02  0.3974E+02  0.2843E+03  0.2842E+03
     -2.208  0.2495E+02  0.2596E+02  0.2856E+03  0.2856E+03
     -2.155  0.2036E+02  0.1861E+02  0.2867E+03  0.2866E+03
     -2.101  0.2294E+02  0.2180E+02  0.2879E+03  0.2877E+03
     -2.047  0.4184E+02  0.3885E+02  0.2902E+03  0.2898E+03
     -1.993  0.3047E+02  0.3171E+02  0.2918E+03  0.2915E+03
     -1.939  0.5953E+02  0.6253E+02  0.2950E+03  0.2949E+03
     -1.885  0.2217E+02  0.2447E+02  0.2962E+03  0.2962E+03
     -1.831  0.2223E+02  0.1908E+02  0.2974E+03  0.2972E+03
     -1.778  0.1857E+02  0.1758E+02  0.2984E+03  0.2982E+03
     -1.724  0.6825E+02  0.6645E+02  0.3021E+03  0.3018E+03
     -1.670  0.3813E+02  0.4007E+02  0.3041E+03  0.3039E+03
     -1.616  0.2428E+02  0.2692E+02  0.3055E+03  0.3054E+03
     -1.562  0.2268E+02  0.2363E+02  0.3067E+03  0.3067E+03
     -1.508  0.2456E+02  0.1881E+02  0.3080E+03  0.3077E+03
     -1.455  0.5204E+02  0.5233E+02  0.3108E+03  0.3105E+03
     -1.401  0.1730E+02  0.2199E+02  0.3117E+03  0.3117E+03
     -1.347  0.1839E+02  0.1667E+02  0.3127E+03  0.3126E+03
     -1.293  0.1947E+02  0.1805E+02  0.3138E+03  0.3135E+03
     -1.239  0.2487E+02  0.2900E+02  0.3151E+03  0.3151E+03
     -1.185  0.1341E+02  0.1059E+02  0.3158E+03  0.3157E+03
     -1.132  0.1138E+02  0.1435E+02  0.3164E+03  0.3164E+03
     -1.078  0.2065E+02  0.1675E+02  0.3176E+03  0.3173E+03
     -1.024  0.2926E+02  0.3288E+02  0.3191E+03  0.3191E+03
     -0.970  0.1615E+02  0.1645E+02  0.3200E+03  0.3200E+03
     -0.916  0.1649E+02  0.1651E+02  0.3209E+03  0.3209E+03
     -0.862  0.2257E+01  0.5138E+00  0.3210E+03  0.3209E+03
     -0.808  0.4734E+02  0.4876E+02  0.3236E+03  0.3235E+03
     -0.755  0.2030E+02  0.1977E+02  0.3247E+03  0.3246E+03
     -0.701  0.3834E+02  0.3327E+02  0.3267E+03  0.3264E+03
     -0.647  0.3143E+02  0.3279E+02  0.3284E+03  0.3282E+03
     -0.593  0.8549E+02  0.8492E+02  0.3330E+03  0.3327E+03
     -0.539  0.4134E+02  0.3732E+02  0.3352E+03  0.3347E+03
     -0.485  0.6214E+02  0.6758E+02  0.3386E+03  0.3384E+03
     -0.432  0.7361E+02  0.6697E+02  0.3425E+03  0.3420E+03
     -0.378  0.5995E+02  0.6303E+02  0.3458E+03  0.3454E+03
     -0.324  0.7881E+02  0.8128E+02  0.3500E+03  0.3498E+03
     -0.270  0.7701E+02  0.6986E+02  0.3542E+03  0.3535E+03
     -0.216  0.8173E+02  0.9147E+02  0.3586E+03  0.3584E+03
     -0.162  0.6630E+02  0.6305E+02  0.3621E+03  0.3618E+03
     -0.109  0.6418E+02  0.6043E+02  0.3656E+03  0.3651E+03
     -0.055  0.8026E+02  0.8436E+02  0.3699E+03  0.3696E+03
     -0.001  0.7204E+02  0.6882E+02  0.3738E+03  0.3733E+03
      0.053  0.5218E+02  0.5786E+02  0.3766E+03  0.3765E+03
      0.107  0.8865E+02  0.8254E+02  0.3814E+03  0.3809E+03
      0.161  0.8462E+02  0.9014E+02  0.3859E+03  0.3858E+03
      0.215  0.7728E+02  0.7333E+02  0.3901E+03  0.3897E+03
      0.268  0.9262E+02  0.9187E+02  0.3951E+03  0.3947E+03
      0.322  0.1063E+03  0.9811E+02  0.4008E+03  0.3999E+03
      0.376  0.1349E+03  0.1390E+03  0.4081E+03  0.4074E+03
      0.430  0.9767E+02  0.1017E+03  0.4133E+03  0.4129E+03
      0.484  0.9170E+02  0.8542E+02  0.4183E+03  0.4175E+03
      0.538  0.1382E+03  0.1407E+03  0.4257E+03  0.4251E+03
      0.591  0.1170E+03  0.1191E+03  0.4320E+03  0.4315E+03
      0.645  0.1404E+03  0.1375E+03  0.4396E+03  0.4389E+03
      0.699  0.1228E+03  0.1247E+03  0.4462E+03  0.4456E+03
      0.753  0.1060E+03  0.1064E+03  0.4519E+03  0.4513E+03
      0.807  0.1249E+03  0.1297E+03  0.4586E+03  0.4583E+03
      0.861  0.9713E+02  0.1007E+03  0.4638E+03  0.4637E+03
      0.914  0.8271E+02  0.7495E+02  0.4683E+03  0.4678E+03
      0.968  0.1014E+03  0.1028E+03  0.4737E+03  0.4733E+03
      1.022  0.7810E+02  0.7930E+02  0.4780E+03  0.4776E+03
      1.076  0.1296E+03  0.1289E+03  0.4849E+03  0.4845E+03
      1.130  0.1086E+03  0.1032E+03  0.4908E+03  0.4901E+03
      1.184  0.1119E+03  0.1165E+03  0.4968E+03  0.4963E+03
      1.238  0.1370E+03  0.1401E+03  0.5042E+03  0.5039E+03
      1.291  0.1295E+03  0.1277E+03  0.5112E+03  0.5108E+03
      1.345  0.1047E+03  0.1006E+03  0.5168E+03  0.5162E+03
      1.399  0.1015E+03  0.9923E+02  0.5223E+03  0.5215E+03
      1.453  0.1244E+03  0.1227E+03  0.5290E+03  0.5281E+03
      1.507  0.1188E+03  0.1261E+03  0.5353E+03  0.5349E+03
      1.561  0.9225E+02  0.9304E+02  0.5403E+03  0.5399E+03
      1.614  0.1190E+03  0.1215E+03  0.5467E+03  0.5465E+03
      1.668  0.1098E+03  0.1071E+03  0.5526E+03  0.5522E+03
      1.722  0.1239E+03  0.1160E+03  0.5593E+03  0.5585E+03
      1.776  0.1206E+03  0.1247E+03  0.5658E+03  0.5652E+03
      1.830  0.9202E+02  0.9314E+02  0.5707E+03  0.5702E+03
      1.884  0.9896E+02  0.9962E+02  0.5761E+03  0.5756E+03
      1.937  0.8540E+02  0.8897E+02  0.5807E+03  0.5804E+03
      1.991  0.8987E+02  0.8910E+02  0.5855E+03  0.5852E+03
      2.045  0.8824E+02  0.8710E+02  0.5903E+03  0.5898E+03
      2.099  0.8662E+02  0.8300E+02  0.5949E+03  0.5943E+03
      2.153  0.9792E+02  0.9776E+02  0.6002E+03  0.5996E+03
      2.207  0.5703E+02  0.6430E+02  0.6033E+03  0.6030E+03
      2.261  0.7886E+02  0.7635E+02  0.6075E+03  0.6072E+03
      2.314  0.8710E+02  0.8471E+02  0.6122E+03  0.6117E+03
      2.368  0.7508E+02  0.7602E+02  0.6162E+03  0.6158E+03
      2.422  0.8256E+02  0.8135E+02  0.6207E+03  0.6202E+03
      2.476  0.7839E+02  0.7408E+02  0.6249E+03  0.6242E+03
      2.530  0.7670E+02  0.8061E+02  0.6290E+03  0.6285E+03
      2.584  0.6025E+02  0.6482E+02  0.6323E+03  0.6320E+03
      2.637  0.7522E+02  0.7362E+02  0.6363E+03  0.6360E+03
      2.691  0.7151E+02  0.6652E+02  0.6402E+03  0.6396E+03
      2.745  0.6174E+02  0.6614E+02  0.6435E+03  0.6431E+03
      2.799  0.7409E+02  0.7276E+02  0.6475E+03  0.6470E+03
      2.853  0.4532E+02  0.4726E+02  0.6499E+03  0.6496E+03
      2.907  0.4990E+02  0.4738E+02  0.6526E+03  0.6521E+03
      2.960  0.3394E+02  0.3936E+02  0.6545E+03  0.6542E+03
      3.014  0.5039E+02  0.5239E+02  0.6572E+03  0.6571E+03
      3.068  0.3873E+02  0.3119E+02  0.6593E+03  0.6587E+03
      3.122  0.3481E+02  0.3389E+02  0.6611E+03  0.6606E+03
      3.176  0.5904E+02  0.5842E+02  0.6643E+03  0.6637E+03
      3.230  0.4305E+02  0.4004E+02  0.6666E+03  0.6659E+03
      3.284  0.4584E+02  0.5294E+02  0.6691E+03  0.6687E+03
      3.337  0.4153E+02  0.3057E+02  0.6713E+03  0.6704E+03
      3.391  0.1961E+02  0.3317E+02  0.6724E+03  0.6722E+03
      3.445  0.2209E+02  0.2284E+02  0.6736E+03  0.6734E+03
      3.499  0.2739E+02  0.2724E+02  0.6750E+03  0.6749E+03
      3.553  0.4652E+02  0.3983E+02  0.6776E+03  0.6770E+03
      3.607  0.3882E+02  0.3609E+02  0.6796E+03  0.6789E+03
      3.660  0.2483E+02  0.3204E+02  0.6810E+03  0.6807E+03
      3.714  0.2747E+02  0.3308E+02  0.6825E+03  0.6824E+03
      3.768  0.1960E+02  0.1686E+02  0.6835E+03  0.6834E+03
      3.822  0.2535E+02  0.2762E+02  0.6849E+03  0.6848E+03
      3.876  0.1780E+02  0.1471E+02  0.6858E+03  0.6856E+03
      3.930  0.1605E+02  0.1903E+02  0.6867E+03  0.6867E+03
      3.983  0.7664E+01  0.8451E+01  0.6871E+03  0.6871E+03
      4.037  0.2942E+02  0.2518E+02  0.6887E+03  0.6885E+03
      4.091  0.3533E+02  0.3319E+02  0.6906E+03  0.6903E+03
      4.145  0.4743E+02  0.5149E+02  0.6932E+03  0.6930E+03
      4.199  0.2494E+02  0.2161E+02  0.6945E+03  0.6942E+03
      4.253  0.3645E+02  0.3698E+02  0.6965E+03  0.6962E+03
      4.307  0.4498E+02  0.4373E+02  0.6989E+03  0.6985E+03
      4.360  0.6321E+02  0.6671E+02  0.7023E+03  0.7021E+03
      4.414  0.4215E+02  0.4150E+02  0.7046E+03  0.7044E+03
      4.468  0.6290E+02  0.5794E+02  0.7079E+03  0.7075E+03
      4.522  0.5543E+02  0.5735E+02  0.7109E+03  0.7106E+03
      4.576  0.6739E+02  0.6926E+02  0.7146E+03  0.7143E+03
      4.630  0.7652E+02  0.7509E+02  0.7187E+03  0.7183E+03
      4.683  0.6922E+02  0.7261E+02  0.7224E+03  0.7223E+03
      4.737  0.7498E+02  0.7347E+02  0.7264E+03  0.7262E+03
      4.791  0.9006E+02  0.8688E+02  0.7313E+03  0.7309E+03
      4.845  0.9742E+02  0.9906E+02  0.7365E+03  0.7362E+03
      4.899  0.9530E+02  0.9445E+02  0.7417E+03  0.7413E+03
      4.953  0.9774E+02  0.9863E+02  0.7469E+03  0.7466E+03
      5.006  0.8978E+02  0.8623E+02  0.7518E+03  0.7513E+03
      5.060  0.1233E+03  0.1220E+03  0.7584E+03  0.7578E+03
      5.114  0.1140E+03  0.1170E+03  0.7645E+03  0.7641E+03
      5.168  0.9492E+02  0.9142E+02  0.7697E+03  0.7691E+03
      5.222  0.9995E+02  0.9795E+02  0.7750E+03  0.7743E+03
      5.276  0.1175E+03  0.1214E+03  0.7814E+03  0.7809E+03
      5.330  0.1156E+03  0.1142E+03  0.7876E+03  0.7870E+03
      5.383  0.9898E+02  0.9982E+02  0.7929E+03  0.7924E+03
      5.437  0.1076E+03  0.1061E+03  0.7987E+03  0.7981E+03
      5.491  0.9989E+02  0.1001E+03  0.8041E+03  0.8035E+03
      5.545  0.5080E+02  0.5649E+02  0.8068E+03  0.8065E+03
      5.599  0.2194E+02  0.2725E+02  0.8080E+03  0.8080E+03
      5.653  0.0000E+00  0.0000E+00  0.8080E+03  0.8080E+03
      5.706  0.0000E+00  0.0000E+00  0.8080E+03  0.8080E+03
      5.760  0.0000E+00  0.0000E+00  0.8080E+03  0.8080E+03
      5.814  0.0000E+00  0.0000E+00  0.8080E+03  0.8080E+03
      5.868  0.0000E+00  0.0000E+00  0.8080E+03  0.8080E+03
      5.922  0.0000E+00  0.0000E+00  0.8080E+03  0.8080E+03
      5.976  0.0000E+00  0.0000E+00  0.8080E+03  0.8080E+03
      6.030  0.0000E+00  0.0000E+00  0.8080E+03  0.8080E+03
      6.083  0.0000E+00  0.0000E+00  0.8080E+03  0.8080E+03
      6.137  0.0000E+00  0.0000E+00  0.8080E+03  0.8080E+03
      6.191  0.0000E+00  0.0000E+00  0.8080E+03  0.8080E+03
      6.245  0.0000E+00  0.0000E+00  0.8080E+03  0.8080E+03
      6.299  0.0000E+00  0.0000E+00  0.8080E+03  0.8080E+03
