Si and Ge interface calculation         
           1
     8.001338    0.000000    0.000000
     4.000669   12.002007    0.000000
     0.000000    0.000000    9.429668
   Ge
    48
Direct configuration=     1
   0.99430549  0.99430549  0.00000000
   0.82763886  0.82763886  0.29999992
   0.66097212  0.66097212  0.59999990
   0.32763880  0.32763880  0.00000000
   0.16097215  0.16097215  0.29999992
   0.99430543  0.99430543  0.59999990
   0.66097212  0.66097212  0.00000000
   0.49430543  0.49430543  0.29999992
   0.32763875  0.32763875  0.59999990
   0.24430548  0.99430549  0.14999996
   0.07763879  0.82763886  0.44999990
   0.91097212  0.66097212  0.74999994
   0.57763880  0.32763880  0.14999996
   0.41097212  0.16097213  0.44999990
   0.24430543  0.99430543  0.74999994
   0.91097218  0.66097212  0.14999996
   0.74430549  0.49430546  0.44999990
   0.57763880  0.32763877  0.74999994
   0.49430543  0.99430549  0.00000000
   0.32763877  0.82763886  0.29999992
   0.16097209  0.66097212  0.59999990
   0.16097218  0.66097212  0.00000000
   0.99430549  0.49430546  0.29999992
   0.82763880  0.32763877  0.59999990
   0.82763875  0.32763884  0.00000000
   0.66097212  0.16097216  0.29999992
   0.49430540  0.99430549  0.59999990
   0.07763883  0.32763884  0.14999996
   0.91097212  0.16097215  0.44999990
   0.74430549  0.99430549  0.74999994
   0.74430549  0.99430549  0.14999996
   0.57763880  0.82763880  0.44999990
   0.41097209  0.66097212  0.74999994
   0.41097215  0.66097212  0.14999996
   0.24430545  0.49430540  0.44999990
   0.07763875  0.32763872  0.74999994
   0.96284664  0.02653812  0.74999988
   0.57395768  0.30431592  0.84999990
   0.18506879  0.58209377  0.94999993
   0.46284661  0.02653812  0.74999988
   0.07395769  0.30431595  0.84999990
   0.68506873  0.58209377  0.94999993
   0.76840210  0.91542703  0.79999983
   0.37951326  0.19320476  0.89999998
   0.99062419  0.47098267  0.00000000
   0.26840210  0.91542709  0.79999983
   0.87951326  0.19320476  0.89999998
   0.49062425  0.47098267  0.00000000
