 vasp.6.4.3 19Mar24 (build Oct 22 2024 11:23:12) complex                        
  
 executed on             LinuxIFC date 2025.06.09  05:48:21
 running   64 mpi-ranks, on    4 nodes
 distrk:  each k-point on   64 cores,    1 groups
 distr:  one band on NCORE=  16 cores,    4 groups


--------------------------------------------------------------------------------------------------------


 INCAR:
   SYSTEM = Si and Ge interface calculation
   ISTART = 0
   ICHARG = 2
   LWAVE = .FALSE.
   LREAL = AUTO
   ENCUT = 700
   ENAUG = 900
   ADDGRID = .TRUE.
   LMAXMIX = 6
   LASPH = .TRUE.
   LMIXTAU = .TRUE.
   NCORE = 16
   NELM = 100
   NBANDS = 432
   EDIFF = 1d-7
   AMIX = 0.6
   ISMEAR = 0
   SIGMA = 0.01
   NELECT = 720
   ISPIN = 2
   NUPDOWN = 1
   LVTOT = .FALSE.
   LVHAR = .TRUE.

 POTCAR:    PAW_PBE Ge 05Jan2001                  
 POTCAR:    PAW_PBE Sn 08Apr2002                  
 -----------------------------------------------------------------------------
|                                                                             |
|           W    W    AA    RRRRR   N    N  II  N    N   GGGG   !!!           |
|           W    W   A  A   R    R  NN   N  II  NN   N  G    G  !!!           |
|           W    W  A    A  R    R  N N  N  II  N N  N  G       !!!           |
|           W WW W  AAAAAA  RRRRR   N  N N  II  N  N N  G  GGG   !            |
|           WW  WW  A    A  R   R   N   NN  II  N   NN  G    G                |
|           W    W  A    A  R    R  N    N  II  N    N   GGGG   !!!           |
|                                                                             |
|     You use a magnetic or noncollinear calculation, but did not specify     |
|     the initial magnetic moment with the MAGMOM tag. Note that a            |
|     default of 5.556e-3 will be used for all atoms. This ferromagnetic      |
|     setup may break the symmetry of the crystal, in particular it may       |
|     rule out finding an antiferromagnetic solution. Thence, we              |
|     recommend setting the initial magnetic moment manually or verifying     |
|     carefully that this magnetic setup is desired.                          |
|                                                                             |
 -----------------------------------------------------------------------------

 POTCAR:    PAW_PBE Ge 05Jan2001                  
   VRHFIN =Ge: s2p2                                                                                 
   LEXCH  = PE                                                                                      
   EATOM  =   104.9960 eV,    7.7170 Ry                                                             
                                                                                                    
   TITEL  = PAW_PBE Ge 05Jan2001                                                                    
   LULTRA =        F    use ultrasoft PP ?                                                          
   IUNSCR =        1    unscreen: 0-lin 1-nonlin 2-no                                               
   RPACOR =    2.170    partial core radius                                                         
   POMASS =   72.610; ZVAL   =    4.000    mass and valenz                                          
   RCORE  =    2.300    outmost cutoff radius                                                       
   RWIGS  =    2.300; RWIGS  =    1.217    wigner-seitz radius (au A)                               
   ENMAX  =  173.807; ENMIN  =  130.355 eV                                                          
   ICORE  =        3    local potential                                                             
   LCOR   =        T    correct aug charges                                                         
   LPAW   =        T    paw PP                                                                      
   EAUG   =  385.843                                                                                
   DEXC   =    0.000                                                                                
   RMAX   =    2.342    core radius for proj-oper                                                   
   RAUG   =    1.300    factor for augmentation sphere                                              
   RDEP   =    2.318    radius for radial grids                                                     
   RDEPT  =    2.103    core radius for aug-charge                                                  
                                                                                                    
   Atomic configuration                                                                             
   10 entries                                                                                       
     n  l   j            E        occ.                                                              
     1  0  0.50    -10959.8463   2.0000                                                             
     2  0  0.50     -1371.6056   2.0000                                                             
     2  1  1.50     -1198.4791   6.0000                                                             
     3  0  0.50      -168.4733   2.0000                                                             
     3  1  1.50      -115.6019   6.0000                                                             
     3  2  2.50       -29.3106  10.0000                                                             
     4  0  0.50       -11.7309   2.0000                                                             
     4  1  0.50        -3.8952   2.0000                                                             
     4  2  1.50        -4.0817   0.0000                                                             
     4  3  2.50        -4.0817   0.0000                                                             
   Description                                                                                      
     l       E           TYP  RCUT    TYP  RCUT                                                     
     0    -11.7309493     23  2.300                                                                 
     0     -7.4578696     23  2.300                                                                 
     1     -3.8952261     23  2.300                                                                 
     1      6.1178114     23  2.300                                                                 
     2     -4.0817478     23  2.300                                                                 
     3     -1.3605826      7  2.300                                                                 
  local pseudopotential read in
  partial core-charges read in
  partial kinetic energy density read in
  atomic valenz-charges read in
  non local Contribution for L=           0  read in
    real space projection operators read in
  non local Contribution for L=           0  read in
    real space projection operators read in
  non local Contribution for L=           1  read in
    real space projection operators read in
  non local Contribution for L=           1  read in
    real space projection operators read in
  non local Contribution for L=           2  read in
    real space projection operators read in
    PAW grid and wavefunctions read in
 
   number of l-projection  operators is LMAX  =           5
   number of lm-projection operators is LMMAX =          13
 
 POTCAR:    PAW_PBE Sn 08Apr2002                  
   VRHFIN =Sn: s2p2                                                                                 
   LEXCH  = PE                                                                                      
   EATOM  =    94.0860 eV,    6.9151 Ry                                                             
                                                                                                    
   TITEL  = PAW_PBE Sn 08Apr2002                                                                    
   LULTRA =        F    use ultrasoft PP ?                                                          
   IUNSCR =        1    unscreen: 0-lin 1-nonlin 2-no                                               
   RPACOR =    2.000    partial core radius                                                         
   POMASS =  118.710; ZVAL   =    4.000    mass and valenz                                          
   RCORE  =    3.000    outmost cutoff radius                                                       
   RWIGS  =    2.960; RWIGS  =    1.566    wigner-seitz radius (au A)                               
   ENMAX  =  103.236; ENMIN  =   77.427 eV                                                          
   ICORE  =        3    local potential                                                             
   LCOR   =        T    correct aug charges                                                         
   LPAW   =        T    paw PP                                                                      
   EAUG   =  263.585                                                                                
   DEXC   =    0.000                                                                                
   RMAX   =    3.078    core radius for proj-oper                                                   
   RAUG   =    1.300    factor for augmentation sphere                                              
   RDEP   =    3.022    radius for radial grids                                                     
   RDEPT  =    2.655    core radius for aug-charge                                                  
                                                                                                    
   Atomic configuration                                                                             
   13 entries                                                                                       
     n  l   j            E        occ.                                                              
     1  0  0.50    -29007.2859   2.0000                                                             
     2  0  0.50     -4378.8056   2.0000                                                             
     2  1  1.50     -3930.4293   6.0000                                                             
     3  0  0.50      -845.0264   2.0000                                                             
     3  1  1.50      -698.5725   6.0000                                                             
     3  2  2.50      -473.2839  10.0000                                                             
     4  0  0.50      -133.9036   2.0000                                                             
     4  1  1.50       -89.6752   6.0000                                                             
     4  2  2.50       -25.8375  10.0000                                                             
     5  0  0.50       -10.5484   2.0000                                                             
     5  1  0.50        -3.6940   2.0000                                                             
     5  2  1.50        -1.3606   0.0000                                                             
     4  3  2.50        -4.0817   0.0000                                                             
   Description                                                                                      
     l       E           TYP  RCUT    TYP  RCUT                                                     
     0    -10.5483727     23  3.000                                                                 
     0     27.2116520     23  3.000                                                                 
     1     -3.6939829     23  3.000                                                                 
     1      1.9821976     23  3.000                                                                 
     2     -1.3605826     23  3.000                                                                 
     3     -2.7211652     23  3.000                                                                 
  local pseudopotential read in
  partial core-charges read in
  partial kinetic energy density read in
  atomic valenz-charges read in
  non local Contribution for L=           0  read in
    real space projection operators read in
  non local Contribution for L=           0  read in
    real space projection operators read in
  non local Contribution for L=           1  read in
    real space projection operators read in
  non local Contribution for L=           1  read in
    real space projection operators read in
  non local Contribution for L=           2  read in
    real space projection operators read in
    PAW grid and wavefunctions read in
 
   number of l-projection  operators is LMAX  =           5
   number of lm-projection operators is LMMAX =          13
 
 Optimization of the real space projectors (new method)

 maximal supplied QI-value         = 16.25
 optimisation between [QCUT,QGAM] = [ 13.49, 26.98] = [ 50.95,203.80] Ry 
 Optimized for a Real-space Cutoff    1.25 Angstroem

   l    n(q)    QCUT    max X(q) W(low)/X(q) W(high)/X(q)  e(spline) 
   0     10    13.489    65.336    0.91E-04    0.11E-03    0.34E-06
   0     10    13.489    52.220    0.89E-04    0.11E-03    0.34E-06
   1     10    13.489    36.409    0.22E-03    0.27E-03    0.14E-06
   1     10    13.489    21.334    0.21E-03    0.27E-03    0.14E-06
   2      9    13.489     4.673    0.11E-03    0.12E-03    0.19E-06
 Optimization of the real space projectors (new method)

 maximal supplied QI-value         = 12.47
 optimisation between [QCUT,QGAM] = [ 12.47, 27.06] = [ 43.56,205.12] Ry 
 Optimized for a Real-space Cutoff    1.58 Angstroem

   l    n(q)    QCUT    max X(q) W(low)/X(q) W(high)/X(q)  e(spline) 
   0     13    12.472    14.688    0.45E-04    0.45E-04    0.25E-05
   0     13    12.472     7.308    0.94E-04    0.11E-03    0.61E-05
   1     12    12.472    45.102    0.34E-03    0.14E-03    0.21E-05
   1     12    12.472    30.691    0.31E-03    0.13E-03    0.20E-05
   2     12    12.472     7.156    0.86E-04    0.11E-03    0.17E-05
 WARNING: PSMAXN for non-local potential too small
          PSMAXN should be >   13.5545592237991       NTYP=           2
  PAW_PBE Ge 05Jan2001                  :
 energy of atom  1       EATOM= -104.9960
 kinetic energy error for atom=    0.0001 (will be added to EATOM!!)
  PAW_PBE Sn 08Apr2002                  :
 energy of atom  2       EATOM=  -94.0860
 kinetic energy error for atom=    0.0000 (will be added to EATOM!!)
 
 
 POSCAR: Ge+Sn
  positions in direct lattice
  No initial velocities read in


 exchange-correlation table for PE
   RHO(1)=    0.500       N(1)  =     2000
   RHO(2)=  100.500       N(2)  =     4000
 


--------------------------------------------------------------------------------------------------------


 ion  position               nearest neighbor table
   1  0.979  0.500  0.000- 122 2.45 115 2.45  97 2.45 147 3.27
   2  0.729  0.500  0.114-  98 2.45 123 2.45 116 2.45  97 2.45
   3  0.479  0.500  0.227-  99 2.45 124 2.45 117 2.45  98 2.45
   4  0.229  0.500  0.341- 125 2.45 100 2.45 118 2.45  99 2.45
   5  0.979  0.500  0.455- 126 2.45 119 2.45 101 2.45 100 2.45
   6  0.729  0.500  0.568- 102 2.45 120 2.45 101 2.45 175 3.10
   7  0.313  0.667  0.000- 128 2.45  73 2.45 121 2.45
   8  0.063  0.667  0.114- 129 2.45 122 2.45  74 2.45  73 2.45
   9  0.813  0.667  0.227- 130 2.45 123 2.45  75 2.45  74 2.45
  10  0.563  0.667  0.341- 131 2.45  75 2.45 124 2.45  76 2.45
  11  0.313  0.667  0.455- 132 2.45  77 2.45 125 2.45  76 2.45
  12  0.063  0.667  0.568-  78 2.45 126 2.45  77 2.45 166 2.63 157 2.88
  13  0.646  0.833  0.000-  79 2.45 110 2.45 127 2.45
  14  0.396  0.833  0.114-  80 2.45 128 2.45 111 2.45  79 2.45
  15  0.146  0.833  0.227-  81 2.45 129 2.45 112 2.45  80 2.45
  16  0.896  0.833  0.341-  82 2.45  81 2.45 113 2.45 130 2.45
  17  0.646  0.833  0.455-  83 2.45 114 2.45 131 2.45  82 2.45
  18  0.396  0.833  0.568-  84 2.45 132 2.45  83 2.45 145 2.59
  19  0.979  0.000  0.000- 109 2.45 134 2.45 103 2.45
  20  0.729  1.000  0.114- 104 2.45 135 2.45 110 2.45 103 2.45
  21  0.479  1.000  0.227- 136 2.45 105 2.45 111 2.45 104 2.45
  22  0.229  1.000  0.341- 105 2.45 137 2.45 112 2.45 106 2.45
  23  0.979  1.000  0.455- 138 2.45 113 2.45 106 2.45 107 2.45
  24  0.729  1.000  0.568- 108 2.45 114 2.45 107 2.45
  25  0.313  0.167  0.000- 177 2.36 140 2.45 133 2.45  85 2.45
  26  0.063  0.167  0.114- 141 2.45  86 2.45 134 2.45  85 2.45
  27  0.813  0.167  0.227- 135 2.45 142 2.45  87 2.45  86 2.45
  28  0.563  0.167  0.341- 136 2.45  87 2.45  88 2.45 143 2.45
  29  0.313  0.167  0.455- 144 2.45  89 2.45 137 2.45  88 2.45
  30  0.063  0.167  0.568-  90 2.45 138 2.45  89 2.45 169 3.09
  31  0.646  0.333  0.000- 159 2.31 116 2.45 139 2.45  91 2.45 168 3.14
  32  0.396  0.333  0.114-  92 2.45 117 2.45 140 2.45  91 2.45
  33  0.146  0.333  0.227- 118 2.45  93 2.45 141 2.45  92 2.45
  34  0.896  0.333  0.341- 142 2.45  94 2.45 119 2.45  93 2.45
  35  0.646  0.333  0.455- 120 2.45  95 2.45 143 2.45  94 2.45
  36  0.396  0.333  0.568- 144 2.45  96 2.45  95 2.45 148 3.05
  37  0.146  0.833  0.000- 180 2.31 109 2.45  73 2.45  80 2.45 153 3.14
  38  0.896  0.833  0.114- 110 2.45  74 2.45  81 2.45 109 2.45
  39  0.646  0.833  0.227- 111 2.45  75 2.45  82 2.45 110 2.45
  40  0.396  0.833  0.341- 112 2.45  83 2.45  76 2.45 111 2.45
  41  0.146  0.833  0.455-  84 2.45 113 2.45  77 2.45 112 2.45
  42  0.896  0.833  0.568-  78 2.45 114 2.45 113 2.45 163 3.05
  43  0.146  0.333  0.000-  92 2.45 115 2.45  85 2.45
  44  0.896  0.333  0.114-  93 2.45 116 2.45  86 2.45 115 2.45
  45  0.646  0.333  0.227- 117 2.45  94 2.45  87 2.45 116 2.45
  46  0.396  0.333  0.341-  95 2.45  88 2.45 118 2.45 117 2.45
  47  0.146  0.333  0.455-  96 2.45  89 2.45 119 2.45 118 2.45
  48  0.896  0.333  0.568-  90 2.45 120 2.45 119 2.45 169 2.59
  49  0.479  0.500  0.000-  98 2.45  91 2.45 121 2.45
  50  0.229  0.500  0.114-  99 2.45  92 2.45 122 2.45 121 2.45
  51  0.979  0.500  0.227- 123 2.45  93 2.45 100 2.45 122 2.45
  52  0.729  0.500  0.341-  94 2.45 101 2.45 124 2.45 123 2.45
  53  0.479  0.500  0.455- 102 2.45 125 2.45  95 2.45 124 2.45
  54  0.229  0.500  0.568-  96 2.45 126 2.45 125 2.45
  55  0.813  0.667  0.000- 156 2.36 127 2.45  97 2.45  74 2.45
  56  0.563  0.667  0.114- 128 2.45  98 2.45  75 2.45 127 2.45
  57  0.313  0.667  0.227-  99 2.45 129 2.45  76 2.45 128 2.45
  58  0.063  0.667  0.341-  77 2.45 130 2.45 100 2.45 129 2.45
  59  0.813  0.667  0.455- 131 2.45  78 2.45 101 2.45 130 2.45
  60  0.563  0.667  0.568- 102 2.45 132 2.45 131 2.45 145 3.09
  61  0.479  0.000  0.000-  79 2.45 104 2.45 133 2.45 171 3.27
  62  0.229  1.000  0.114-  80 2.45 105 2.45 134 2.45 133 2.45
  63  0.979  1.000  0.227-  81 2.45 135 2.45 106 2.45 134 2.45
  64  0.729  1.000  0.341-  82 2.45 107 2.45 136 2.45 135 2.45
  65  0.479  1.000  0.455- 137 2.45 108 2.45  83 2.45 136 2.45
  66  0.229  1.000  0.568-  84 2.45 138 2.45 137 2.45 154 3.10
  67  0.813  0.167  0.000- 139 2.45  86 2.45 103 2.45
  68  0.563  0.167  0.114-  87 2.45 140 2.45 104 2.45 139 2.45
  69  0.313  0.167  0.227-  88 2.45 141 2.45 105 2.45 140 2.45
  70  0.063  0.167  0.341-  89 2.45 106 2.45 142 2.45 141 2.45
  71  0.813  0.167  0.455-  90 2.45 142 2.45 107 2.45 143 2.45
  72  0.563  0.167  0.568- 143 2.45 144 2.45 108 2.45 151 2.63 178 2.88
  73  0.146  0.708  0.000-   7 2.45  37 2.45   8 2.45 153 3.13
  74  0.896  0.708  0.114-  38 2.45  55 2.45   8 2.45   9 2.45
  75  0.646  0.708  0.227-  10 2.45  39 2.45  56 2.45   9 2.45
  76  0.396  0.708  0.341-  40 2.45  11 2.45  10 2.45  57 2.45
  77  0.146  0.708  0.455-  58 2.45  11 2.45  41 2.45  12 2.45
  78  0.896  0.708  0.568-  42 2.45  59 2.45  12 2.45 166 3.06
  79  0.479  0.875  0.000-  61 2.45  13 2.45  14 2.45 171 3.26
  80  0.229  0.875  0.114-  62 2.45  14 2.45  37 2.45  15 2.45
  81  0.979  0.875  0.227-  63 2.45  16 2.45  15 2.45  38 2.45
  82  0.729  0.875  0.341-  64 2.45  16 2.45  39 2.45  17 2.45
  83  0.479  0.875  0.455-  17 2.45  40 2.45  65 2.45  18 2.45
  84  0.229  0.875  0.568-  41 2.45  66 2.45  18 2.45
  85  0.146  0.208  0.000- 177 2.31  43 2.45  25 2.45  26 2.45
  86  0.896  0.208  0.114-  67 2.45  26 2.45  44 2.45  27 2.45
  87  0.646  0.208  0.227-  68 2.45  45 2.45  27 2.45  28 2.45
  88  0.396  0.208  0.341-  69 2.45  46 2.45  28 2.45  29 2.45
  89  0.146  0.208  0.455-  70 2.45  47 2.45  29 2.45  30 2.45
  90  0.896  0.208  0.568-  71 2.45  48 2.45  30 2.45 169 2.58
  91  0.479  0.375  0.000-  31 2.45  49 2.45  32 2.45
  92  0.229  0.375  0.114-  32 2.45  43 2.45  50 2.45  33 2.45
  93  0.979  0.375  0.227-  44 2.45  33 2.45  51 2.45  34 2.45
  94  0.729  0.375  0.341-  52 2.45  45 2.45  34 2.45  35 2.45
  95  0.479  0.375  0.455-  35 2.45  46 2.45  53 2.45  36 2.45
  96  0.229  0.375  0.568-  47 2.45  54 2.45  36 2.45 160 3.10
  97  0.813  0.542  0.000-  55 2.45   1 2.45   2 2.45
  98  0.563  0.542  0.114-   2 2.45  49 2.45  56 2.45   3 2.45
  99  0.313  0.542  0.227-  57 2.45   3 2.45  50 2.45   4 2.45
 100  0.063  0.542  0.341-   4 2.45  58 2.45  51 2.45   5 2.45
 101  0.813  0.542  0.455-  52 2.45  59 2.45   5 2.45   6 2.45
 102  0.563  0.542  0.568-   6 2.45  60 2.45  53 2.45 175 2.88 148 3.10
 103  0.813  0.042  0.000- 162 2.36  19 2.45  67 2.45  20 2.45
 104  0.563  0.042  0.114-  20 2.45  61 2.45  68 2.45  21 2.45
 105  0.313  0.042  0.227-  22 2.45  62 2.45  21 2.45  69 2.45
 106  0.063  0.042  0.341-  23 2.45  70 2.45  63 2.45  22 2.45
 107  0.813  0.042  0.455-  64 2.45  71 2.45  23 2.45  24 2.45
 108  0.563  0.042  0.568-  24 2.45  65 2.45  72 2.45 151 2.62
 109  0.979  0.875  0.000-  19 2.45  37 2.45  38 2.45
 110  0.729  0.875  0.114-  38 2.45  13 2.45  20 2.45  39 2.45
 111  0.479  0.875  0.227-  39 2.45  21 2.45  14 2.45  40 2.45
 112  0.229  0.875  0.341-  40 2.45  22 2.45  15 2.45  41 2.45
 113  0.979  0.875  0.455-  41 2.45  23 2.45  42 2.45  16 2.45
 114  0.729  0.875  0.568-  42 2.45  17 2.45  24 2.45 172 3.10
 115  0.979  0.375  0.000-  43 2.45   1 2.45  44 2.45 147 3.26
 116  0.729  0.375  0.114-  31 2.45  44 2.45   2 2.45  45 2.45
 117  0.479  0.375  0.227-  45 2.45  32 2.45   3 2.45  46 2.45
 118  0.229  0.375  0.341-  33 2.45  46 2.45   4 2.45  47 2.45
 119  0.979  0.375  0.455-  47 2.45   5 2.45  34 2.45  48 2.45
 120  0.729  0.375  0.568-  35 2.45  48 2.45   6 2.45
 121  0.313  0.542  0.000- 174 2.36   7 2.45  49 2.45  50 2.45
 122  0.063  0.542  0.114-   1 2.45   8 2.45  50 2.45  51 2.45
 123  0.813  0.542  0.227-  51 2.45   2 2.45   9 2.45  52 2.45
 124  0.563  0.542  0.341-   3 2.45  10 2.45  53 2.45  52 2.45
 125  0.313  0.542  0.455-   4 2.45  53 2.45  11 2.45  54 2.45
 126  0.063  0.542  0.568-   5 2.45  54 2.45  12 2.45 166 2.62
 127  0.646  0.708  0.000- 156 2.31  55 2.45  13 2.45  56 2.45
 128  0.396  0.708  0.114-   7 2.45  56 2.45  14 2.45  57 2.45
 129  0.146  0.708  0.227-   8 2.45  57 2.45  15 2.45  58 2.45
 130  0.896  0.708  0.341-   9 2.45  58 2.45  16 2.45  59 2.45
 131  0.646  0.708  0.455-  59 2.45  10 2.45  17 2.45  60 2.45
 132  0.396  0.708  0.568-  11 2.45  60 2.45  18 2.45 145 2.58
 133  0.313  0.042  0.000-  25 2.45  61 2.45  62 2.45
 134  0.063  0.042  0.114-  19 2.45  62 2.45  26 2.45  63 2.45
 135  0.813  0.042  0.227-  20 2.45  63 2.45  27 2.45  64 2.45
 136  0.563  0.042  0.341-  21 2.45  28 2.45  64 2.45  65 2.45
 137  0.313  0.042  0.455-  65 2.45  22 2.45  29 2.45  66 2.45
 138  0.063  0.042  0.568-  23 2.45  66 2.45  30 2.45 154 2.88 163 3.10
 139  0.646  0.208  0.000-  67 2.45  31 2.45  68 2.45 168 3.13
 140  0.396  0.208  0.114-  25 2.45  32 2.45  68 2.45  69 2.45
 141  0.146  0.208  0.227-  26 2.45  33 2.45  69 2.45  70 2.45
 142  0.896  0.208  0.341-  34 2.45  71 2.45  27 2.45  70 2.45
 143  0.646  0.208  0.455-  35 2.45  28 2.45  72 2.45  71 2.45
 144  0.396  0.208  0.568-  29 2.45  36 2.45  72 2.45 151 3.06
 145  0.476  0.770  0.681- 132 2.58  18 2.59 172 2.74 173 2.81  60 3.09
 146  0.276  0.604  0.763- 173 2.74 157 2.74 174 2.81
 147  0.076  0.437  0.846- 158 2.74 174 2.74 160 2.81 115 3.26   1 3.27
 148  0.476  0.437  0.681- 175 2.74 176 2.81  36 3.05 102 3.10
 149  0.276  0.270  0.763- 176 2.74 160 2.74 177 2.81
 150  0.076  0.104  0.846- 161 2.74 177 2.74 154 2.81
 151  0.476  0.104  0.681- 108 2.62  72 2.63 178 2.74 179 2.81 144 3.06
 152  0.276  0.937  0.763- 179 2.74 154 2.74 180 2.81
 153  0.076  0.770  0.846- 180 2.74 155 2.74 157 2.81  73 3.13  37 3.14
 154  0.126  0.020  0.722- 152 2.74 163 2.74 150 2.81 138 2.88  66 3.10
 155  0.926  0.854  0.805- 153 2.74 164 2.74 163 2.81
 156  0.726  0.687  0.887- 127 2.31  55 2.36 165 2.74 164 2.81
 157  0.126  0.687  0.722- 166 2.74 146 2.74 153 2.81  12 2.88
 158  0.926  0.520  0.805- 147 2.74 167 2.74 166 2.81
 159  0.726  0.354  0.887-  31 2.31 168 2.74 167 2.81
 160  0.126  0.354  0.722- 169 2.74 149 2.74 147 2.81  96 3.10
 161  0.926  0.187  0.805- 150 2.74 170 2.74 169 2.81
 162  0.726  0.020  0.887- 103 2.36 171 2.74 170 2.81
 163  0.976  0.937  0.681- 154 2.74 155 2.81  42 3.05 138 3.10
 164  0.776  0.770  0.763- 172 2.74 155 2.74 156 2.81
 165  0.576  0.604  0.846- 173 2.74 156 2.74 175 2.81
 166  0.976  0.604  0.681- 126 2.62  12 2.63 157 2.74 158 2.81  78 3.06
 167  0.776  0.437  0.763- 175 2.74 158 2.74 159 2.81
 168  0.576  0.270  0.846- 176 2.74 159 2.74 178 2.81 139 3.13  31 3.14
 169  0.976  0.270  0.681-  90 2.58  48 2.59 160 2.74 161 2.81  30 3.09
 170  0.776  0.104  0.763- 178 2.74 161 2.74 162 2.81
 171  0.576  0.937  0.846- 179 2.74 162 2.74 172 2.81  79 3.26  61 3.27
 172  0.626  0.854  0.722- 164 2.74 145 2.74 171 2.81 114 3.10
 173  0.426  0.687  0.805- 165 2.74 146 2.74 145 2.81
 174  0.226  0.520  0.887- 121 2.36 147 2.74 146 2.81
 175  0.626  0.520  0.722- 167 2.74 148 2.74 165 2.81 102 2.88   6 3.10
 176  0.426  0.354  0.805- 168 2.74 149 2.74 148 2.81
 177  0.226  0.187  0.887-  85 2.31  25 2.36 150 2.74 149 2.81
 178  0.626  0.187  0.722- 170 2.74 151 2.74 168 2.81  72 2.88
 179  0.426  0.020  0.805- 171 2.74 152 2.74 151 2.81
 180  0.226  0.854  0.887-  37 2.31 153 2.74 152 2.81
 
  LATTYP: Found a simple orthorhombic cell.
 ALAT       =    13.8587245940
 B/A-ratio  =     1.2701840073
 C/A-ratio  =     1.4142135048
  
  Lattice vectors:
  
 A1 = ( -13.8587245940,   0.0000000000,   0.0000000000)
 A2 = (   0.0000000000,   0.0000000000,  17.6031303410)
 A3 = (   0.0000000000,  19.5991954800,   0.0000000000)


Analysis of symmetry for initial positions (statically):
=====================================================================
 Subroutine PRICEL returns following result:
 
  LATTYP: Found a base centered orthorhombic cell.
 ALAT       =    13.8587229310
 B/A-ratio  =     1.4142136745
 C/A-ratio  =     1.2701841597
  
  Lattice vectors:
  
 A1 = (   6.9293614655,  -9.7995989160,   0.0000000000)
 A2 = (   6.9293614655,   9.7995965640,   0.0000000000)
 A3 = (   0.0000000000,   0.0000000000,  17.6031303410)
 
   2 primitive cells build up your supercell.
 

 Routine SETGRP: Setting up the symmetry group for a 
 simple orthorhombic supercell.


 Subroutine GETGRP returns: Found  1 space group operations
 (whereof  1 operations were pure point group operations)
 out of a pool of  8 trial point group operations.


The static configuration has the point symmetry C_1 .


Analysis of symmetry for dynamics (positions and initial velocities):
=====================================================================
 Subroutine PRICEL returns following result:
 
  LATTYP: Found a base centered orthorhombic cell.
 ALAT       =    13.8587229310
 B/A-ratio  =     1.4142136745
 C/A-ratio  =     1.2701841597
  
  Lattice vectors:
  
 A1 = (   6.9293614655,  -9.7995989160,   0.0000000000)
 A2 = (   6.9293614655,   9.7995965640,   0.0000000000)
 A3 = (   0.0000000000,   0.0000000000,  17.6031303410)
 
   2 primitive cells build up your supercell.
 

 Routine SETGRP: Setting up the symmetry group for a 
 simple orthorhombic supercell.


 Subroutine GETGRP returns: Found  1 space group operations
 (whereof  1 operations were pure point group operations)
 out of a pool of  8 trial point group operations.


The dynamic configuration has the point symmetry C_1 .


Analysis of structural, dynamic, and magnetic symmetry:
=====================================================================
 Subroutine PRICEL returns following result:
 
  LATTYP: Found a base centered orthorhombic cell.
 ALAT       =    13.8587229310
 B/A-ratio  =     1.4142136745
 C/A-ratio  =     1.2701841597
  
  Lattice vectors:
  
 A1 = (   6.9293614655,  -9.7995989160,   0.0000000000)
 A2 = (   6.9293614655,   9.7995965640,   0.0000000000)
 A3 = (   0.0000000000,   0.0000000000,  17.6031303410)
 
   2 primitive cells build up your supercell.
 

 Routine SETGRP: Setting up the symmetry group for a 
 simple orthorhombic supercell.


 Subroutine GETGRP returns: Found  1 space group operations
 (whereof  1 operations were pure point group operations)
 out of a pool of  8 trial point group operations.


The overall configuration has the point symmetry C_1 .


 Subroutine INISYM returns: Found  1 space group operations
 (whereof  1 operations are pure point group operations),
 and found     2 'primitive' translations


----------------------------------------------------------------------------------------

                                     Primitive cell                                     

  volume of cell :    2390.6795

  direct lattice vectors                    reciprocal lattice vectors
     6.929361465 -9.799598916  0.000000000     0.072156712 -0.051022502  0.000000000
     6.929361465  9.799596564  0.000000000     0.072156729  0.051022502  0.000000000
     0.000000000  0.000000000 17.603130341     0.000000000  0.000000000  0.056808078

  length of vectors
    12.002007717 12.002005796 17.603130341     0.088373564  0.088373578  0.056808078

  position of ions in fractional coordinates (direct lattice)
     0.479378492  0.479378667  0.000000015
     0.229378403  0.229378458  0.113635220
     0.979378342  0.979378219  0.227270424
     0.729378402  0.729378099  0.340905577
     0.479378491  0.479378190  0.454540730
     0.229378283  0.229377862  0.568175912
     0.646045103  0.979378642  0.000000017
     0.396045044  0.729378313  0.113635205
     0.146045029  0.479378358  0.227270409
     0.896045096  0.229378127  0.340905577
     0.646045029  0.979378000  0.454540700
     0.396044969  0.729377762  0.568175912
     0.812711791  0.479378452  0.000000022
     0.562711745  0.229378528  0.113635212
     0.312711641  0.979378064  0.227270409
     0.062711656  0.729378259  0.340905517
     0.812711775  0.479377960  0.454540700
     0.562711716  0.229377961  0.568175852
     0.979378462  0.979378697  0.000000020
     0.729378418  0.729378353  0.113635212
     0.479378342  0.479378339  0.227270409
     0.229378432  0.229378189  0.340905577
     0.979378402  0.979378041  0.454540700
     0.729378373  0.729377772  0.568175852
     0.146044969  0.479378538  0.000000021
     0.896045081  0.229378320  0.113635190
     0.646045029  0.979378120  0.227270380
     0.396044992  0.729378023  0.340905577
     0.146044970  0.479378061  0.454540730
     0.896044999  0.229377732  0.568175912
     0.312711805  0.979378646  0.000000020
     0.062711657  0.729378498  0.113635182
     0.812711701  0.479378184  0.227270380
     0.562711715  0.229378200  0.340905517
     0.312711715  0.979378020  0.454540759
     0.062711716  0.729377961  0.568175852
     0.437711775  0.854378556  0.000000000
     0.187711657  0.604378498  0.113635212
     0.937711731  0.354378184  0.227270380
     0.687711746  0.104378289  0.340905577
     0.437711715  0.854378020  0.454540700
     0.187711656  0.604378021  0.568175852
     0.604378492  0.354378667  0.000000010
     0.354378432  0.104378429  0.113635205
     0.104378283  0.854378398  0.227270424
     0.854378432  0.604378069  0.340905517
     0.604378491  0.354378190  0.454540700
     0.354378432  0.104377951  0.568175852
     0.937711761  0.354378452  0.000000020
     0.687711760  0.104378513  0.113635190
     0.437711701  0.854378124  0.227270409
     0.187711715  0.604378200  0.340905517
     0.937711745  0.354377990  0.454540730
     0.687711686  0.104377991  0.568175852
     0.104378461  0.854378816  0.000000014
     0.854378432  0.604378367  0.113635205
     0.604378402  0.354378399  0.227270409
     0.354378402  0.104378219  0.340905577
     0.104378461  0.854378220  0.454540759
     0.854378343  0.604377802  0.568175852
     0.271045088  0.354378657  0.000000021
     0.021045148  0.104378537  0.113635205
     0.771045059  0.854378268  0.227270409
     0.521045074  0.604378105  0.340905577
     0.271045089  0.354378180  0.454540730
     0.021045088  0.104378001  0.568175852
     0.771045148  0.854378597  0.000000008
     0.521045059  0.604378328  0.113635205
     0.271045029  0.354378358  0.227270424
     0.021045029  0.104378180  0.340905577
     0.771045089  0.854378060  0.454540730
     0.521045029  0.604377822  0.568175912
     0.705289185  0.246029551  0.681050241
     0.671955884  0.879362590  0.763480484
     0.638622433  0.512695659  0.845910788
     0.038622618  0.912696118  0.681050241
     0.005289137  0.546029217  0.763480484
     0.971955657  0.179362435  0.845910788
     0.371955871  0.579362865  0.681050241
     0.338622391  0.212695963  0.763480484
     0.305289030  0.846029062  0.845910788
     0.105289161  0.146029563  0.722265303
     0.071955741  0.779362841  0.804695547
     0.038622319  0.412695999  0.887125731
     0.438622534  0.812695950  0.722265303
     0.405289173  0.446029409  0.804695547
     0.371955752  0.079362566  0.887125731
     0.771955758  0.479362726  0.722265303
     0.738622397  0.112696185  0.804695547
     0.705289125  0.746029193  0.887125731

  ion indices of the primitive-cell ions
   primitive index   ion index
                 1           1
                 2           2
                 3           3
                 4           4
                 5           5
                 6           6
                 7          67
                 8           8
                 9           9
                10          70
                11          11
                12          12
                13          43
                14          44
                15          15
                16          16
                17          47
                18          48
                19          19
                20          50
                21          51
                22          52
                23          53
                24          54
                25          55
                26          26
                27          57
                28          58
                29          59
                30          30
                31          31
                32          38
                33          33
                34          34
                35          41
                36          42
                37          73
                38          74
                39         141
                40         142
                41          77
                42          78
                43         115
                44         116
                45          81
                46         118
                47         119
                48         120
                49          85
                50          86
                51         129
                52         130
                53          89
                54          90
                55         109
                56          92
                57          93
                58          94
                59         113
                60          96
                61          97
                62          98
                63          99
                64         100
                65         101
                66         102
                67         121
                68         122
                69         123
                70         124
                71         125
                72         126
                73         169
                74         146
                75         147
                76         163
                77         164
                78         150
                79         166
                80         167
                81         153
                82         175
                83         155
                84         156
                85         157
                86         158
                87         159
                88         160
                89         161
                90         174

----------------------------------------------------------------------------------------

 
 
 KPOINTS: Automatic KPOINTS generated             

Automatic generation of k-mesh.
 Grid dimensions read from file:
 generate k-points for:    2    2    2

 Generating k-lattice:

  Cartesian coordinates                     Fractional coordinates (reciprocal lattice)
     0.036078356  0.000000000  0.000000000     0.500000000  0.000000000  0.000000000
     0.000000000  0.025511251  0.000000000     0.000000000  0.500000000  0.000000000
     0.000000000  0.000000000  0.028404039     0.000000000  0.000000000  0.500000000

  Length of vectors
     0.036078356  0.025511251  0.028404039

  Shift w.r.t. Gamma in fractional coordinates (k-lattice)
     0.000000000  0.000000000  0.000000000

 
 Subroutine IBZKPT returns following result:
 ===========================================
 
 Found      8 irreducible k-points:
 
 Following reciprocal coordinates:
            Coordinates               Weight
  0.000000  0.000000  0.000000      1.000000
  0.500000  0.000000  0.000000      1.000000
  0.000000  0.500000  0.000000      1.000000
  0.500000  0.500000  0.000000      1.000000
  0.000000  0.000000  0.500000      1.000000
  0.500000  0.000000  0.500000      1.000000
  0.000000  0.500000  0.500000      1.000000
  0.500000  0.500000  0.500000      1.000000
 
 Following cartesian coordinates:
            Coordinates               Weight
  0.000000  0.000000  0.000000      1.000000
  0.036078  0.000000  0.000000      1.000000
  0.000000  0.025511  0.000000      1.000000
  0.036078  0.025511  0.000000      1.000000
  0.000000  0.000000  0.028404      1.000000
  0.036078  0.000000  0.028404      1.000000
  0.000000  0.025511  0.028404      1.000000
  0.036078  0.025511  0.028404      1.000000
 


--------------------------------------------------------------------------------------------------------




 Dimension of arrays:
   k-points           NKPTS =      8   k-points in BZ     NKDIM =      8   number of bands    NBANDS=    432
   number of dos      NEDOS =    301   number of ions     NIONS =    180
   non local maximal  LDIM  =      5   non local SUM 2l+1 LMDIM =     13
   total plane-waves  NPLWV = ******
   max r-space proj   IRMAX =   4813   max aug-charges    IRDMAX= 222816
   dimension x,y,z NGX =    90 NGY =  128 NGZ =  120
   dimension x,y,z NGXF=   180 NGYF=  256 NGZF=  240
   support grid    NGXF=   360 NGYF=  512 NGZF=  480
   ions per type =             144  36
   NGX,Y,Z   is equivalent  to a cutoff of  10.80, 10.86, 11.33 a.u.
   NGXF,Y,Z  is equivalent  to a cutoff of  21.59, 21.71, 22.67 a.u.

 SYSTEM =  Si and Ge interface calculation         
 POSCAR =  Ge+Sn                                   

 Startparameter for this run:
   NWRITE =      2    write-flag & timer
   PREC   = normal    normal or accurate (medium, high low for compatibility)
   ISTART =      0    job   : 0-new  1-cont  2-samecut
   ICHARG =      2    charge: 1-file 2-atom 10-const
   ISPIN  =      2    spin polarized calculation?
   LNONCOLLINEAR =      F non collinear calculations
   LSORBIT =      F    spin-orbit coupling
   INIWAV =      1    electr: 0-lowe 1-rand  2-diag
   LASPH  =      T    aspherical Exc in radial PAW
 Electronic Relaxation 1
   ENCUT  =  700.0 eV  51.45 Ry    7.17 a.u.  29.90 42.28 37.97*2*pi/ulx,y,z
   ENINI  =  700.0     initial cutoff
   ENAUG  =  900.0 eV  augmentation charge cutoff
   NELM   =    100;   NELMIN=  2; NELMDL= -5     # of ELM steps 
   EDIFF  = 0.1E-06   stopping-criterion for ELM
   LREAL  =      T    real-space projection
   NLSPLINE    = F    spline interpolate recip. space projectors
   LCOMPAT=      F    compatible to vasp.4.4
   GGA_COMPAT  = T    GGA compatible to vasp.4.4-vasp.4.6
   LMAXPAW     = -100 max onsite density
   LMAXMIX     =    6 max onsite mixed and CHGCAR
   VOSKOWN=      0    Vosko Wilk Nusair interpolation
   ROPT   =   -0.00050  -0.00050
 Ionic relaxation
   EDIFFG = 0.1E-05   stopping-criterion for IOM
   NSW    =      0    number of steps for IOM
   NBLOCK =      1;   KBLOCK =      1    inner block; outer block 
   IBRION =     -1    ionic relax: 0-MD 1-quasi-New 2-CG
   NFREE  =      0    steps in history (QN), initial steepest desc. (CG)
   ISIF   =      2    stress and relaxation
   IWAVPR =     10    prediction:  0-non 1-charg 2-wave 3-comb
   ISYM   =      2    0-nonsym 1-usesym 2-fastsym
   LCORR  =      T    Harris-Foulkes like correction to forces

   POTIM  = 0.5000    time-step for ionic-motion
   TEIN   =    0.0    initial temperature
   TEBEG  =    0.0;   TEEND  =   0.0 temperature during run
   SMASS  =  -3.00    Nose mass-parameter (am)
   estimated Nose-frequenzy (Omega)   =  0.10E-29 period in steps = 0.13E+47 mass=  -0.439E-26a.u.
   SCALEE = 1.0000    scale energy and forces
   NPACO  =    256;   APACO  = 10.0  distance and # of slots for P.C.
   PSTRESS=    0.0 pullay stress

  Mass of Ions in am
   POMASS =  72.61118.71
  Ionic Valenz
   ZVAL   =   4.00  4.00
  Atomic Wigner-Seitz radii
   RWIGS  =  -1.00 -1.00
  virtual crystal weights 
   VCA    =   1.00  1.00
   NELECT =     720.0000    total number of electrons
   NUPDOWN=       1.0000    fix difference up-down

 DOS related values:
   EMIN   =  10.00;   EMAX   =-10.00  energy-range for DOS
   EFERMI =   0.00;   METHOD = LEGACY      
   ISMEAR =     0;   SIGMA  =   0.01  broadening in eV -4-tet -1-fermi 0-gaus

 Electronic relaxation 2 (details)
   IALGO  =     38    algorithm
   LDIAG  =      T    sub-space diagonalisation (order eigenvalues)
   LSUBROT=      F    optimize rotation matrix (better conditioning)
   TURBO    =      0    0=normal 1=particle mesh
   IRESTART =      0    0=no restart 2=restart with 2 vectors
   NREBOOT  =      0    no. of reboots
   NMIN     =      0    reboot dimension
   EREF     =   0.00    reference energy to select bands
   IMIX   =      4    mixing-type and parameters
     AMIX     =   0.60;   BMIX     =  1.00
     AMIX_MAG =   2.40;   BMIX_MAG =  1.00
     AMIN     =   0.10
     WC   =   100.;   INIMIX=   1;  MIXPRE=   1;  MAXMIX= -45

 Intra band minimization:
   WEIMIN = 0.0000     energy-eigenvalue tresh-hold
   EBREAK =  0.58E-10  absolut break condition
   DEPER  =   0.30     relativ break condition  

   TIME   =   0.40     timestep for ELM

  volume/ion in A,a.u.               =      26.56       179.26
  Fermi-wavevector in a.u.,A,eV,Ry     =   0.870967  1.645890 10.321163  0.758584
  Thomas-Fermi vector in A             =   1.990008
 
 Write flags
   LWAVE        =      F    write WAVECAR
   LDOWNSAMPLE  =      F    k-point downsampling of WAVECAR
   LCHARG       =      T    write CHGCAR
   LVTOT        =      F    write LOCPOT, total local potential
   LVHAR        =      T    write LOCPOT, Hartree potential only
   WRT_POTENTIAL=  hartree ionic  ! write potential to hdf5 file
   LELF         =      F    write electronic localiz. function (ELF)
   LORBIT       =      0    0 simple, 1 ext, 2 COOP (PROOUT), +10 PAW based schemes


 Dipole corrections
   LMONO      =      F    monopole corrections only (constant potential shift)
   LDIPOL     =      F    correct potential (dipole corrections)
   IDIPOL     =      0    1-x, 2-y, 3-z, 4-all directions 
   EPSILON    =  1.0000000 bulk dielectric constant
   LVACPOTAV  =      F  vacuum potentials using an averaging scheme for the charge density
   VACPOTFLAT =  0.1000000 required flatness to determine vacuum potential
 Exchange correlation treatment:
   GGA     = PE    functional components
   XC_C    = 1    coefficients multiplying the functional components
   LIBXC   =     F    Libxc                    
   VOSKOWN =     0    Vosko Wilk Nusair interpolation
   LHFCALC =     F    Hartree Fock is set to
   LHFONE  =     F    Hartree Fock one center treatment
   AEXX    =    0.0000 exact exchange contribution

 Parameters of functionals:
   PE:
     No parameter
 
 Van der Waals corrections
   IVDW    =     0    specifies the selected vdW correction

 Linear response parameters
   LEPSILON=     F    determine dielectric tensor
   LRPA    =     F    only Hartree local field effects (RPA)
   LNABLA  =     F    use nabla operator in PAW spheres
   LVEL    =     F    velocity operator in full k-point grid
   CSHIFT  =0.1000    complex shift for real part using Kramers Kronig
   OMEGAMAX=  -1.0    maximum frequency
   DEG_THRESHOLD= 0.2000000E-02 threshold for treating states as degnerate
   RTIME   =   -0.100 relaxation time in fs
  (WPLASMAI=    0.000 imaginary part of plasma frequency in eV, 0.658/RTIME)
   DFIELD  = 0.0000000 0.0000000 0.0000000 field for delta impulse in time
 
  Optional k-point grid parameters
   LKPOINTS_OPT  =     F    use optional k-point grid
   KPOINTS_OPT_MODE=     1    mode for optional k-point grid
 
 Orbital magnetization related:
   ORBITALMAG=     F  switch on orbital magnetization
   LCHIMAG   =     F  perturbation theory with respect to B field
   DQ        =  0.001000  dq finite difference perturbation B field
   LLRAUG    =     F  two centre corrections for induced B field
   LBONE     =     F  B-component reconstruction in AE one-centre
   LVGVCALC  =     T  calculate vGv susceptibility
   LVGVAPPL  =     F  apply vGv susceptibility instead of pGv for G=0

 Random number generation:
   RANDOM_GENERATOR = DEFAULT
   PCG_SEED         = not used


--------------------------------------------------------------------------------------------------------


 Static calculation
 charge density and potential will be updated during run
 spin polarized calculation
 Variant of blocked Davidson
 Davidson routine will perform the subspace rotation
 perform sub-space diagonalisation
    after iterative eigenvector-optimisation
 modified Broyden-mixing scheme, WC =      100.0
 initial mixing is a Kerker type mixing with AMIX =  0.6000 and BMIX =      1.0000
 Hartree-type preconditioning will be used
 using additional bands           72
 real space projection scheme for non local part
 use partial core corrections
 calculate Harris-corrections to forces 
   (improved forces if not selfconsistent)
 use gradient corrections 
 use of overlap-Matrix (Vanderbilt PP)
 Gauss-broadening in eV      SIGMA  =   0.01


--------------------------------------------------------------------------------------------------------


  energy-cutoff  :      700.00
  volume of cell :     4781.36
      direct lattice vectors                 reciprocal lattice vectors
    13.858724594  0.000000000  0.000000000     0.072156712  0.000000000  0.000000000
     0.000000000 19.599195480  0.000000000     0.000000000  0.051022502  0.000000000
     0.000000000  0.000000000 17.603130341     0.000000000  0.000000000  0.056808078

  length of vectors
    13.858724594 19.599195480 17.603130341     0.072156712  0.051022502  0.056808078


 
 k-points in units of 2pi/SCALE and weight: Automatic KPOINTS generated             
   0.00000000  0.00000000  0.00000000       0.125
   0.03607836  0.00000000  0.00000000       0.125
   0.00000000  0.02551125  0.00000000       0.125
   0.03607836  0.02551125  0.00000000       0.125
   0.00000000  0.00000000  0.02840404       0.125
   0.03607836  0.00000000  0.02840404       0.125
   0.00000000  0.02551125  0.02840404       0.125
   0.03607836  0.02551125  0.02840404       0.125
 
 k-points in reciprocal lattice and weights: Automatic KPOINTS generated             
   0.00000000  0.00000000  0.00000000       0.125
   0.50000000  0.00000000  0.00000000       0.125
   0.00000000  0.50000000  0.00000000       0.125
   0.50000000  0.50000000  0.00000000       0.125
   0.00000000  0.00000000  0.50000000       0.125
   0.50000000  0.00000000  0.50000000       0.125
   0.00000000  0.50000000  0.50000000       0.125
   0.50000000  0.50000000  0.50000000       0.125
 
 position of ions in fractional coordinates (direct lattice) 
   0.97937846  0.49999997  0.00000001
   0.72937834  0.49999994  0.11363522
   0.47937822  0.49999988  0.22727042
   0.22937822  0.49999982  0.34090558
   0.97937822  0.49999973  0.45454073
   0.72937798  0.49999970  0.56817591
   0.31271177  0.66666669  0.00000001
   0.06271167  0.66666663  0.11363521
   0.81271160  0.66666657  0.22727041
   0.56271154  0.66666651  0.34090552
   0.31271148  0.66666645  0.45454070
   0.06271136  0.66666639  0.56817591
   0.64604503  0.83333331  0.00000001
   0.39604497  0.83333325  0.11363521
   0.14604483  0.83333319  0.22727041
   0.89604485  0.83333319  0.34090552
   0.64604473  0.83333307  0.45454070
   0.39604467  0.83333302  0.56817591
   0.97937846  0.00000000  0.00000002
   0.72937834  0.99999994  0.11363519
   0.47937828  0.99999988  0.22727041
   0.22937828  0.99999982  0.34090552
   0.97937822  0.99999976  0.45454070
   0.72937810  0.99999970  0.56817591
   0.31271177  0.16666666  0.00000002
   0.06271169  0.16666661  0.11363519
   0.81271160  0.16666654  0.22727038
   0.56271154  0.16666648  0.34090552
   0.31271148  0.16666643  0.45454073
   0.06271136  0.16666636  0.56817591
   0.64604515  0.33333334  0.00000002
   0.39604500  0.33333328  0.11363521
   0.14604492  0.33333322  0.22727038
   0.89604485  0.33333313  0.34090552
   0.64604485  0.33333311  0.45454073
   0.39604473  0.33333305  0.56817591
   0.14604510  0.83333337  0.00000001
   0.89604497  0.83333331  0.11363518
   0.64604485  0.83333325  0.22727041
   0.39604479  0.83333319  0.34090558
   0.14604485  0.83333313  0.45454076
   0.89604473  0.83333302  0.56817585
   0.14604510  0.33333331  0.00000002
   0.89604503  0.33333328  0.11363521
   0.64604491  0.33333322  0.22727041
   0.39604491  0.33333313  0.34090558
   0.14604485  0.33333307  0.45454070
   0.89604473  0.33333302  0.56817585
   0.47937849  0.50000000  0.00000002
   0.22937836  0.49999994  0.11363521
   0.97937822  0.49999988  0.22727041
   0.72937822  0.49999979  0.34090558
   0.47937816  0.49999976  0.45454070
   0.22937804  0.49999967  0.56817585
   0.81271166  0.66666669  0.00000002
   0.56271166  0.66666663  0.11363521
   0.31271154  0.66666651  0.22727038
   0.06271150  0.66666651  0.34090558
   0.81271142  0.66666645  0.45454073
   0.56271136  0.66666633  0.56817585
   0.47937843  0.00000000  0.00000002
   0.22937836  0.99999994  0.11363521
   0.97937822  0.99999988  0.22727038
   0.72937822  0.99999982  0.34090558
   0.47937816  0.99999976  0.45454073
   0.22937804  0.99999970  0.56817591
   0.81271177  0.16666667  0.00000002
   0.56271172  0.16666660  0.11363521
   0.31271166  0.16666657  0.22727038
   0.06271160  0.16666651  0.34090558
   0.81271160  0.16666643  0.45454070
   0.56271148  0.16666640  0.56817591
   0.14604515  0.70833337  0.00000000
   0.89604497  0.70833331  0.11363521
   0.64604491  0.70833325  0.22727042
   0.39604485  0.70833319  0.34090558
   0.14604485  0.70833313  0.45454070
   0.89604473  0.70833307  0.56817585
   0.47937843  0.87500006  0.00000000
   0.22937839  0.87500000  0.11363521
   0.97937822  0.87499994  0.22727042
   0.72937822  0.87499988  0.34090558
   0.47937822  0.87499976  0.45454070
   0.22937810  0.87499976  0.56817585
   0.14604509  0.20833333  0.00000002
   0.89604503  0.20833327  0.11363519
   0.64604491  0.20833321  0.22727038
   0.39604485  0.20833315  0.34090558
   0.14604485  0.20833311  0.45454073
   0.89604473  0.20833305  0.56817585
   0.47937849  0.37500000  0.00000002
   0.22937837  0.37499994  0.11363521
   0.97937828  0.37499988  0.22727041
   0.72937822  0.37499982  0.34090558
   0.47937822  0.37499976  0.45454073
   0.22937804  0.37499970  0.56817585
   0.81271177  0.54166669  0.00000002
   0.56271177  0.54166663  0.11363521
   0.31271163  0.54166657  0.22727041
   0.06271158  0.54166651  0.34090558
   0.81271154  0.54166645  0.45454073
   0.56271148  0.54166639  0.56817585
   0.81271184  0.04166666  0.00000001
   0.56271172  0.04166659  0.11363521
   0.31271163  0.04166653  0.22727041
   0.06271157  0.04166649  0.34090558
   0.81271154  0.04166642  0.45454073
   0.56271148  0.04166634  0.56817591
   0.97937852  0.87500006  0.00000001
   0.72937834  0.87499994  0.11363518
   0.47937828  0.87499988  0.22727041
   0.22937822  0.87499982  0.34090558
   0.97937822  0.87499976  0.45454076
   0.72937810  0.87499970  0.56817585
   0.97937846  0.37499997  0.00000001
   0.72937834  0.37499991  0.11363521
   0.47937828  0.37499985  0.22727041
   0.22937822  0.37499979  0.34090552
   0.97937822  0.37499973  0.45454070
   0.72937810  0.37499967  0.56817585
   0.31271184  0.54166669  0.00000001
   0.06271169  0.54166663  0.11363521
   0.81271160  0.54166657  0.22727042
   0.56271154  0.54166651  0.34090558
   0.31271154  0.54166645  0.45454073
   0.06271142  0.54166639  0.56817591
   0.64604509  0.70833331  0.00000001
   0.39604500  0.70833325  0.11363521
   0.14604490  0.70833319  0.22727041
   0.89604485  0.70833313  0.34090552
   0.64604485  0.70833307  0.45454070
   0.39604473  0.70833302  0.56817585
   0.31271175  0.04166665  0.00000002
   0.06271169  0.04166659  0.11363519
   0.81271160  0.04166654  0.22727038
   0.56271154  0.04166648  0.34090558
   0.31271154  0.04166643  0.45454073
   0.06271142  0.04166637  0.56817585
   0.64604521  0.20833336  0.00000002
   0.39604506  0.20833328  0.11363519
   0.14604494  0.20833321  0.22727038
   0.89604491  0.20833316  0.34090558
   0.64604485  0.20833311  0.45454073
   0.39604473  0.20833305  0.56817585
   0.47565925  0.77037001  0.68105024
   0.27565920  0.60370332  0.76348048
   0.07565904  0.43703660  0.84591079
   0.47565925  0.43703672  0.68105024
   0.27565920  0.27037004  0.76348048
   0.07565904  0.10370338  0.84591079
   0.47565925  0.10370350  0.68105024
   0.27565920  0.93703675  0.76348048
   0.07565904  0.77037001  0.84591079
   0.12565923  0.02037013  0.72226530
   0.92565918  0.85370344  0.80469555
   0.72565907  0.68703675  0.88712573
   0.12565923  0.68703669  0.72226530
   0.92565918  0.52037001  0.80469555
   0.72565907  0.35370332  0.88712573
   0.12565923  0.35370347  0.72226530
   0.92565918  0.18703678  0.80469555
   0.72565907  0.02037013  0.88712573
   0.97565925  0.93703663  0.68105024
   0.77565908  0.77036995  0.76348048
   0.57565898  0.60370332  0.84591079
   0.97565925  0.60370338  0.68105024
   0.77565908  0.43703669  0.76348048
   0.57565898  0.27037001  0.84591079
   0.97565925  0.27037007  0.68105024
   0.77565908  0.10370338  0.76348048
   0.57565898  0.93703669  0.84591079
   0.62565929  0.85370338  0.72226530
   0.42565918  0.68703669  0.80469555
   0.22565913  0.52037001  0.88712573
   0.62565929  0.52037013  0.72226530
   0.42565918  0.35370344  0.80469555
   0.22565913  0.18703672  0.88712573
   0.62565929  0.18703672  0.72226530
   0.42565918  0.02037013  0.80469555
   0.22565913  0.85370332  0.88712573
 
 position of ions in cartesian coordinates  (Angst):
  13.57293638  9.79959715  0.00000026
  10.10825358  9.79959656  2.00033559
   6.64357077  9.79959541  4.00067090
   3.17888962  9.79959423  6.00100531
  13.57293307  9.79959249  8.00133972
  10.10824862  9.79959190 10.00167464
   4.33378637 13.06613072  0.00000026
   0.86910378 13.06612954  2.00033532
  11.26314618 13.06612837  4.00067063
   7.79846422 13.06612721  6.00100425
   4.33378224 13.06612603  8.00133919
   0.86909944 13.06612488 10.00167464
   8.95336013 16.33266250  0.00000026
   5.48867817 16.33266135  2.00033532
   2.02399515 16.33266017  4.00067063
  12.41803880 16.33266017  6.00100425
   8.95335600 16.33265784  8.00133919
   5.48867404 16.33265666 10.00167464
  13.57293638  0.00000000  0.00000035
  10.10825358 19.59919430  2.00033506
   6.64357160 19.59919315  4.00067063
   3.17889045 19.59919197  6.00100425
  13.57293307 19.59919082  8.00133919
  10.10825027 19.59918964 10.00167464
   4.33378637  3.26653239  0.00000035
   0.86910408  3.26653151  2.00033506
  11.26314618  3.26653006  4.00067012
   7.79846422  3.26652888  6.00100425
   4.33378224  3.26652800  8.00133972
   0.86909944  3.26652655 10.00167464
   8.95336178  6.53306535  0.00000035
   5.48867857  6.53306419  2.00033532
   2.02399639  6.53306302  4.00067012
  12.41803880  6.53306127  6.00100425
   8.95335765  6.53306068  8.00133972
   5.48867485  6.53305951 10.00167464
   2.02399887 16.33266368  0.00000011
  12.41804046 16.33266250  2.00033492
   8.95335765 16.33266135  4.00067063
   5.48867569 16.33266017  6.00100531
   2.02399535 16.33265901  8.00134023
  12.41803715 16.33265666 10.00167358
   2.02399887  6.53306476  0.00000039
  12.41804128  6.53306419  2.00033545
   8.95335848  6.53306302  4.00067063
   5.48867733  6.53306127  6.00100531
   2.02399535  6.53306010  8.00133919
  12.41803715  6.53305892 10.00167358
   6.64357450  9.79959774  0.00000039
   3.17889149  9.79959656  2.00033545
  13.57293307  9.79959541  4.00067063
  10.10825192  9.79959364  6.00100531
   6.64356995  9.79959308  8.00133919
   3.17888715  9.79959131 10.00167358
  11.26314701 13.06613072  0.00000037
   7.79846587 13.06612954  2.00033545
   4.33378307 13.06612721  4.00067012
   0.86910141 13.06612721  6.00100531
  11.26314372 13.06612603  8.00133972
   7.79846174 13.06612370 10.00167358
   6.64357367  0.00000000  0.00000030
   3.17889149 19.59919430  2.00033532
  13.57293307 19.59919315  4.00067012
  10.10825192 19.59919197  6.00100531
   6.64356995 19.59919082  8.00133972
   3.17888715 19.59918964 10.00167464
  11.26314866  3.26653268  0.00000030
   7.79846670  3.26653121  2.00033532
   4.33378472  3.26653063  4.00067012
   0.86910285  3.26652947  6.00100531
  11.26314618  3.26652800  8.00133919
   7.79846339  3.26652741 10.00167464
   2.02399948 13.88276424  0.00000000
  12.41804046 13.88276307  2.00033545
   8.95335848 13.88276191  4.00067090
   5.48867650 13.88276073  6.00100531
   2.02399535 13.88275958  8.00133919
  12.41803715 13.88275840 10.00167358
   6.64357367 17.14929722  0.00000000
   3.17889189 17.14929604  2.00033545
  13.57293307 17.14929487  4.00067090
  10.10825192 17.14929371  6.00100531
   6.64357077 17.14929138  8.00133919
   3.17888797 17.14929138 10.00167358
   2.02399867  4.08316562  0.00000035
  12.41804128  4.08316446  2.00033506
   8.95335848  4.08316329  4.00067012
   5.48867650  4.08316213  6.00100531
   2.02399535  4.08316125  8.00133972
  12.41803715  4.08316007 10.00167358
   6.64357450  7.34969830  0.00000037
   3.17889169  7.34969713  2.00033532
  13.57293390  7.34969597  4.00067063
  10.10825192  7.34969480  6.00100531
   6.64357077  7.34969364  8.00133972
   3.17888715  7.34969246 10.00167358
  11.26314866 10.61623128  0.00000037
   7.79846752 10.61623011  2.00033532
   4.33378430 10.61622893  4.00067063
   0.86910254 10.61622778  6.00100531
  11.26314537 10.61622660  8.00133972
   7.79846339 10.61622544 10.00167358
  11.26314950  0.81663301  0.00000019
   7.79846670  0.81663164  2.00033532
   4.33378430  0.81663039  4.00067063
   0.86910243  0.81662974  6.00100531
  11.26314537  0.81662835  8.00133972
   7.79846339  0.81662682 10.00167464
  13.57293720 17.14929722  0.00000025
  10.10825358 17.14929487  2.00033492
   6.64357160 17.14929371  4.00067063
   3.17888962 17.14929254  6.00100531
  13.57293307 17.14929138  8.00134023
  10.10825027 17.14929020 10.00167358
  13.57293638  7.34969772  0.00000018
  10.10825358  7.34969656  2.00033532
   6.64357160  7.34969538  4.00067063
   3.17888962  7.34969421  6.00100425
  13.57293307  7.34969305  8.00133919
  10.10825027  7.34969188 10.00167358
   4.33378720 10.61623128  0.00000014
   0.86910399 10.61623011  2.00033532
  11.26314618 10.61622893  4.00067090
   7.79846422 10.61622778  6.00100531
   4.33378307 10.61622660  8.00133972
   0.86910027 10.61622544 10.00167464
   8.95336096 13.88276307  0.00000018
   5.48867857 13.88276191  2.00033532
   2.02399598 13.88276073  4.00067063
  12.41803880 13.88275958  6.00100425
   8.95335765 13.88275840  8.00133919
   5.48867485 13.88275723 10.00167358
   4.33378597  0.81663280  0.00000032
   0.86910399  0.81663170  2.00033506
  11.26314618  0.81663062  4.00067012
   7.79846422  0.81662953  6.00100531
   4.33378307  0.81662857  8.00133972
   0.86910027  0.81662733 10.00167358
   8.95336261  4.08316621  0.00000032
   5.48867940  4.08316476  2.00033506
   2.02399660  4.08316329  4.00067012
  12.41803963  4.08316241  6.00100531
   8.95335765  4.08316125  8.00133972
   5.48867485  4.08316007 10.00167358
   6.59203056 15.09863236 11.98861616
   3.82028499 11.83209938 13.43964647
   1.04853776  8.56556583 14.89067786
   6.59203056  8.56556817 11.98861616
   3.82028499  5.29903519 13.43964647
   1.04853776  2.03250282 14.89067786
   6.59203056  2.03250515 11.98861616
   3.82028499 18.36516649 13.43964647
   1.04853776 15.09863236 14.89067786
   1.74147662  0.39923808 12.71413027
  12.82845564 16.73190058 14.16516060
  10.05670923 13.46536762 15.61618987
   1.74147662 13.46536645 12.71413027
  12.82845564 10.19883349 14.16516060
  10.05670923  6.93230051 15.61618987
   1.74147662  6.93230343 12.71413027
  12.82845564  3.66577047 14.16516060
  10.05670923  0.39923808 15.61618987
  13.52139286 18.36516414 11.98861616
  10.74964562 15.09863118 13.43964647
   7.97789922 11.83209938 14.89067786
  13.52139286 11.83210056 11.98861616
  10.74964562  8.56556758 13.43964647
   7.97789922  5.29903462 14.89067786
  13.52139286  5.29903578 11.98861616
  10.74964562  2.03250282 13.43964647
   7.97789922 18.36516532 14.89067786
   8.67083975 16.73189943 12.71413027
   5.89909335 13.46536645 14.16516060
   3.12734776 10.19883349 15.61618987
   8.67083975 10.19883582 12.71413027
   5.89909335  6.93230284 14.16516060
   3.12734776  3.66576930 15.61618987
   8.67083975  3.66576930 12.71413027
   5.89909335  0.39923808 14.16516060
   3.12734776 16.73189825 15.61618987
 


--------------------------------------------------------------------------------------------------------


 k-point     1 :   0.0000 0.0000 0.0000  plane waves:  201025
 k-point     2 :   0.5000 0.0000 0.0000  plane waves:  201252
 k-point     3 :   0.0000 0.5000 0.0000  plane waves:  201012
 k-point     4 :   0.5000 0.5000 0.0000  plane waves:  200936
 k-point     5 :   0.0000 0.0000 0.5000  plane waves:  201116
 k-point     6 :   0.5000 0.0000 0.5000  plane waves:  200988
 k-point     7 :   0.0000 0.5000 0.5000  plane waves:  201108
 k-point     8 :   0.5000 0.5000 0.5000  plane waves:  201144

 maximum and minimum number of plane-waves per node :     12652    12476

 maximum number of plane-waves:    201252
 maximum index in each direction: 
   IXMAX=   29   IYMAX=   42   IZMAX=   37
   IXMIN=  -30   IYMIN=  -42   IZMIN=  -38


 real space projection operators:
  total allocation   :      50147.50 KBytes
  max/ min on nodes  :       3447.95       2678.41


 parallel 3D FFT for wavefunctions:
    minimum data exchange during FFTs selected (reduces bandwidth)
 parallel 3D FFT for charge:
    minimum data exchange during FFTs selected (reduces bandwidth)


 total amount of memory used by VASP MPI-rank0   452235. kBytes
=======================================================================

   base      :      30000. kBytes
   nonlr-proj:      18814. kBytes
   fftplans  :      29415. kBytes
   grid      :      22241. kBytes
   one-center:        194. kBytes
   wavefun   :     351571. kBytes
 
     INWAV:  cpu time      0.0001: real time      0.0004
 Broyden mixing: mesh for mixing (old mesh)
   NGX = 59   NGY = 85   NGZ = 75
  (NGX  =180   NGY  =256   NGZ  =240)
  gives a total of 376125 points

 initial charge density was supplied:
 charge density of overlapping atoms calculated
 number of electron     720.0000000 magnetization       1.0000000
 keeping initial charge density in first step


--------------------------------------------------------------------------------------------------------


 Maximum index for non-local projection operator          501
 Maximum index for augmentation-charges         5907 (set IRDMAX)


--------------------------------------------------------------------------------------------------------


 First call to EWALD:  gamma=   0.105
 Maximum number of real-space cells 3x 2x 3
 Maximum number of reciprocal cells 2x 3x 3

    FEWALD:  cpu time      0.0051: real time      0.0051


--------------------------------------- Ionic step        1  -------------------------------------------




--------------------------------------- Iteration      1(   1)  ---------------------------------------


    POTLOK:  cpu time      0.3145: real time      0.3186
    SETDIJ:  cpu time      2.4599: real time      2.4752
     EDDAV:  cpu time     77.3198: real time     78.0302
       DOS:  cpu time      0.0052: real time      0.0053
    --------------------------------------------
      LOOP:  cpu time     80.0995: real time     80.8293

 eigenvalue-minimisations  : 13824
 total energy-change (2. order) : 0.3651800E+04  (-0.3041655E+05)
 number of electron     720.0000000 magnetization       1.0000000
 augmentation part      720.0000000 magnetization       1.0000000

 Free energy of the ion-electron system (eV)
  ---------------------------------------------------
  alpha Z        PSCENC =      1205.67090968
  Ewald energy   TEWEN  =    -15441.95877181
  -Hartree energ DENC   =     -4372.02987397
  -exchange      EXHF   =         0.00000000
  -V(xc)+E(xc)   XCENC  =     -5351.30047339
  PAW double counting   =     19511.85949846   -12966.91288459
  entropy T*S    EENTRO =        -0.00245128
  eigenvalues    EBANDS =      2559.96811688
  atomic energy  EATOM  =     18506.50640686
  Solvation  Ediel_sol  =         0.00000000
  ---------------------------------------------------
  free energy    TOTEN  =      3651.80047685 eV

  energy without entropy =     3651.80292813  energy(sigma->0) =     3651.80170249


--------------------------------------------------------------------------------------------------------




--------------------------------------- Iteration      1(   2)  ---------------------------------------


     EDDAV:  cpu time     87.5967: real time     88.3920
       DOS:  cpu time      0.0046: real time      0.0047
    --------------------------------------------
      LOOP:  cpu time     87.6013: real time     88.3967

 eigenvalue-minimisations  : 16192
 total energy-change (2. order) :-0.3948377E+04  (-0.3824330E+04)
 number of electron     720.0000000 magnetization       1.0000000
 augmentation part      720.0000000 magnetization       1.0000000

 Free energy of the ion-electron system (eV)
  ---------------------------------------------------
  alpha Z        PSCENC =      1205.67090968
  Ewald energy   TEWEN  =    -15441.95877181
  -Hartree energ DENC   =     -4372.02987397
  -exchange      EXHF   =         0.00000000
  -V(xc)+E(xc)   XCENC  =     -5351.30047339
  PAW double counting   =     19511.85949846   -12966.91288459
  entropy T*S    EENTRO =        -0.00284942
  eigenvalues    EBANDS =     -1388.40809105
  atomic energy  EATOM  =     18506.50640686
  Solvation  Ediel_sol  =         0.00000000
  ---------------------------------------------------
  free energy    TOTEN  =      -296.57612922 eV

  energy without entropy =     -296.57327980  energy(sigma->0) =     -296.57470451


--------------------------------------------------------------------------------------------------------




--------------------------------------- Iteration      1(   3)  ---------------------------------------


     EDDAV:  cpu time     91.0469: real time     91.8557
       DOS:  cpu time      0.0047: real time      0.0047
    --------------------------------------------
      LOOP:  cpu time     91.0516: real time     91.8604

 eigenvalue-minimisations  : 16984
 total energy-change (2. order) :-0.4296436E+03  (-0.4146597E+03)
 number of electron     720.0000000 magnetization       1.0000000
 augmentation part      720.0000000 magnetization       1.0000000

 Free energy of the ion-electron system (eV)
  ---------------------------------------------------
  alpha Z        PSCENC =      1205.67090968
  Ewald energy   TEWEN  =    -15441.95877181
  -Hartree energ DENC   =     -4372.02987397
  -exchange      EXHF   =         0.00000000
  -V(xc)+E(xc)   XCENC  =     -5351.30047339
  PAW double counting   =     19511.85949846   -12966.91288459
  entropy T*S    EENTRO =        -0.00263728
  eigenvalues    EBANDS =     -1818.05191336
  atomic energy  EATOM  =     18506.50640686
  Solvation  Ediel_sol  =         0.00000000
  ---------------------------------------------------
  free energy    TOTEN  =      -726.21973939 eV

  energy without entropy =     -726.21710211  energy(sigma->0) =     -726.21842075


--------------------------------------------------------------------------------------------------------




--------------------------------------- Iteration      1(   4)  ---------------------------------------


     EDDAV:  cpu time     89.4217: real time     90.1949
       DOS:  cpu time      0.0061: real time      0.0061
    --------------------------------------------
      LOOP:  cpu time     89.4278: real time     90.2011

 eigenvalue-minimisations  : 16616
 total energy-change (2. order) :-0.1838296E+02  (-0.1797337E+02)
 number of electron     720.0000000 magnetization       1.0000000
 augmentation part      720.0000000 magnetization       1.0000000

 Free energy of the ion-electron system (eV)
  ---------------------------------------------------
  alpha Z        PSCENC =      1205.67090968
  Ewald energy   TEWEN  =    -15441.95877181
  -Hartree energ DENC   =     -4372.02987397
  -exchange      EXHF   =         0.00000000
  -V(xc)+E(xc)   XCENC  =     -5351.30047339
  PAW double counting   =     19511.85949846   -12966.91288459
  entropy T*S    EENTRO =        -0.00235177
  eigenvalues    EBANDS =     -1836.43515976
  atomic energy  EATOM  =     18506.50640686
  Solvation  Ediel_sol  =         0.00000000
  ---------------------------------------------------
  free energy    TOTEN  =      -744.60270028 eV

  energy without entropy =     -744.60034851  energy(sigma->0) =     -744.60152440


--------------------------------------------------------------------------------------------------------




--------------------------------------- Iteration      1(   5)  ---------------------------------------


     EDDAV:  cpu time     98.1624: real time     99.0138
       DOS:  cpu time      0.0055: real time      0.0056
    CHARGE:  cpu time      3.9255: real time      3.9634
    MIXING:  cpu time      0.0087: real time      0.0087
    --------------------------------------------
      LOOP:  cpu time    102.1020: real time    102.9914

 eigenvalue-minimisations  : 18648
 total energy-change (2. order) :-0.8587462E+00  (-0.8517833E+00)
 number of electron     719.9999996 magnetization       1.0000000
 augmentation part     -134.6243861 magnetization      -0.1341131

 Broyden mixing:
  rms(total) = 0.28397E+01    rms(broyden)= 0.28397E+01
  rms(prec ) = 0.31243E+01
  weight for this iteration     100.00

 Free energy of the ion-electron system (eV)
  ---------------------------------------------------
  alpha Z        PSCENC =      1205.67090968
  Ewald energy   TEWEN  =    -15441.95877181
  -Hartree energ DENC   =     -4372.02987397
  -exchange      EXHF   =         0.00000000
  -V(xc)+E(xc)   XCENC  =     -5351.30047339
  PAW double counting   =     19511.85949846   -12966.91288459
  entropy T*S    EENTRO =        -0.00214086
  eigenvalues    EBANDS =     -1837.29411684
  atomic energy  EATOM  =     18506.50640686
  Solvation  Ediel_sol  =         0.00000000
  ---------------------------------------------------
  free energy    TOTEN  =      -745.46144645 eV

  energy without entropy =     -745.45930559  energy(sigma->0) =     -745.46037602


--------------------------------------------------------------------------------------------------------




--------------------------------------- Iteration      1(   6)  ---------------------------------------


    POTLOK:  cpu time      0.2975: real time      0.3003
    SETDIJ:  cpu time      2.4747: real time      2.4916
     EDDAV:  cpu time    101.6049: real time    102.5687
       DOS:  cpu time      0.0051: real time      0.0051
    CHARGE:  cpu time      3.9162: real time      3.9521
    MIXING:  cpu time      0.0097: real time      0.0098
    --------------------------------------------
      LOOP:  cpu time    108.3081: real time    109.3276

 eigenvalue-minimisations  : 19464
 total energy-change (2. order) : 0.8931014E+01  (-0.2690122E+01)
 number of electron     719.9999996 magnetization       1.0000000
 augmentation part     -134.7121511 magnetization      -0.1012594

 Broyden mixing:
  rms(total) = 0.13969E+01    rms(broyden)= 0.13969E+01
  rms(prec ) = 0.16923E+01
  weight for this iteration     100.00

 eigenvalues of (default mixing * dielectric matrix)
  average eigenvalue GAMMA=   1.5349
  1.5349

 Free energy of the ion-electron system (eV)
  ---------------------------------------------------
  alpha Z        PSCENC =      1205.67090968
  Ewald energy   TEWEN  =    -15441.95877181
  -Hartree energ DENC   =     -4579.63737345
  -exchange      EXHF   =         0.00000000
  -V(xc)+E(xc)   XCENC  =     -5324.52602200
  PAW double counting   =     29390.82897165   -22863.87185843
  entropy T*S    EENTRO =        -0.00390159
  eigenvalues    EBANDS =     -1629.53879316
  atomic energy  EATOM  =     18506.50640686
  Solvation  Ediel_sol  =         0.00000000
  ---------------------------------------------------
  free energy    TOTEN  =      -736.53043225 eV

  energy without entropy =     -736.52653065  energy(sigma->0) =     -736.52848145


--------------------------------------------------------------------------------------------------------




--------------------------------------- Iteration      1(   7)  ---------------------------------------


    POTLOK:  cpu time      0.3003: real time      0.3030
    SETDIJ:  cpu time      2.5255: real time      2.5404
     EDDAV:  cpu time     96.4196: real time     97.3082
       DOS:  cpu time      0.0042: real time      0.0042
    CHARGE:  cpu time      3.9126: real time      3.9505
    MIXING:  cpu time      0.0094: real time      0.0095
    --------------------------------------------
      LOOP:  cpu time    103.1716: real time    104.1158

 eigenvalue-minimisations  : 18272
 total energy-change (2. order) : 0.1067557E+01  (-0.2200432E+01)
 number of electron     719.9999996 magnetization       1.0000000
 augmentation part     -133.5365388 magnetization      -0.1137373

 Broyden mixing:
  rms(total) = 0.77184E+00    rms(broyden)= 0.77184E+00
  rms(prec ) = 0.10861E+01
  weight for this iteration     100.00

 eigenvalues of (default mixing * dielectric matrix)
  average eigenvalue GAMMA=   1.1779
  1.8379  0.5179

 Free energy of the ion-electron system (eV)
  ---------------------------------------------------
  alpha Z        PSCENC =      1205.67090968
  Ewald energy   TEWEN  =    -15441.95877181
  -Hartree energ DENC   =     -4567.73453935
  -exchange      EXHF   =         0.00000000
  -V(xc)+E(xc)   XCENC  =     -5312.64033399
  PAW double counting   =     35308.91354610   -28791.43070454
  entropy T*S    EENTRO =        -0.00355454
  eigenvalues    EBANDS =     -1642.78583403
  atomic energy  EATOM  =     18506.50640686
  Solvation  Ediel_sol  =         0.00000000
  ---------------------------------------------------
  free energy    TOTEN  =      -735.46287563 eV

  energy without entropy =     -735.45932108  energy(sigma->0) =     -735.46109836


--------------------------------------------------------------------------------------------------------




--------------------------------------- Iteration      1(   8)  ---------------------------------------


    POTLOK:  cpu time      0.3005: real time      0.3029
    SETDIJ:  cpu time      2.5279: real time      2.5435
     EDDAV:  cpu time     87.4327: real time     88.2071
       DOS:  cpu time      0.0086: real time      0.0086
    CHARGE:  cpu time      3.9106: real time      3.9459
    MIXING:  cpu time      0.0100: real time      0.0100
    --------------------------------------------
      LOOP:  cpu time     94.1902: real time     95.0181

 eigenvalue-minimisations  : 16168
 total energy-change (2. order) : 0.1645833E+01  (-0.4665661E+00)
 number of electron     719.9999996 magnetization       1.0000000
 augmentation part     -133.5287395 magnetization      -0.1071994

 Broyden mixing:
  rms(total) = 0.15650E+00    rms(broyden)= 0.15650E+00
  rms(prec ) = 0.20699E+00
  weight for this iteration     100.00

 eigenvalues of (default mixing * dielectric matrix)
  average eigenvalue GAMMA=   1.1004
  1.8594  0.8972  0.5446

 Free energy of the ion-electron system (eV)
  ---------------------------------------------------
  alpha Z        PSCENC =      1205.67090968
  Ewald energy   TEWEN  =    -15441.95877181
  -Hartree energ DENC   =     -4639.75497930
  -exchange      EXHF   =         0.00000000
  -V(xc)+E(xc)   XCENC  =     -5302.07845615
  PAW double counting   =     41277.57936009   -34767.09048023
  entropy T*S    EENTRO =        -0.00296352
  eigenvalues    EBANDS =     -1572.68806799
  atomic energy  EATOM  =     18506.50640686
  Solvation  Ediel_sol  =         0.00000000
  ---------------------------------------------------
  free energy    TOTEN  =      -733.81704236 eV

  energy without entropy =     -733.81407884  energy(sigma->0) =     -733.81556060


--------------------------------------------------------------------------------------------------------




--------------------------------------- Iteration      1(   9)  ---------------------------------------


    POTLOK:  cpu time      0.2978: real time      0.3005
    SETDIJ:  cpu time      2.5308: real time      2.5465
     EDDAV:  cpu time     87.9653: real time     88.7589
       DOS:  cpu time      0.0061: real time      0.0061
    CHARGE:  cpu time      3.9074: real time      3.9439
    MIXING:  cpu time      0.0101: real time      0.0102
    --------------------------------------------
      LOOP:  cpu time     94.7174: real time     95.5661

 eigenvalue-minimisations  : 16280
 total energy-change (2. order) :-0.5792273E-01  (-0.1366514E+00)
 number of electron     719.9999996 magnetization       1.0000000
 augmentation part     -133.4761911 magnetization      -0.1017687

 Broyden mixing:
  rms(total) = 0.11091E+00    rms(broyden)= 0.11091E+00
  rms(prec ) = 0.15185E+00
  weight for this iteration     100.00

 eigenvalues of (default mixing * dielectric matrix)
  average eigenvalue GAMMA=   1.0825
  1.7977  1.4630  0.5346  0.5346

 Free energy of the ion-electron system (eV)
  ---------------------------------------------------
  alpha Z        PSCENC =      1205.67090968
  Ewald energy   TEWEN  =    -15441.95877181
  -Hartree energ DENC   =     -4638.94514147
  -exchange      EXHF   =         0.00000000
  -V(xc)+E(xc)   XCENC  =     -5301.95526735
  PAW double counting   =     41746.54492298   -35236.32156597
  entropy T*S    EENTRO =        -0.00294750
  eigenvalues    EBANDS =     -1573.41351050
  atomic energy  EATOM  =     18506.50640686
  Solvation  Ediel_sol  =         0.00000000
  ---------------------------------------------------
  free energy    TOTEN  =      -733.87496509 eV

[...]
   0.116E+02 0.302E+00 -.513E+02   -.125E+02 0.292E-01 0.517E+02   -.112E+00 -.760E+00 -.152E+01   0.588E-05 -.202E-03 0.100E-04
   -.393E+01 0.139E+02 -.335E+01   0.430E+01 -.141E+02 0.199E+01   -.221E+00 -.479E+00 0.101E+01   -.345E-04 -.144E-03 0.576E-04
   0.519E+01 0.130E+02 0.260E+02   -.515E+01 -.137E+02 -.257E+02   -.304E+00 -.644E+00 0.448E+00   0.550E-05 0.602E-05 0.415E-04
   0.276E+02 0.781E+01 -.698E+02   -.281E+02 -.800E+01 0.708E+02   -.168E+01 -.661E+00 0.306E-01   0.236E-04 0.732E-05 0.697E-04
   -.612E+01 0.124E+02 -.726E+01   0.709E+01 -.124E+02 0.630E+01   -.774E+00 -.938E+00 0.523E+00   -.709E-05 0.183E-03 0.820E-04
   0.103E+02 0.160E+02 0.388E+02   -.100E+02 -.158E+02 -.384E+02   -.309E+00 -.144E+01 -.757E-01   0.118E-04 0.144E-03 0.540E-04
   -.145E+01 -.590E+01 -.720E+02   0.193E+01 0.635E+01 0.729E+02   0.270E+00 -.456E+00 0.329E+00   -.658E-05 0.202E-03 0.100E-03
   -.594E+01 0.120E+02 0.194E+01   0.645E+01 -.124E+02 -.258E+01   -.295E+00 -.641E+00 -.800E-02   -.541E-04 -.527E-04 0.912E-04
   -.239E+01 0.871E+01 0.353E+02   0.158E+01 -.932E+01 -.356E+02   0.729E+00 -.141E+00 0.111E+01   0.466E-04 -.169E-03 0.419E-04
   0.661E+00 -.981E+01 -.287E+02   -.625E+00 0.102E+02 0.289E+02   0.835E+00 -.185E-01 -.147E+01   -.317E-04 -.183E-03 0.508E-04
   0.402E+01 -.131E+02 -.138E+01   -.464E+01 0.136E+02 0.182E+01   -.385E-01 0.232E+00 0.561E+00   -.332E-04 -.806E-04 0.193E-04
   0.219E+01 0.776E+01 0.634E+02   -.270E+01 -.739E+01 -.638E+02   -.825E+00 -.576E+00 -.184E+01   -.216E-04 0.125E-03 0.261E-04
   -.338E+01 -.112E+02 -.420E+02   0.354E+01 0.116E+02 0.428E+02   0.253E+00 0.173E+00 -.104E+01   -.257E-04 0.113E-03 0.231E-04
   0.704E+01 -.112E+02 0.149E+01   -.764E+01 0.118E+02 -.163E+01   0.157E+00 -.101E+00 0.140E+01   0.147E-04 0.225E-03 0.623E-04
   -.126E+02 0.887E+00 0.857E+02   0.128E+02 -.228E+00 -.869E+02   0.955E+00 -.507E+00 -.517E+01   0.102E-04 0.113E-03 0.365E-04
   -.106E+02 -.160E+02 -.330E+02   0.109E+02 0.170E+02 0.337E+02   -.318E-01 -.284E+00 -.153E+01   -.692E-05 0.775E-04 0.645E-04
   0.520E+01 -.127E+02 0.724E+01   -.557E+01 0.134E+02 -.699E+01   -.737E-01 -.103E+00 0.586E+00   0.549E-04 -.126E-03 0.101E-04
   -.288E+02 -.883E+01 0.658E+02   0.295E+02 0.923E+01 -.661E+02   0.222E+01 0.717E+00 -.268E+01   0.273E-04 -.234E-03 -.205E-05
 -----------------------------------------------------------------------------------------------
   0.747E+00 0.808E+01 0.268E+01   -.160E-12 0.586E-13 0.114E-11   -.104E+01 -.798E+01 -.269E+01   0.275E-04 -.386E-05 -.133E-02
 
 
 POSITION                                       TOTAL-FORCE (eV/Angst)
 -----------------------------------------------------------------------------------
     13.57294      9.79960      0.00000         0.186411      0.045001     -0.541436
     10.10825      9.79960      2.00034        -0.043434     -0.145584     -0.055650
      6.64357      9.79960      4.00067        -0.041129     -0.041909     -0.024902
      3.17889      9.79959      6.00101        -0.025430     -0.008876     -0.039427
     13.57293      9.79959      8.00134        -0.097190      0.068791     -0.044936
     10.10825      9.79959     10.00167         0.199507      0.103000      0.526984
      4.33379     13.06613      0.00000         0.396558      0.360143     -0.958311
      0.86910     13.06613      2.00034        -0.050973     -0.071520     -0.074845
     11.26315     13.06613      4.00067        -0.081116     -0.044008     -0.021760
      7.79846     13.06613      6.00100        -0.002528     -0.017158      0.004035
      4.33378     13.06613      8.00134        -0.277256     -0.160340      0.074248
      0.86910     13.06612     10.00167         1.418293      1.391402     -1.231623
      8.95336     16.33266      0.00000         0.063593      0.270470     -0.530325
      5.48868     16.33266      2.00034        -0.169356     -0.050652     -0.011064
      2.02400     16.33266      4.00067         0.026978      0.061456     -0.040338
     12.41804     16.33266      6.00100         0.002515      0.005750     -0.024254
      8.95336     16.33266      8.00134        -0.061278     -0.048343      0.001812
      5.48867     16.33266     10.00167        -0.484132      0.634755     -0.536718
     13.57294      0.00000      0.00000         0.550516      0.455598     -0.806307
     10.10825     19.59919      2.00034        -0.000887     -0.063770      0.154902
      6.64357     19.59919      4.00067        -0.056955     -0.037956     -0.012507
      3.17889     19.59919      6.00100        -0.067156     -0.048039      0.066184
     13.57293     19.59919      8.00134        -0.262570     -0.043618     -0.032548
     10.10825     19.59919     10.00167         0.553920      0.190259      0.796320
      4.33379      3.26653      0.00000         2.160907     -0.863007      2.612533
      0.86910      3.26653      2.00034        -0.102874     -0.085946     -0.140345
     11.26315      3.26653      4.00067        -0.075063     -0.043028      0.000347
      7.79846      3.26653      6.00100        -0.055938     -0.031942      0.055589
      4.33378      3.26653      8.00134        -0.037603     -0.057353     -0.053612
      0.86910      3.26653     10.00167         0.083143      0.597426      0.553017
      8.95336      6.53307      0.00000        -1.312087     -0.203123      3.801651
      5.48868      6.53306      2.00034         0.020601      0.127754     -0.004842
      2.02400      6.53306      4.00067        -0.015662     -0.051780      0.059723
     12.41804      6.53306      6.00100        -0.082099     -0.036647      0.117378
      8.95336      6.53306      8.00134         0.011078     -0.061975      0.105762
      5.48867      6.53306     10.00167         0.439894      0.717707      0.802998
      2.02400     16.33266      0.00000        -1.312087     -0.203123      3.801651
     12.41804     16.33266      2.00033         0.020601      0.127754     -0.004842
      8.95336     16.33266      4.00067        -0.015662     -0.051780      0.059723
      5.48868     16.33266      6.00101        -0.082099     -0.036647      0.117378
      2.02400     16.33266      8.00134         0.011078     -0.061975      0.105762
     12.41804     16.33266     10.00167         0.439894      0.717707      0.802998
      2.02400      6.53306      0.00000         0.063593      0.270470     -0.530325
     12.41804      6.53306      2.00034        -0.169356     -0.050652     -0.011064
      8.95336      6.53306      4.00067         0.026978      0.061456     -0.040338
      5.48868      6.53306      6.00101         0.002515      0.005750     -0.024254
      2.02400      6.53306      8.00134        -0.061278     -0.048343      0.001812
     12.41804      6.53306     10.00167        -0.484132      0.634755     -0.536718
      6.64357      9.79960      0.00000         0.550516      0.455598     -0.806307
      3.17889      9.79960      2.00034        -0.000887     -0.063770      0.154902
     13.57293      9.79960      4.00067        -0.056955     -0.037956     -0.012507
     10.10825      9.79959      6.00101        -0.067156     -0.048039      0.066184
      6.64357      9.79959      8.00134        -0.262570     -0.043618     -0.032548
      3.17889      9.79959     10.00167         0.553920      0.190259      0.796320
     11.26315     13.06613      0.00000         2.160907     -0.863007      2.612533
      7.79847     13.06613      2.00034        -0.102874     -0.085946     -0.140345
      4.33378     13.06613      4.00067        -0.075063     -0.043028      0.000347
      0.86910     13.06613      6.00101        -0.055938     -0.031942      0.055589
     11.26314     13.06613      8.00134        -0.037603     -0.057353     -0.053612
      7.79846     13.06612     10.00167         0.083143      0.597426      0.553017
      6.64357      0.00000      0.00000         0.186411      0.045001     -0.541436
      3.17889     19.59919      2.00034        -0.043434     -0.145584     -0.055650
     13.57293     19.59919      4.00067        -0.041129     -0.041909     -0.024902
     10.10825     19.59919      6.00101        -0.025430     -0.008876     -0.039427
      6.64357     19.59919      8.00134        -0.097190      0.068791     -0.044936
      3.17889     19.59919     10.00167         0.199507      0.103000      0.526984
     11.26315      3.26653      0.00000         0.396558      0.360143     -0.958311
      7.79847      3.26653      2.00034        -0.050973     -0.071520     -0.074845
      4.33378      3.26653      4.00067        -0.081116     -0.044008     -0.021760
      0.86910      3.26653      6.00101        -0.002528     -0.017158      0.004035
     11.26315      3.26653      8.00134        -0.277256     -0.160340      0.074248
      7.79846      3.26653     10.00167         1.418293      1.391402     -1.231623
      2.02400     13.88276      0.00000        -0.464930     -0.079919     -0.892717
     12.41804     13.88276      2.00034         0.126738      0.151156     -0.125485
      8.95336     13.88276      4.00067         0.023414      0.040530     -0.097189
      5.48868     13.88276      6.00101         0.060431      0.047393      0.118838
      2.02400     13.88276      8.00134         0.215022      0.119499     -0.118916
     12.41804     13.88276     10.00167        -0.083995     -0.500148      0.894936
      6.64357     17.14930      0.00000        -0.176573     -0.103131     -0.529414
      3.17889     17.14930      2.00034        -0.030527      0.036867      0.221292
     13.57293     17.14929      4.00067         0.022062     -0.020922      0.057274
     10.10825     17.14929      6.00101         0.051094      0.012289     -0.002173
      6.64357     17.14929      8.00134         0.155670      0.040750      0.077290
      3.17889     17.14929     10.00167        -0.203363     -0.108455      0.825571
      2.02400      4.08317      0.00000        -2.668170      1.127421      3.961624
     12.41804      4.08316      2.00034         0.041962      0.023132     -0.018713
      8.95336      4.08316      4.00067         0.039253      0.054040      0.055048
      5.48868      4.08316      6.00101         0.062924      0.064969     -0.033015
      2.02400      4.08316      8.00134        -0.006123      0.030468      0.093769
     12.41804      4.08316     10.00167        -0.901515     -1.086405     -1.261188
      6.64357      7.34970      0.00000        -0.500110     -0.132588     -1.147109
      3.17889      7.34970      2.00034         0.058104      0.073554     -0.114917
     13.57293      7.34970      4.00067         0.050452      0.062882     -0.107909
     10.10825      7.34969      6.00101         0.011886     -0.013273     -0.059434
      6.64357      7.34969      8.00134        -0.015886     -0.060091     -0.142969
      3.17889      7.34969     10.00167        -0.602190      0.042115      1.027586
     11.26315     10.61623      0.00000        -0.134742     -0.129521     -0.546178
      7.79847     10.61623      2.00034        -0.016856     -0.010724     -0.068986
      4.33378     10.61623      4.00067         0.013804     -0.001868     -0.006955
      0.86910     10.61623      6.00101         0.043499      0.048623      0.026569
     11.26315     10.61623      8.00134         0.141828      0.106695      0.095686
      7.79846     10.61623     10.00167        -0.189642     -0.170019      0.142875
     11.26315      0.81663      0.00000         1.400417      0.325497      2.302292
      7.79847      0.81663      2.00034         0.108058      0.087029     -0.025877
      4.33378      0.81663      4.00067         0.091287      0.068833     -0.036624
      0.86910      0.81663      6.00101         0.019229      0.019274      0.055276
     11.26315      0.81663      8.00134        -0.096242      0.089252      0.035990
      7.79846      0.81663     10.00167         0.089141     -0.582635     -0.077422
     13.57294     17.14930      0.00000        -0.500110     -0.132588     -1.147109
     10.10825     17.14929      2.00033         0.058104      0.073554     -0.114917
      6.64357     17.14929      4.00067         0.050452      0.062882     -0.107909
      3.17889     17.14929      6.00101         0.011886     -0.013273     -0.059434
     13.57293     17.14929      8.00134        -0.015886     -0.060091     -0.142969
     10.10825     17.14929     10.00167        -0.602190      0.042115      1.027586
     13.57294      7.34970      0.00000        -0.176573     -0.103131     -0.529414
     10.10825      7.34970      2.00034        -0.030527      0.036867      0.221292
      6.64357      7.34970      4.00067         0.022062     -0.020922      0.057274
      3.17889      7.34969      6.00100         0.051094      0.012289     -0.002173
     13.57293      7.34969      8.00134         0.155670      0.040750      0.077290
     10.10825      7.34969     10.00167        -0.203363     -0.108455      0.825571
      4.33379     10.61623      0.00000         1.400417      0.325497      2.302292
      0.86910     10.61623      2.00034         0.108058      0.087029     -0.025877
     11.26315     10.61623      4.00067         0.091287      0.068833     -0.036624
      7.79846     10.61623      6.00101         0.019229      0.019274      0.055276
      4.33378     10.61623      8.00134        -0.096242      0.089252      0.035990
      0.86910     10.61623     10.00167         0.089141     -0.582635     -0.077422
      8.95336     13.88276      0.00000        -2.668170      1.127421      3.961624
      5.48868     13.88276      2.00034         0.041962      0.023132     -0.018713
      2.02400     13.88276      4.00067         0.039253      0.054040      0.055048
     12.41804     13.88276      6.00100         0.062924      0.064969     -0.033015
      8.95336     13.88276      8.00134        -0.006123      0.030468      0.093769
      5.48867     13.88276     10.00167        -0.901515     -1.086405     -1.261188
      4.33379      0.81663      0.00000        -0.134742     -0.129521     -0.546178
      0.86910      0.81663      2.00034        -0.016856     -0.010724     -0.068986
     11.26315      0.81663      4.00067         0.013804     -0.001868     -0.006955
      7.79846      0.81663      6.00101         0.043499      0.048623      0.026569
      4.33378      0.81663      8.00134         0.141828      0.106695      0.095686
      0.86910      0.81663     10.00167        -0.189642     -0.170019      0.142875
      8.95336      4.08317      0.00000        -0.464930     -0.079919     -0.892717
      5.48868      4.08316      2.00034         0.126738      0.151156     -0.125485
      2.02400      4.08316      4.00067         0.023414      0.040530     -0.097189
     12.41804      4.08316      6.00101         0.060431      0.047393      0.118838
      8.95336      4.08316      8.00134         0.215022      0.119499     -0.118916
      5.48867      4.08316     10.00167        -0.083995     -0.500148      0.894936
      6.59203     15.09863     11.98862         0.750597     -0.003998      1.174246
      3.82028     11.83210     13.43965         0.217792     -0.952008     -0.651465
      1.04854      8.56557     14.89068        -0.077899     -0.753997      0.847070
      6.59203      8.56557     11.98862        -0.974076     -0.429521     -1.140205
      3.82028      5.29904     13.43965         0.152089     -0.687574     -0.347384
      1.04854      2.03250     14.89068        -0.264604     -1.306360      0.828883
      6.59203      2.03251     11.98862        -2.111616     -0.848614      1.112691
      3.82028     18.36517     13.43965         0.200521     -0.936708     -0.437359
      1.04854     15.09863     14.89068        -0.010207     -1.245141      0.242720
      1.74148      0.39924     12.71413         0.413998      0.632302     -0.170231
     12.82846     16.73190     14.16516        -0.440877      0.567669      1.254959
     10.05671     13.46537     15.61619         1.080963      0.152155     -6.355021
      1.74148     13.46537     12.71413         0.283423      0.715036     -0.795718
     12.82846     10.19883     14.16516        -0.438194      0.595038      0.827072
     10.05671      6.93230     15.61619         2.887904      1.120707     -3.059259
      1.74148      6.93230     12.71413         0.872330      0.396481     -1.242369
     12.82846      3.66577     14.16516        -0.650585      0.709121      1.002603
     10.05671      0.39924     15.61619        -1.338171     -0.210101     -2.217688
     13.52139     18.36516     11.98862        -0.974076     -0.429521     -1.140205
     10.74965     15.09863     13.43965         0.152089     -0.687574     -0.347384
      7.97790     11.83210     14.89068        -0.264604     -1.306360      0.828883
     13.52139     11.83210     11.98862        -2.111616     -0.848614      1.112691
     10.74965      8.56557     13.43965         0.200521     -0.936708     -0.437359
      7.97790      5.29903     14.89068        -0.010207     -1.245141      0.242720
     13.52139      5.29904     11.98862         0.750597     -0.003998      1.174246
     10.74965      2.03250     13.43965         0.217792     -0.952008     -0.651465
      7.97790     18.36517     14.89068        -0.077899     -0.753997      0.847070
      8.67084     16.73190     12.71413         0.872330      0.396481     -1.242369
      5.89909     13.46537     14.16516        -0.650585      0.709121      1.002603
      3.12735     10.19883     15.61619        -1.338171     -0.210101     -2.217688
      8.67084     10.19884     12.71413         0.413998      0.632302     -0.170231
      5.89909      6.93230     14.16516        -0.440877      0.567669      1.254959
      3.12735      3.66577     15.61619         1.080963      0.152155     -6.355021
      8.67084      3.66577     12.71413         0.283423      0.715036     -0.795718
      5.89909      0.39924     14.16516        -0.438194      0.595038      0.827072
      3.12735     16.73190     15.61619         2.887904      1.120707     -3.059259
 -----------------------------------------------------------------------------------
    total drift:                               -0.292088      0.103766     -0.012460


--------------------------------------------------------------------------------------------------------



  FREE ENERGIE OF THE ION-ELECTRON SYSTEM (eV)
  ---------------------------------------------------
  free  energy   TOTEN  =      -733.86021485 eV

  energy  without entropy=     -733.85716736  energy(sigma->0) =     -733.85869110
 


--------------------------------------------------------------------------------------------------------


    POTLOK:  cpu time      2.7557: real time      2.7724


--------------------------------------------------------------------------------------------------------


     LOOP+:  cpu time   2091.4295: real time   2111.0248
    4ORBIT:  cpu time      0.0000: real time      0.0000

 total amount of memory used by VASP MPI-rank0   452235. kBytes
=======================================================================

   base      :      30000. kBytes
   nonlr-proj:      18814. kBytes
   fftplans  :      29415. kBytes
   grid      :      22241. kBytes
   one-center:        194. kBytes
   wavefun   :     351571. kBytes
 
  
  
 General timing and accounting informations for this job:
 ========================================================
  
                  Total CPU time used (sec):     2253.733
                            User time (sec):     2155.976
                          System time (sec):       97.758
                         Elapsed time (sec):     2277.991
  
                   Maximum memory used (kb):      762324.
                   Average memory used (kb):          N/A
  
                          Minor page faults:       242600
                          Major page faults:           46
                 Voluntary context switches:         2325
