 120 120   0   0
  0.2425665E+02  0.1629300E-08  0.1717433E-08  0.1040234E-08  0.5000000E-15
  1.000000000000000E-004
  CAR 
 Si and Ge interface calculation         
      6.21500022     -9.11567617  301      3.61610524      1.00000000
     -9.116  0.0000E+00  0.0000E+00  0.0000E+00  0.0000E+00
     -9.065  0.0000E+00  0.0000E+00  0.0000E+00  0.0000E+00
     -9.013  0.0000E+00  0.0000E+00  0.0000E+00  0.0000E+00
     -8.962  0.0000E+00  0.0000E+00  0.0000E+00  0.0000E+00
     -8.911  0.0000E+00  0.0000E+00  0.0000E+00  0.0000E+00
     -8.860  0.0000E+00  0.0000E+00  0.0000E+00  0.0000E+00
     -8.809  0.0000E+00  0.0000E+00  0.0000E+00  0.0000E+00
     -8.758  0.0000E+00  0.0000E+00  0.0000E+00  0.0000E+00
     -8.707  0.0000E+00  0.0000E+00  0.0000E+00  0.0000E+00
     -8.656  0.0000E+00  0.0000E+00  0.0000E+00  0.0000E+00
     -8.605  0.0000E+00  0.0000E+00  0.0000E+00  0.0000E+00
     -8.554  0.0000E+00  0.0000E+00  0.0000E+00  0.0000E+00
     -8.502  0.0000E+00  0.0000E+00  0.0000E+00  0.0000E+00
     -8.451  0.6924E-05  0.1012E-06  0.3538E-06  0.5173E-08
     -8.400  0.5695E+01  0.4623E+01  0.2910E+00  0.2362E+00
     -8.349  0.6403E+01  0.5699E+01  0.6182E+00  0.5274E+00
     -8.298  0.1896E+02  0.1813E+02  0.1587E+01  0.1454E+01
     -8.247  0.1456E+02  0.1690E+02  0.2331E+01  0.2318E+01
     -8.196  0.4261E+01  0.3007E+01  0.2549E+01  0.2471E+01
     -8.145  0.3106E+02  0.3080E+02  0.4136E+01  0.4045E+01
     -8.094  0.1502E+02  0.1403E+02  0.4904E+01  0.4762E+01
     -8.043  0.8411E+01  0.1115E+02  0.5334E+01  0.5331E+01
     -7.991  0.1907E+02  0.1749E+02  0.6308E+01  0.6225E+01
     -7.940  0.2325E+02  0.1710E+02  0.7496E+01  0.7099E+01
     -7.889  0.9855E+01  0.1763E+02  0.8000E+01  0.8000E+01
     -7.838  0.1759E+02  0.1369E+02  0.8899E+01  0.8700E+01
     -7.787  0.2034E+02  0.2142E+02  0.9938E+01  0.9794E+01
     -7.736  0.2529E+02  0.2222E+02  0.1123E+02  0.1093E+02
     -7.685  0.1521E+02  0.2096E+02  0.1201E+02  0.1200E+02
     -7.634  0.1896E+02  0.1745E+02  0.1298E+02  0.1289E+02
     -7.583  0.3270E+02  0.2857E+02  0.1465E+02  0.1435E+02
     -7.532  0.7118E+01  0.1270E+02  0.1501E+02  0.1500E+02
     -7.480  0.6435E+01  0.6456E+01  0.1534E+02  0.1533E+02
     -7.429  0.1260E+02  0.1082E+02  0.1598E+02  0.1588E+02
     -7.378  0.2018E+02  0.1974E+02  0.1702E+02  0.1689E+02
     -7.327  0.4130E+02  0.3924E+02  0.1913E+02  0.1890E+02
     -7.276  0.3585E+02  0.3818E+02  0.2096E+02  0.2085E+02
     -7.225  0.2479E+02  0.1863E+02  0.2223E+02  0.2180E+02
     -7.174  0.3122E+02  0.3674E+02  0.2382E+02  0.2368E+02
     -7.123  0.3199E+02  0.3265E+02  0.2546E+02  0.2535E+02
     -7.072  0.2519E+02  0.2210E+02  0.2674E+02  0.2648E+02
     -7.020  0.3555E+02  0.3386E+02  0.2856E+02  0.2821E+02
     -6.969  0.3286E+02  0.3385E+02  0.3024E+02  0.2994E+02
     -6.918  0.3155E+02  0.3348E+02  0.3185E+02  0.3165E+02
     -6.867  0.3784E+02  0.3778E+02  0.3378E+02  0.3358E+02
     -6.816  0.1950E+02  0.2058E+02  0.3478E+02  0.3463E+02
     -6.765  0.4644E+02  0.4789E+02  0.3715E+02  0.3708E+02
     -6.714  0.3360E+02  0.3038E+02  0.3887E+02  0.3863E+02
     -6.663  0.2084E+02  0.1959E+02  0.3994E+02  0.3963E+02
     -6.612  0.2859E+02  0.3193E+02  0.4140E+02  0.4126E+02
     -6.561  0.3496E+02  0.3061E+02  0.4318E+02  0.4283E+02
     -6.509  0.3250E+02  0.3138E+02  0.4484E+02  0.4443E+02
     -6.458  0.3328E+02  0.3335E+02  0.4655E+02  0.4614E+02
     -6.407  0.4047E+02  0.4177E+02  0.4861E+02  0.4827E+02
     -6.356  0.3327E+02  0.3627E+02  0.5031E+02  0.5012E+02
     -6.305  0.2300E+02  0.2129E+02  0.5149E+02  0.5121E+02
     -6.254  0.4609E+02  0.4510E+02  0.5384E+02  0.5352E+02
     -6.203  0.3693E+02  0.3368E+02  0.5573E+02  0.5524E+02
     -6.152  0.4152E+02  0.4912E+02  0.5785E+02  0.5775E+02
     -6.101  0.3539E+02  0.3413E+02  0.5966E+02  0.5949E+02
     -6.050  0.2941E+02  0.2466E+02  0.6117E+02  0.6075E+02
     -5.998  0.4214E+02  0.4748E+02  0.6332E+02  0.6318E+02
     -5.947  0.4844E+02  0.4674E+02  0.6579E+02  0.6557E+02
     -5.896  0.3981E+02  0.3625E+02  0.6783E+02  0.6742E+02
     -5.845  0.3620E+02  0.3954E+02  0.6968E+02  0.6944E+02
     -5.794  0.3186E+02  0.3444E+02  0.7131E+02  0.7120E+02
     -5.743  0.2926E+02  0.2812E+02  0.7280E+02  0.7264E+02
     -5.692  0.3735E+02  0.3397E+02  0.7471E+02  0.7437E+02
     -5.641  0.4120E+02  0.3834E+02  0.7682E+02  0.7633E+02
     -5.590  0.4045E+02  0.4344E+02  0.7888E+02  0.7855E+02
     -5.539  0.3773E+02  0.3650E+02  0.8081E+02  0.8042E+02
     -5.487  0.3504E+02  0.3893E+02  0.8260E+02  0.8241E+02
     -5.436  0.3347E+02  0.3374E+02  0.8431E+02  0.8413E+02
     -5.385  0.4464E+02  0.4173E+02  0.8659E+02  0.8626E+02
     -5.334  0.3020E+02  0.3426E+02  0.8814E+02  0.8801E+02
     -5.283  0.2294E+02  0.2174E+02  0.8931E+02  0.8912E+02
     -5.232  0.3980E+02  0.3718E+02  0.9134E+02  0.9102E+02
     -5.181  0.3108E+02  0.3348E+02  0.9293E+02  0.9274E+02
     -5.130  0.5210E+02  0.5237E+02  0.9559E+02  0.9541E+02
     -5.079  0.2337E+02  0.2321E+02  0.9679E+02  0.9660E+02
     -5.027  0.3395E+02  0.3464E+02  0.9852E+02  0.9837E+02
     -4.976  0.3846E+02  0.3298E+02  0.1005E+03  0.1001E+03
     -4.925  0.3321E+02  0.3830E+02  0.1022E+03  0.1020E+03
     -4.874  0.1521E+02  0.1230E+02  0.1030E+03  0.1026E+03
     -4.823  0.4018E+02  0.4266E+02  0.1050E+03  0.1048E+03
     -4.772  0.4200E+02  0.3785E+02  0.1072E+03  0.1068E+03
     -4.721  0.3426E+02  0.3621E+02  0.1089E+03  0.1086E+03
     -4.670  0.2817E+02  0.3335E+02  0.1104E+03  0.1103E+03
     -4.619  0.4298E+02  0.3943E+02  0.1125E+03  0.1123E+03
     -4.568  0.2481E+02  0.2511E+02  0.1138E+03  0.1136E+03
     -4.516  0.3032E+02  0.3023E+02  0.1154E+03  0.1152E+03
     -4.465  0.3482E+02  0.3510E+02  0.1171E+03  0.1169E+03
     -4.414  0.3835E+02  0.3804E+02  0.1191E+03  0.1189E+03
     -4.363  0.3170E+02  0.3338E+02  0.1207E+03  0.1206E+03
     -4.312  0.4113E+02  0.3564E+02  0.1228E+03  0.1224E+03
     -4.261  0.3748E+02  0.3703E+02  0.1247E+03  0.1243E+03
     -4.210  0.3121E+02  0.3758E+02  0.1263E+03  0.1262E+03
     -4.159  0.2609E+02  0.2448E+02  0.1277E+03  0.1275E+03
     -4.108  0.3204E+02  0.3246E+02  0.1293E+03  0.1291E+03
     -4.057  0.1613E+02  0.1696E+02  0.1301E+03  0.1300E+03
     -4.005  0.2143E+02  0.2085E+02  0.1312E+03  0.1311E+03
     -3.954  0.1490E+02  0.1542E+02  0.1320E+03  0.1319E+03
     -3.903  0.5024E+02  0.4867E+02  0.1346E+03  0.1343E+03
     -3.852  0.1945E+02  0.2119E+02  0.1356E+03  0.1354E+03
     -3.801  0.2800E+02  0.2833E+02  0.1370E+03  0.1369E+03
     -3.750  0.1970E+02  0.2026E+02  0.1380E+03  0.1379E+03
     -3.699  0.1453E+02  0.1084E+02  0.1387E+03  0.1385E+03
     -3.648  0.2130E+02  0.2374E+02  0.1398E+03  0.1397E+03
     -3.597  0.3979E+02  0.3973E+02  0.1419E+03  0.1417E+03
     -3.546  0.2489E+02  0.2506E+02  0.1431E+03  0.1430E+03
     -3.494  0.3095E+02  0.2831E+02  0.1447E+03  0.1444E+03
     -3.443  0.4401E+02  0.4121E+02  0.1470E+03  0.1465E+03
     -3.392  0.1468E+02  0.2210E+02  0.1477E+03  0.1477E+03
     -3.341  0.2566E+02  0.2265E+02  0.1490E+03  0.1488E+03
     -3.290  0.4486E+02  0.3962E+02  0.1513E+03  0.1509E+03
     -3.239  0.3967E+02  0.4289E+02  0.1533E+03  0.1530E+03
     -3.188  0.2944E+02  0.2653E+02  0.1548E+03  0.1544E+03
     -3.137  0.3231E+02  0.3087E+02  0.1565E+03  0.1560E+03
     -3.086  0.2914E+02  0.3703E+02  0.1580E+03  0.1579E+03
     -3.035  0.2538E+02  0.2332E+02  0.1593E+03  0.1591E+03
     -2.983  0.4301E+02  0.4333E+02  0.1615E+03  0.1613E+03
     -2.932  0.2940E+02  0.2775E+02  0.1630E+03  0.1627E+03
     -2.881  0.3268E+02  0.3503E+02  0.1646E+03  0.1645E+03
     -2.830  0.4631E+02  0.4025E+02  0.1670E+03  0.1665E+03
     -2.779  0.5003E+02  0.5297E+02  0.1696E+03  0.1692E+03
     -2.728  0.2085E+02  0.2335E+02  0.1706E+03  0.1704E+03
     -2.677  0.2751E+02  0.2873E+02  0.1720E+03  0.1719E+03
     -2.626  0.3734E+02  0.3399E+02  0.1740E+03  0.1736E+03
     -2.575  0.2872E+02  0.3266E+02  0.1754E+03  0.1753E+03
     -2.523  0.3403E+02  0.2941E+02  0.1772E+03  0.1768E+03
     -2.472  0.2176E+02  0.2561E+02  0.1783E+03  0.1781E+03
     -2.421  0.3310E+02  0.3073E+02  0.1800E+03  0.1797E+03
     -2.370  0.4879E+02  0.4376E+02  0.1825E+03  0.1819E+03
     -2.319  0.4267E+02  0.4576E+02  0.1846E+03  0.1843E+03
     -2.268  0.2977E+02  0.3217E+02  0.1862E+03  0.1859E+03
     -2.217  0.4564E+02  0.4217E+02  0.1885E+03  0.1881E+03
     -2.166  0.3449E+02  0.3860E+02  0.1903E+03  0.1900E+03
     -2.115  0.2984E+02  0.2860E+02  0.1918E+03  0.1915E+03
     -2.064  0.6298E+02  0.6224E+02  0.1950E+03  0.1947E+03
     -2.012  0.2072E+02  0.2286E+02  0.1961E+03  0.1959E+03
     -1.961  0.3628E+02  0.3354E+02  0.1979E+03  0.1976E+03
     -1.910  0.2161E+02  0.2777E+02  0.1990E+03  0.1990E+03
     -1.859  0.4331E+02  0.3569E+02  0.2012E+03  0.2008E+03
     -1.808  0.3769E+02  0.4040E+02  0.2032E+03  0.2029E+03
     -1.757  0.3427E+02  0.3519E+02  0.2049E+03  0.2047E+03
     -1.706  0.3112E+02  0.3208E+02  0.2065E+03  0.2063E+03
     -1.655  0.2493E+02  0.2630E+02  0.2078E+03  0.2077E+03
     -1.604  0.2144E+02  0.2130E+02  0.2089E+03  0.2087E+03
     -1.553  0.2227E+02  0.2056E+02  0.2100E+03  0.2098E+03
     -1.501  0.3635E+02  0.3469E+02  0.2119E+03  0.2116E+03
     -1.450  0.2736E+02  0.2993E+02  0.2133E+03  0.2131E+03
     -1.399  0.2827E+02  0.2834E+02  0.2147E+03  0.2145E+03
     -1.348  0.2407E+02  0.2550E+02  0.2159E+03  0.2159E+03
     -1.297  0.2170E+02  0.1875E+02  0.2170E+03  0.2168E+03
     -1.246  0.1939E+02  0.1948E+02  0.2180E+03  0.2178E+03
     -1.195  0.1948E+02  0.1624E+02  0.2190E+03  0.2186E+03
     -1.144  0.4553E+02  0.4954E+02  0.2214E+03  0.2212E+03
     -1.093  0.3427E+02  0.3272E+02  0.2231E+03  0.2228E+03
     -1.042  0.3400E+02  0.3711E+02  0.2248E+03  0.2247E+03
     -0.990  0.1761E+02  0.1668E+02  0.2257E+03  0.2256E+03
     -0.939  0.3133E+02  0.2903E+02  0.2273E+03  0.2271E+03
     -0.888  0.1020E+02  0.1497E+02  0.2279E+03  0.2278E+03
     -0.837  0.2031E+02  0.1974E+02  0.2289E+03  0.2288E+03
     -0.786  0.1170E+02  0.1282E+02  0.2295E+03  0.2295E+03
     -0.735  0.9124E+01  0.6882E+01  0.2300E+03  0.2299E+03
     -0.684  0.1794E+02  0.1931E+02  0.2309E+03  0.2308E+03
     -0.633  0.1594E+02  0.1290E+02  0.2317E+03  0.2315E+03
     -0.582  0.6795E+01  0.9906E+01  0.2320E+03  0.2320E+03
     -0.530  0.3277E+02  0.2857E+02  0.2337E+03  0.2335E+03
     -0.479  0.1024E+02  0.1398E+02  0.2342E+03  0.2342E+03
     -0.428  0.1626E+02  0.1632E+02  0.2351E+03  0.2350E+03
     -0.377  0.1571E+02  0.1410E+02  0.2359E+03  0.2357E+03
     -0.326  0.3722E+02  0.3402E+02  0.2378E+03  0.2375E+03
     -0.275  0.3637E+02  0.3457E+02  0.2396E+03  0.2392E+03
     -0.224  0.5479E+02  0.5641E+02  0.2424E+03  0.2421E+03
     -0.173  0.4209E+02  0.4314E+02  0.2446E+03  0.2443E+03
     -0.122  0.5567E+02  0.5236E+02  0.2474E+03  0.2470E+03
     -0.071  0.6818E+02  0.7109E+02  0.2509E+03  0.2506E+03
     -0.019  0.5826E+02  0.5387E+02  0.2539E+03  0.2534E+03
      0.032  0.7375E+02  0.7423E+02  0.2577E+03  0.2572E+03
      0.083  0.5666E+02  0.5836E+02  0.2606E+03  0.2602E+03
      0.134  0.6945E+02  0.6683E+02  0.2641E+03  0.2636E+03
      0.185  0.7121E+02  0.7316E+02  0.2677E+03  0.2673E+03
      0.236  0.6233E+02  0.6514E+02  0.2709E+03  0.2706E+03
      0.287  0.7419E+02  0.6936E+02  0.2747E+03  0.2742E+03
      0.338  0.6746E+02  0.6781E+02  0.2782E+03  0.2777E+03
      0.389  0.7548E+02  0.7809E+02  0.2820E+03  0.2816E+03
      0.440  0.5796E+02  0.5972E+02  0.2850E+03  0.2847E+03
      0.492  0.7159E+02  0.6853E+02  0.2886E+03  0.2882E+03
      0.543  0.5745E+02  0.5785E+02  0.2916E+03  0.2912E+03
      0.594  0.7547E+02  0.7687E+02  0.2954E+03  0.2951E+03
      0.645  0.6846E+02  0.5921E+02  0.2989E+03  0.2981E+03
      0.696  0.7005E+02  0.7670E+02  0.3025E+03  0.3020E+03
      0.747  0.7204E+02  0.7106E+02  0.3062E+03  0.3057E+03
      0.798  0.6147E+02  0.6012E+02  0.3093E+03  0.3087E+03
      0.849  0.7732E+02  0.7994E+02  0.3133E+03  0.3128E+03
      0.900  0.6563E+02  0.6863E+02  0.3166E+03  0.3163E+03
      0.951  0.8174E+02  0.7832E+02  0.3208E+03  0.3203E+03
      1.003  0.6806E+02  0.6651E+02  0.3243E+03  0.3237E+03
      1.054  0.6709E+02  0.6830E+02  0.3277E+03  0.3272E+03
      1.105  0.4743E+02  0.5330E+02  0.3302E+03  0.3299E+03
      1.156  0.6892E+02  0.6147E+02  0.3337E+03  0.3331E+03
      1.207  0.7753E+02  0.8104E+02  0.3376E+03  0.3372E+03
      1.258  0.7162E+02  0.6968E+02  0.3413E+03  0.3408E+03
      1.309  0.7134E+02  0.7273E+02  0.3449E+03  0.3445E+03
      1.360  0.4968E+02  0.5207E+02  0.3475E+03  0.3472E+03
      1.411  0.5582E+02  0.5333E+02  0.3503E+03  0.3499E+03
      1.462  0.7821E+02  0.7829E+02  0.3543E+03  0.3539E+03
      1.514  0.7378E+02  0.7468E+02  0.3581E+03  0.3577E+03
      1.565  0.5991E+02  0.5730E+02  0.3612E+03  0.3606E+03
      1.616  0.6242E+02  0.6068E+02  0.3644E+03  0.3637E+03
      1.667  0.4747E+02  0.5346E+02  0.3668E+03  0.3665E+03
      1.718  0.5901E+02  0.5917E+02  0.3698E+03  0.3695E+03
      1.769  0.7944E+02  0.7443E+02  0.3739E+03  0.3733E+03
      1.820  0.7367E+02  0.7260E+02  0.3776E+03  0.3770E+03
      1.871  0.4507E+02  0.5056E+02  0.3799E+03  0.3796E+03
      1.922  0.6454E+02  0.6522E+02  0.3832E+03  0.3829E+03
      1.974  0.5373E+02  0.5328E+02  0.3860E+03  0.3856E+03
      2.025  0.6634E+02  0.6392E+02  0.3894E+03  0.3889E+03
      2.076  0.5902E+02  0.5621E+02  0.3924E+03  0.3918E+03
      2.127  0.6014E+02  0.6437E+02  0.3954E+03  0.3951E+03
      2.178  0.8151E+02  0.7480E+02  0.3996E+03  0.3989E+03
      2.229  0.5516E+02  0.6104E+02  0.4024E+03  0.4020E+03
      2.280  0.7292E+02  0.6806E+02  0.4062E+03  0.4055E+03
      2.331  0.5795E+02  0.6399E+02  0.4091E+03  0.4088E+03
      2.382  0.7599E+02  0.7248E+02  0.4130E+03  0.4125E+03
      2.433  0.5882E+02  0.5471E+02  0.4160E+03  0.4153E+03
      2.485  0.6176E+02  0.6824E+02  0.4192E+03  0.4187E+03
      2.536  0.5702E+02  0.5250E+02  0.4221E+03  0.4214E+03
      2.587  0.5922E+02  0.5742E+02  0.4251E+03  0.4244E+03
      2.638  0.5789E+02  0.6205E+02  0.4281E+03  0.4275E+03
      2.689  0.4265E+02  0.4609E+02  0.4302E+03  0.4299E+03
      2.740  0.4418E+02  0.3905E+02  0.4325E+03  0.4319E+03
      2.791  0.6166E+02  0.6138E+02  0.4356E+03  0.4350E+03
      2.842  0.5149E+02  0.5920E+02  0.4383E+03  0.4380E+03
      2.893  0.5504E+02  0.4248E+02  0.4411E+03  0.4402E+03
      2.944  0.4990E+02  0.6101E+02  0.4436E+03  0.4433E+03
      2.996  0.4627E+02  0.4392E+02  0.4460E+03  0.4456E+03
      3.047  0.4732E+02  0.4732E+02  0.4484E+03  0.4480E+03
      3.098  0.4126E+02  0.3263E+02  0.4505E+03  0.4497E+03
      3.149  0.5603E+02  0.6086E+02  0.4534E+03  0.4528E+03
      3.200  0.6083E+02  0.5690E+02  0.4565E+03  0.4557E+03
      3.251  0.5766E+02  0.5959E+02  0.4595E+03  0.4587E+03
      3.302  0.4122E+02  0.4477E+02  0.4616E+03  0.4610E+03
      3.353  0.7030E+02  0.6467E+02  0.4651E+03  0.4643E+03
      3.404  0.5402E+02  0.5850E+02  0.4679E+03  0.4673E+03
      3.455  0.5722E+02  0.5310E+02  0.4708E+03  0.4700E+03
      3.507  0.5095E+02  0.5282E+02  0.4734E+03  0.4727E+03
      3.558  0.5553E+02  0.5554E+02  0.4763E+03  0.4756E+03
      3.609  0.6647E+02  0.5874E+02  0.4797E+03  0.4786E+03
      3.660  0.3575E+02  0.4309E+02  0.4815E+03  0.4808E+03
      3.711  0.5769E+02  0.5504E+02  0.4844E+03  0.4836E+03
      3.762  0.5417E+02  0.5278E+02  0.4872E+03  0.4863E+03
      3.813  0.5445E+02  0.5495E+02  0.4900E+03  0.4891E+03
      3.864  0.6929E+02  0.7478E+02  0.4935E+03  0.4929E+03
      3.915  0.3463E+02  0.3202E+02  0.4953E+03  0.4945E+03
      3.967  0.5383E+02  0.5274E+02  0.4981E+03  0.4972E+03
      4.018  0.5720E+02  0.5884E+02  0.5010E+03  0.5002E+03
      4.069  0.5407E+02  0.6058E+02  0.5037E+03  0.5033E+03
      4.120  0.5407E+02  0.5025E+02  0.5065E+03  0.5059E+03
      4.171  0.5960E+02  0.5882E+02  0.5096E+03  0.5089E+03
      4.222  0.4467E+02  0.4921E+02  0.5118E+03  0.5114E+03
      4.273  0.5044E+02  0.4823E+02  0.5144E+03  0.5139E+03
      4.324  0.5627E+02  0.5097E+02  0.5173E+03  0.5165E+03
      4.375  0.3964E+02  0.4289E+02  0.5193E+03  0.5187E+03
      4.426  0.5416E+02  0.5290E+02  0.5221E+03  0.5214E+03
      4.478  0.3786E+02  0.4365E+02  0.5240E+03  0.5236E+03
      4.529  0.6105E+02  0.5370E+02  0.5271E+03  0.5264E+03
      4.580  0.4167E+02  0.5217E+02  0.5293E+03  0.5290E+03
      4.631  0.5943E+02  0.5045E+02  0.5323E+03  0.5316E+03
      4.682  0.5117E+02  0.5487E+02  0.5349E+03  0.5344E+03
      4.733  0.6310E+02  0.5701E+02  0.5381E+03  0.5373E+03
      4.784  0.5236E+02  0.5456E+02  0.5408E+03  0.5401E+03
      4.835  0.4333E+02  0.5020E+02  0.5430E+03  0.5427E+03
      4.886  0.4816E+02  0.4300E+02  0.5455E+03  0.5449E+03
      4.937  0.6165E+02  0.6418E+02  0.5486E+03  0.5482E+03
      4.989  0.4865E+02  0.4362E+02  0.5511E+03  0.5504E+03
      5.040  0.4659E+02  0.5353E+02  0.5535E+03  0.5531E+03
      5.091  0.6910E+02  0.6401E+02  0.5570E+03  0.5564E+03
      5.142  0.4456E+02  0.4576E+02  0.5593E+03  0.5587E+03
      5.193  0.5025E+02  0.5324E+02  0.5619E+03  0.5615E+03
      5.244  0.4094E+02  0.4327E+02  0.5640E+03  0.5637E+03
      5.295  0.5593E+02  0.5431E+02  0.5668E+03  0.5664E+03
      5.346  0.5386E+02  0.5251E+02  0.5696E+03  0.5691E+03
      5.397  0.5964E+02  0.5897E+02  0.5726E+03  0.5721E+03
      5.448  0.3798E+02  0.4440E+02  0.5746E+03  0.5744E+03
      5.500  0.2453E+02  0.1697E+02  0.5758E+03  0.5753E+03
      5.551  0.3285E+01  0.1427E+02  0.5760E+03  0.5760E+03
      5.602  0.0000E+00  0.0000E+00  0.5760E+03  0.5760E+03
      5.653  0.0000E+00  0.0000E+00  0.5760E+03  0.5760E+03
      5.704  0.0000E+00  0.0000E+00  0.5760E+03  0.5760E+03
      5.755  0.0000E+00  0.0000E+00  0.5760E+03  0.5760E+03
      5.806  0.0000E+00  0.0000E+00  0.5760E+03  0.5760E+03
      5.857  0.0000E+00  0.0000E+00  0.5760E+03  0.5760E+03
      5.908  0.0000E+00  0.0000E+00  0.5760E+03  0.5760E+03
      5.959  0.0000E+00  0.0000E+00  0.5760E+03  0.5760E+03
      6.011  0.0000E+00  0.0000E+00  0.5760E+03  0.5760E+03
      6.062  0.0000E+00  0.0000E+00  0.5760E+03  0.5760E+03
      6.113  0.0000E+00  0.0000E+00  0.5760E+03  0.5760E+03
      6.164  0.0000E+00  0.0000E+00  0.5760E+03  0.5760E+03
      6.215  0.0000E+00  0.0000E+00  0.5760E+03  0.5760E+03
