Si Bulk DFT energetics calculations using VASP\n
This script is running on comp019.cluster.local in /lustre/home/ah1365/projects/127870/upgrade_report/case_studies/common/structures/interfaces/120_Si72Ge48_013_114_a0.049383_b0.076023_c1.486532_interface2shift4\n
Job started on: Sun  8 Jun 14:00:56 UTC 2025\n
 running   64 mpi-ranks, on    4 nodes
 distrk:  each k-point on   64 cores,    1 groups
 distr:  one band on   16 cores,    4 groups
 vasp.6.4.3 19Mar24 (build Oct 22 2024 11:23:12) complex                        
  
 POSCAR found type information on POSCAR SiGe
 POSCAR found :  2 types and     120 ions
 -----------------------------------------------------------------------------
|                                                                             |
|           W    W    AA    RRRRR   N    N  II  N    N   GGGG   !!!           |
|           W    W   A  A   R    R  NN   N  II  NN   N  G    G  !!!           |
|           W    W  A    A  R    R  N N  N  II  N N  N  G       !!!           |
|           W WW W  AAAAAA  RRRRR   N  N N  II  N  N N  G  GGG   !            |
|           WW  WW  A    A  R   R   N   NN  II  N   NN  G    G                |
|           W    W  A    A  R    R  N    N  II  N    N   GGGG   !!!           |
|                                                                             |
|     You use a magnetic or noncollinear calculation, but did not specify     |
|     the initial magnetic moment with the MAGMOM tag. Note that a            |
|     default of 8.333e-3 will be used for all atoms. This ferromagnetic      |
|     setup may break the symmetry of the crystal, in particular it may       |
|     rule out finding an antiferromagnetic solution. Thence, we              |
|     recommend setting the initial magnetic moment manually or verifying     |
|     carefully that this magnetic setup is desired.                          |
|                                                                             |
 -----------------------------------------------------------------------------

 scaLAPACK will be used
 LDA part: xc-table for (Slater+PW92), standard interpolation
 POSCAR, INCAR and KPOINTS ok, starting setup
 FFT: planning ... GRIDC
 FFT: planning ... GRID_SOFT
 FFT: planning ... GRID
 WAVECAR not read
 entering main loop
       N       E                     dE             d eps       ncg     rms          rms(c)
DAV:   1     0.199658710152E+04    0.19966E+04   -0.20823E+05  9216   0.170E+03
DAV:   2    -0.303269608222E+03   -0.22999E+04   -0.22258E+04 10744   0.211E+02
DAV:   3    -0.523801304413E+03   -0.22053E+03   -0.21098E+03 11648   0.579E+01
DAV:   4    -0.533220607262E+03   -0.94193E+01   -0.91378E+01 11064   0.124E+01
DAV:   5    -0.533619472903E+03   -0.39887E+00   -0.39474E+00 12768   0.253E+00    0.302E+01
DAV:   6    -0.521938473853E+03    0.11681E+02   -0.50098E+01 11112   0.118E+01    0.137E+01
DAV:   7    -0.523121789537E+03   -0.11833E+01   -0.35421E+01 12192   0.114E+01    0.106E+01
DAV:   8    -0.520363283106E+03    0.27585E+01   -0.12807E+01 12456   0.731E+00    0.462E+00
DAV:   9    -0.519870217346E+03    0.49307E+00   -0.32834E+00 11536   0.343E+00    0.187E+00
DAV:  10    -0.519867564590E+03    0.26528E-02   -0.85452E-01 10864   0.158E+00    0.126E+00
DAV:  11    -0.519842058633E+03    0.25506E-01   -0.23298E-01 11088   0.905E-01    0.732E-01
DAV:  12    -0.519838586016E+03    0.34726E-02   -0.52382E-02 10600   0.402E-01    0.393E-01
DAV:  13    -0.519838666481E+03   -0.80465E-04   -0.15740E-02 10512   0.218E-01    0.224E-01
DAV:  14    -0.519838330586E+03    0.33589E-03   -0.43537E-03 10944   0.126E-01    0.121E-01
DAV:  15    -0.519838322040E+03    0.85463E-05   -0.12734E-03 11096   0.709E-02    0.635E-02
DAV:  16    -0.519838301099E+03    0.20941E-04   -0.43013E-04 11016   0.416E-02    0.298E-02
DAV:  17    -0.519838301190E+03   -0.91106E-07   -0.13851E-04 10832   0.215E-02    0.169E-02
DAV:  18    -0.519838303523E+03   -0.23328E-05   -0.42795E-05 10832   0.115E-02    0.111E-02
DAV:  19    -0.519838305116E+03   -0.15933E-05   -0.11045E-05 10944   0.632E-03    0.602E-03
DAV:  20    -0.519838305692E+03   -0.57595E-06   -0.39858E-06 11072   0.389E-03    0.288E-03
DAV:  21    -0.519838305858E+03   -0.16589E-06   -0.12963E-06 10624   0.199E-03    0.162E-03
DAV:  22    -0.519838305975E+03   -0.11753E-06   -0.35430E-07  7440   0.936E-04    0.108E-03
DAV:  23    -0.519838306135E+03   -0.15959E-06   -0.11932E-07  5536   0.542E-04    0.657E-04
DAV:  24    -0.519838306245E+03   -0.10976E-06   -0.54820E-08  5400   0.349E-04    0.469E-04
DAV:  25    -0.519838306297E+03   -0.52163E-07   -0.31601E-08  5264   0.258E-04
   1 F= -.51983831E+03 E0= -.51983663E+03  d E =-.334407E-02  mag=     1.0000
Job ended on: Sun  8 Jun 14:15:51 UTC 2025\n
