 120 120   0   0
  0.2471883E+02  0.1629300E-08  0.1717433E-08  0.1060055E-08  0.5000000E-15
  1.000000000000000E-004
  CAR 
 Si and Ge interface calculation         
      6.02586922     -9.39449335  301      3.44216136      1.00000000
     -9.394  0.0000E+00  0.0000E+00  0.0000E+00  0.0000E+00
     -9.343  0.0000E+00  0.0000E+00  0.0000E+00  0.0000E+00
     -9.292  0.0000E+00  0.0000E+00  0.0000E+00  0.0000E+00
     -9.240  0.0000E+00  0.0000E+00  0.0000E+00  0.0000E+00
     -9.189  0.0000E+00  0.0000E+00  0.0000E+00  0.0000E+00
     -9.137  0.0000E+00  0.0000E+00  0.0000E+00  0.0000E+00
     -9.086  0.0000E+00  0.0000E+00  0.0000E+00  0.0000E+00
     -9.035  0.0000E+00  0.0000E+00  0.0000E+00  0.0000E+00
     -8.983  0.0000E+00  0.0000E+00  0.0000E+00  0.0000E+00
     -8.932  0.0000E+00  0.0000E+00  0.0000E+00  0.0000E+00
     -8.880  0.0000E+00  0.0000E+00  0.0000E+00  0.0000E+00
     -8.829  0.0000E+00  0.0000E+00  0.0000E+00  0.0000E+00
     -8.778  0.0000E+00  0.0000E+00  0.0000E+00  0.0000E+00
     -8.726  0.6639E-05  0.1801E-06  0.3413E-06  0.9257E-08
     -8.675  0.6429E+01  0.6182E+01  0.3304E+00  0.3178E+00
     -8.623  0.2040E+02  0.1958E+02  0.1379E+01  0.1324E+01
     -8.572  0.1384E+02  0.1386E+02  0.2091E+01  0.2037E+01
     -8.521  0.7712E+01  0.6948E+01  0.2487E+01  0.2394E+01
     -8.469  0.2608E+02  0.2507E+02  0.3827E+01  0.3682E+01
     -8.418  0.3357E+01  0.6180E+01  0.4000E+01  0.4000E+01
     -8.366  0.8597E+00  0.2437E+00  0.4044E+01  0.4013E+01
     -8.315  0.2921E+02  0.2653E+02  0.5546E+01  0.5376E+01
     -8.264  0.1543E+02  0.1847E+02  0.6339E+01  0.6326E+01
     -8.212  0.1513E+02  0.1397E+02  0.7116E+01  0.7044E+01
     -8.161  0.1719E+02  0.1861E+02  0.8000E+01  0.8000E+01
     -8.109  0.9280E+00  0.1712E+00  0.8048E+01  0.8009E+01
     -8.058  0.7761E+01  0.6708E+01  0.8447E+01  0.8354E+01
     -8.007  0.1850E+02  0.1624E+02  0.9398E+01  0.9188E+01
     -7.955  0.1172E+02  0.1579E+02  0.1000E+02  0.1000E+02
     -7.904  0.1690E+02  0.1406E+02  0.1087E+02  0.1072E+02
     -7.852  0.2129E+02  0.2239E+02  0.1196E+02  0.1187E+02
     -7.801  0.2572E+02  0.2569E+02  0.1329E+02  0.1319E+02
     -7.750  0.3329E+02  0.2933E+02  0.1500E+02  0.1470E+02
     -7.698  0.8017E+01  0.1260E+02  0.1541E+02  0.1535E+02
     -7.647  0.1331E+02  0.1159E+02  0.1609E+02  0.1594E+02
     -7.595  0.2072E+02  0.2245E+02  0.1716E+02  0.1710E+02
     -7.544  0.1976E+02  0.1952E+02  0.1817E+02  0.1810E+02
     -7.493  0.2387E+02  0.2311E+02  0.1940E+02  0.1929E+02
     -7.441  0.3774E+02  0.3732E+02  0.2134E+02  0.2121E+02
     -7.390  0.1557E+02  0.1421E+02  0.2214E+02  0.2194E+02
     -7.338  0.3645E+02  0.3544E+02  0.2401E+02  0.2376E+02
     -7.287  0.2794E+02  0.3099E+02  0.2545E+02  0.2535E+02
     -7.236  0.3641E+02  0.3685E+02  0.2732E+02  0.2725E+02
     -7.184  0.2031E+02  0.1952E+02  0.2837E+02  0.2825E+02
     -7.133  0.4018E+02  0.3818E+02  0.3043E+02  0.3021E+02
     -7.081  0.2607E+02  0.2824E+02  0.3177E+02  0.3167E+02
     -7.030  0.4117E+02  0.3716E+02  0.3389E+02  0.3358E+02
     -6.979  0.2303E+02  0.2537E+02  0.3507E+02  0.3488E+02
     -6.927  0.4951E+02  0.4995E+02  0.3762E+02  0.3745E+02
     -6.876  0.3046E+02  0.2781E+02  0.3918E+02  0.3888E+02
     -6.824  0.2875E+02  0.3096E+02  0.4066E+02  0.4047E+02
     -6.773  0.2271E+02  0.2562E+02  0.4183E+02  0.4179E+02
     -6.722  0.2370E+02  0.2066E+02  0.4305E+02  0.4285E+02
     -6.670  0.4999E+02  0.5027E+02  0.4561E+02  0.4543E+02
     -6.619  0.3826E+02  0.3760E+02  0.4758E+02  0.4736E+02
     -6.567  0.3317E+02  0.3477E+02  0.4929E+02  0.4915E+02
     -6.516  0.3411E+02  0.3269E+02  0.5104E+02  0.5083E+02
     -6.465  0.3279E+02  0.3105E+02  0.5273E+02  0.5243E+02
     -6.413  0.4533E+02  0.4609E+02  0.5506E+02  0.5480E+02
     -6.362  0.3884E+02  0.3949E+02  0.5705E+02  0.5683E+02
     -6.310  0.3483E+02  0.3671E+02  0.5884E+02  0.5871E+02
     -6.259  0.2996E+02  0.2987E+02  0.6038E+02  0.6025E+02
     -6.208  0.2006E+02  0.1948E+02  0.6141E+02  0.6125E+02
     -6.156  0.2011E+02  0.1926E+02  0.6245E+02  0.6224E+02
     -6.105  0.4237E+02  0.4375E+02  0.6462E+02  0.6449E+02
     -6.053  0.3425E+02  0.3126E+02  0.6639E+02  0.6609E+02
     -6.002  0.3837E+02  0.3728E+02  0.6836E+02  0.6801E+02
     -5.951  0.4557E+02  0.4495E+02  0.7070E+02  0.7032E+02
     -5.899  0.3484E+02  0.3478E+02  0.7249E+02  0.7211E+02
     -5.848  0.4150E+02  0.4539E+02  0.7462E+02  0.7444E+02
     -5.796  0.3731E+02  0.2955E+02  0.7654E+02  0.7596E+02
     -5.745  0.4463E+02  0.4881E+02  0.7884E+02  0.7847E+02
     -5.694  0.3730E+02  0.4084E+02  0.8075E+02  0.8057E+02
     -5.642  0.3724E+02  0.3713E+02  0.8267E+02  0.8248E+02
     -5.591  0.3916E+02  0.3915E+02  0.8468E+02  0.8449E+02
     -5.539  0.3536E+02  0.3461E+02  0.8650E+02  0.8627E+02
     -5.488  0.3548E+02  0.3847E+02  0.8832E+02  0.8825E+02
     -5.437  0.2700E+02  0.1976E+02  0.8971E+02  0.8926E+02
     -5.385  0.3275E+02  0.3830E+02  0.9139E+02  0.9123E+02
     -5.334  0.4636E+02  0.4221E+02  0.9378E+02  0.9340E+02
     -5.282  0.3498E+02  0.3803E+02  0.9557E+02  0.9536E+02
     -5.231  0.2653E+02  0.2837E+02  0.9694E+02  0.9681E+02
     -5.180  0.3703E+02  0.3236E+02  0.9884E+02  0.9848E+02
     -5.128  0.3396E+02  0.3837E+02  0.1006E+03  0.1004E+03
     -5.077  0.4229E+02  0.3784E+02  0.1028E+03  0.1024E+03
     -5.025  0.1980E+02  0.2337E+02  0.1038E+03  0.1036E+03
     -4.974  0.3717E+02  0.3563E+02  0.1057E+03  0.1054E+03
     -4.923  0.2272E+02  0.2477E+02  0.1069E+03  0.1067E+03
     -4.871  0.4309E+02  0.3806E+02  0.1091E+03  0.1087E+03
     -4.820  0.2640E+02  0.2913E+02  0.1104E+03  0.1102E+03
     -4.768  0.4150E+02  0.4288E+02  0.1126E+03  0.1124E+03
     -4.717  0.2961E+02  0.2596E+02  0.1141E+03  0.1137E+03
     -4.666  0.2910E+02  0.3527E+02  0.1156E+03  0.1155E+03
     -4.614  0.3220E+02  0.2950E+02  0.1172E+03  0.1170E+03
     -4.563  0.2867E+02  0.2700E+02  0.1187E+03  0.1184E+03
     -4.511  0.3796E+02  0.3716E+02  0.1207E+03  0.1203E+03
     -4.460  0.3772E+02  0.4165E+02  0.1226E+03  0.1225E+03
     -4.409  0.2242E+02  0.1955E+02  0.1238E+03  0.1235E+03
     -4.357  0.3821E+02  0.3821E+02  0.1257E+03  0.1254E+03
     -4.306  0.3372E+02  0.3516E+02  0.1274E+03  0.1272E+03
     -4.254  0.2873E+02  0.2921E+02  0.1289E+03  0.1287E+03
     -4.203  0.2482E+02  0.2524E+02  0.1302E+03  0.1300E+03
     -4.152  0.9133E+01  0.1153E+02  0.1307E+03  0.1306E+03
     -4.100  0.2912E+02  0.2978E+02  0.1322E+03  0.1322E+03
     -4.049  0.1079E+02  0.4637E+01  0.1327E+03  0.1324E+03
     -3.997  0.3420E+02  0.3860E+02  0.1345E+03  0.1344E+03
     -3.946  0.2803E+02  0.2567E+02  0.1359E+03  0.1357E+03
     -3.895  0.2530E+02  0.2489E+02  0.1372E+03  0.1370E+03
     -3.843  0.2260E+02  0.2213E+02  0.1384E+03  0.1381E+03
     -3.792  0.2002E+02  0.1967E+02  0.1394E+03  0.1391E+03
     -3.740  0.2699E+02  0.3129E+02  0.1408E+03  0.1407E+03
     -3.689  0.2778E+02  0.2225E+02  0.1422E+03  0.1419E+03
     -3.638  0.3776E+02  0.3831E+02  0.1442E+03  0.1438E+03
     -3.586  0.1954E+02  0.2092E+02  0.1452E+03  0.1449E+03
     -3.535  0.2664E+02  0.2571E+02  0.1465E+03  0.1462E+03
     -3.483  0.2455E+02  0.2783E+02  0.1478E+03  0.1477E+03
     -3.432  0.3028E+02  0.3133E+02  0.1494E+03  0.1493E+03
     -3.381  0.4451E+02  0.4119E+02  0.1516E+03  0.1514E+03
     -3.329  0.2900E+02  0.2844E+02  0.1531E+03  0.1529E+03
     -3.278  0.3569E+02  0.3653E+02  0.1550E+03  0.1547E+03
     -3.226  0.3669E+02  0.3486E+02  0.1569E+03  0.1565E+03
     -3.175  0.5230E+02  0.5017E+02  0.1595E+03  0.1591E+03
     -3.124  0.4769E+02  0.5072E+02  0.1620E+03  0.1617E+03
     -3.072  0.2420E+02  0.2822E+02  0.1632E+03  0.1632E+03
     -3.021  0.4404E+02  0.3788E+02  0.1655E+03  0.1651E+03
     -2.969  0.2572E+02  0.3247E+02  0.1668E+03  0.1668E+03
     -2.918  0.2709E+02  0.1766E+02  0.1682E+03  0.1677E+03
     -2.867  0.2427E+02  0.3024E+02  0.1695E+03  0.1692E+03
     -2.815  0.4356E+02  0.4423E+02  0.1717E+03  0.1715E+03
     -2.764  0.2922E+02  0.2632E+02  0.1732E+03  0.1729E+03
     -2.712  0.3482E+02  0.4057E+02  0.1750E+03  0.1750E+03
     -2.661  0.3916E+02  0.3335E+02  0.1770E+03  0.1767E+03
     -2.610  0.3037E+02  0.2923E+02  0.1786E+03  0.1782E+03
     -2.558  0.4863E+02  0.5010E+02  0.1811E+03  0.1808E+03
     -2.507  0.1942E+02  0.1966E+02  0.1821E+03  0.1818E+03
     -2.455  0.3832E+02  0.3700E+02  0.1840E+03  0.1837E+03
     -2.404  0.3083E+02  0.3497E+02  0.1856E+03  0.1855E+03
     -2.353  0.3417E+02  0.3295E+02  0.1874E+03  0.1872E+03
     -2.301  0.5684E+02  0.5068E+02  0.1903E+03  0.1898E+03
     -2.250  0.2210E+02  0.2957E+02  0.1914E+03  0.1913E+03
     -2.198  0.3415E+02  0.3049E+02  0.1932E+03  0.1928E+03
     -2.147  0.2552E+02  0.3199E+02  0.1945E+03  0.1945E+03
     -2.096  0.3961E+02  0.3101E+02  0.1965E+03  0.1961E+03
     -2.044  0.4480E+02  0.4722E+02  0.1988E+03  0.1985E+03
     -1.993  0.3481E+02  0.3525E+02  0.2006E+03  0.2003E+03
     -1.941  0.2884E+02  0.2772E+02  0.2021E+03  0.2017E+03
     -1.890  0.3704E+02  0.3730E+02  0.2040E+03  0.2037E+03
     -1.839  0.2738E+02  0.3139E+02  0.2054E+03  0.2053E+03
     -1.787  0.2421E+02  0.2570E+02  0.2067E+03  0.2066E+03
     -1.736  0.1990E+02  0.1728E+02  0.2077E+03  0.2075E+03
     -1.684  0.3340E+02  0.3564E+02  0.2094E+03  0.2093E+03
     -1.633  0.1397E+02  0.1406E+02  0.2101E+03  0.2100E+03
     -1.582  0.2769E+02  0.2807E+02  0.2116E+03  0.2115E+03
     -1.530  0.2459E+02  0.2376E+02  0.2128E+03  0.2127E+03
     -1.479  0.4188E+02  0.3954E+02  0.2150E+03  0.2147E+03
     -1.427  0.1990E+02  0.2207E+02  0.2160E+03  0.2159E+03
     -1.376  0.4183E+02  0.3989E+02  0.2181E+03  0.2179E+03
     -1.325  0.2369E+02  0.2212E+02  0.2194E+03  0.2191E+03
     -1.273  0.2856E+02  0.3277E+02  0.2208E+03  0.2207E+03
     -1.222  0.3640E+02  0.3301E+02  0.2227E+03  0.2224E+03
     -1.170  0.1824E+02  0.1908E+02  0.2236E+03  0.2234E+03
     -1.119  0.3343E+02  0.3511E+02  0.2254E+03  0.2252E+03
     -1.067  0.3420E+02  0.3437E+02  0.2271E+03  0.2270E+03
     -1.016  0.1864E+02  0.1736E+02  0.2281E+03  0.2279E+03
     -0.965  0.1743E+02  0.1897E+02  0.2290E+03  0.2289E+03
     -0.913  0.4038E+01  0.5895E+01  0.2292E+03  0.2292E+03
     -0.862  0.9387E+01  0.8330E+01  0.2297E+03  0.2296E+03
     -0.810  0.1650E+02  0.1656E+02  0.2305E+03  0.2304E+03
     -0.759  0.2386E+02  0.2305E+02  0.2317E+03  0.2316E+03
     -0.708  0.1295E+02  0.1115E+02  0.2324E+03  0.2322E+03
     -0.656  0.2122E+02  0.2373E+02  0.2335E+03  0.2334E+03
     -0.605  0.1240E+02  0.1146E+02  0.2341E+03  0.2340E+03
     -0.553  0.1681E+02  0.1765E+02  0.2350E+03  0.2349E+03
     -0.502  0.2367E+02  0.2083E+02  0.2362E+03  0.2360E+03
     -0.451  0.4289E+02  0.4186E+02  0.2384E+03  0.2381E+03
     -0.399  0.2806E+02  0.2951E+02  0.2399E+03  0.2397E+03
     -0.348  0.5324E+02  0.5213E+02  0.2426E+03  0.2423E+03
     -0.296  0.6712E+02  0.6049E+02  0.2460E+03  0.2454E+03
     -0.245  0.5311E+02  0.5696E+02  0.2488E+03  0.2484E+03
     -0.194  0.6741E+02  0.6707E+02  0.2522E+03  0.2518E+03
     -0.142  0.5474E+02  0.5427E+02  0.2550E+03  0.2546E+03
     -0.091  0.6552E+02  0.6346E+02  0.2584E+03  0.2579E+03
     -0.039  0.5926E+02  0.6259E+02  0.2615E+03  0.2611E+03
      0.012  0.6990E+02  0.7180E+02  0.2651E+03  0.2648E+03
      0.063  0.7025E+02  0.6702E+02  0.2687E+03  0.2682E+03
      0.115  0.6540E+02  0.6795E+02  0.2720E+03  0.2717E+03
      0.166  0.6367E+02  0.6105E+02  0.2753E+03  0.2749E+03
      0.218  0.6726E+02  0.6660E+02  0.2788E+03  0.2783E+03
      0.269  0.6316E+02  0.6367E+02  0.2820E+03  0.2816E+03
      0.320  0.6504E+02  0.6134E+02  0.2853E+03  0.2847E+03
      0.372  0.6630E+02  0.6829E+02  0.2888E+03  0.2882E+03
      0.423  0.7304E+02  0.7347E+02  0.2925E+03  0.2920E+03
      0.475  0.7038E+02  0.7151E+02  0.2961E+03  0.2957E+03
      0.526  0.6665E+02  0.6200E+02  0.2996E+03  0.2989E+03
      0.577  0.7846E+02  0.7805E+02  0.3036E+03  0.3029E+03
      0.629  0.6640E+02  0.6969E+02  0.3070E+03  0.3064E+03
      0.680  0.7537E+02  0.7590E+02  0.3109E+03  0.3104E+03
      0.732  0.5294E+02  0.5788E+02  0.3136E+03  0.3133E+03
      0.783  0.7072E+02  0.6559E+02  0.3172E+03  0.3167E+03
      0.834  0.5535E+02  0.5746E+02  0.3201E+03  0.3197E+03
      0.886  0.8276E+02  0.7816E+02  0.3243E+03  0.3237E+03
      0.937  0.6576E+02  0.7144E+02  0.3277E+03  0.3273E+03
      0.989  0.6142E+02  0.5848E+02  0.3309E+03  0.3303E+03
      1.040  0.7255E+02  0.7331E+02  0.3346E+03  0.3341E+03
      1.091  0.5746E+02  0.5634E+02  0.3375E+03  0.3370E+03
      1.143  0.6935E+02  0.6940E+02  0.3411E+03  0.3406E+03
      1.194  0.7061E+02  0.6908E+02  0.3447E+03  0.3441E+03
      1.246  0.7926E+02  0.8448E+02  0.3488E+03  0.3485E+03
      1.297  0.6132E+02  0.5802E+02  0.3520E+03  0.3515E+03
      1.348  0.6276E+02  0.6447E+02  0.3552E+03  0.3548E+03
      1.400  0.6817E+02  0.6347E+02  0.3587E+03  0.3580E+03
      1.451  0.7228E+02  0.7440E+02  0.3624E+03  0.3619E+03
      1.503  0.6848E+02  0.6973E+02  0.3659E+03  0.3654E+03
      1.554  0.6541E+02  0.6707E+02  0.3693E+03  0.3689E+03
      1.605  0.5932E+02  0.5920E+02  0.3723E+03  0.3719E+03
      1.657  0.6784E+02  0.6645E+02  0.3758E+03  0.3753E+03
      1.708  0.6920E+02  0.6893E+02  0.3794E+03  0.3789E+03
      1.760  0.5306E+02  0.5655E+02  0.3821E+03  0.3818E+03
      1.811  0.6242E+02  0.6374E+02  0.3853E+03  0.3851E+03
      1.862  0.6613E+02  0.6153E+02  0.3887E+03  0.3882E+03
      1.914  0.6395E+02  0.6452E+02  0.3920E+03  0.3915E+03
      1.965  0.5697E+02  0.5941E+02  0.3949E+03  0.3946E+03
      2.017  0.7188E+02  0.6813E+02  0.3986E+03  0.3981E+03
      2.068  0.6050E+02  0.5822E+02  0.4017E+03  0.4011E+03
      2.119  0.7209E+02  0.7608E+02  0.4054E+03  0.4050E+03
      2.171  0.5464E+02  0.5138E+02  0.4083E+03  0.4076E+03
      2.222  0.6606E+02  0.6304E+02  0.4117E+03  0.4109E+03
      2.274  0.6561E+02  0.7020E+02  0.4150E+03  0.4145E+03
      2.325  0.5945E+02  0.5943E+02  0.4181E+03  0.4176E+03
      2.376  0.6216E+02  0.5966E+02  0.4213E+03  0.4206E+03
      2.428  0.6136E+02  0.6124E+02  0.4244E+03  0.4238E+03
      2.479  0.4660E+02  0.5280E+02  0.4268E+03  0.4265E+03
      2.531  0.6302E+02  0.5304E+02  0.4301E+03  0.4292E+03
      2.582  0.5196E+02  0.5272E+02  0.4327E+03  0.4319E+03
      2.633  0.5156E+02  0.5560E+02  0.4354E+03  0.4348E+03
      2.685  0.5743E+02  0.5781E+02  0.4383E+03  0.4377E+03
      2.736  0.3874E+02  0.3530E+02  0.4403E+03  0.4396E+03
      2.788  0.5120E+02  0.5232E+02  0.4430E+03  0.4422E+03
      2.839  0.5307E+02  0.5395E+02  0.4457E+03  0.4450E+03
      2.890  0.5928E+02  0.6373E+02  0.4487E+03  0.4483E+03
      2.942  0.4955E+02  0.4547E+02  0.4513E+03  0.4506E+03
      2.993  0.6527E+02  0.6898E+02  0.4546E+03  0.4542E+03
      3.045  0.5082E+02  0.4755E+02  0.4572E+03  0.4566E+03
      3.096  0.6100E+02  0.6025E+02  0.4604E+03  0.4597E+03
      3.147  0.5435E+02  0.5390E+02  0.4632E+03  0.4625E+03
      3.199  0.5087E+02  0.4879E+02  0.4658E+03  0.4650E+03
      3.250  0.5376E+02  0.5876E+02  0.4686E+03  0.4680E+03
      3.302  0.6727E+02  0.5707E+02  0.4720E+03  0.4710E+03
      3.353  0.5403E+02  0.5741E+02  0.4748E+03  0.4739E+03
      3.404  0.5834E+02  0.6387E+02  0.4778E+03  0.4772E+03
      3.456  0.5970E+02  0.4813E+02  0.4809E+03  0.4797E+03
      3.507  0.5712E+02  0.7058E+02  0.4838E+03  0.4833E+03
      3.559  0.5945E+02  0.5662E+02  0.4869E+03  0.4862E+03
      3.610  0.6749E+02  0.6379E+02  0.4903E+03  0.4895E+03
      3.661  0.4940E+02  0.5588E+02  0.4929E+03  0.4924E+03
      3.713  0.5069E+02  0.4914E+02  0.4955E+03  0.4949E+03
      3.764  0.5154E+02  0.5173E+02  0.4981E+03  0.4975E+03
      3.816  0.6498E+02  0.6107E+02  0.5015E+03  0.5007E+03
      3.867  0.5179E+02  0.5438E+02  0.5041E+03  0.5035E+03
      3.918  0.4555E+02  0.5203E+02  0.5065E+03  0.5061E+03
      3.970  0.6075E+02  0.5579E+02  0.5096E+03  0.5090E+03
      4.021  0.6433E+02  0.5862E+02  0.5129E+03  0.5120E+03
      4.073  0.3692E+02  0.4276E+02  0.5148E+03  0.5142E+03
      4.124  0.5655E+02  0.6164E+02  0.5177E+03  0.5174E+03
      4.175  0.5385E+02  0.5175E+02  0.5205E+03  0.5201E+03
      4.227  0.5766E+02  0.4812E+02  0.5234E+03  0.5225E+03
      4.278  0.5134E+02  0.5956E+02  0.5261E+03  0.5256E+03
      4.330  0.5017E+02  0.4151E+02  0.5286E+03  0.5277E+03
      4.381  0.4363E+02  0.5239E+02  0.5309E+03  0.5304E+03
      4.432  0.5586E+02  0.5363E+02  0.5338E+03  0.5332E+03
      4.484  0.4557E+02  0.4773E+02  0.5361E+03  0.5356E+03
      4.535  0.4531E+02  0.4634E+02  0.5384E+03  0.5380E+03
      4.587  0.5159E+02  0.5149E+02  0.5411E+03  0.5407E+03
      4.638  0.5547E+02  0.5251E+02  0.5439E+03  0.5434E+03
      4.689  0.5864E+02  0.5712E+02  0.5469E+03  0.5463E+03
      4.741  0.6008E+02  0.6090E+02  0.5500E+03  0.5494E+03
      4.792  0.4372E+02  0.4805E+02  0.5523E+03  0.5519E+03
      4.844  0.5554E+02  0.5082E+02  0.5551E+03  0.5545E+03
      4.895  0.4727E+02  0.5014E+02  0.5576E+03  0.5571E+03
      4.946  0.4736E+02  0.4592E+02  0.5600E+03  0.5594E+03
      4.998  0.4849E+02  0.4967E+02  0.5625E+03  0.5620E+03
      5.049  0.4799E+02  0.4925E+02  0.5650E+03  0.5645E+03
      5.101  0.3553E+02  0.3679E+02  0.5668E+03  0.5664E+03
      5.152  0.4590E+02  0.4848E+02  0.5691E+03  0.5689E+03
      5.203  0.5648E+02  0.5236E+02  0.5720E+03  0.5716E+03
      5.255  0.3684E+02  0.4100E+02  0.5739E+03  0.5737E+03
      5.306  0.2759E+02  0.3192E+02  0.5754E+03  0.5753E+03
      5.358  0.1248E+02  0.1270E+02  0.5760E+03  0.5760E+03
      5.409  0.0000E+00  0.0000E+00  0.5760E+03  0.5760E+03
      5.460  0.0000E+00  0.0000E+00  0.5760E+03  0.5760E+03
      5.512  0.0000E+00  0.0000E+00  0.5760E+03  0.5760E+03
      5.563  0.0000E+00  0.0000E+00  0.5760E+03  0.5760E+03
      5.615  0.0000E+00  0.0000E+00  0.5760E+03  0.5760E+03
      5.666  0.0000E+00  0.0000E+00  0.5760E+03  0.5760E+03
      5.717  0.0000E+00  0.0000E+00  0.5760E+03  0.5760E+03
      5.769  0.0000E+00  0.0000E+00  0.5760E+03  0.5760E+03
      5.820  0.0000E+00  0.0000E+00  0.5760E+03  0.5760E+03
      5.872  0.0000E+00  0.0000E+00  0.5760E+03  0.5760E+03
      5.923  0.0000E+00  0.0000E+00  0.5760E+03  0.5760E+03
      5.974  0.0000E+00  0.0000E+00  0.5760E+03  0.5760E+03
      6.026  0.0000E+00  0.0000E+00  0.5760E+03  0.5760E+03
