 vasp.6.4.3 19Mar24 (build Oct 22 2024 11:23:12) complex                        
  
 executed on             LinuxIFC date 2025.04.30  10:11:34
 running   16 mpi-ranks, on    1 nodes
 distrk:  each k-point on   16 cores,    1 groups
 distr:  one band on NCORE=  16 cores,    1 groups


--------------------------------------------------------------------------------------------------------


 INCAR:
   SYSTEM = Si011 and Ge011 interface calculation
   ISTART = 0
   ICHARG = 2
   LWAVE = .FALSE.
   LREAL = AUTO
   ENCUT = 700
   ENAUG = 900
   ADDGRID = .TRUE.
   LMAXMIX = 6
   LASPH = .TRUE.
   LMIXTAU = .TRUE.
   NCORE = 16
   NELM = 100
   NBANDS = 116
   EDIFF = 1d-7
   AMIX = 0.6
   ISMEAR = 0
   SIGMA = 0.01
   NELECT = 192
   ISPIN = 2
   NUPDOWN = 1
   LVTOT = .FALSE.
   LVHAR = .TRUE.

 POTCAR:    PAW_PBE Si 05Jan2001                  
 POTCAR:    PAW_PBE Ge 05Jan2001                  
 -----------------------------------------------------------------------------
|                                                                             |
|           W    W    AA    RRRRR   N    N  II  N    N   GGGG   !!!           |
|           W    W   A  A   R    R  NN   N  II  NN   N  G    G  !!!           |
|           W    W  A    A  R    R  N N  N  II  N N  N  G       !!!           |
|           W WW W  AAAAAA  RRRRR   N  N N  II  N  N N  G  GGG   !            |
|           WW  WW  A    A  R   R   N   NN  II  N   NN  G    G                |
|           W    W  A    A  R    R  N    N  II  N    N   GGGG   !!!           |
|                                                                             |
|     You use a magnetic or noncollinear calculation, but did not specify     |
|     the initial magnetic moment with the MAGMOM tag. Note that a            |
|     default of 0.021 will be used for all atoms. This ferromagnetic         |
|     setup may break the symmetry of the crystal, in particular it may       |
|     rule out finding an antiferromagnetic solution. Thence, we              |
|     recommend setting the initial magnetic moment manually or verifying     |
|     carefully that this magnetic setup is desired.                          |
|                                                                             |
 -----------------------------------------------------------------------------

 -----------------------------------------------------------------------------
|                                                                             |
|           W    W    AA    RRRRR   N    N  II  N    N   GGGG   !!!           |
|           W    W   A  A   R    R  NN   N  II  NN   N  G    G  !!!           |
|           W    W  A    A  R    R  N N  N  II  N N  N  G       !!!           |
|           W WW W  AAAAAA  RRRRR   N  N N  II  N  N N  G  GGG   !            |
|           WW  WW  A    A  R   R   N   NN  II  N   NN  G    G                |
|           W    W  A    A  R    R  N    N  II  N    N   GGGG   !!!           |
|                                                                             |
|     For optimal performance we recommend to set                             |
|       NCORE = 2 up to number-of-cores-per-socket                            |
|     NCORE specifies how many cores store one orbital (NPAR=cpu/NCORE).      |
|     This setting can greatly improve the performance of VASP for DFT.       |
|     The default, NCORE=1 might be grossly inefficient on modern             |
|     multi-core architectures or massively parallel machines. Do your        |
|     own testing! More info at https://www.vasp.at/wiki/index.php/NCORE      |
|     Unfortunately you need to use the default for GW and RPA                |
|     calculations (for HF NCORE is supported but not extensively tested      |
|     yet).                                                                   |
|                                                                             |
 -----------------------------------------------------------------------------

 POTCAR:    PAW_PBE Si 05Jan2001                  
   VRHFIN =Si: s2p2                                                                                 
   LEXCH  = PE                                                                                      
   EATOM  =   103.0669 eV,    7.5752 Ry                                                             
                                                                                                    
   TITEL  = PAW_PBE Si 05Jan2001                                                                    
   LULTRA =        F    use ultrasoft PP ?                                                          
   IUNSCR =        1    unscreen: 0-lin 1-nonlin 2-no                                               
   RPACOR =    1.500    partial core radius                                                         
   POMASS =   28.085; ZVAL   =    4.000    mass and valenz                                          
   RCORE  =    1.900    outmost cutoff radius                                                       
   RWIGS  =    2.480; RWIGS  =    1.312    wigner-seitz radius (au A)                               
   ENMAX  =  245.345; ENMIN  =  184.009 eV                                                          
   ICORE  =        2    local potential                                                             
   LCOR   =        T    correct aug charges                                                         
   LPAW   =        T    paw PP                                                                      
   EAUG   =  322.069                                                                                
   DEXC   =    0.000                                                                                
   RMAX   =    1.950    core radius for proj-oper                                                   
   RAUG   =    1.300    factor for augmentation sphere                                              
   RDEP   =    1.993    radius for radial grids                                                     
   RDEPT  =    1.837    core radius for aug-charge                                                  
                                                                                                    
   Atomic configuration                                                                             
    6 entries                                                                                       
     n  l   j            E        occ.                                                              
     1  0  0.50     -1785.8828   2.0000                                                             
     2  0  0.50      -139.4969   2.0000                                                             
     2  1  1.50       -95.5546   6.0000                                                             
     3  0  0.50       -10.8127   2.0000                                                             
     3  1  0.50        -4.0811   2.0000                                                             
     3  2  1.50        -4.0817   0.0000                                                             
   Description                                                                                      
     l       E           TYP  RCUT    TYP  RCUT                                                     
     0    -10.8127223     23  1.900                                                                 
     0     -7.6451159     23  1.900                                                                 
     1     -4.0811372     23  1.900                                                                 
     1      2.4879257     23  1.900                                                                 
     2     -4.0817478      7  1.900                                                                 
  local pseudopotential read in
  partial core-charges read in
  partial kinetic energy density read in
  atomic valenz-charges read in
  non local Contribution for L=           0  read in
    real space projection operators read in
  non local Contribution for L=           0  read in
    real space projection operators read in
  non local Contribution for L=           1  read in
    real space projection operators read in
  non local Contribution for L=           1  read in
    real space projection operators read in
    PAW grid and wavefunctions read in
 
   number of l-projection  operators is LMAX  =           4
   number of lm-projection operators is LMMAX =           8
 
 POTCAR:    PAW_PBE Ge 05Jan2001                  
   VRHFIN =Ge: s2p2                                                                                 
   LEXCH  = PE                                                                                      
   EATOM  =   104.9960 eV,    7.7170 Ry                                                             
                                                                                                    
   TITEL  = PAW_PBE Ge 05Jan2001                                                                    
   LULTRA =        F    use ultrasoft PP ?                                                          
   IUNSCR =        1    unscreen: 0-lin 1-nonlin 2-no                                               
   RPACOR =    2.170    partial core radius                                                         
   POMASS =   72.610; ZVAL   =    4.000    mass and valenz                                          
   RCORE  =    2.300    outmost cutoff radius                                                       
   RWIGS  =    2.300; RWIGS  =    1.217    wigner-seitz radius (au A)                               
   ENMAX  =  173.807; ENMIN  =  130.355 eV                                                          
   ICORE  =        3    local potential                                                             
   LCOR   =        T    correct aug charges                                                         
   LPAW   =        T    paw PP                                                                      
   EAUG   =  385.843                                                                                
   DEXC   =    0.000                                                                                
   RMAX   =    2.342    core radius for proj-oper                                                   
   RAUG   =    1.300    factor for augmentation sphere                                              
   RDEP   =    2.318    radius for radial grids                                                     
   RDEPT  =    2.103    core radius for aug-charge                                                  
                                                                                                    
   Atomic configuration                                                                             
   10 entries                                                                                       
     n  l   j            E        occ.                                                              
     1  0  0.50    -10959.8463   2.0000                                                             
     2  0  0.50     -1371.6056   2.0000                                                             
     2  1  1.50     -1198.4791   6.0000                                                             
     3  0  0.50      -168.4733   2.0000                                                             
     3  1  1.50      -115.6019   6.0000                                                             
     3  2  2.50       -29.3106  10.0000                                                             
     4  0  0.50       -11.7309   2.0000                                                             
     4  1  0.50        -3.8952   2.0000                                                             
     4  2  1.50        -4.0817   0.0000                                                             
     4  3  2.50        -4.0817   0.0000                                                             
   Description                                                                                      
     l       E           TYP  RCUT    TYP  RCUT                                                     
     0    -11.7309493     23  2.300                                                                 
     0     -7.4578696     23  2.300                                                                 
     1     -3.8952261     23  2.300                                                                 
     1      6.1178114     23  2.300                                                                 
     2     -4.0817478     23  2.300                                                                 
     3     -1.3605826      7  2.300                                                                 
  local pseudopotential read in
  partial core-charges read in
  partial kinetic energy density read in
  atomic valenz-charges read in
  non local Contribution for L=           0  read in
    real space projection operators read in
  non local Contribution for L=           0  read in
    real space projection operators read in
  non local Contribution for L=           1  read in
    real space projection operators read in
  non local Contribution for L=           1  read in
    real space projection operators read in
  non local Contribution for L=           2  read in
    real space projection operators read in
    PAW grid and wavefunctions read in
 
   number of l-projection  operators is LMAX  =           5
   number of lm-projection operators is LMMAX =          13
 
 Optimization of the real space projectors (new method)

 maximal supplied QI-value         = 19.84
 optimisation between [QCUT,QGAM] = [ 13.49, 26.99] = [ 50.98,203.92] Ry 
 Optimized for a Real-space Cutoff    1.07 Angstroem

   l    n(q)    QCUT    max X(q) W(low)/X(q) W(high)/X(q)  e(spline) 
   0      9    13.493   159.560    0.22E-03    0.15E-03    0.72E-07
   0      9    13.493   115.863    0.21E-03    0.15E-03    0.71E-07
   1      8    13.493    88.339    0.15E-03    0.11E-03    0.13E-06
   1      8    13.493    48.592    0.15E-03    0.10E-03    0.13E-06
 Optimization of the real space projectors (new method)

 maximal supplied QI-value         = 16.25
 optimisation between [QCUT,QGAM] = [ 13.49, 26.98] = [ 50.95,203.80] Ry 
 Optimized for a Real-space Cutoff    1.25 Angstroem

   l    n(q)    QCUT    max X(q) W(low)/X(q) W(high)/X(q)  e(spline) 
   0     10    13.489    65.336    0.91E-04    0.11E-03    0.34E-06
   0     10    13.489    52.220    0.89E-04    0.11E-03    0.34E-06
   1     10    13.489    36.409    0.22E-03    0.27E-03    0.14E-06
   1     10    13.489    21.334    0.21E-03    0.27E-03    0.14E-06
   2      9    13.489     4.673    0.11E-03    0.12E-03    0.19E-06
  PAW_PBE Si 05Jan2001                  :
 energy of atom  1       EATOM= -103.0669
 kinetic energy error for atom=    0.0003 (will be added to EATOM!!)
  PAW_PBE Ge 05Jan2001                  :
 energy of atom  2       EATOM= -104.9960
 kinetic energy error for atom=    0.0001 (will be added to EATOM!!)
 
 
 POSCAR: fcc Si+fcc Ge
  positions in direct lattice
  No initial velocities read in


 exchange-correlation table for PE
   RHO(1)=    0.500       N(1)  =     2000
   RHO(2)=  100.500       N(2)  =     4000
 


--------------------------------------------------------------------------------------------------------


 ion  position               nearest neighbor table
   1  0.991  0.053  0.902-  30 2.37  36 2.37  29 2.43  42 2.46  13 3.02
   2  0.250  0.750  0.079-  19 2.37  14 2.37  20 2.37  15 2.37
   3  0.500  0.500  0.158-  16 2.37  15 2.37  21 2.37  20 2.37
   4  0.750  0.250  0.237-  21 2.37  17 2.37  16 2.37  22 2.37
   5  0.000  0.000  0.316-  18 2.37  22 2.37  17 2.37  23 2.37
   6  0.241  0.803  0.494-  25 2.37  31 2.37  32 2.43  37 2.46  18 3.02
   7  0.491  0.553  0.902-  36 2.37  30 2.37  35 2.43  48 2.46  19 3.02
   8  0.750  0.250  0.079-  13 2.37  20 2.37  14 2.37  21 2.37
   9  0.000  0.000  0.158-  22 2.37  21 2.37  15 2.37  14 2.37
  10  0.250  0.750  0.237-  15 2.37  23 2.37  22 2.37  16 2.37
  11  0.500  0.500  0.316-  24 2.37  16 2.37  23 2.37  17 2.37
  12  0.741  0.303  0.494-  31 2.37  25 2.37  26 2.43  43 2.46  24 3.02
  13  0.000  0.250  0.000-   8 2.37  42 2.37  48 2.37  30 2.46   1 3.02
  14  0.250  0.000  0.079-  42 2.37   8 2.37   2 2.37   9 2.37
  15  0.500  0.750  0.158-  10 2.37   9 2.37   3 2.37   2 2.37
  16  0.750  0.500  0.237-   3 2.37  11 2.37  10 2.37   4 2.37
  17  0.000  0.250  0.316-  43 2.37   4 2.37  11 2.37   5 2.37
  18  0.250  0.000  0.396-   5 2.37  37 2.37  43 2.37  25 2.46   6 3.02
  19  0.500  0.750  0.000-   2 2.37  42 2.37  48 2.37  36 2.46   7 3.02
  20  0.750  0.500  0.079-  48 2.37   8 2.37   2 2.37   3 2.37
  21  0.000  0.250  0.158-   4 2.37   3 2.37   9 2.37   8 2.37
  22  0.250  0.000  0.237-   9 2.37   5 2.37   4 2.37  10 2.37
  23  0.500  0.750  0.316-  37 2.37  10 2.37  11 2.37   5 2.37
  24  0.750  0.500  0.396-  11 2.37  37 2.37  43 2.37  31 2.46  12 3.02
  25  0.241  0.053  0.494-   6 2.37  12 2.37  38 2.43  18 2.46
  26  0.991  0.303  0.575-  38 2.37  44 2.37  39 2.43  12 2.43
  27  0.741  0.553  0.657-  39 2.37  45 2.37  44 2.43  40 2.43
  28  0.491  0.803  0.739-  40 2.37  46 2.37  45 2.43  41 2.43
  29  0.241  0.053  0.820-  41 2.37  47 2.37   1 2.43  46 2.43
  30  0.991  0.303  0.902-   1 2.37   7 2.37  47 2.43  13 2.46
  31  0.741  0.553  0.494-   6 2.37  12 2.37  44 2.43  24 2.46
  32  0.491  0.803  0.575-  38 2.37  44 2.37  45 2.43   6 2.43
  33  0.241  0.053  0.657-  39 2.37  45 2.37  38 2.43  46 2.43
  34  0.991  0.303  0.739-  40 2.37  46 2.37  39 2.43  47 2.43
  35  0.741  0.553  0.820-  41 2.37  47 2.37   7 2.43  40 2.43
  36  0.491  0.803  0.902-   1 2.37   7 2.37  41 2.43  19 2.46
  37  0.250  0.750  0.396-  23 2.37  18 2.37  24 2.37   6 2.46
  38  0.991  0.053  0.575-  26 2.37  32 2.37  33 2.43  25 2.43
  39  0.741  0.303  0.657-  27 2.37  33 2.37  34 2.43  26 2.43
  40  0.491  0.553  0.739-  28 2.37  34 2.37  35 2.43  27 2.43
  41  0.241  0.803  0.820-  29 2.37  35 2.37  36 2.43  28 2.43
  42  0.000  0.000  0.000-  14 2.37  13 2.37  19 2.37   1 2.46
  43  0.750  0.250  0.396-  17 2.37  24 2.37  18 2.37  12 2.46
  44  0.491  0.553  0.575-  32 2.37  26 2.37  27 2.43  31 2.43
  45  0.241  0.803  0.657-  33 2.37  27 2.37  28 2.43  32 2.43
  46  0.991  0.053  0.739-  34 2.37  28 2.37  29 2.43  33 2.43
  47  0.741  0.303  0.820-  35 2.37  29 2.37  30 2.43  34 2.43
  48  0.500  0.500  0.000-  20 2.37  19 2.37  13 2.37   7 2.46
 
  LATTYP: Found a simple orthorhombic cell.
 ALAT       =     5.4800000000
 B/A-ratio  =     1.4142135624
 C/A-ratio  =     4.4695116526
  
  Lattice vectors:
  
 A1 = (   5.4800000000,   0.0000000000,   0.0000000000)
 A2 = (   0.0000000000,   7.7498903220,   0.0000000000)
 A3 = (   0.0000000000,   0.0000000000,  24.4929238560)


Analysis of symmetry for initial positions (statically):
=====================================================================
 Subroutine PRICEL returns following result:
 
  LATTYP: Found a simple orthorhombic cell.
 ALAT       =     3.8749451610
 B/A-ratio  =     1.4142135623
 C/A-ratio  =     6.3208439961
  
  Lattice vectors:
  
 A1 = (   0.0000000000,   3.8749451610,   0.0000000000)
 A2 = (  -5.4800000000,  -0.0000000000,   0.0000000000)
 A3 = (   0.0000000000,   0.0000000000,  24.4929238560)
 
   2 primitive cells build up your supercell.
 

 Routine SETGRP: Setting up the symmetry group for a 
 simple orthorhombic supercell.


 Subroutine GETGRP returns: Found  2 space group operations
 (whereof  1 operations were pure point group operations)
 out of a pool of  8 trial point group operations.


The static configuration has the point symmetry C_1 .
 The point group associated with its full space group is C_1h.


Analysis of symmetry for dynamics (positions and initial velocities):
=====================================================================
 Subroutine PRICEL returns following result:
 
  LATTYP: Found a simple orthorhombic cell.
 ALAT       =     3.8749451610
 B/A-ratio  =     1.4142135623
 C/A-ratio  =     6.3208439961
  
  Lattice vectors:
  
 A1 = (   0.0000000000,   3.8749451610,   0.0000000000)
 A2 = (  -5.4800000000,  -0.0000000000,   0.0000000000)
 A3 = (   0.0000000000,   0.0000000000,  24.4929238560)
 
   2 primitive cells build up your supercell.
 

 Routine SETGRP: Setting up the symmetry group for a 
 simple orthorhombic supercell.


 Subroutine GETGRP returns: Found  2 space group operations
 (whereof  1 operations were pure point group operations)
 out of a pool of  8 trial point group operations.


The dynamic configuration has the point symmetry C_1 .
 The point group associated with its full space group is C_1h.


Analysis of structural, dynamic, and magnetic symmetry:
=====================================================================
 Subroutine PRICEL returns following result:
 
  LATTYP: Found a simple orthorhombic cell.
 ALAT       =     3.8749451610
 B/A-ratio  =     1.4142135623
 C/A-ratio  =     6.3208439961
  
  Lattice vectors:
  
 A1 = (   0.0000000000,   3.8749451610,   0.0000000000)
 A2 = (  -5.4800000000,  -0.0000000000,   0.0000000000)
 A3 = (   0.0000000000,   0.0000000000,  24.4929238560)
 
   2 primitive cells build up your supercell.
 

 Routine SETGRP: Setting up the symmetry group for a 
 simple orthorhombic supercell.


 Subroutine GETGRP returns: Found  2 space group operations
 (whereof  1 operations were pure point group operations)
 out of a pool of  8 trial point group operations.


The overall configuration has the point symmetry C_1 .
 The point group associated with its full space group is C_1h.


 Subroutine INISYM returns: Found  2 space group operations
 (whereof  1 operations are pure point group operations),
 and found     2 'primitive' translations


----------------------------------------------------------------------------------------

                                     Primitive cell                                     

  volume of cell :     520.0999

  direct lattice vectors                    reciprocal lattice vectors
     0.000000000  3.874945161  0.000000000    -0.000000000  0.258068168  0.000000000
    -5.480000000 -0.000000000  0.000000000    -0.182481752  0.000000000  0.000000000
     0.000000000  0.000000000 24.492923856     0.000000000  0.000000000  0.040828119

  length of vectors
     3.874945161  5.480000000 24.492923856     0.258068168  0.182481752  0.040828119

  position of ions in fractional coordinates (direct lattice)
     0.106382978  0.062450748  0.902012515
     0.500000000  0.500000000  0.079103360
     0.000000000  0.000000000  0.158206721
     0.500000000  0.500000000  0.237310081
     0.000000000  0.000000000  0.316413441
     0.606382978  0.562450748  0.493504286
     0.500000000  0.250000000  0.000000000
     1.000000000  0.750000000  0.079103360
     0.500000000  0.250000000  0.158206721
     1.000000000  0.750000000  0.237310081
     0.500000000  0.250000000  0.316413441
     1.000000000  0.750000000  0.395516801
     0.106382978  0.812450748  0.493504286
     0.606382978  0.312450748  0.575205932
     0.106382978  0.812450748  0.656907578
     0.606382978  0.312450748  0.738609224
     0.106382978  0.812450748  0.820310870
     0.606382978  0.312450748  0.902012515
     0.500000000  0.500000000  0.395516801
     0.106382978  0.062450748  0.575205932
     0.606382978  0.562450748  0.656907578
     0.106382978  0.062450748  0.738609224
     0.606382978  0.562450748  0.820310870
     0.000000000  0.000000000  0.000000000

  ion indices of the primitive-cell ions
   primitive index   ion index
                 1           1
                 2           8
                 3           9
                 4           4
                 5           5
                 6           6
                 7          13
                 8          14
                 9          21
                10          22
                11          17
                12          18
                13          25
                14          26
                15          33
                16          34
                17          29
                18          30
                19          43
                20          38
                21          39
                22          46
                23          41
                24          42

----------------------------------------------------------------------------------------

 
 
 KPOINTS: Automatic KPOINTS generated             

Automatic generation of k-mesh.
 Grid dimensions read from file:
 generate k-points for:    7    4    1

 Generating k-lattice:

  Cartesian coordinates                     Fractional coordinates (reciprocal lattice)
     0.026068822  0.018433441  0.000000000     0.142857143  0.000000000  0.000000000
     0.000000000  0.032258521  0.000000000     0.000000000  0.250000000  0.000000000
     0.000000000  0.000000000  0.040828119     0.000000000  0.000000000  1.000000000

  Length of vectors
     0.031927656  0.032258521  0.040828119

  Shift w.r.t. Gamma in fractional coordinates (k-lattice)
     0.000000000  0.000000000  0.000000000

 -----------------------------------------------------------------------------
|                                                                             |
|           W    W    AA    RRRRR   N    N  II  N    N   GGGG   !!!           |
|           W    W   A  A   R    R  NN   N  II  NN   N  G    G  !!!           |
|           W    W  A    A  R    R  N N  N  II  N N  N  G       !!!           |
|           W WW W  AAAAAA  RRRRR   N  N N  II  N  N N  G  GGG   !            |
|           WW  WW  A    A  R   R   N   NN  II  N   NN  G    G                |
|           W    W  A    A  R    R  N    N  II  N    N   GGGG   !!!           |
|                                                                             |
|     Your reciprocal lattice and k-lattice belong to different lattice       |
|     classes:                                                                |
|                                                                             |
|        The reciprocal lattice is simple orthorhombic,                       |
|        whereas your k-lattice is simple monoclinic.                         |
|                                                                             |
|     Results are often still useful ...                                      |
|                                                                             |
 -----------------------------------------------------------------------------

 WARNING: IBZKPT: internal override: KBLOWUP is changed to .FALSE.
      ... skipping the blow-up phase ...

 
 Subroutine IBZKPT returns following result:
 ===========================================
 
 Found     15 irreducible k-points:
 
 Following reciprocal coordinates:
            Coordinates               Weight
  0.000000  0.000000  0.000000      1.000000
  0.142857 -0.000000  0.000000      2.000000
  0.285714  0.000000  0.000000      2.000000
  0.428571 -0.000000  0.000000      2.000000
  0.000000  0.250000  0.000000      2.000000
  0.142857  0.250000  0.000000      2.000000
  0.285714  0.250000  0.000000      2.000000
  0.428571  0.250000  0.000000      2.000000
 -0.428571  0.250000  0.000000      2.000000
 -0.285714  0.250000  0.000000      2.000000
 -0.142857  0.250000  0.000000      2.000000
  0.000000  0.500000  0.000000      1.000000
  0.142857  0.500000  0.000000      2.000000
  0.285714  0.500000  0.000000      2.000000
  0.428571  0.500000  0.000000      2.000000
 
 Following cartesian coordinates:
            Coordinates               Weight
  0.000000  0.000000  0.000000      1.000000
  0.026069  0.018433  0.000000      2.000000
  0.052138  0.036867  0.000000      2.000000
  0.078206  0.055300  0.000000      2.000000
  0.000000  0.032259  0.000000      2.000000
  0.026069  0.050692  0.000000      2.000000
  0.052138  0.069125  0.000000      2.000000
  0.078206  0.087559  0.000000      2.000000
 -0.078206 -0.023042  0.000000      2.000000
 -0.052138 -0.004608  0.000000      2.000000
 -0.026069  0.013825  0.000000      2.000000
  0.000000  0.064517  0.000000      1.000000
  0.026069  0.082950  0.000000      2.000000
  0.052138  0.101384  0.000000      2.000000
  0.078206  0.119817  0.000000      2.000000
 


--------------------------------------------------------------------------------------------------------




 Dimension of arrays:
   k-points           NKPTS =     15   k-points in BZ     NKDIM =     15   number of bands    NBANDS=    116
   number of dos      NEDOS =    301   number of ions     NIONS =     48
   non local maximal  LDIM  =      5   non local SUM 2l+1 LMDIM =     13
   total plane-waves  NPLWV = 368640
   max r-space proj   IRMAX =   2922   max aug-charges    IRDMAX= 154273
   dimension x,y,z NGX =    36 NGY =   64 NGZ =  160
   dimension x,y,z NGXF=    72 NGYF=  128 NGZF=  320
   support grid    NGXF=   144 NGYF=  256 NGZF=  640
   ions per type =              24  24
   NGX,Y,Z   is equivalent  to a cutoff of  10.92, 11.21, 10.86 a.u.
   NGXF,Y,Z  is equivalent  to a cutoff of  21.84, 22.42, 21.72 a.u.

 SYSTEM =  Si011 and Ge011 interface calculation   
 POSCAR =  fcc Si+fcc Ge                           

 Startparameter for this run:
   NWRITE =      2    write-flag & timer
   PREC   = normal    normal or accurate (medium, high low for compatibility)
   ISTART =      0    job   : 0-new  1-cont  2-samecut
   ICHARG =      2    charge: 1-file 2-atom 10-const
   ISPIN  =      2    spin polarized calculation?
   LNONCOLLINEAR =      F non collinear calculations
   LSORBIT =      F    spin-orbit coupling
   INIWAV =      1    electr: 0-lowe 1-rand  2-diag
   LASPH  =      T    aspherical Exc in radial PAW
 Electronic Relaxation 1
   ENCUT  =  700.0 eV  51.45 Ry    7.17 a.u.  11.82 20.48 52.84*2*pi/ulx,y,z
   ENINI  =  700.0     initial cutoff
   ENAUG  =  900.0 eV  augmentation charge cutoff
   NELM   =    100;   NELMIN=  2; NELMDL= -5     # of ELM steps 
   EDIFF  = 0.1E-06   stopping-criterion for ELM
   LREAL  =      T    real-space projection
   NLSPLINE    = F    spline interpolate recip. space projectors
   LCOMPAT=      F    compatible to vasp.4.4
   GGA_COMPAT  = T    GGA compatible to vasp.4.4-vasp.4.6
   LMAXPAW     = -100 max onsite density
   LMAXMIX     =    6 max onsite mixed and CHGCAR
   VOSKOWN=      0    Vosko Wilk Nusair interpolation
   ROPT   =   -0.00050  -0.00050
 Ionic relaxation
   EDIFFG = 0.1E-05   stopping-criterion for IOM
   NSW    =      0    number of steps for IOM
   NBLOCK =      1;   KBLOCK =      1    inner block; outer block 
   IBRION =     -1    ionic relax: 0-MD 1-quasi-New 2-CG
   NFREE  =      0    steps in history (QN), initial steepest desc. (CG)
   ISIF   =      2    stress and relaxation
   IWAVPR =     10    prediction:  0-non 1-charg 2-wave 3-comb
   ISYM   =      2    0-nonsym 1-usesym 2-fastsym
   LCORR  =      T    Harris-Foulkes like correction to forces

   POTIM  = 0.5000    time-step for ionic-motion
   TEIN   =    0.0    initial temperature
   TEBEG  =    0.0;   TEEND  =   0.0 temperature during run
   SMASS  =  -3.00    Nose mass-parameter (am)
   estimated Nose-frequenzy (Omega)   =  0.10E-29 period in steps = 0.13E+47 mass=  -0.686E-27a.u.
   SCALEE = 1.0000    scale energy and forces
   NPACO  =    256;   APACO  = 10.0  distance and # of slots for P.C.
   PSTRESS=    0.0 pullay stress

  Mass of Ions in am
   POMASS =  28.09 72.61
  Ionic Valenz
   ZVAL   =   4.00  4.00
  Atomic Wigner-Seitz radii
   RWIGS  =  -1.00 -1.00
  virtual crystal weights 
   VCA    =   1.00  1.00
   NELECT =     192.0000    total number of electrons
   NUPDOWN=       1.0000    fix difference up-down

 DOS related values:
   EMIN   =  10.00;   EMAX   =-10.00  energy-range for DOS
   EFERMI =   0.00;   METHOD = LEGACY      
   ISMEAR =     0;   SIGMA  =   0.01  broadening in eV -4-tet -1-fermi 0-gaus

 Electronic relaxation 2 (details)
   IALGO  =     38    algorithm
   LDIAG  =      T    sub-space diagonalisation (order eigenvalues)
   LSUBROT=      F    optimize rotation matrix (better conditioning)
   TURBO    =      0    0=normal 1=particle mesh
   IRESTART =      0    0=no restart 2=restart with 2 vectors
   NREBOOT  =      0    no. of reboots
   NMIN     =      0    reboot dimension
   EREF     =   0.00    reference energy to select bands
   IMIX   =      4    mixing-type and parameters
     AMIX     =   0.60;   BMIX     =  1.00
     AMIX_MAG =   2.40;   BMIX_MAG =  1.00
     AMIN     =   0.10
     WC   =   100.;   INIMIX=   1;  MIXPRE=   1;  MAXMIX= -45

 Intra band minimization:
   WEIMIN = 0.0000     energy-eigenvalue tresh-hold
   EBREAK =  0.22E-09  absolut break condition
   DEPER  =   0.30     relativ break condition  

   TIME   =   0.40     timestep for ELM

  volume/ion in A,a.u.               =      21.67       146.24
  Fermi-wavevector in a.u.,A,eV,Ry     =   0.932115  1.761443 11.821273  0.868839
  Thomas-Fermi vector in A             =   2.058679
 
 Write flags
   LWAVE        =      F    write WAVECAR
   LDOWNSAMPLE  =      F    k-point downsampling of WAVECAR
   LCHARG       =      T    write CHGCAR
   LVTOT        =      F    write LOCPOT, total local potential
   LVHAR        =      T    write LOCPOT, Hartree potential only
   WRT_POTENTIAL=  hartree ionic  ! write potential to hdf5 file
   LELF         =      F    write electronic localiz. function (ELF)
   LORBIT       =      0    0 simple, 1 ext, 2 COOP (PROOUT), +10 PAW based schemes


 Dipole corrections
   LMONO      =      F    monopole corrections only (constant potential shift)
   LDIPOL     =      F    correct potential (dipole corrections)
   IDIPOL     =      0    1-x, 2-y, 3-z, 4-all directions 
   EPSILON    =  1.0000000 bulk dielectric constant
   LVACPOTAV  =      F  vacuum potentials using an averaging scheme for the charge density
   VACPOTFLAT =  0.1000000 required flatness to determine vacuum potential
 Exchange correlation treatment:
   GGA     = PE    functional components
   XC_C    = 1    coefficients multiplying the functional components
   LIBXC   =     F    Libxc                    
   VOSKOWN =     0    Vosko Wilk Nusair interpolation
   LHFCALC =     F    Hartree Fock is set to
   LHFONE  =     F    Hartree Fock one center treatment
   AEXX    =    0.0000 exact exchange contribution

 Parameters of functionals:
   PE:
     No parameter
 
 Van der Waals corrections
   IVDW    =     0    specifies the selected vdW correction

 Linear response parameters
   LEPSILON=     F    determine dielectric tensor
   LRPA    =     F    only Hartree local field effects (RPA)
   LNABLA  =     F    use nabla operator in PAW spheres
   LVEL    =     F    velocity operator in full k-point grid
   CSHIFT  =0.1000    complex shift for real part using Kramers Kronig
   OMEGAMAX=  -1.0    maximum frequency
   DEG_THRESHOLD= 0.2000000E-02 threshold for treating states as degnerate
   RTIME   =   -0.100 relaxation time in fs
  (WPLASMAI=    0.000 imaginary part of plasma frequency in eV, 0.658/RTIME)
   DFIELD  = 0.0000000 0.0000000 0.0000000 field for delta impulse in time
 
  Optional k-point grid parameters
   LKPOINTS_OPT  =     F    use optional k-point grid
   KPOINTS_OPT_MODE=     1    mode for optional k-point grid
 
 Orbital magnetization related:
   ORBITALMAG=     F  switch on orbital magnetization
   LCHIMAG   =     F  perturbation theory with respect to B field
   DQ        =  0.001000  dq finite difference perturbation B field
   LLRAUG    =     F  two centre corrections for induced B field
   LBONE     =     F  B-component reconstruction in AE one-centre
   LVGVCALC  =     T  calculate vGv susceptibility
   LVGVAPPL  =     F  apply vGv susceptibility instead of pGv for G=0

 Random number generation:
   RANDOM_GENERATOR = DEFAULT
   PCG_SEED         = not used


--------------------------------------------------------------------------------------------------------


 Static calculation
 charge density and potential will be updated during run
 spin polarized calculation
 Variant of blocked Davidson
 Davidson routine will perform the subspace rotation
 perform sub-space diagonalisation
    after iterative eigenvector-optimisation
 modified Broyden-mixing scheme, WC =      100.0
 initial mixing is a Kerker type mixing with AMIX =  0.6000 and BMIX =      1.0000
 Hartree-type preconditioning will be used
 using additional bands           20
 real space projection scheme for non local part
 use partial core corrections
 calculate Harris-corrections to forces 
   (improved forces if not selfconsistent)
 use gradient corrections 
 use of overlap-Matrix (Vanderbilt PP)
 Gauss-broadening in eV      SIGMA  =   0.01


--------------------------------------------------------------------------------------------------------


  energy-cutoff  :      700.00
  volume of cell :     1040.20
      direct lattice vectors                 reciprocal lattice vectors
     5.480000000  0.000000000  0.000000000     0.182481752  0.129034084  0.000000000
    -5.480000000  7.749890322  0.000000000     0.000000000  0.129034084  0.000000000
     0.000000000  0.000000000 24.492923856     0.000000000  0.000000000  0.040828119

  length of vectors
     5.480000000  9.491638426 24.492923856     0.223493590  0.129034084  0.040828119


 
 k-points in units of 2pi/SCALE and weight: Automatic KPOINTS generated             
   0.00000000  0.00000000  0.00000000       0.036
   0.02606882  0.01843344  0.00000000       0.071
   0.05213764  0.03686688  0.00000000       0.071
   0.07820647  0.05530032  0.00000000       0.071
   0.00000000  0.03225852  0.00000000       0.071
   0.02606882  0.05069196  0.00000000       0.071
   0.05213764  0.06912540  0.00000000       0.071
   0.07820647  0.08755884  0.00000000       0.071
  -0.07820647 -0.02304180  0.00000000       0.071
  -0.05213764 -0.00460836  0.00000000       0.071
  -0.02606882  0.01382508  0.00000000       0.071
   0.00000000  0.06451704  0.00000000       0.036
   0.02606882  0.08295048  0.00000000       0.071
   0.05213764  0.10138392  0.00000000       0.071
   0.07820647  0.11981736  0.00000000       0.071
 
 k-points in reciprocal lattice and weights: Automatic KPOINTS generated             
   0.00000000  0.00000000  0.00000000       0.036
   0.14285714 -0.00000000  0.00000000       0.071
   0.28571429  0.00000000  0.00000000       0.071
   0.42857143 -0.00000000  0.00000000       0.071
   0.00000000  0.25000000  0.00000000       0.071
   0.14285714  0.25000000  0.00000000       0.071
   0.28571429  0.25000000  0.00000000       0.071
   0.42857143  0.25000000  0.00000000       0.071
  -0.42857143  0.25000000  0.00000000       0.071
  -0.28571429  0.25000000  0.00000000       0.071
  -0.14285714  0.25000000  0.00000000       0.071
   0.00000000  0.50000000  0.00000000       0.036
   0.14285714  0.50000000  0.00000000       0.071
   0.28571429  0.50000000  0.00000000       0.071
   0.42857143  0.50000000  0.00000000       0.071
 
 position of ions in fractional coordinates (direct lattice) 
   0.99074074  0.05319149  0.90201252
   0.25000000  0.75000000  0.07910336
   0.50000000  0.50000000  0.15820672
   0.75000000  0.25000000  0.23731008
   0.00000000  0.00000000  0.31641344
   0.24074074  0.80319149  0.49350429
   0.49074074  0.55319149  0.90201252
   0.75000000  0.25000000  0.07910336
   0.00000000  0.00000000  0.15820672
   0.25000000  0.75000000  0.23731008
   0.50000000  0.50000000  0.31641344
   0.74074074  0.30319149  0.49350429
   0.00000000  0.25000000  0.00000000
   0.25000000  0.00000000  0.07910336
   0.50000000  0.75000000  0.15820672
   0.75000000  0.50000000  0.23731008
   0.00000000  0.25000000  0.31641344
   0.25000000  0.00000000  0.39551680
   0.50000000  0.75000000  0.00000000
   0.75000000  0.50000000  0.07910336
   0.00000000  0.25000000  0.15820672
   0.25000000  0.00000000  0.23731008
   0.50000000  0.75000000  0.31641344
   0.75000000  0.50000000  0.39551680
   0.24074074  0.05319149  0.49350429
   0.99074074  0.30319149  0.57520593
   0.74074074  0.55319149  0.65690758
   0.49074074  0.80319149  0.73860922
   0.24074074  0.05319149  0.82031087
   0.99074074  0.30319149  0.90201252
   0.74074074  0.55319149  0.49350429
   0.49074074  0.80319149  0.57520593
   0.24074074  0.05319149  0.65690758
   0.99074074  0.30319149  0.73860922
   0.74074074  0.55319149  0.82031087
   0.49074074  0.80319149  0.90201252
   0.25000000  0.75000000  0.39551680
   0.99074074  0.05319149  0.57520593
   0.74074074  0.30319149  0.65690758
   0.49074074  0.55319149  0.73860922
   0.24074074  0.80319149  0.82031087
   0.00000000  0.00000000  0.00000000
   0.75000000  0.25000000  0.39551680
   0.49074074  0.55319149  0.57520593
   0.24074074  0.80319149  0.65690758
   0.99074074  0.05319149  0.73860922
   0.74074074  0.30319149  0.82031087
   0.50000000  0.50000000  0.00000000
 
 position of ions in cartesian coordinates  (Angst):
   5.13776990  0.41222821 22.09292385
  -2.74000000  5.81241774  1.93747257
   0.00000000  3.87494516  3.87494517
   2.74000000  1.93747258  5.81241774
   0.00000000  0.00000000  7.74989032
  -3.08223010  6.22464595 12.08736290
  -0.34223010  4.28717337 22.09292385
   2.74000000  1.93747258  1.93747257
   0.00000000  0.00000000  3.87494517
  -2.74000000  5.81241774  5.81241774
   0.00000000  3.87494516  7.74989032
   2.39776990  2.34970079 12.08736290
  -1.37000000  1.93747258  0.00000000
   1.37000000  0.00000000  1.93747257
  -1.37000000  5.81241774  3.87494517
   1.37000000  3.87494516  5.81241774
  -1.37000000  1.93747258  7.74989032
   1.37000000  0.00000000  9.68736289
  -1.37000000  5.81241774  0.00000000
   1.37000000  3.87494516  1.93747257
  -1.37000000  1.93747258  3.87494517
   1.37000000  0.00000000  5.81241774
  -1.37000000  5.81241774  7.74989032
   1.37000000  3.87494516  9.68736289
   1.02776990  0.41222821 12.08736290
   3.76776990  2.34970079 14.08847509
   1.02776990  4.28717337 16.08958729
  -1.71223010  6.22464595 18.09069948
   1.02776990  0.41222821 20.09181168
   3.76776990  2.34970079 22.09292385
   1.02776990  4.28717337 12.08736290
  -1.71223010  6.22464595 14.08847509
   1.02776990  0.41222821 16.08958729
   3.76776990  2.34970079 18.09069948
   1.02776990  4.28717337 20.09181168
  -1.71223010  6.22464595 22.09292385
  -2.74000000  5.81241774  9.68736289
   5.13776990  0.41222821 14.08847509
   2.39776990  2.34970079 16.08958729
  -0.34223010  4.28717337 18.09069948
  -3.08223010  6.22464595 20.09181168
   0.00000000  0.00000000  0.00000000
   2.74000000  1.93747258  9.68736289
  -0.34223010  4.28717337 14.08847509
  -3.08223010  6.22464595 16.08958729
   5.13776990  0.41222821 18.09069948
   2.39776990  2.34970079 20.09181168
   0.00000000  3.87494516  0.00000000
 


--------------------------------------------------------------------------------------------------------


 k-point     1 :   0.0000 0.0000 0.0000  plane waves:   43759
 k-point     2 :   0.1429-0.0000 0.0000  plane waves:   43735
 k-point     3 :   0.2857 0.0000 0.0000  plane waves:   43718
 k-point     4 :   0.4286-0.0000 0.0000  plane waves:   43764
 k-point     5 :   0.0000 0.2500 0.0000  plane waves:   43695
 k-point     6 :   0.1429 0.2500 0.0000  plane waves:   43715
 k-point     7 :   0.2857 0.2500 0.0000  plane waves:   43783
 k-point     8 :   0.4286 0.2500 0.0000  plane waves:   43810
 k-point     9 :  -0.4286 0.2500 0.0000  plane waves:   43769
 k-point    10 :  -0.2857 0.2500 0.0000  plane waves:   43751
 k-point    11 :  -0.1429 0.2500 0.0000  plane waves:   43775
 k-point    12 :   0.0000 0.5000 0.0000  plane waves:   43722
 k-point    13 :   0.1429 0.5000 0.0000  plane waves:   43708
 k-point    14 :   0.2857 0.5000 0.0000  plane waves:   43762
 k-point    15 :   0.4286 0.5000 0.0000  plane waves:   43706

 maximum and minimum number of plane-waves per node :      2768     2704

 maximum number of plane-waves:     43810
 maximum index in each direction: 
   IXMAX=   12   IYMAX=   20   IZMAX=   52
   IXMIN=  -12   IYMIN=  -20   IZMIN=  -52


 real space projection operators:
  total allocation   :       9470.47 KBytes
  max/ min on nodes  :        775.06        481.47


 parallel 3D FFT for wavefunctions:
    minimum data exchange during FFTs selected (reduces bandwidth)
 parallel 3D FFT for charge:
    minimum data exchange during FFTs selected (reduces bandwidth)


 total amount of memory used by VASP MPI-rank0   235281. kBytes
=======================================================================

   base      :      30000. kBytes
   nonlr-proj:       3311. kBytes
   fftplans  :      28147. kBytes
   grid      :      18929. kBytes
   one-center:         48. kBytes
   wavefun   :     154846. kBytes
 
     INWAV:  cpu time      0.0001: real time      0.0004
 Broyden mixing: mesh for mixing (old mesh)
   NGX = 23   NGY = 41   NGZ =105
  (NGX  = 72   NGY  =128   NGZ  =320)
  gives a total of  99015 points

 initial charge density was supplied:
 charge density of overlapping atoms calculated
 number of electron     192.0000000 magnetization       1.0000000
 keeping initial charge density in first step


--------------------------------------------------------------------------------------------------------


 Maximum index for non-local projection operator          394
 Maximum index for augmentation-charges         9497 (set IRDMAX)


--------------------------------------------------------------------------------------------------------


 First call to EWALD:  gamma=   0.175
 Maximum number of real-space cells 6x 3x 1
 Maximum number of reciprocal cells 2x 3x 6

    FEWALD:  cpu time      0.0021: real time      0.0021


--------------------------------------- Ionic step        1  -------------------------------------------




--------------------------------------- Iteration      1(   1)  ---------------------------------------


    POTLOK:  cpu time      0.2678: real time      0.2702
    SETDIJ:  cpu time      1.6347: real time      1.6436
     EDDAV:  cpu time     23.6047: real time     24.2983
       DOS:  cpu time      0.0017: real time      0.0017
    --------------------------------------------
      LOOP:  cpu time     25.5089: real time     26.2139

 eigenvalue-minimisations  :  6960
 total energy-change (2. order) : 0.8161173E+03  (-0.8585938E+04)
 number of electron     192.0000000 magnetization       1.0000000
 augmentation part      192.0000000 magnetization       1.0000000

 Free energy of the ion-electron system (eV)
  ---------------------------------------------------
  alpha Z        PSCENC =       248.95636964
  Ewald energy   TEWEN  =     -5190.60182392
  -Hartree energ DENC   =      -412.80136235
  -exchange      EXHF   =         0.00000000
  -V(xc)+E(xc)   XCENC  =      -403.24404653
  PAW double counting   =      4230.45410297    -3460.51340012
  entropy T*S    EENTRO =        -0.00042358
  eigenvalues    EBANDS =       810.36702970
  atomic energy  EATOM  =      4993.50080470
  Solvation  Ediel_sol  =         0.00000000
  ---------------------------------------------------
  free energy    TOTEN  =       816.11725051 eV

  energy without entropy =      816.11767409  energy(sigma->0) =      816.11746230


--------------------------------------------------------------------------------------------------------




--------------------------------------- Iteration      1(   2)  ---------------------------------------


     EDDAV:  cpu time     26.6490: real time     26.8454
       DOS:  cpu time      0.0016: real time      0.0016
    --------------------------------------------
      LOOP:  cpu time     26.6506: real time     26.8470

 eigenvalue-minimisations  :  8192
 total energy-change (2. order) :-0.9599852E+03  (-0.9241431E+03)
 number of electron     192.0000000 magnetization       1.0000000
 augmentation part      192.0000000 magnetization       1.0000000

 Free energy of the ion-electron system (eV)
  ---------------------------------------------------
  alpha Z        PSCENC =       248.95636964
  Ewald energy   TEWEN  =     -5190.60182392
  -Hartree energ DENC   =      -412.80136235
  -exchange      EXHF   =         0.00000000
  -V(xc)+E(xc)   XCENC  =      -403.24404653
  PAW double counting   =      4230.45410297    -3460.51340012
  entropy T*S    EENTRO =        -0.00056419
  eigenvalues    EBANDS =      -149.61802762
  atomic energy  EATOM  =      4993.50080470
  Solvation  Ediel_sol  =         0.00000000
  ---------------------------------------------------
  free energy    TOTEN  =      -143.86794742 eV

  energy without entropy =     -143.86738322  energy(sigma->0) =     -143.86766532


--------------------------------------------------------------------------------------------------------




--------------------------------------- Iteration      1(   3)  ---------------------------------------


     EDDAV:  cpu time     27.5373: real time     27.7413
       DOS:  cpu time      0.0017: real time      0.0017
    --------------------------------------------
      LOOP:  cpu time     27.5390: real time     27.7431

 eigenvalue-minimisations  :  8528
 total energy-change (2. order) :-0.8724875E+02  (-0.8540758E+02)
 number of electron     192.0000000 magnetization       1.0000000
 augmentation part      192.0000000 magnetization       1.0000000

 Free energy of the ion-electron system (eV)
  ---------------------------------------------------
  alpha Z        PSCENC =       248.95636964
  Ewald energy   TEWEN  =     -5190.60182392
  -Hartree energ DENC   =      -412.80136235
  -exchange      EXHF   =         0.00000000
  -V(xc)+E(xc)   XCENC  =      -403.24404653
  PAW double counting   =      4230.45410297    -3460.51340012
  entropy T*S    EENTRO =        -0.00059655
  eigenvalues    EBANDS =      -236.86674043
  atomic energy  EATOM  =      4993.50080470
  Solvation  Ediel_sol  =         0.00000000
  ---------------------------------------------------
  free energy    TOTEN  =      -231.11669259 eV

  energy without entropy =     -231.11609603  energy(sigma->0) =     -231.11639431


--------------------------------------------------------------------------------------------------------




--------------------------------------- Iteration      1(   4)  ---------------------------------------


     EDDAV:  cpu time     27.0635: real time     27.2730
       DOS:  cpu time      0.0019: real time      0.0019
    --------------------------------------------
      LOOP:  cpu time     27.0654: real time     27.2749

 eigenvalue-minimisations  :  8344
 total energy-change (2. order) :-0.2830416E+01  (-0.2799505E+01)
 number of electron     192.0000000 magnetization       1.0000000
 augmentation part      192.0000000 magnetization       1.0000000

 Free energy of the ion-electron system (eV)
  ---------------------------------------------------
  alpha Z        PSCENC =       248.95636964
  Ewald energy   TEWEN  =     -5190.60182392
  -Hartree energ DENC   =      -412.80136235
  -exchange      EXHF   =         0.00000000
  -V(xc)+E(xc)   XCENC  =      -403.24404653
  PAW double counting   =      4230.45410297    -3460.51340012
  entropy T*S    EENTRO =        -0.00103095
  eigenvalues    EBANDS =      -239.69672170
  atomic energy  EATOM  =      4993.50080470
  Solvation  Ediel_sol  =         0.00000000
  ---------------------------------------------------
  free energy    TOTEN  =      -233.94710826 eV

  energy without entropy =     -233.94607731  energy(sigma->0) =     -233.94659278


--------------------------------------------------------------------------------------------------------




--------------------------------------- Iteration      1(   5)  ---------------------------------------


     EDDAV:  cpu time     29.0998: real time     29.3257
       DOS:  cpu time      0.0018: real time      0.0018
    CHARGE:  cpu time      1.7976: real time      1.8091
    MIXING:  cpu time      0.0110: real time      0.0115
    --------------------------------------------
      LOOP:  cpu time     30.9103: real time     31.1482

 eigenvalue-minimisations  :  9168
 total energy-change (2. order) :-0.1067870E+00  (-0.1064667E+00)
 number of electron     191.9999999 magnetization       1.0000000
 augmentation part      -21.3690489 magnetization      -0.0741631

 Broyden mixing:
  rms(total) = 0.19568E+01    rms(broyden)= 0.19568E+01
  rms(prec ) = 0.20155E+01
  weight for this iteration     100.00

 Free energy of the ion-electron system (eV)
  ---------------------------------------------------
  alpha Z        PSCENC =       248.95636964
  Ewald energy   TEWEN  =     -5190.60182392
  -Hartree energ DENC   =      -412.80136235
  -exchange      EXHF   =         0.00000000
  -V(xc)+E(xc)   XCENC  =      -403.24404653
  PAW double counting   =      4230.45410297    -3460.51340012
  entropy T*S    EENTRO =        -0.00104658
  eigenvalues    EBANDS =      -239.80349310
  atomic energy  EATOM  =      4993.50080470
  Solvation  Ediel_sol  =         0.00000000
  ---------------------------------------------------
  free energy    TOTEN  =      -234.05389529 eV

  energy without entropy =     -234.05284870  energy(sigma->0) =     -234.05337200


--------------------------------------------------------------------------------------------------------




--------------------------------------- Iteration      1(   6)  ---------------------------------------


    POTLOK:  cpu time      0.2646: real time      0.2673
    SETDIJ:  cpu time      1.6417: real time      1.6504
     EDDAV:  cpu time     27.2555: real time     27.4689
       DOS:  cpu time      0.0016: real time      0.0016
    CHARGE:  cpu time      1.7943: real time      1.8064
    MIXING:  cpu time      0.0091: real time      0.0475
    --------------------------------------------
      LOOP:  cpu time     30.9667: real time     31.2420

 eigenvalue-minimisations  :  8408
 total energy-change (2. order) : 0.3437769E+01  (-0.4788433E+00)
 number of electron     191.9999999 magnetization       1.0000000
 augmentation part      -21.1687503 magnetization      -0.0690471

 Broyden mixing:
  rms(total) = 0.89675E+00    rms(broyden)= 0.89675E+00
  rms(prec ) = 0.92062E+00
  weight for this iteration     100.00

 eigenvalues of (default mixing * dielectric matrix)
  average eigenvalue GAMMA=   1.7662
  1.7662

 Free energy of the ion-electron system (eV)
  ---------------------------------------------------
  alpha Z        PSCENC =       248.95636964
  Ewald energy   TEWEN  =     -5190.60182392
  -Hartree energ DENC   =      -465.95229478
  -exchange      EXHF   =         0.00000000
  -V(xc)+E(xc)   XCENC  =      -395.25273428
  PAW double counting   =      8799.49406270    -8033.50413735
  entropy T*S    EENTRO =        -0.00020242
  eigenvalues    EBANDS =      -187.25617035
  atomic energy  EATOM  =      4993.50080470
  Solvation  Ediel_sol  =         0.00000000
  ---------------------------------------------------
  free energy    TOTEN  =      -230.61612606 eV

  energy without entropy =     -230.61592363  energy(sigma->0) =     -230.61602485


--------------------------------------------------------------------------------------------------------




--------------------------------------- Iteration      1(   7)  ---------------------------------------


    POTLOK:  cpu time      0.2645: real time      0.2683
    SETDIJ:  cpu time      1.6446: real time      1.6533
     EDDAV:  cpu time     27.4942: real time     27.7069
       DOS:  cpu time      0.0017: real time      0.0017
    CHARGE:  cpu time      1.7883: real time      1.8005
    MIXING:  cpu time      0.0086: real time      0.0362
    --------------------------------------------
      LOOP:  cpu time     31.2020: real time     31.4670

 eigenvalue-minimisations  :  8496
 total energy-change (2. order) : 0.2056410E+00  (-0.3426260E+00)
 number of electron     191.9999999 magnetization       1.0000000
 augmentation part      -21.0663918 magnetization      -0.0656485

 Broyden mixing:
  rms(total) = 0.25554E+00    rms(broyden)= 0.25554E+00
  rms(prec ) = 0.32035E+00
  weight for this iteration     100.00

 eigenvalues of (default mixing * dielectric matrix)
  average eigenvalue GAMMA=   1.2163
  1.8568  0.5758

 Free energy of the ion-electron system (eV)
  ---------------------------------------------------
  alpha Z        PSCENC =       248.95636964
  Ewald energy   TEWEN  =     -5190.60182392
  -Hartree energ DENC   =      -502.53589474
  -exchange      EXHF   =         0.00000000
  -V(xc)+E(xc)   XCENC  =      -388.90610087
  PAW double counting   =     14159.97084768   -13396.89811693
  entropy T*S    EENTRO =        -0.00027053
  eigenvalues    EBANDS =      -153.89630006
  atomic energy  EATOM  =      4993.50080470
  Solvation  Ediel_sol  =         0.00000000
  ---------------------------------------------------
  free energy    TOTEN  =      -230.41048502 eV

  energy without entropy =     -230.41021449  energy(sigma->0) =     -230.41034976


--------------------------------------------------------------------------------------------------------




--------------------------------------- Iteration      1(   8)  ---------------------------------------


    POTLOK:  cpu time      0.2637: real time      0.2676
    SETDIJ:  cpu time      1.6406: real time      1.6488
     EDDAV:  cpu time     27.7064: real time     27.9143
       DOS:  cpu time      0.0014: real time      0.0014
    CHARGE:  cpu time      1.7960: real time      1.8073
    MIXING:  cpu time      0.0088: real time      0.0089
    --------------------------------------------
      LOOP:  cpu time     31.4169: real time     31.6482

 eigenvalue-minimisations  :  8584
 total energy-change (2. order) : 0.6645662E-01  (-0.9871021E-01)
 number of electron     191.9999999 magnetization       1.0000000
 augmentation part      -21.0009364 magnetization      -0.0665725

 Broyden mixing:
  rms(total) = 0.91238E-01    rms(broyden)= 0.91238E-01
  rms(prec ) = 0.95414E-01
  weight for this iteration     100.00

 eigenvalues of (default mixing * dielectric matrix)
  average eigenvalue GAMMA=   1.2418
  1.9193  1.2669  0.5391

 Free energy of the ion-electron system (eV)
  ---------------------------------------------------
  alpha Z        PSCENC =       248.95636964
  Ewald energy   TEWEN  =     -5190.60182392
  -Hartree energ DENC   =      -504.74356562
  -exchange      EXHF   =         0.00000000
  -V(xc)+E(xc)   XCENC  =      -388.55181915
  PAW double counting   =     15028.58472145   -14265.69894244
  entropy T*S    EENTRO =        -0.00020308
  eigenvalues    EBANDS =      -151.78956997
  atomic energy  EATOM  =      4993.50080470
  Solvation  Ediel_sol  =         0.00000000
  ---------------------------------------------------
  free energy    TOTEN  =      -230.34402840 eV

  energy without entropy =     -230.34382531  energy(sigma->0) =     -230.34392685


--------------------------------------------------------------------------------------------------------




--------------------------------------- Iteration      1(   9)  ---------------------------------------


    POTLOK:  cpu time      0.2659: real time      0.2688
    SETDIJ:  cpu time      1.6418: real time      1.6500
     EDDAV:  cpu time     26.1006: real time     26.2969
       DOS:  cpu time      0.0015: real time      0.0015
    CHARGE:  cpu time      1.7894: real time      1.8002
    MIXING:  cpu time      0.0089: real time      0.0089
    --------------------------------------------
      LOOP:  cpu time     29.8080: real time     30.0263

 eigenvalue-minimisations  :  7960
 total energy-change (2. order) :-0.4330072E-02  (-0.1840496E-01)
 number of electron     191.9999999 magnetization       1.0000000
 augmentation part      -21.0212232 magnetization      -0.0677027

 Broyden mixing:
  rms(total) = 0.56915E-01    rms(broyden)= 0.56915E-01
  rms(prec ) = 0.57952E-01
  weight for this iteration     100.00

 eigenvalues of (default mixing * dielectric matrix)
  average eigenvalue GAMMA=   1.1922
  1.7548  1.7548  0.7742  0.4849

 Free energy of the ion-electron system (eV)
  ---------------------------------------------------
  alpha Z        PSCENC =       248.95636964
  Ewald energy   TEWEN  =     -5190.60182392
  -Hartree energ DENC   =      -501.63704138
  -exchange      EXHF   =         0.00000000
  -V(xc)+E(xc)   XCENC  =      -388.75802072
  PAW double counting   =     15395.69647828   -14632.72550429
  entropy T*S    EENTRO =        -0.00020166
  eigenvalues    EBANDS =      -154.77941912
  atomic energy  EATOM  =      4993.50080470
  Solvation  Ediel_sol  =         0.00000000
  ---------------------------------------------------
  free energy    TOTEN  =      -230.34835847 eV

  energy without entropy =     -230.34815681  energy(sigma->0) =     -230.34825764


--------------------------------------------------------------------------------------------------------




--------------------------------------- Iteration      1(  10)  ---------------------------------------


    POTLOK:  cpu time      0.2653: real time      0.2682
    SETDIJ:  cpu time      1.6417: real time      1.6499
     EDDAV:  cpu time     27.3185: real time     27.5247
       DOS:  cpu time      0.0016: real time      0.0016
    CHARGE:  cpu time      1.7930: real time      1.8042
    MIXING:  cpu time      0.0093: real time      0.0097
    --------------------------------------------
      LOOP:  cpu time     31.0294: real time     31.2582

 eigenvalue-minimisations  :  8440
 total energy-change (2. order) :-0.3996398E-02  (-0.3522039E-02)
 number of electron     191.9999999 magnetization       1.0000000
 augmentation part      -21.0258993 magnetization      -0.0637303

 Broyden mixing:
  rms(total) = 0.31464E-01    rms(broyden)= 0.31464E-01
  rms(prec ) = 0.34153E-01
  weight for this iteration     100.00

 eigenvalues of (default mixing * dielectric matrix)
  average eigenvalue GAMMA=   1.1120
  1.7664  1.7664  1.0546  0.4865  0.4865

 Free energy of the ion-electron system (eV)
  ---------------------------------------------------
  alpha Z        PSCENC =       248.95636964
  Ewald energy   TEWEN  =     -5190.60182392
  -Hartree energ DENC   =      -500.24609844
  -exchange      EXHF   =         0.00000000
  -V(xc)+E(xc)   XCENC  =      -388.90148825
  PAW double counting   =     15448.82244513   -14685.78823042
  entropy T*S    EENTRO =        -0.00020164
  eigenvalues    EBANDS =      -156.09413167
  atomic energy  EATOM  =      4993.50080470
  Solvation  Ediel_sol  =         0.00000000
  ---------------------------------------------------
  free energy    TOTEN  =      -230.35235487 eV

  energy without entropy =     -230.35215323  energy(sigma->0) =     -230.35225405


--------------------------------------------------------------------------------------------------------




--------------------------------------- Iteration      1(  11)  ---------------------------------------


    POTLOK:  cpu time      0.2633: real time      0.2665
    SETDIJ:  cpu time      1.6422: real time      1.6505
     EDDAV:  cpu time     27.0588: real time     27.2722
       DOS:  cpu time      0.0016: real time      0.0016
    CHARGE:  cpu time      1.7925: real time      1.8037
    MIXING:  cpu time      0.0100: real time      0.0100
    --------------------------------------------
      LOOP:  cpu time     30.7684: real time     31.0046

 eigenvalue-minimisations  :  8320
 total energy-change (2. order) :-0.2919579E-03  (-0.9532796E-03)
 number of electron     191.9999999 magnetization       1.0000000
 augmentation part      -21.0203277 magnetization      -0.0648315

 Broyden mixing:
  rms(total) = 0.18413E-01    rms(broyden)= 0.18413E-01
  rms(prec ) = 0.19063E-01
  weight for this iteration     100.00

 eigenvalues of (default mixing * dielectric matrix)
  average eigenvalue GAMMA=   1.0974
  1.6446  1.6446  1.5577  0.7508  0.4932  0.4932

 Free energy of the ion-electron system (eV)
  ---------------------------------------------------
  alpha Z        PSCENC =       248.95636964
  Ewald energy   TEWEN  =     -5190.60182392
  -Hartree energ DENC   =      -500.14477533
  -exchange      EXHF   =         0.00000000
  -V(xc)+E(xc)   XCENC  =      -388.92783649
  PAW double counting   =     15426.86847823   -14663.82178204
  entropy T*S    EENTRO =        -0.00020164
  eigenvalues    EBANDS =      -156.18187998
  atomic energy  EATOM  =      4993.50080470
  Solvation  Ediel_sol  =         0.00000000
  ---------------------------------------------------
  free energy    TOTEN  =      -230.35264682 eV

  energy without entropy =     -230.35244518  energy(sigma->0) =     -230.35254600


--------------------------------------------------------------------------------------------------------




--------------------------------------- Iteration      1(  12)  ---------------------------------------


    POTLOK:  cpu time      0.2636: real time      0.2669
    SETDIJ:  cpu time      1.6354: real time      1.6438
     EDDAV:  cpu time     29.9629: real time     30.1905
       DOS:  cpu time      0.0015: real time      0.0015
    CHARGE:  cpu time      1.7922: real time      1.8039
    MIXING:  cpu time      0.0097: real time      0.0098
    --------------------------------------------
      LOOP:  cpu time     33.6654: real time     33.9165

 eigenvalue-minimisations  :  9480
 total energy-change (2. order) :-0.1169350E-03  (-0.1230518E-03)
 number of electron     191.9999999 magnetization       1.0000000
 augmentation part      -21.0210617 magnetization      -0.0646816

 Broyden mixing:
  rms(total) = 0.97684E-02    rms(broyden)= 0.97684E-02
  rms(prec ) = 0.10078E-01
  weight for this iteration     100.00

 eigenvalues of (default mixing * dielectric matrix)
  average eigenvalue GAMMA=   1.1216
  1.7903  1.7903  1.6805  0.9695  0.5776  0.5776  0.4651

 Free energy of the ion-electron system (eV)
  ---------------------------------------------------
  alpha Z        PSCENC =       248.95636964
  Ewald energy   TEWEN  =     -5190.60182392
  -Hartree energ DENC   =      -500.28724656
  -exchange      EXHF   =         0.00000000
  -V(xc)+E(xc)   XCENC  =      -388.91334351
  PAW double counting   =     15399.36514799   -14636.32320309
  entropy T*S    EENTRO =        -0.00020174
  eigenvalues    EBANDS =      -156.04926728
  atomic energy  EATOM  =      4993.50080470
  Solvation  Ediel_sol  =         0.00000000
  ---------------------------------------------------
  free energy    TOTEN  =      -230.35276376 eV

  energy without entropy =     -230.35256202  energy(sigma->0) =     -230.35266289


--------------------------------------------------------------------------------------------------------




--------------------------------------- Iteration      1(  13)  ---------------------------------------


    POTLOK:  cpu time      0.2639: real time      0.2660
    SETDIJ:  cpu time      1.6414: real time      1.6498
     EDDAV:  cpu time     26.4486: real time     26.6557
       DOS:  cpu time      0.0015: real time      0.0015
    CHARGE:  cpu time      1.7924: real time      1.8045
    MIXING:  cpu time      0.0102: real time      0.0103
    --------------------------------------------
      LOOP:  cpu time     30.1580: real time     30.3878

 eigenvalue-minimisations  :  8104
 total energy-change (2. order) :-0.9024593E-05  (-0.1048293E-03)
 number of electron     191.9999999 magnetization       1.0000000
 augmentation part      -21.0223210 magnetization      -0.0641800

 Broyden mixing:
  rms(total) = 0.56997E-02    rms(broyden)= 0.56997E-02
  rms(prec ) = 0.57477E-02
  weight for this iteration     100.00

 eigenvalues of (default mixing * dielectric matrix)
  average eigenvalue GAMMA=   1.1336
  2.0011  2.0011  1.7204  1.0557  0.7296  0.5477  0.5477  0.4653

 Free energy of the ion-electron system (eV)
  ---------------------------------------------------
  alpha Z        PSCENC =       248.95636964
  Ewald energy   TEWEN  =     -5190.60182392
  -Hartree energ DENC   =      -500.33600806
  -exchange      EXHF   =         0.00000000
  -V(xc)+E(xc)   XCENC  =      -388.90228060
  PAW double counting   =     15386.33819520   -14623.29985797
  entropy T*S    EENTRO =        -0.00020168
  eigenvalues    EBANDS =      -156.00797010
  atomic energy  EATOM  =      4993.50080470
  Solvation  Ediel_sol  =         0.00000000
  ---------------------------------------------------
  free energy    TOTEN  =      -230.35277278 eV

  energy without entropy =     -230.35257110  energy(sigma->0) =     -230.35267194


--------------------------------------------------------------------------------------------------------




--------------------------------------- Iteration      1(  14)  ---------------------------------------


    POTLOK:  cpu time      0.2642: real time      0.2666
    SETDIJ:  cpu time      1.6436: real time      1.6525
     EDDAV:  cpu time     26.6193: real time     26.8248
       DOS:  cpu time      0.0016: real time      0.0016
    CHARGE:  cpu time      1.7903: real time      1.8017
    MIXING:  cpu time      0.0113: real time      0.0113
    --------------------------------------------
      LOOP:  cpu time     30.3303: real time     30.5585

 eigenvalue-minimisations  :  8176
 total energy-change (2. order) :-0.1261850E-03  (-0.3009026E-04)
 number of electron     191.9999999 magnetization       1.0000000
 augmentation part      -21.0221029 magnetization      -0.0644056

 Broyden mixing:
  rms(total) = 0.22245E-02    rms(broyden)= 0.22245E-02
  rms(prec ) = 0.23094E-02
  weight for this iteration     100.00

 eigenvalues of (default mixing * dielectric matrix)
  average eigenvalue GAMMA=   1.0661
  2.0461  1.8215  1.8215  1.0356  0.7695  0.5713  0.5713  0.5074  0.4502

 Free energy of the ion-electron system (eV)
  ---------------------------------------------------
  alpha Z        PSCENC =       248.95636964
  Ewald energy   TEWEN  =     -5190.60182392
  -Hartree energ DENC   =      -500.32545890
  -exchange      EXHF   =         0.00000000
  -V(xc)+E(xc)   XCENC  =      -388.90036813
  PAW double counting   =     15393.77455553   -14630.73656679
  entropy T*S    EENTRO =        -0.00020169
  eigenvalues    EBANDS =      -156.02020941
  atomic energy  EATOM  =      4993.50080470
  Solvation  Ediel_sol  =         0.00000000
  ---------------------------------------------------
  free energy    TOTEN  =      -230.35289897 eV

  energy without entropy =     -230.35269728  energy(sigma->0) =     -230.35279812


--------------------------------------------------------------------------------------------------------




--------------------------------------- Iteration      1(  15)  ---------------------------------------


    POTLOK:  cpu time      0.2641: real time      0.2671
    SETDIJ:  cpu time      1.6452: real time      1.6533
     EDDAV:  cpu time     26.3008: real time     26.5026
       DOS:  cpu time      0.0016: real time      0.0016
    CHARGE:  cpu time      1.7917: real time      1.8032
    MIXING:  cpu time      0.0109: real time      0.0110
    --------------------------------------------
      LOOP:  cpu time     30.0143: real time     30.2387

 eigenvalue-minimisations  :  8032
 total energy-change (2. order) :-0.6113137E-05  (-0.3885363E-05)
 number of electron     191.9999999 magnetization       1.0000000
 augmentation part      -21.0216961 magnetization      -0.0644178

 Broyden mixing:
  rms(total) = 0.11167E-02    rms(broyden)= 0.11167E-02
  rms(prec ) = 0.11348E-02
  weight for this iteration     100.00

 eigenvalues of (default mixing * dielectric matrix)
  average eigenvalue GAMMA=   1.0601
  2.0992  1.7718  1.7718  1.1557  0.8822  0.8822  0.5607  0.5607  0.4439  0.4730

 Free energy of the ion-electron system (eV)
  ---------------------------------------------------
  alpha Z        PSCENC =       248.95636964
  Ewald energy   TEWEN  =     -5190.60182392
  -Hartree energ DENC   =      -500.33419116
  -exchange      EXHF   =         0.00000000
  -V(xc)+E(xc)   XCENC  =      -388.89919139
  PAW double counting   =     15398.42627934   -14635.38862146
  entropy T*S    EENTRO =        -0.00020170
  eigenvalues    EBANDS =      -156.01232914
  atomic energy  EATOM  =      4993.50080470
  Solvation  Ediel_sol  =         0.00000000
  ---------------------------------------------------
  free energy    TOTEN  =      -230.35290508 eV

  energy without entropy =     -230.35270338  energy(sigma->0) =     -230.35280423


--------------------------------------------------------------------------------------------------------




--------------------------------------- Iteration      1(  16)  ---------------------------------------


    POTLOK:  cpu time      0.2635: real time      0.2660
    SETDIJ:  cpu time      1.6374: real time      1.6454
     EDDAV:  cpu time     27.3947: real time     27.6061
       DOS:  cpu time      0.0017: real time      0.0017
    CHARGE:  cpu time      1.7903: real time      1.8017
    MIXING:  cpu time      0.0114: real time      0.0118
    --------------------------------------------
      LOOP:  cpu time     31.0990: real time     31.3327

 eigenvalue-minimisations  :  8464
 total energy-change (2. order) :-0.2085350E-05  (-0.6401003E-06)
 number of electron     191.9999999 magnetization       1.0000000
 augmentation part      -21.0215878 magnetization      -0.0644173

 Broyden mixing:
  rms(total) = 0.77375E-03    rms(broyden)= 0.77373E-03
  rms(prec ) = 0.78364E-03
  weight for this iteration     100.00

 eigenvalues of (default mixing * dielectric matrix)
  average eigenvalue GAMMA=   1.0739
  2.1791  1.8255  1.8255  1.4577  0.8269  0.8269  0.7029  0.7029  0.5366  0.4866
  0.4421

 Free energy of the ion-electron system (eV)
  ---------------------------------------------------
  alpha Z        PSCENC =       248.95636964
  Ewald energy   TEWEN  =     -5190.60182392
  -Hartree energ DENC   =      -500.34606834
  -exchange      EXHF   =         0.00000000
  -V(xc)+E(xc)   XCENC  =      -388.89799954
  PAW double counting   =     15399.55041238   -14636.51304212
  entropy T*S    EENTRO =        -0.00020170
  eigenvalues    EBANDS =      -156.00135827
  atomic energy  EATOM  =      4993.50080470
  Solvation  Ediel_sol  =         0.00000000
  ---------------------------------------------------
  free energy    TOTEN  =      -230.35290717 eV

  energy without entropy =     -230.35270546  energy(sigma->0) =     -230.35280632


--------------------------------------------------------------------------------------------------------




--------------------------------------- Iteration      1(  17)  ---------------------------------------


    POTLOK:  cpu time      0.2633: real time      0.2663
    SETDIJ:  cpu time      1.6314: real time      1.6394
     EDDAV:  cpu time     26.8461: real time     27.0516
       DOS:  cpu time      0.0018: real time      0.0018
    CHARGE:  cpu time      1.7885: real time      1.8001
    MIXING:  cpu time      0.0123: real time      0.0124
    --------------------------------------------
      LOOP:  cpu time     30.5434: real time     30.7716

 eigenvalue-minimisations  :  8264
 total energy-change (2. order) :-0.1075950E-05  (-0.1931947E-06)
 number of electron     191.9999999 magnetization       1.0000000
 augmentation part      -21.0216103 magnetization      -0.0644074

 Broyden mixing:
  rms(total) = 0.50649E-03    rms(broyden)= 0.50645E-03
  rms(prec ) = 0.50722E-03
  weight for this iteration     100.00

 eigenvalues of (default mixing * dielectric matrix)
  average eigenvalue GAMMA=   1.0712
  2.3041  1.8455  1.8455  1.6573  0.9591  0.8055  0.8055  0.6022  0.6022  0.4939
  0.4939  0.4402

 Free energy of the ion-electron system (eV)
  ---------------------------------------------------
  alpha Z        PSCENC =       248.95636964
  Ewald energy   TEWEN  =     -5190.60182392
  -Hartree energ DENC   =      -500.35480357
  -exchange      EXHF   =         0.00000000
  -V(xc)+E(xc)   XCENC  =      -388.89736045
  PAW double counting   =     15398.39345157   -14635.35605369
  entropy T*S    EENTRO =        -0.00020170
  eigenvalues    EBANDS =      -155.99329083
  atomic energy  EATOM  =      4993.50080470
  Solvation  Ediel_sol  =         0.00000000
  ---------------------------------------------------
  free energy    TOTEN  =      -230.35290824 eV

  energy without entropy =     -230.35270654  energy(sigma->0) =     -230.35280739


--------------------------------------------------------------------------------------------------------




--------------------------------------- Iteration      1(  18)  ---------------------------------------


    POTLOK:  cpu time      0.2635: real time      0.2667
    SETDIJ:  cpu time      1.6320: real time      1.6402
     EDDAV:  cpu time     25.6627: real time     25.8553
       DOS:  cpu time      0.0018: real time      0.0018
    CHARGE:  cpu time      1.7829: real time      1.7941
    MIXING:  cpu time      0.0123: real time      0.0124
    --------------------------------------------
      LOOP:  cpu time     29.3551: real time     29.5705

 eigenvalue-minimisations  :  7808
 total energy-change (2. order) :-0.8640172E-06  (-0.8338155E-07)
 number of electron     191.9999999 magnetization       1.0000000
 augmentation part      -21.0216027 magnetization      -0.0643929

 Broyden mixing:
  rms(total) = 0.42092E-03    rms(broyden)= 0.42088E-03
  rms(prec ) = 0.42179E-03
  weight for this iteration     100.00

 eigenvalues of (default mixing * dielectric matrix)
  average eigenvalue GAMMA=   1.0833
  2.4015  1.8742  1.8037  1.8037  0.9994  0.9994  0.9026  0.6838  0.6838  0.5147
  0.5147  0.4639  0.4368

 Free energy of the ion-electron system (eV)
  ---------------------------------------------------
  alpha Z        PSCENC =       248.95636964
  Ewald energy   TEWEN  =     -5190.60182392
  -Hartree energ DENC   =      -500.35458846
  -exchange      EXHF   =         0.00000000
  -V(xc)+E(xc)   XCENC  =      -388.89750508
  PAW double counting   =     15398.18475338   -14635.14718769
  entropy T*S    EENTRO =        -0.00020170
  eigenvalues    EBANDS =      -155.99352998
  atomic energy  EATOM  =      4993.50080470
  Solvation  Ediel_sol  =         0.00000000
  ---------------------------------------------------
  free energy    TOTEN  =      -230.35290911 eV

  energy without entropy =     -230.35270741  energy(sigma->0) =     -230.35280826


--------------------------------------------------------------------------------------------------------




--------------------------------------- Iteration      1(  19)  ---------------------------------------


    POTLOK:  cpu time      0.2634: real time      0.2660
    SETDIJ:  cpu time      1.6348: real time      1.6431
     EDDAV:  cpu time     20.1083: real time     20.2608
       DOS:  cpu time      0.0017: real time      0.0017
    CHARGE:  cpu time      1.7879: real time      1.7988
    MIXING:  cpu time      0.0131: real time      0.0132
    --------------------------------------------
      LOOP:  cpu time     23.8092: real time     23.9837

 eigenvalue-minimisations  :  5568
 total energy-change (2. order) :-0.5315223E-06  (-0.2354053E-07)
 number of electron     191.9999999 magnetization       1.0000000
 augmentation part      -21.0216071 magnetization      -0.0643834

 Broyden mixing:
  rms(total) = 0.30420E-03    rms(broyden)= 0.30414E-03
  rms(prec ) = 0.30437E-03
  weight for this iteration     100.00

 eigenvalues of (default mixing * dielectric matrix)
  average eigenvalue GAMMA=   1.1475
  2.9502  2.1473  1.8216  1.8216  1.4086  1.0023  0.8288  0.8288  0.6625  0.6625
  0.5421  0.5011  0.4537  0.4339

 Free energy of the ion-electron system (eV)
[...]
     61       1.5586      1.00000
     62       1.7087      1.00000
     63       1.9045      1.00000
     64       1.9448      1.00000
     65       1.9679      1.00000
     66       2.0317      1.00000
     67       2.1742      1.00000
     68       2.2272      1.00000
     69       2.3380      1.00000
     70       2.3599      1.00000
     71       2.4001      1.00000
     72       2.4376      1.00000
     73       2.4446      1.00000
     74       2.4518      1.00000
     75       2.6275      1.00000
     76       2.6604      1.00000
     77       2.7928      1.00000
     78       2.8210      1.00000
     79       2.8435      1.00000
     80       2.8725      1.00000
     81       2.9207      1.00000
     82       2.9349      1.00000
     83       2.9920      1.00000
     84       2.9945      1.00000
     85       3.0362      1.00000
     86       3.1568      1.00000
     87       3.1796      1.00000
     88       3.2148      1.00000
     89       3.3991      1.00000
     90       3.4644      1.00000
     91       3.5028      1.00000
     92       3.6435      1.00000
     93       3.6682      1.00000
     94       3.7592      1.00000
     95       3.7908      1.00000
     96       3.8464      1.00000
     97       5.1101      0.00000
     98       5.2860      0.00000
     99       5.3520      0.00000
    100       5.4095      0.00000
    101       5.4130      0.00000
    102       5.6173      0.00000
    103       5.9212      0.00000
    104       6.0908      0.00000
    105       6.1607      0.00000
    106       6.2107      0.00000
    107       6.3236      0.00000
    108       6.4157      0.00000
    109       6.4900      0.00000
    110       6.5519      0.00000
    111       6.5586      0.00000
    112       6.6581      0.00000
    113       6.7722      0.00000
    114       6.9158      0.00000
    115       6.9231      0.00000
    116       7.2591      0.00000


--------------------------------------------------------------------------------------------------------


 soft charge-density along one line, spin component           1
         0         1         2         3         4         5         6         7         8         9
 total charge-density along one line
 
 soft charge-density along one line, spin component           2
         0         1         2         3         4         5         6         7         8         9
 total charge-density along one line
 
 pseudopotential strength for first ion, spin component:           1
 18.609  25.964   0.001   0.003   0.002   0.002   0.006   0.003
 25.964  36.231   0.002   0.004   0.002   0.003   0.008   0.004
  0.001   0.002   4.204   0.000   0.000   7.836   0.001   0.000
  0.003   0.004   0.000   4.205  -0.001   0.001   7.837  -0.001
  0.002   0.002   0.000  -0.001   4.205   0.000  -0.001   7.837
  0.002   0.003   7.836   0.001   0.000  14.616   0.001   0.000
  0.006   0.008   0.001   7.837  -0.001   0.001  14.617  -0.002
  0.003   0.004   0.000  -0.001   7.837   0.000  -0.002  14.617
 pseudopotential strength for first ion, spin component:           2
 18.606  25.960   0.001   0.003   0.001   0.002   0.005   0.002
 25.960  36.226   0.001   0.004   0.001   0.002   0.007   0.002
  0.001   0.001   4.203   0.000  -0.000   7.834   0.000  -0.000
  0.003   0.004   0.000   4.204  -0.001   0.000   7.835  -0.001
  0.001   0.001  -0.000  -0.001   4.203  -0.000  -0.001   7.834
  0.002   0.002   7.834   0.000  -0.000  14.612   0.001  -0.000
  0.005   0.007   0.000   7.835  -0.001   0.001  14.613  -0.002
  0.002   0.002  -0.000  -0.001   7.834  -0.000  -0.002  14.612
 total augmentation occupancy for first ion, spin component:           1
  5.082  -1.869  -0.072   0.010  -0.407   0.021  -0.018   0.147
 -1.869   0.878   0.046  -0.021   0.237  -0.010   0.021  -0.078
 -0.072   0.046   2.756  -0.086  -0.003  -0.602   0.024   0.006
  0.010  -0.021  -0.086   2.640  -0.225   0.024  -0.598   0.073
 -0.407   0.237  -0.003  -0.225   2.420   0.006   0.073  -0.503
  0.021  -0.010  -0.602   0.024   0.006   0.144  -0.006  -0.003
 -0.018   0.021   0.024  -0.598   0.073  -0.006   0.147  -0.023
  0.147  -0.078   0.006   0.073  -0.503  -0.003  -0.023   0.115
 total augmentation occupancy for first ion, spin component:           2
  0.035  -0.020   0.001  -0.005  -0.001  -0.000   0.001  -0.001
 -0.020   0.012   0.000   0.005   0.005   0.000  -0.001  -0.000
  0.001   0.000   0.022   0.011   0.003  -0.004  -0.001  -0.000
 -0.005   0.005   0.011   0.016   0.002  -0.001  -0.003   0.000
 -0.001   0.005   0.003   0.002   0.027  -0.000   0.000  -0.004
 -0.000   0.000  -0.004  -0.001  -0.000   0.001   0.000   0.000
  0.001  -0.001  -0.001  -0.003   0.000   0.000   0.001  -0.000
 -0.001  -0.000  -0.000   0.000  -0.004   0.000  -0.000   0.001


------------------------ aborting loop because EDIFF is reached ----------------------------------------


    CHARGE:  cpu time      1.7917: real time      1.8030
    FORLOC:  cpu time      0.0355: real time      0.0357
    FORNL :  cpu time      7.8787: real time      7.9353
    STRESS:  cpu time     24.0571: real time     24.2279
    FORCOR:  cpu time      0.2927: real time      0.2946
    FORHAR:  cpu time      0.0571: real time      0.0575
    MIXING:  cpu time      0.0181: real time      0.0182
    OFIELD:  cpu time      0.0000: real time      0.0000

  FORCE on cell =-STRESS in cart. coord.  units (eV):
  Direction    XX          YY          ZZ          XY          YZ          ZX
  --------------------------------------------------------------------------------------
  Alpha Z   248.95637   248.95637   248.95637
  Ewald   -1991.70845 -1510.67558 -1688.24547    -9.70914    -0.00000    -0.00000
  Hartree    69.98029   283.18765   147.18480    -2.09852     0.00000     0.00000
  E(xc)    -638.71470  -639.65942  -637.39819     0.01096    -0.00000     0.00000
  Local    -386.53679 -1079.43474  -754.43652    11.26936     0.00000     0.00000
  n-local  1411.82297  1434.70241  1418.44367     0.09172    -0.01729    -0.06929
  augment  -112.04192  -112.93076  -111.37467    -0.10695    -0.00000    -0.00000
  Kinetic  1437.44495  1414.51469  1390.90652     0.57951     0.00000     0.00095
  Fock        0.00000     0.00000     0.00000     0.00000     0.00000     0.00000
  -------------------------------------------------------------------------------------
  Total      39.20271    38.66063    14.03651     0.03694     0.00000     0.00000
  in kB      60.38234    59.54739    21.61986     0.05689     0.00000     0.00000
  external pressure =       47.18 kB  Pullay stress =        0.00 kB


 VOLUME and BASIS-vectors are now :
 -----------------------------------------------------------------------------
  energy-cutoff  :      700.00
  volume of cell :     1040.20
      direct lattice vectors                 reciprocal lattice vectors
     5.480000000  0.000000000  0.000000000     0.182481752  0.129034084  0.000000000
    -5.480000000  7.749890322  0.000000000     0.000000000  0.129034084  0.000000000
     0.000000000  0.000000000 24.492923856     0.000000000  0.000000000  0.040828119

  length of vectors
     5.480000000  9.491638426 24.492923856     0.223493590  0.129034084  0.040828119


 FORCES acting on ions
    electron-ion (+dipol)            ewald-force                    non-local-force                 convergence-correction
 -----------------------------------------------------------------------------------------------
   -.216E+02 -.132E+01 0.673E+01   0.203E+02 0.102E+01 -.741E+01   0.229E+01 0.197E+00 0.168E+00   -.197E-04 -.874E-05 -.315E-04
   0.259E+01 0.862E-01 0.223E+02   -.250E+01 -.328E-01 -.228E+02   -.238E+00 0.233E-01 0.300E+00   -.357E-04 -.266E-06 0.229E-03
   -.309E+00 -.213E-01 0.671E+01   0.250E+00 -.729E-03 -.669E+01   -.471E-01 0.301E-01 -.813E-01   0.530E-05 0.321E-06 0.822E-04
   -.309E+00 -.213E-01 -.671E+01   0.250E+00 -.729E-03 0.669E+01   -.471E-01 0.301E-01 0.813E-01   0.530E-05 0.321E-06 -.822E-04
   0.259E+01 0.862E-01 -.223E+02   -.250E+01 -.328E-01 0.228E+02   -.238E+00 0.233E-01 -.300E+00   -.357E-04 -.266E-06 -.229E-03
   -.216E+02 -.132E+01 -.673E+01   0.203E+02 0.102E+01 0.741E+01   0.229E+01 0.197E+00 -.168E+00   -.197E-04 -.874E-05 0.315E-04
   -.216E+02 -.132E+01 0.673E+01   0.203E+02 0.102E+01 -.741E+01   0.229E+01 0.197E+00 0.168E+00   -.197E-04 -.874E-05 -.315E-04
   0.259E+01 0.862E-01 0.223E+02   -.250E+01 -.328E-01 -.228E+02   -.238E+00 0.233E-01 0.300E+00   -.357E-04 -.266E-06 0.229E-03
   -.309E+00 -.213E-01 0.671E+01   0.250E+00 -.729E-03 -.669E+01   -.471E-01 0.301E-01 -.813E-01   0.530E-05 0.321E-06 0.822E-04
   -.309E+00 -.213E-01 -.671E+01   0.250E+00 -.729E-03 0.669E+01   -.471E-01 0.301E-01 0.813E-01   0.530E-05 0.321E-06 -.822E-04
   0.259E+01 0.862E-01 -.223E+02   -.250E+01 -.328E-01 0.228E+02   -.238E+00 0.233E-01 -.300E+00   -.357E-04 -.266E-06 -.229E-03
   -.216E+02 -.132E+01 -.673E+01   0.203E+02 0.102E+01 0.741E+01   0.229E+01 0.197E+00 -.168E+00   -.197E-04 -.874E-05 0.315E-04
   0.199E+02 0.145E+01 0.146E+02   -.191E+02 -.102E+01 -.133E+02   -.190E+01 -.322E+00 -.674E+00   0.133E-04 0.551E-05 0.185E-03
   -.880E+00 0.423E-01 0.245E+02   0.186E+01 -.132E-01 -.235E+02   -.431E+00 0.937E-01 -.686E+00   0.344E-04 0.262E-06 0.224E-03
   0.319E+00 -.265E-01 0.665E+01   -.186E+00 -.303E-03 -.661E+01   -.751E-01 0.370E-01 -.365E-01   -.301E-05 -.297E-06 0.822E-04
   0.319E+00 -.265E-01 -.665E+01   -.186E+00 -.303E-03 0.661E+01   -.751E-01 0.370E-01 0.365E-01   -.301E-05 -.297E-06 -.823E-04
   -.880E+00 0.423E-01 -.245E+02   0.186E+01 -.132E-01 0.235E+02   -.431E+00 0.937E-01 0.686E+00   0.344E-04 0.262E-06 -.224E-03
   0.199E+02 0.145E+01 -.146E+02   -.191E+02 -.102E+01 0.133E+02   -.190E+01 -.322E+00 0.674E+00   0.133E-04 0.551E-05 -.185E-03
   0.199E+02 0.145E+01 0.146E+02   -.191E+02 -.102E+01 -.133E+02   -.190E+01 -.322E+00 -.674E+00   0.133E-04 0.551E-05 0.185E-03
   -.880E+00 0.423E-01 0.245E+02   0.186E+01 -.132E-01 -.235E+02   -.431E+00 0.937E-01 -.686E+00   0.344E-04 0.262E-06 0.224E-03
   0.319E+00 -.265E-01 0.665E+01   -.186E+00 -.303E-03 -.661E+01   -.751E-01 0.370E-01 -.365E-01   -.301E-05 -.297E-06 0.822E-04
   0.319E+00 -.265E-01 -.665E+01   -.186E+00 -.303E-03 0.661E+01   -.751E-01 0.370E-01 0.365E-01   -.301E-05 -.297E-06 -.823E-04
   -.880E+00 0.423E-01 -.245E+02   0.186E+01 -.132E-01 0.235E+02   -.431E+00 0.937E-01 0.686E+00   0.344E-04 0.262E-06 -.224E-03
   0.199E+02 0.145E+01 -.146E+02   -.191E+02 -.102E+01 0.133E+02   -.190E+01 -.322E+00 0.674E+00   0.133E-04 0.551E-05 -.185E-03
   0.290E+02 -.173E+01 -.316E+01   -.278E+02 0.188E+01 0.285E+01   -.138E+01 -.123E+00 -.136E-01   0.554E-04 0.899E-05 0.393E-04
   -.105E+00 -.578E-01 0.904E+01   -.194E+00 0.290E-01 -.976E+01   -.334E+00 -.465E-01 0.177E+00   -.212E-04 0.571E-06 0.908E-04
   0.272E+01 0.622E-02 0.247E+01   -.265E+01 0.566E-03 -.248E+01   -.437E+00 -.127E-01 -.385E-01   -.939E-05 -.999E-07 0.391E-04
   0.272E+01 0.622E-02 -.247E+01   -.265E+01 0.566E-03 0.248E+01   -.437E+00 -.127E-01 0.385E-01   -.939E-05 -.999E-07 -.390E-04
   -.105E+00 -.578E-01 -.904E+01   -.194E+00 0.290E-01 0.976E+01   -.334E+00 -.465E-01 -.177E+00   -.212E-04 0.571E-06 -.908E-04
   0.290E+02 -.173E+01 0.316E+01   -.278E+02 0.188E+01 -.285E+01   -.138E+01 -.123E+00 0.136E-01   0.554E-04 0.899E-05 -.393E-04
   0.290E+02 -.173E+01 -.316E+01   -.278E+02 0.188E+01 0.285E+01   -.138E+01 -.123E+00 -.136E-01   0.554E-04 0.899E-05 0.393E-04
   -.105E+00 -.578E-01 0.904E+01   -.194E+00 0.290E-01 -.976E+01   -.334E+00 -.465E-01 0.177E+00   -.212E-04 0.571E-06 0.908E-04
   0.272E+01 0.622E-02 0.247E+01   -.265E+01 0.566E-03 -.248E+01   -.437E+00 -.127E-01 -.385E-01   -.939E-05 -.999E-07 0.391E-04
   0.272E+01 0.622E-02 -.247E+01   -.265E+01 0.566E-03 0.248E+01   -.437E+00 -.127E-01 0.385E-01   -.939E-05 -.999E-07 -.390E-04
   -.105E+00 -.578E-01 -.904E+01   -.194E+00 0.290E-01 0.976E+01   -.334E+00 -.465E-01 -.177E+00   -.212E-04 0.571E-06 -.908E-04
   0.290E+02 -.173E+01 0.316E+01   -.278E+02 0.188E+01 -.285E+01   -.138E+01 -.123E+00 0.136E-01   0.554E-04 0.899E-05 -.393E-04
   -.275E+02 0.179E+01 -.180E+02   0.266E+02 -.187E+01 0.179E+02   0.118E+01 0.576E-01 0.328E+00   0.318E-05 -.838E-05 -.174E-03
   -.126E+01 -.264E-01 0.107E+02   0.785E+00 0.117E-01 -.104E+02   0.700E+00 -.980E-01 -.338E+00   0.136E-05 -.173E-06 0.100E-03
   -.270E+01 0.316E-01 0.241E+01   0.259E+01 0.235E-03 -.242E+01   0.525E+00 -.249E-01 0.618E-02   0.119E-04 -.149E-06 0.336E-04
   -.270E+01 0.316E-01 -.241E+01   0.259E+01 0.235E-03 0.242E+01   0.525E+00 -.249E-01 -.618E-02   0.119E-04 -.149E-06 -.335E-04
   -.126E+01 -.264E-01 -.107E+02   0.785E+00 0.117E-01 0.104E+02   0.700E+00 -.980E-01 0.338E+00   0.136E-05 -.173E-06 -.100E-03
   -.275E+02 0.179E+01 0.180E+02   0.266E+02 -.187E+01 -.179E+02   0.118E+01 0.576E-01 -.328E+00   0.318E-05 -.838E-05 0.173E-03
   -.275E+02 0.179E+01 -.180E+02   0.266E+02 -.187E+01 0.179E+02   0.118E+01 0.576E-01 0.328E+00   0.318E-05 -.838E-05 -.174E-03
   -.126E+01 -.264E-01 0.107E+02   0.785E+00 0.117E-01 -.104E+02   0.700E+00 -.980E-01 -.338E+00   0.136E-05 -.173E-06 0.100E-03
   -.270E+01 0.316E-01 0.241E+01   0.259E+01 0.235E-03 -.242E+01   0.525E+00 -.249E-01 0.618E-02   0.119E-04 -.149E-06 0.336E-04
   -.270E+01 0.316E-01 -.241E+01   0.259E+01 0.235E-03 0.242E+01   0.525E+00 -.249E-01 -.618E-02   0.119E-04 -.149E-06 -.335E-04
   -.126E+01 -.264E-01 -.107E+02   0.785E+00 0.117E-01 0.104E+02   0.700E+00 -.980E-01 0.338E+00   0.136E-05 -.173E-06 -.100E-03
   -.275E+02 0.179E+01 0.180E+02   0.266E+02 -.187E+01 -.179E+02   0.118E+01 0.576E-01 -.328E+00   0.318E-05 -.838E-05 0.173E-03
 -----------------------------------------------------------------------------------------------
   0.450E+00 0.942E+00 -.195E-04   0.391E-13 0.444E-15 -.405E-12   -.566E+00 -.755E+00 0.167E-15   0.143E-03 -.984E-05 0.938E-08
 
 
 POSITION                                       TOTAL-FORCE (eV/Angst)
 -----------------------------------------------------------------------------------
      5.13777      0.41223     22.09292         0.914873     -0.106916     -0.518130
     -2.74000      5.81242      1.93747        -0.150968      0.072802     -0.145863
      0.00000      3.87495      3.87495        -0.104103      0.004121     -0.066828
      2.74000      1.93747      5.81242        -0.104103      0.004121      0.066828
      0.00000      0.00000      7.74989        -0.150968      0.072802      0.145863
     -3.08223      6.22465     12.08736         0.914873     -0.106916      0.518130
     -0.34223      4.28717     22.09292         0.914873     -0.106916     -0.518130
      2.74000      1.93747      1.93747        -0.150968      0.072802     -0.145863
      0.00000      0.00000      3.87495        -0.104103      0.004121     -0.066828
     -2.74000      5.81242      5.81242        -0.104103      0.004121      0.066828
      0.00000      3.87495      7.74989        -0.150968      0.072802      0.145863
      2.39777      2.34970     12.08736         0.914873     -0.106916      0.518130
     -1.37000      1.93747      0.00000        -1.055269      0.109117      0.650056
      1.37000      0.00000      1.93747         0.555300      0.118843      0.330042
     -1.37000      5.81242      3.87495         0.060620      0.006291     -0.004503
      1.37000      3.87495      5.81242         0.060620      0.006291      0.004503
     -1.37000      1.93747      7.74989         0.555300      0.118843     -0.330042
      1.37000      0.00000      9.68736        -1.055269      0.109117     -0.650056
     -1.37000      5.81242      0.00000        -1.055269      0.109117      0.650056
      1.37000      3.87495      1.93747         0.555300      0.118843      0.330042
     -1.37000      1.93747      3.87495         0.060620      0.006291     -0.004503
      1.37000      0.00000      5.81242         0.060620      0.006291      0.004503
     -1.37000      5.81242      7.74989         0.555300      0.118843     -0.330042
      1.37000      3.87495      9.68736        -1.055269      0.109117     -0.650056
      1.02777      0.41223     12.08736        -0.158738      0.024620     -0.332327
      3.76777      2.34970     14.08848        -0.630132     -0.079198     -0.547699
      1.02777      4.28717     16.08959        -0.362746     -0.009821     -0.052322
     -1.71223      6.22465     18.09070        -0.362746     -0.009821      0.052322
      1.02777      0.41223     20.09181        -0.630132     -0.079198      0.547699
      3.76777      2.34970     22.09292        -0.158738      0.024620      0.332327
      1.02777      4.28717     12.08736        -0.158738      0.024620     -0.332327
     -1.71223      6.22465     14.08848        -0.630132     -0.079198     -0.547699
      1.02777      0.41223     16.08959        -0.362746     -0.009821     -0.052322
      3.76777      2.34970     18.09070        -0.362746     -0.009821      0.052322
      1.02777      4.28717     20.09181        -0.630132     -0.079198      0.547699
     -1.71223      6.22465     22.09292        -0.158738      0.024620      0.332327
     -2.74000      5.81242      9.68736         0.284830     -0.026317      0.248554
      5.13777      0.41223     14.08848         0.226691     -0.116553     -0.079446
      2.39777      2.34970     16.08959         0.419642      0.003011     -0.002174
     -0.34223      4.28717     18.09070         0.419642      0.003011      0.002174
     -3.08223      6.22465     20.09181         0.226691     -0.116553      0.079446
      0.00000      0.00000      0.00000         0.284830     -0.026317     -0.248554
      2.74000      1.93747      9.68736         0.284830     -0.026317      0.248554
     -0.34223      4.28717     14.08848         0.226691     -0.116553     -0.079446
     -3.08223      6.22465     16.08959         0.419642      0.003011     -0.002174
      5.13777      0.41223     18.09070         0.419642      0.003011      0.002174
      2.39777      2.34970     20.09181         0.226691     -0.116553      0.079446
      0.00000      3.87495      0.00000         0.284830     -0.026317     -0.248554
 -----------------------------------------------------------------------------------
    total drift:                               -0.115478      0.187676     -0.000020


--------------------------------------------------------------------------------------------------------



  FREE ENERGIE OF THE ION-ELECTRON SYSTEM (eV)
  ---------------------------------------------------
  free  energy   TOTEN  =      -230.35291059 eV

  energy  without entropy=     -230.35270889  energy(sigma->0) =     -230.35280974
 


--------------------------------------------------------------------------------------------------------


    POTLOK:  cpu time      1.9011: real time      1.9111


--------------------------------------------------------------------------------------------------------


     LOOP+:  cpu time    676.8113: real time    682.8071
    4ORBIT:  cpu time      0.0000: real time      0.0000

 total amount of memory used by VASP MPI-rank0   235281. kBytes
=======================================================================

   base      :      30000. kBytes
   nonlr-proj:       3311. kBytes
   fftplans  :      28147. kBytes
   grid      :      18929. kBytes
   one-center:         48. kBytes
   wavefun   :     154846. kBytes
 
  
  
 General timing and accounting informations for this job:
 ========================================================
  
                  Total CPU time used (sec):      703.151
                            User time (sec):      665.982
                          System time (sec):       37.168
                         Elapsed time (sec):      712.213
  
                   Maximum memory used (kb):      478380.
                   Average memory used (kb):          N/A
  
                          Minor page faults:       154441
                          Major page faults:         1638
                 Voluntary context switches:         3940
