  48  48   0   0
  0.3605713E+02  0.1297840E-08  0.1946760E-08  0.9190413E-09  0.5000000E-15
  1.000000000000000E-004
  CAR 
 Si and Ge interface calculation         
      3.73388166    -10.25811448  301      1.67268224      1.00000000
    -10.258  0.0000E+00  0.0000E+00  0.0000E+00  0.0000E+00
    -10.211  0.0000E+00  0.0000E+00  0.0000E+00  0.0000E+00
    -10.165  0.0000E+00  0.0000E+00  0.0000E+00  0.0000E+00
    -10.118  0.0000E+00  0.0000E+00  0.0000E+00  0.0000E+00
    -10.072  0.0000E+00  0.0000E+00  0.0000E+00  0.0000E+00
    -10.025  0.0000E+00  0.0000E+00  0.0000E+00  0.0000E+00
     -9.978  0.0000E+00  0.0000E+00  0.0000E+00  0.0000E+00
     -9.932  0.0000E+00  0.0000E+00  0.0000E+00  0.0000E+00
     -9.885  0.0000E+00  0.0000E+00  0.0000E+00  0.0000E+00
     -9.838  0.0000E+00  0.0000E+00  0.0000E+00  0.0000E+00
     -9.792  0.0000E+00  0.0000E+00  0.0000E+00  0.0000E+00
     -9.745  0.0000E+00  0.0000E+00  0.0000E+00  0.0000E+00
     -9.698  0.0000E+00  0.0000E+00  0.0000E+00  0.0000E+00
     -9.652  0.3219E-04  0.3314E-07  0.1501E-05  0.1546E-08
     -9.605  0.1738E+02  0.5729E+01  0.8105E+00  0.2672E+00
     -9.559  0.2550E+02  0.3715E+02  0.2000E+01  0.2000E+01
     -9.512  0.9920E-07  0.2274E-03  0.2000E+01  0.2000E+01
     -9.465  0.8102E+01  0.1392E+01  0.2378E+01  0.2065E+01
     -9.419  0.3478E+02  0.4126E+02  0.4000E+01  0.3989E+01
     -9.372  0.8631E-03  0.2338E+00  0.4000E+01  0.4000E+01
     -9.325  0.1058E-14  0.0000E+00  0.4000E+01  0.4000E+01
     -9.279  0.3293E+00  0.2868E-02  0.4015E+01  0.4000E+01
     -9.232  0.4167E+02  0.3192E+02  0.5959E+01  0.5489E+01
     -9.185  0.8852E+00  0.1095E+02  0.6000E+01  0.6000E+01
     -9.139  0.0000E+00  0.0000E+00  0.6000E+01  0.6000E+01
     -9.092  0.0000E+00  0.0000E+00  0.6000E+01  0.6000E+01
     -9.045  0.0000E+00  0.0000E+00  0.6000E+01  0.6000E+01
     -8.999  0.0000E+00  0.0000E+00  0.6000E+01  0.6000E+01
     -8.952  0.0000E+00  0.0000E+00  0.6000E+01  0.6000E+01
     -8.906  0.0000E+00  0.0000E+00  0.6000E+01  0.6000E+01
     -8.859  0.0000E+00  0.0000E+00  0.6000E+01  0.6000E+01
     -8.812  0.3267E-04  0.8043E-09  0.6000E+01  0.6000E+01
     -8.766  0.1182E+02  0.5091E+01  0.6551E+01  0.6237E+01
     -8.719  0.2899E+02  0.3104E+02  0.7904E+01  0.7685E+01
     -8.672  0.7122E+01  0.7772E+01  0.8236E+01  0.8048E+01
     -8.626  0.3781E+02  0.3999E+02  0.9999E+01  0.9913E+01
     -8.579  0.1922E-01  0.1866E+01  0.1000E+02  0.1000E+02
     -8.532  0.0000E+00  0.0000E+00  0.1000E+02  0.1000E+02
     -8.486  0.0000E+00  0.0000E+00  0.1000E+02  0.1000E+02
     -8.439  0.7026E-07  0.1970E-13  0.1000E+02  0.1000E+02
     -8.393  0.3003E+01  0.3396E+00  0.1014E+02  0.1002E+02
     -8.346  0.7513E+01  0.7063E+01  0.1049E+02  0.1035E+02
     -8.299  0.3212E+02  0.3186E+02  0.1199E+02  0.1183E+02
     -8.253  0.6280E+00  0.3624E+01  0.1202E+02  0.1200E+02
     -8.206  0.3478E+02  0.2194E+02  0.1364E+02  0.1302E+02
     -8.159  0.7720E+01  0.2091E+02  0.1400E+02  0.1400E+02
     -8.113  0.2244E-04  0.3196E-01  0.1400E+02  0.1400E+02
     -8.066  0.0000E+00  0.0000E+00  0.1400E+02  0.1400E+02
     -8.019  0.0000E+00  0.0000E+00  0.1400E+02  0.1400E+02
     -7.973  0.7577E-06  0.3809E-13  0.1400E+02  0.1400E+02
     -7.926  0.5207E+01  0.6648E+00  0.1424E+02  0.1403E+02
     -7.879  0.3057E+02  0.2031E+02  0.1567E+02  0.1498E+02
     -7.833  0.1183E+02  0.2475E+02  0.1622E+02  0.1613E+02
     -7.786  0.1809E+02  0.1090E+02  0.1706E+02  0.1664E+02
     -7.740  0.2071E+02  0.2118E+02  0.1803E+02  0.1763E+02
     -7.693  0.2018E+02  0.2195E+02  0.1897E+02  0.1865E+02
     -7.646  0.9877E+01  0.9968E+01  0.1943E+02  0.1912E+02
     -7.600  0.1357E+02  0.1672E+02  0.2006E+02  0.1990E+02
     -7.553  0.9463E+01  0.7885E+01  0.2051E+02  0.2027E+02
     -7.506  0.1982E+02  0.1924E+02  0.2143E+02  0.2116E+02
     -7.460  0.1161E+02  0.1438E+02  0.2197E+02  0.2183E+02
     -7.413  0.3486E+02  0.2826E+02  0.2360E+02  0.2315E+02
     -7.366  0.1475E+01  0.1104E+02  0.2367E+02  0.2367E+02
     -7.320  0.1378E+02  0.6178E+01  0.2431E+02  0.2395E+02
     -7.273  0.8799E+01  0.1263E+02  0.2472E+02  0.2454E+02
     -7.227  0.2007E+02  0.2039E+02  0.2566E+02  0.2549E+02
     -7.180  0.1281E+02  0.1051E+02  0.2625E+02  0.2598E+02
     -7.133  0.1540E+02  0.1348E+02  0.2697E+02  0.2661E+02
     -7.087  0.1394E+02  0.1800E+02  0.2762E+02  0.2745E+02
     -7.040  0.2449E+02  0.2113E+02  0.2876E+02  0.2844E+02
     -6.993  0.5761E+01  0.9880E+01  0.2903E+02  0.2890E+02
     -6.947  0.1885E+02  0.1593E+02  0.2991E+02  0.2964E+02
     -6.900  0.2676E+02  0.2198E+02  0.3116E+02  0.3067E+02
     -6.853  0.1251E+02  0.1688E+02  0.3174E+02  0.3146E+02
     -6.807  0.1303E+02  0.1652E+02  0.3235E+02  0.3223E+02
     -6.760  0.2632E+02  0.2379E+02  0.3358E+02  0.3334E+02
     -6.713  0.1722E+02  0.1907E+02  0.3438E+02  0.3423E+02
     -6.667  0.1810E+02  0.1303E+02  0.3523E+02  0.3483E+02
     -6.620  0.1418E+02  0.1644E+02  0.3589E+02  0.3560E+02
     -6.574  0.2383E+02  0.2760E+02  0.3700E+02  0.3689E+02
     -6.527  0.1228E+02  0.1033E+02  0.3757E+02  0.3737E+02
     -6.480  0.2043E+02  0.1621E+02  0.3852E+02  0.3812E+02
     -6.434  0.2092E+02  0.2259E+02  0.3950E+02  0.3918E+02
     -6.387  0.1043E+02  0.1312E+02  0.3999E+02  0.3979E+02
     -6.340  0.1986E+02  0.1984E+02  0.4091E+02  0.4072E+02
     -6.294  0.1346E+02  0.1215E+02  0.4154E+02  0.4128E+02
     -6.247  0.1819E+02  0.1369E+02  0.4239E+02  0.4192E+02
     -6.200  0.1814E+02  0.2060E+02  0.4324E+02  0.4288E+02
     -6.154  0.1319E+02  0.1243E+02  0.4385E+02  0.4346E+02
     -6.107  0.2186E+02  0.2277E+02  0.4487E+02  0.4452E+02
     -6.061  0.1294E+02  0.1338E+02  0.4547E+02  0.4515E+02
     -6.014  0.1569E+02  0.2059E+02  0.4620E+02  0.4611E+02
     -5.967  0.1585E+02  0.1016E+02  0.4694E+02  0.4658E+02
     -5.921  0.1657E+02  0.1718E+02  0.4772E+02  0.4738E+02
     -5.874  0.1745E+02  0.1766E+02  0.4853E+02  0.4821E+02
     -5.827  0.7246E+01  0.8283E+01  0.4887E+02  0.4859E+02
     -5.781  0.2479E+02  0.2222E+02  0.5003E+02  0.4963E+02
     -5.734  0.1443E+02  0.1751E+02  0.5070E+02  0.5045E+02
     -5.687  0.8851E+01  0.1387E+02  0.5111E+02  0.5109E+02
     -5.641  0.1166E+02  0.8397E+01  0.5165E+02  0.5148E+02
     -5.594  0.1506E+02  0.1288E+02  0.5236E+02  0.5209E+02
     -5.547  0.6812E+01  0.1246E+02  0.5268E+02  0.5267E+02
     -5.501  0.1618E+02  0.8944E+01  0.5343E+02  0.5308E+02
     -5.454  0.1183E+02  0.1473E+02  0.5398E+02  0.5377E+02
     -5.408  0.1217E+02  0.1362E+02  0.5455E+02  0.5441E+02
     -5.361  0.1236E+02  0.1223E+02  0.5513E+02  0.5498E+02
     -5.314  0.1571E+02  0.1556E+02  0.5586E+02  0.5570E+02
     -5.268  0.3257E+01  0.6390E+01  0.5601E+02  0.5600E+02
     -5.221  0.1068E+02  0.5151E+01  0.5651E+02  0.5624E+02
     -5.174  0.1925E+02  0.1984E+02  0.5741E+02  0.5717E+02
     -5.128  0.1268E+02  0.1376E+02  0.5800E+02  0.5781E+02
     -5.081  0.1197E+02  0.9052E+01  0.5855E+02  0.5823E+02
     -5.034  0.1278E+02  0.1457E+02  0.5915E+02  0.5891E+02
     -4.988  0.3080E+02  0.2972E+02  0.6059E+02  0.6029E+02
     -4.941  0.1540E+02  0.1319E+02  0.6131E+02  0.6091E+02
     -4.895  0.6516E+01  0.1387E+02  0.6161E+02  0.6156E+02
     -4.848  0.6790E+01  0.2616E+01  0.6193E+02  0.6168E+02
     -4.801  0.1539E+02  0.1824E+02  0.6264E+02  0.6253E+02
     -4.755  0.1776E+02  0.1425E+02  0.6347E+02  0.6319E+02
     -4.708  0.1771E+02  0.1737E+02  0.6430E+02  0.6400E+02
     -4.661  0.5515E+01  0.1175E+02  0.6456E+02  0.6455E+02
     -4.615  0.1026E+02  0.6565E+01  0.6503E+02  0.6486E+02
     -4.568  0.2222E+02  0.1897E+02  0.6607E+02  0.6574E+02
     -4.521  0.2162E+02  0.2447E+02  0.6708E+02  0.6688E+02
     -4.475  0.5880E+01  0.6854E+01  0.6735E+02  0.6720E+02
     -4.428  0.1700E+02  0.1885E+02  0.6815E+02  0.6808E+02
     -4.381  0.2267E+02  0.1172E+02  0.6920E+02  0.6863E+02
     -4.335  0.1472E+02  0.2656E+02  0.6989E+02  0.6987E+02
     -4.288  0.1653E+02  0.9692E+01  0.7066E+02  0.7032E+02
     -4.242  0.1892E+02  0.2048E+02  0.7154E+02  0.7128E+02
     -4.195  0.8356E+00  0.6003E+01  0.7158E+02  0.7156E+02
     -4.148  0.2307E+02  0.1417E+02  0.7266E+02  0.7222E+02
     -4.102  0.7482E+01  0.1356E+02  0.7301E+02  0.7285E+02
     -4.055  0.1205E+02  0.8827E+01  0.7357E+02  0.7326E+02
     -4.008  0.2093E+02  0.2317E+02  0.7454E+02  0.7434E+02
     -3.962  0.8866E+01  0.5688E+01  0.7496E+02  0.7461E+02
     -3.915  0.1769E+02  0.1919E+02  0.7578E+02  0.7550E+02
     -3.868  0.1516E+02  0.1320E+02  0.7649E+02  0.7612E+02
     -3.822  0.1307E+02  0.1390E+02  0.7710E+02  0.7677E+02
     -3.775  0.2244E+02  0.2223E+02  0.7815E+02  0.7780E+02
     -3.729  0.1905E+01  0.8994E+01  0.7824E+02  0.7822E+02
     -3.682  0.2111E+02  0.1790E+02  0.7922E+02  0.7906E+02
     -3.635  0.9529E+01  0.6549E+01  0.7966E+02  0.7936E+02
     -3.589  0.7192E+01  0.1248E+02  0.8000E+02  0.7994E+02
     -3.542  0.2233E+02  0.9179E+01  0.8104E+02  0.8037E+02
     -3.495  0.1291E+02  0.2085E+02  0.8164E+02  0.8135E+02
     -3.449  0.6528E+01  0.1119E+02  0.8195E+02  0.8187E+02
     -3.402  0.9322E+01  0.6588E+01  0.8238E+02  0.8217E+02
     -3.355  0.1085E+02  0.1466E+02  0.8289E+02  0.8286E+02
     -3.309  0.4949E+01  0.4808E+01  0.8312E+02  0.8308E+02
     -3.262  0.1506E+02  0.1149E+02  0.8382E+02  0.8362E+02
     -3.215  0.1095E+02  0.1378E+02  0.8433E+02  0.8426E+02
     -3.169  0.1023E+02  0.6158E+01  0.8481E+02  0.8455E+02
     -3.122  0.1668E+02  0.1617E+02  0.8559E+02  0.8530E+02
     -3.076  0.1724E+01  0.7815E+01  0.8567E+02  0.8567E+02
     -3.029  0.9015E+01  0.7034E+01  0.8609E+02  0.8599E+02
     -2.982  0.9329E+01  0.7447E+01  0.8652E+02  0.8634E+02
     -2.936  0.2658E+02  0.2354E+02  0.8776E+02  0.8744E+02
     -2.889  0.6078E+01  0.9206E+01  0.8805E+02  0.8787E+02
     -2.842  0.6408E+01  0.7598E+01  0.8835E+02  0.8822E+02
     -2.796  0.1183E+02  0.1422E+02  0.8890E+02  0.8889E+02
     -2.749  0.1082E+02  0.5885E+01  0.8940E+02  0.8916E+02
     -2.702  0.3410E+01  0.6776E+01  0.8956E+02  0.8948E+02
     -2.656  0.1417E+02  0.1451E+02  0.9022E+02  0.9015E+02
     -2.609  0.6914E+01  0.6199E+01  0.9054E+02  0.9044E+02
     -2.563  0.8758E+01  0.8771E+01  0.9095E+02  0.9085E+02
     -2.516  0.1374E+02  0.1050E+02  0.9159E+02  0.9134E+02
     -2.469  0.1586E+02  0.2043E+02  0.9233E+02  0.9229E+02
     -2.423  0.4489E+01  0.2457E+01  0.9254E+02  0.9241E+02
     -2.376  0.4438E+01  0.3776E+01  0.9275E+02  0.9259E+02
     -2.329  0.1468E+02  0.1397E+02  0.9343E+02  0.9324E+02
     -2.283  0.5049E+01  0.6980E+01  0.9367E+02  0.9356E+02
     -2.236  0.3195E+01  0.4623E+01  0.9382E+02  0.9378E+02
     -2.189  0.8652E+01  0.9280E+01  0.9422E+02  0.9421E+02
     -2.143  0.3335E-01  0.2358E+00  0.9422E+02  0.9422E+02
     -2.096  0.7115E+01  0.6836E+01  0.9456E+02  0.9454E+02
     -2.049  0.6200E+01  0.2994E+01  0.9484E+02  0.9468E+02
     -2.003  0.5537E+01  0.6069E+01  0.9510E+02  0.9496E+02
     -1.956  0.4710E+01  0.4606E+01  0.9532E+02  0.9518E+02
     -1.910  0.4791E+01  0.4895E+01  0.9555E+02  0.9541E+02
     -1.863  0.4955E+01  0.6648E+01  0.9578E+02  0.9572E+02
     -1.816  0.1184E-01  0.1304E+01  0.9578E+02  0.9578E+02
     -1.770  0.2468E+01  0.8181E-01  0.9589E+02  0.9578E+02
     -1.723  0.2297E+01  0.4683E+01  0.9600E+02  0.9600E+02
     -1.676  0.4272E-01  0.1717E-03  0.9600E+02  0.9600E+02
     -1.630  0.2389E+01  0.2376E+01  0.9611E+02  0.9611E+02
     -1.583  0.1761E+02  0.1050E+02  0.9693E+02  0.9660E+02
     -1.536  0.1897E+02  0.2055E+02  0.9782E+02  0.9756E+02
     -1.490  0.1325E+02  0.1319E+02  0.9844E+02  0.9817E+02
     -1.443  0.3363E+02  0.3243E+02  0.1000E+03  0.9969E+02
     -1.397  0.2357E+02  0.1837E+02  0.1011E+03  0.1005E+03
     -1.350  0.1594E+02  0.2434E+02  0.1018E+03  0.1017E+03
     -1.303  0.2895E+02  0.2552E+02  0.1032E+03  0.1029E+03
     -1.257  0.1491E+02  0.1503E+02  0.1039E+03  0.1036E+03
     -1.210  0.2018E+02  0.1898E+02  0.1048E+03  0.1045E+03
     -1.163  0.2838E+02  0.2643E+02  0.1062E+03  0.1057E+03
     -1.117  0.2828E+02  0.2957E+02  0.1075E+03  0.1071E+03
     -1.070  0.2905E+02  0.2487E+02  0.1088E+03  0.1082E+03
     -1.023  0.1961E+02  0.2890E+02  0.1097E+03  0.1096E+03
     -0.977  0.2580E+02  0.2614E+02  0.1110E+03  0.1108E+03
     -0.930  0.2390E+02  0.2167E+02  0.1121E+03  0.1118E+03
     -0.883  0.2620E+02  0.2299E+02  0.1133E+03  0.1129E+03
     -0.837  0.2476E+02  0.2684E+02  0.1144E+03  0.1141E+03
     -0.790  0.2977E+02  0.2405E+02  0.1158E+03  0.1153E+03
     -0.744  0.3595E+02  0.3505E+02  0.1175E+03  0.1169E+03
     -0.697  0.3297E+02  0.3358E+02  0.1190E+03  0.1185E+03
     -0.650  0.2935E+02  0.3991E+02  0.1204E+03  0.1203E+03
     -0.604  0.2435E+02  0.2061E+02  0.1215E+03  0.1213E+03
     -0.557  0.2945E+02  0.2506E+02  0.1229E+03  0.1224E+03
     -0.510  0.3736E+02  0.3639E+02  0.1247E+03  0.1241E+03
     -0.464  0.2835E+02  0.3029E+02  0.1260E+03  0.1256E+03
     -0.417  0.3719E+02  0.3109E+02  0.1277E+03  0.1270E+03
     -0.370  0.3049E+02  0.2273E+02  0.1291E+03  0.1281E+03
     -0.324  0.3637E+02  0.4318E+02  0.1308E+03  0.1301E+03
     -0.277  0.3945E+02  0.4362E+02  0.1327E+03  0.1321E+03
     -0.231  0.2566E+02  0.3113E+02  0.1339E+03  0.1336E+03
     -0.184  0.2921E+02  0.2398E+02  0.1352E+03  0.1347E+03
     -0.137  0.2975E+02  0.2825E+02  0.1366E+03  0.1360E+03
     -0.091  0.3004E+02  0.3071E+02  0.1380E+03  0.1374E+03
     -0.044  0.2843E+02  0.2823E+02  0.1394E+03  0.1387E+03
      0.003  0.2665E+02  0.3133E+02  0.1406E+03  0.1402E+03
      0.049  0.3278E+02  0.3108E+02  0.1421E+03  0.1417E+03
      0.096  0.2777E+02  0.3360E+02  0.1434E+03  0.1432E+03
      0.143  0.3127E+02  0.1970E+02  0.1449E+03  0.1441E+03
      0.189  0.3405E+02  0.3826E+02  0.1465E+03  0.1459E+03
      0.236  0.3042E+02  0.2649E+02  0.1479E+03  0.1472E+03
      0.283  0.3134E+02  0.3513E+02  0.1493E+03  0.1488E+03
      0.329  0.2216E+02  0.2712E+02  0.1504E+03  0.1501E+03
      0.376  0.3055E+02  0.2722E+02  0.1518E+03  0.1513E+03
      0.422  0.3337E+02  0.3564E+02  0.1534E+03  0.1530E+03
      0.469  0.2808E+02  0.2711E+02  0.1547E+03  0.1543E+03
      0.516  0.2566E+02  0.2020E+02  0.1559E+03  0.1552E+03
      0.562  0.3361E+02  0.3936E+02  0.1574E+03  0.1570E+03
      0.609  0.3189E+02  0.2565E+02  0.1589E+03  0.1582E+03
      0.656  0.3698E+02  0.3270E+02  0.1606E+03  0.1598E+03
      0.702  0.3526E+02  0.3740E+02  0.1623E+03  0.1615E+03
      0.749  0.4257E+02  0.3692E+02  0.1643E+03  0.1632E+03
      0.796  0.3069E+02  0.4382E+02  0.1657E+03  0.1653E+03
      0.842  0.1902E+02  0.1372E+02  0.1666E+03  0.1659E+03
      0.889  0.2932E+02  0.3487E+02  0.1680E+03  0.1675E+03
      0.935  0.2818E+02  0.3459E+02  0.1693E+03  0.1692E+03
      0.982  0.3532E+02  0.2606E+02  0.1709E+03  0.1704E+03
      1.029  0.2170E+02  0.2326E+02  0.1719E+03  0.1715E+03
      1.075  0.3559E+02  0.3579E+02  0.1736E+03  0.1731E+03
      1.122  0.2138E+02  0.1840E+02  0.1746E+03  0.1740E+03
      1.169  0.3619E+02  0.2930E+02  0.1763E+03  0.1753E+03
      1.215  0.4329E+02  0.3530E+02  0.1783E+03  0.1770E+03
      1.262  0.1286E+02  0.3352E+02  0.1789E+03  0.1786E+03
      1.309  0.4221E+02  0.3225E+02  0.1809E+03  0.1801E+03
      1.355  0.3409E+02  0.2627E+02  0.1825E+03  0.1813E+03
      1.402  0.3070E+02  0.4462E+02  0.1839E+03  0.1834E+03
      1.449  0.2701E+02  0.2088E+02  0.1852E+03  0.1843E+03
      1.495  0.3227E+02  0.3401E+02  0.1867E+03  0.1859E+03
      1.542  0.2769E+02  0.2209E+02  0.1879E+03  0.1870E+03
      1.588  0.2959E+02  0.3849E+02  0.1893E+03  0.1888E+03
      1.635  0.3218E+02  0.2857E+02  0.1908E+03  0.1901E+03
      1.682  0.2619E+02  0.2567E+02  0.1921E+03  0.1913E+03
      1.728  0.3221E+02  0.2599E+02  0.1936E+03  0.1925E+03
      1.775  0.3547E+02  0.3884E+02  0.1952E+03  0.1943E+03
      1.822  0.2636E+02  0.3697E+02  0.1964E+03  0.1960E+03
      1.868  0.2708E+02  0.1863E+02  0.1977E+03  0.1969E+03
      1.915  0.3017E+02  0.3525E+02  0.1991E+03  0.1985E+03
      1.962  0.1040E+02  0.1697E+02  0.1996E+03  0.1993E+03
      2.008  0.2317E+02  0.1509E+02  0.2007E+03  0.2000E+03
      2.055  0.4217E+02  0.4313E+02  0.2026E+03  0.2021E+03
      2.101  0.3362E+02  0.2608E+02  0.2042E+03  0.2033E+03
      2.148  0.3031E+02  0.3123E+02  0.2056E+03  0.2047E+03
      2.195  0.3515E+02  0.3697E+02  0.2073E+03  0.2064E+03
      2.241  0.1600E+02  0.2121E+02  0.2080E+03  0.2074E+03
      2.288  0.3513E+02  0.3573E+02  0.2096E+03  0.2091E+03
      2.335  0.2079E+02  0.2222E+02  0.2106E+03  0.2101E+03
      2.381  0.2526E+02  0.2341E+02  0.2118E+03  0.2112E+03
      2.428  0.3225E+02  0.3112E+02  0.2133E+03  0.2127E+03
      2.475  0.3279E+02  0.3382E+02  0.2148E+03  0.2143E+03
      2.521  0.2667E+02  0.2164E+02  0.2161E+03  0.2153E+03
      2.568  0.2948E+02  0.3469E+02  0.2174E+03  0.2169E+03
      2.615  0.3300E+02  0.2953E+02  0.2190E+03  0.2183E+03
      2.661  0.4110E+02  0.2855E+02  0.2209E+03  0.2196E+03
      2.708  0.2269E+02  0.4088E+02  0.2220E+03  0.2215E+03
      2.754  0.2832E+02  0.2450E+02  0.2233E+03  0.2226E+03
      2.801  0.3108E+02  0.3076E+02  0.2247E+03  0.2241E+03
      2.848  0.2409E+02  0.2458E+02  0.2259E+03  0.2252E+03
      2.894  0.2863E+02  0.2572E+02  0.2272E+03  0.2264E+03
      2.941  0.3955E+02  0.3770E+02  0.2290E+03  0.2282E+03
      2.988  0.2267E+02  0.2945E+02  0.2301E+03  0.2296E+03
      3.034  0.1928E+02  0.2211E+02  0.2310E+03  0.2306E+03
      3.081  0.1978E+02  0.1923E+02  0.2319E+03  0.2315E+03
      3.128  0.1832E+01  0.1099E+02  0.2320E+03  0.2320E+03
      3.174  0.0000E+00  0.6433E-04  0.2320E+03  0.2320E+03
      3.221  0.0000E+00  0.0000E+00  0.2320E+03  0.2320E+03
      3.267  0.0000E+00  0.0000E+00  0.2320E+03  0.2320E+03
      3.314  0.0000E+00  0.0000E+00  0.2320E+03  0.2320E+03
      3.361  0.0000E+00  0.0000E+00  0.2320E+03  0.2320E+03
      3.407  0.0000E+00  0.0000E+00  0.2320E+03  0.2320E+03
      3.454  0.0000E+00  0.0000E+00  0.2320E+03  0.2320E+03
      3.501  0.0000E+00  0.0000E+00  0.2320E+03  0.2320E+03
      3.547  0.0000E+00  0.0000E+00  0.2320E+03  0.2320E+03
      3.594  0.0000E+00  0.0000E+00  0.2320E+03  0.2320E+03
      3.641  0.0000E+00  0.0000E+00  0.2320E+03  0.2320E+03
      3.687  0.0000E+00  0.0000E+00  0.2320E+03  0.2320E+03
      3.734  0.0000E+00  0.0000E+00  0.2320E+03  0.2320E+03
