 120 120   0   0
  0.1350816E+02  0.1330318E-08  0.1629300E-08  0.8192406E-09  0.5000000E-15
  1.000000000000000E-004
  CAR 
 Si and Ge interface calculation         
      7.48045538    -15.03968726  301      4.09123301      1.00000000
    -15.040  0.0000E+00  0.0000E+00  0.0000E+00  0.0000E+00
    -14.965  0.0000E+00  0.0000E+00  0.0000E+00  0.0000E+00
    -14.890  0.0000E+00  0.0000E+00  0.0000E+00  0.0000E+00
    -14.814  0.0000E+00  0.0000E+00  0.0000E+00  0.0000E+00
    -14.739  0.0000E+00  0.0000E+00  0.0000E+00  0.0000E+00
    -14.664  0.0000E+00  0.0000E+00  0.0000E+00  0.0000E+00
    -14.589  0.0000E+00  0.0000E+00  0.0000E+00  0.0000E+00
    -14.514  0.0000E+00  0.0000E+00  0.0000E+00  0.0000E+00
    -14.439  0.0000E+00  0.0000E+00  0.0000E+00  0.0000E+00
    -14.364  0.0000E+00  0.0000E+00  0.0000E+00  0.0000E+00
    -14.289  0.0000E+00  0.0000E+00  0.0000E+00  0.0000E+00
    -14.214  0.0000E+00  0.0000E+00  0.0000E+00  0.0000E+00
    -14.139  0.0000E+00  0.0000E+00  0.0000E+00  0.0000E+00
    -14.064  0.2099E-10  0.2403E-14  0.1575E-11  0.1804E-15
    -13.989  0.4440E+01  0.4419E+01  0.3333E+00  0.3317E+00
    -13.914  0.9583E+01  0.8829E+01  0.1053E+01  0.9961E+00
    -13.839  0.1706E+02  0.1773E+02  0.2333E+01  0.2333E+01
    -13.764  0.8578E+00  0.5607E-01  0.2398E+01  0.2338E+01
    -13.688  0.2578E+02  0.2638E+02  0.4333E+01  0.4318E+01
    -13.613  0.8833E+01  0.8091E+01  0.4996E+01  0.4941E+01
    -13.538  0.1391E+02  0.1277E+02  0.6044E+01  0.5958E+01
    -13.463  0.8256E+01  0.8797E+01  0.6667E+01  0.6665E+01
    -13.388  0.1683E+02  0.1485E+02  0.7930E+01  0.7782E+01
    -13.313  0.1031E+02  0.9178E+01  0.8725E+01  0.8471E+01
    -13.238  0.1195E+02  0.1593E+02  0.9667E+01  0.9667E+01
    -13.163  0.1078E+02  0.9099E+01  0.1048E+02  0.1035E+02
    -13.088  0.1142E+02  0.1310E+02  0.1133E+02  0.1133E+02
    -13.013  0.2075E+02  0.1361E+02  0.1289E+02  0.1236E+02
    -12.938  0.1910E+02  0.2185E+02  0.1435E+02  0.1404E+02
    -12.863  0.7774E+01  0.1189E+02  0.1500E+02  0.1500E+02
    -12.788  0.2178E+02  0.1917E+02  0.1663E+02  0.1644E+02
    -12.713  0.8881E+01  0.1191E+02  0.1733E+02  0.1733E+02
    -12.638  0.9087E+01  0.8769E+01  0.1802E+02  0.1799E+02
    -12.562  0.8672E+01  0.8874E+01  0.1867E+02  0.1867E+02
    -12.487  0.1770E+02  0.1670E+02  0.2000E+02  0.1992E+02
    -12.412  0.2134E+02  0.1653E+02  0.2160E+02  0.2124E+02
    -12.337  0.4227E+01  0.9376E+01  0.2201E+02  0.2200E+02
    -12.262  0.1743E+02  0.1600E+02  0.2332E+02  0.2320E+02
    -12.187  0.8883E+01  0.1050E+02  0.2400E+02  0.2400E+02
    -12.112  0.4440E+01  0.4440E+01  0.2433E+02  0.2433E+02
    -12.037  0.8879E+01  0.8881E+01  0.2500E+02  0.2500E+02
    -11.962  0.4006E+01  0.1887E+01  0.2530E+02  0.2514E+02
    -11.887  0.5629E+01  0.7119E+01  0.2577E+02  0.2568E+02
    -11.812  0.2971E+02  0.3096E+02  0.2800E+02  0.2800E+02
    -11.737  0.0000E+00  0.0000E+00  0.2800E+02  0.2800E+02
    -11.662  0.5788E-12  0.0000E+00  0.2800E+02  0.2800E+02
    -11.587  0.4438E+01  0.4360E+01  0.2833E+02  0.2833E+02
    -11.512  0.8881E+01  0.8868E+01  0.2900E+02  0.2900E+02
    -11.436  0.0000E+00  0.0000E+00  0.2900E+02  0.2900E+02
    -11.361  0.1983E+00  0.5790E-02  0.2901E+02  0.2900E+02
    -11.286  0.1312E+02  0.1332E+02  0.3000E+02  0.3000E+02
    -11.211  0.3107E+02  0.3065E+02  0.3233E+02  0.3230E+02
    -11.136  0.2990E+02  0.2383E+02  0.3458E+02  0.3412E+02
    -11.061  0.2730E+02  0.2751E+02  0.3667E+02  0.3624E+02
    -10.986  0.4033E+01  0.1014E+02  0.3700E+02  0.3700E+02
    -10.911  0.8869E+01  0.8881E+01  0.3767E+02  0.3767E+02
    -10.836  0.1583E+02  0.1178E+02  0.3885E+02  0.3855E+02
    -10.761  0.8860E+01  0.1441E+02  0.3967E+02  0.3963E+02
    -10.686  0.3482E+01  0.1577E+01  0.3993E+02  0.3979E+02
    -10.611  0.7242E+01  0.4225E+01  0.4054E+02  0.4010E+02
    -10.536  0.2384E+02  0.2954E+02  0.4233E+02  0.4232E+02
    -10.461  0.5280E+01  0.1682E+01  0.4273E+02  0.4246E+02
    -10.386  0.6922E+01  0.7808E+01  0.4325E+02  0.4305E+02
    -10.310  0.5559E+01  0.8272E+01  0.4367E+02  0.4367E+02
    -10.235  0.1223E+02  0.8292E+01  0.4458E+02  0.4429E+02
    -10.160  0.4440E+01  0.9470E+01  0.4500E+02  0.4500E+02
    -10.085  0.1776E+02  0.1775E+02  0.4633E+02  0.4633E+02
    -10.010  0.2187E+02  0.1766E+02  0.4797E+02  0.4766E+02
     -9.935  0.1803E+02  0.2160E+02  0.4934E+02  0.4930E+02
     -9.860  0.8751E+01  0.8879E+01  0.5000E+02  0.5000E+02
     -9.785  0.1533E+02  0.1137E+02  0.5115E+02  0.5085E+02
     -9.710  0.2174E+02  0.2174E+02  0.5281E+02  0.5249E+02
     -9.635  0.1882E+02  0.1998E+02  0.5428E+02  0.5404E+02
     -9.560  0.2199E+02  0.2118E+02  0.5593E+02  0.5563E+02
     -9.485  0.2732E+02  0.3153E+02  0.5806E+02  0.5800E+02
     -9.410  0.1253E+02  0.1328E+02  0.5900E+02  0.5900E+02
     -9.335  0.2338E+02  0.1737E+02  0.6076E+02  0.6030E+02
     -9.260  0.1599E+02  0.2260E+02  0.6200E+02  0.6200E+02
     -9.184  0.1332E+02  0.1308E+02  0.6300E+02  0.6298E+02
     -9.109  0.1846E+02  0.1737E+02  0.6439E+02  0.6430E+02
     -9.034  0.3137E+02  0.3089E+02  0.6674E+02  0.6665E+02
     -8.959  0.1782E+02  0.1490E+02  0.6808E+02  0.6779E+02
     -8.884  0.1868E+02  0.2056E+02  0.6950E+02  0.6935E+02
     -8.809  0.1839E+02  0.1784E+02  0.7088E+02  0.7069E+02
     -8.734  0.1058E+02  0.1277E+02  0.7167E+02  0.7167E+02
     -8.659  0.2816E+02  0.2258E+02  0.7379E+02  0.7336E+02
     -8.584  0.1133E+02  0.1709E+02  0.7467E+02  0.7467E+02
     -8.509  0.2865E+02  0.2668E+02  0.7682E+02  0.7667E+02
     -8.434  0.1531E+02  0.1393E+02  0.7797E+02  0.7773E+02
     -8.359  0.2217E+02  0.2470E+02  0.7966E+02  0.7958E+02
     -8.284  0.6144E+01  0.2166E+01  0.8013E+02  0.7979E+02
     -8.209  0.1603E+02  0.2031E+02  0.8133E+02  0.8133E+02
     -8.134  0.2411E+01  0.4397E+00  0.8151E+02  0.8137E+02
     -8.058  0.6470E+01  0.8441E+01  0.8200E+02  0.8200E+02
     -7.983  0.0000E+00  0.0000E+00  0.8200E+02  0.8200E+02
     -7.908  0.1093E+01  0.6736E-01  0.8208E+02  0.8201E+02
     -7.833  0.1223E+02  0.1325E+02  0.8300E+02  0.8300E+02
     -7.758  0.0000E+00  0.0000E+00  0.8300E+02  0.8300E+02
     -7.683  0.6141E+01  0.2411E+01  0.8346E+02  0.8318E+02
     -7.608  0.7141E+01  0.1020E+02  0.8400E+02  0.8395E+02
     -7.533  0.2698E-03  0.6082E-06  0.8400E+02  0.8400E+02
     -7.458  0.8901E+01  0.8854E+01  0.8467E+02  0.8466E+02
     -7.383  0.8860E+01  0.8881E+01  0.8533E+02  0.8533E+02
     -7.308  0.8885E+01  0.8881E+01  0.8600E+02  0.8600E+02
     -7.233  0.1252E+02  0.1051E+02  0.8694E+02  0.8679E+02
     -7.158  0.4726E+01  0.7193E+01  0.8733E+02  0.8733E+02
     -7.083  0.4249E+01  0.1710E+01  0.8765E+02  0.8746E+02
     -7.008  0.4903E+01  0.7300E+01  0.8808E+02  0.8801E+02
     -6.932  0.1784E+02  0.1832E+02  0.8942E+02  0.8938E+02
     -6.857  0.1227E+02  0.1114E+02  0.9034E+02  0.9025E+02
     -6.782  0.1645E+02  0.1567E+02  0.9158E+02  0.9145E+02
     -6.707  0.8696E+01  0.9727E+01  0.9225E+02  0.9220E+02
     -6.632  0.2263E+02  0.2052E+02  0.9395E+02  0.9375E+02
     -6.557  0.2710E+02  0.2733E+02  0.9600E+02  0.9584E+02
     -6.482  0.2620E+02  0.2580E+02  0.9798E+02  0.9779E+02
     -6.407  0.2506E+02  0.2486E+02  0.9987E+02  0.9970E+02
     -6.332  0.2204E+02  0.2185E+02  0.1016E+03  0.1014E+03
     -6.257  0.1873E+02  0.1896E+02  0.1030E+03  0.1028E+03
     -6.182  0.2801E+02  0.2827E+02  0.1051E+03  0.1049E+03
     -6.107  0.2855E+02  0.2531E+02  0.1072E+03  0.1069E+03
     -6.032  0.1586E+02  0.1666E+02  0.1085E+03  0.1082E+03
     -5.957  0.2424E+02  0.2560E+02  0.1103E+03  0.1102E+03
     -5.881  0.2929E+02  0.2853E+02  0.1125E+03  0.1123E+03
     -5.806  0.2720E+02  0.2388E+02  0.1146E+03  0.1142E+03
     -5.731  0.2082E+02  0.2559E+02  0.1163E+03  0.1161E+03
     -5.656  0.2600E+02  0.2473E+02  0.1182E+03  0.1180E+03
     -5.581  0.2797E+02  0.2347E+02  0.1204E+03  0.1197E+03
     -5.506  0.2572E+02  0.3319E+02  0.1224E+03  0.1223E+03
     -5.431  0.2783E+02  0.2631E+02  0.1245E+03  0.1243E+03
     -5.356  0.3105E+02  0.3016E+02  0.1269E+03  0.1266E+03
     -5.281  0.2853E+02  0.2996E+02  0.1290E+03  0.1289E+03
     -5.206  0.2455E+02  0.2320E+02  0.1309E+03  0.1307E+03
     -5.131  0.3708E+02  0.3606E+02  0.1337E+03  0.1334E+03
     -5.056  0.3363E+02  0.3131E+02  0.1362E+03  0.1358E+03
     -4.981  0.2641E+02  0.2798E+02  0.1383E+03  0.1379E+03
     -4.906  0.3062E+02  0.3238E+02  0.1406E+03  0.1404E+03
     -4.831  0.3548E+02  0.3633E+02  0.1433E+03  0.1431E+03
     -4.755  0.1758E+02  0.1892E+02  0.1447E+03  0.1446E+03
     -4.680  0.2764E+02  0.2688E+02  0.1468E+03  0.1466E+03
     -4.605  0.2899E+02  0.2714E+02  0.1490E+03  0.1487E+03
     -4.530  0.3240E+02  0.3240E+02  0.1515E+03  0.1511E+03
     -4.455  0.3467E+02  0.3381E+02  0.1541E+03  0.1537E+03
     -4.380  0.3070E+02  0.3165E+02  0.1564E+03  0.1561E+03
     -4.305  0.2863E+02  0.3010E+02  0.1586E+03  0.1584E+03
     -4.230  0.3378E+02  0.3213E+02  0.1612E+03  0.1609E+03
     -4.155  0.3405E+02  0.3414E+02  0.1637E+03  0.1635E+03
     -4.080  0.3266E+02  0.3106E+02  0.1662E+03  0.1658E+03
     -4.005  0.2121E+02  0.2466E+02  0.1679E+03  0.1677E+03
     -3.930  0.2059E+02  0.2043E+02  0.1695E+03  0.1692E+03
     -3.855  0.2503E+02  0.2603E+02  0.1714E+03  0.1712E+03
     -3.780  0.1863E+02  0.1908E+02  0.1728E+03  0.1726E+03
     -3.705  0.3911E+02  0.3697E+02  0.1758E+03  0.1754E+03
     -3.629  0.3292E+02  0.3362E+02  0.1783E+03  0.1780E+03
     -3.554  0.2442E+02  0.2367E+02  0.1801E+03  0.1798E+03
     -3.479  0.2214E+02  0.2399E+02  0.1819E+03  0.1816E+03
     -3.404  0.2843E+02  0.2971E+02  0.1840E+03  0.1839E+03
     -3.329  0.2577E+02  0.2458E+02  0.1860E+03  0.1857E+03
     -3.254  0.1992E+02  0.2106E+02  0.1875E+03  0.1874E+03
     -3.179  0.2180E+02  0.2025E+02  0.1891E+03  0.1889E+03
     -3.104  0.3411E+02  0.3189E+02  0.1917E+03  0.1913E+03
     -3.029  0.3667E+02  0.3965E+02  0.1945E+03  0.1943E+03
     -2.954  0.2581E+02  0.2587E+02  0.1965E+03  0.1963E+03
     -2.879  0.2757E+02  0.2627E+02  0.1985E+03  0.1983E+03
     -2.804  0.2809E+02  0.2755E+02  0.2007E+03  0.2004E+03
     -2.729  0.1983E+02  0.2299E+02  0.2022E+03  0.2021E+03
     -2.654  0.3434E+02  0.3066E+02  0.2048E+03  0.2045E+03
     -2.579  0.2628E+02  0.2855E+02  0.2068E+03  0.2067E+03
     -2.503  0.3582E+02  0.3480E+02  0.2095E+03  0.2094E+03
     -2.428  0.3807E+02  0.3854E+02  0.2124E+03  0.2123E+03
     -2.353  0.2792E+02  0.2521E+02  0.2145E+03  0.2142E+03
     -2.278  0.3596E+02  0.3729E+02  0.2172E+03  0.2170E+03
     -2.203  0.3150E+02  0.2909E+02  0.2196E+03  0.2192E+03
     -2.128  0.4328E+02  0.4575E+02  0.2229E+03  0.2227E+03
     -2.053  0.2604E+02  0.2547E+02  0.2248E+03  0.2246E+03
     -1.978  0.3233E+02  0.2773E+02  0.2273E+03  0.2268E+03
     -1.903  0.3454E+02  0.3782E+02  0.2299E+03  0.2297E+03
     -1.828  0.4120E+02  0.4154E+02  0.2330E+03  0.2328E+03
     -1.753  0.3506E+02  0.3040E+02  0.2356E+03  0.2352E+03
     -1.678  0.2864E+02  0.3012E+02  0.2378E+03  0.2374E+03
     -1.603  0.4492E+02  0.4643E+02  0.2413E+03  0.2410E+03
     -1.528  0.3748E+02  0.3873E+02  0.2442E+03  0.2439E+03
     -1.453  0.3627E+02  0.3213E+02  0.2469E+03  0.2464E+03
     -1.377  0.3462E+02  0.3570E+02  0.2495E+03  0.2491E+03
     -1.302  0.4727E+02  0.4859E+02  0.2531E+03  0.2529E+03
     -1.227  0.4407E+02  0.4106E+02  0.2565E+03  0.2560E+03
     -1.152  0.3874E+02  0.4118E+02  0.2595E+03  0.2592E+03
     -1.077  0.4139E+02  0.3996E+02  0.2626E+03  0.2622E+03
     -1.002  0.3438E+02  0.3621E+02  0.2652E+03  0.2650E+03
     -0.927  0.4906E+02  0.4352E+02  0.2689E+03  0.2683E+03
     -0.852  0.3289E+02  0.3684E+02  0.2714E+03  0.2711E+03
     -0.777  0.4798E+02  0.4580E+02  0.2751E+03  0.2747E+03
     -0.702  0.3019E+02  0.3493E+02  0.2775E+03  0.2773E+03
     -0.627  0.3897E+02  0.3447E+02  0.2804E+03  0.2800E+03
     -0.552  0.3454E+02  0.3445E+02  0.2830E+03  0.2826E+03
     -0.477  0.2928E+02  0.3171E+02  0.2852E+03  0.2850E+03
     -0.402  0.3573E+02  0.3568E+02  0.2879E+03  0.2877E+03
     -0.327  0.3085E+02  0.2886E+02  0.2903E+03  0.2899E+03
     -0.251  0.2795E+02  0.2551E+02  0.2924E+03  0.2919E+03
     -0.176  0.3255E+02  0.3494E+02  0.2949E+03  0.2945E+03
     -0.101  0.2919E+02  0.3236E+02  0.2971E+03  0.2970E+03
     -0.026  0.2924E+02  0.2330E+02  0.2993E+03  0.2988E+03
      0.049  0.5143E+02  0.5340E+02  0.3032E+03  0.3028E+03
      0.124  0.3435E+02  0.3099E+02  0.3058E+03  0.3052E+03
      0.199  0.2686E+02  0.3032E+02  0.3079E+03  0.3075E+03
      0.274  0.4086E+02  0.4166E+02  0.3110E+03  0.3107E+03
      0.349  0.4462E+02  0.4233E+02  0.3144E+03  0.3139E+03
      0.424  0.3511E+02  0.3461E+02  0.3171E+03  0.3165E+03
      0.499  0.4944E+02  0.5058E+02  0.3209E+03  0.3203E+03
      0.574  0.3937E+02  0.3924E+02  0.3239E+03  0.3234E+03
      0.649  0.3666E+02  0.3641E+02  0.3267E+03  0.3262E+03
      0.724  0.4011E+02  0.4011E+02  0.3297E+03  0.3292E+03
      0.799  0.4310E+02  0.4499E+02  0.3331E+03  0.3326E+03
      0.875  0.3416E+02  0.3265E+02  0.3357E+03  0.3351E+03
      0.950  0.4291E+02  0.4478E+02  0.3389E+03  0.3385E+03
      1.025  0.4302E+02  0.4447E+02  0.3421E+03  0.3418E+03
      1.100  0.5063E+02  0.4495E+02  0.3460E+03  0.3452E+03
      1.175  0.3665E+02  0.4248E+02  0.3487E+03  0.3484E+03
      1.250  0.3301E+02  0.2913E+02  0.3512E+03  0.3506E+03
      1.325  0.4052E+02  0.4380E+02  0.3543E+03  0.3540E+03
      1.400  0.3700E+02  0.3580E+02  0.3571E+03  0.3567E+03
      1.475  0.4006E+02  0.4021E+02  0.3602E+03  0.3598E+03
      1.550  0.3514E+02  0.3475E+02  0.3629E+03  0.3624E+03
      1.625  0.5002E+02  0.4541E+02  0.3666E+03  0.3658E+03
      1.700  0.3770E+02  0.4099E+02  0.3695E+03  0.3689E+03
      1.775  0.5290E+02  0.5138E+02  0.3736E+03  0.3728E+03
      1.850  0.4481E+02  0.4578E+02  0.3770E+03  0.3764E+03
      1.925  0.4286E+02  0.4072E+02  0.3802E+03  0.3795E+03
      2.001  0.5340E+02  0.5387E+02  0.3843E+03  0.3836E+03
      2.076  0.4459E+02  0.5076E+02  0.3877E+03  0.3874E+03
      2.151  0.6126E+02  0.5634E+02  0.3923E+03  0.3916E+03
      2.226  0.4938E+02  0.5218E+02  0.3961E+03  0.3956E+03
      2.301  0.4149E+02  0.3820E+02  0.3992E+03  0.3985E+03
      2.376  0.4317E+02  0.4331E+02  0.4025E+03  0.4018E+03
      2.451  0.3971E+02  0.3661E+02  0.4056E+03  0.4046E+03
      2.526  0.5215E+02  0.5327E+02  0.4095E+03  0.4087E+03
      2.601  0.3025E+02  0.3503E+02  0.4119E+03  0.4114E+03
      2.676  0.4651E+02  0.4356E+02  0.4154E+03  0.4148E+03
      2.751  0.5075E+02  0.4979E+02  0.4192E+03  0.4186E+03
      2.826  0.4823E+02  0.4884E+02  0.4229E+03  0.4222E+03
      2.901  0.4535E+02  0.4270E+02  0.4264E+03  0.4255E+03
      2.976  0.4573E+02  0.4841E+02  0.4298E+03  0.4291E+03
      3.051  0.4771E+02  0.4832E+02  0.4335E+03  0.4328E+03
      3.127  0.4374E+02  0.4098E+02  0.4368E+03  0.4359E+03
      3.202  0.4643E+02  0.4352E+02  0.4403E+03  0.4392E+03
      3.277  0.5110E+02  0.5068E+02  0.4442E+03  0.4431E+03
      3.352  0.3371E+02  0.4215E+02  0.4469E+03  0.4463E+03
      3.427  0.4204E+02  0.3944E+02  0.4501E+03  0.4493E+03
      3.502  0.4975E+02  0.4933E+02  0.4539E+03  0.4531E+03
      3.577  0.4274E+02  0.4183E+02  0.4571E+03  0.4562E+03
      3.652  0.3896E+02  0.3780E+02  0.4601E+03  0.4591E+03
      3.727  0.4487E+02  0.4989E+02  0.4636E+03  0.4629E+03
      3.802  0.4797E+02  0.4598E+02  0.4672E+03  0.4664E+03
      3.877  0.3867E+02  0.3856E+02  0.4701E+03  0.4693E+03
      3.952  0.4229E+02  0.3755E+02  0.4733E+03  0.4722E+03
      4.027  0.4651E+02  0.5145E+02  0.4769E+03  0.4761E+03
      4.102  0.4866E+02  0.4543E+02  0.4806E+03  0.4796E+03
      4.178  0.3539E+02  0.3788E+02  0.4833E+03  0.4825E+03
      4.253  0.5303E+02  0.4564E+02  0.4873E+03  0.4860E+03
      4.328  0.5577E+02  0.6173E+02  0.4915E+03  0.4906E+03
      4.403  0.4965E+02  0.4659E+02  0.4953E+03  0.4943E+03
      4.478  0.4074E+02  0.4595E+02  0.4984E+03  0.4977E+03
      4.553  0.5752E+02  0.5505E+02  0.5028E+03  0.5019E+03
      4.628  0.5897E+02  0.4923E+02  0.5073E+03  0.5056E+03
      4.703  0.4326E+02  0.5730E+02  0.5106E+03  0.5099E+03
      4.778  0.4624E+02  0.4183E+02  0.5141E+03  0.5131E+03
      4.853  0.5159E+02  0.5069E+02  0.5180E+03  0.5169E+03
      4.928  0.3656E+02  0.4487E+02  0.5208E+03  0.5203E+03
      5.003  0.4335E+02  0.3679E+02  0.5241E+03  0.5231E+03
      5.078  0.2694E+02  0.3738E+02  0.5261E+03  0.5259E+03
      5.153  0.5190E+02  0.3889E+02  0.5300E+03  0.5288E+03
      5.228  0.3319E+02  0.4082E+02  0.5326E+03  0.5320E+03
      5.304  0.4213E+02  0.4018E+02  0.5358E+03  0.5350E+03
      5.379  0.4426E+02  0.4350E+02  0.5392E+03  0.5383E+03
      5.454  0.3776E+02  0.4012E+02  0.5421E+03  0.5414E+03
      5.529  0.2395E+02  0.2693E+02  0.5439E+03  0.5434E+03
      5.604  0.2464E+02  0.2463E+02  0.5458E+03  0.5453E+03
      5.679  0.4024E+02  0.3849E+02  0.5488E+03  0.5482E+03
      5.754  0.3485E+02  0.3125E+02  0.5514E+03  0.5506E+03
      5.829  0.4376E+02  0.4363E+02  0.5548E+03  0.5539E+03
      5.904  0.2602E+02  0.3250E+02  0.5568E+03  0.5564E+03
      5.979  0.4386E+02  0.3964E+02  0.5601E+03  0.5593E+03
      6.054  0.4457E+02  0.4292E+02  0.5635E+03  0.5626E+03
      6.129  0.4575E+02  0.4722E+02  0.5670E+03  0.5662E+03
      6.204  0.3983E+02  0.3857E+02  0.5700E+03  0.5691E+03
      6.279  0.3484E+02  0.3930E+02  0.5727E+03  0.5721E+03
      6.354  0.2514E+02  0.2576E+02  0.5746E+03  0.5740E+03
      6.430  0.1797E+02  0.2491E+02  0.5760E+03  0.5759E+03
      6.505  0.0000E+00  0.1110E+01  0.5760E+03  0.5760E+03
      6.580  0.0000E+00  0.0000E+00  0.5760E+03  0.5760E+03
      6.655  0.0000E+00  0.0000E+00  0.5760E+03  0.5760E+03
      6.730  0.0000E+00  0.0000E+00  0.5760E+03  0.5760E+03
      6.805  0.0000E+00  0.0000E+00  0.5760E+03  0.5760E+03
      6.880  0.0000E+00  0.0000E+00  0.5760E+03  0.5760E+03
      6.955  0.0000E+00  0.0000E+00  0.5760E+03  0.5760E+03
      7.030  0.0000E+00  0.0000E+00  0.5760E+03  0.5760E+03
      7.105  0.0000E+00  0.0000E+00  0.5760E+03  0.5760E+03
      7.180  0.0000E+00  0.0000E+00  0.5760E+03  0.5760E+03
      7.255  0.0000E+00  0.0000E+00  0.5760E+03  0.5760E+03
      7.330  0.0000E+00  0.0000E+00  0.5760E+03  0.5760E+03
      7.405  0.0000E+00  0.0000E+00  0.5760E+03  0.5760E+03
      7.480  0.0000E+00  0.0000E+00  0.5760E+03  0.5760E+03
