  96  96   0   0
  0.2276159E+02  0.1265123E-08  0.1265123E-08  0.1393391E-08  0.5000000E-15
  1.000000000000000E-004
  CAR 
 Si and Ge interface calculation         
      6.47327570    -11.08176424  301      3.59069375      1.00000000
    -11.082  0.0000E+00  0.0000E+00  0.0000E+00  0.0000E+00
    -11.023  0.0000E+00  0.0000E+00  0.0000E+00  0.0000E+00
    -10.965  0.0000E+00  0.0000E+00  0.0000E+00  0.0000E+00
    -10.906  0.0000E+00  0.0000E+00  0.0000E+00  0.0000E+00
    -10.848  0.0000E+00  0.0000E+00  0.0000E+00  0.0000E+00
    -10.789  0.0000E+00  0.0000E+00  0.0000E+00  0.0000E+00
    -10.731  0.0000E+00  0.0000E+00  0.0000E+00  0.0000E+00
    -10.672  0.0000E+00  0.0000E+00  0.0000E+00  0.0000E+00
    -10.614  0.0000E+00  0.0000E+00  0.0000E+00  0.0000E+00
    -10.555  0.0000E+00  0.0000E+00  0.0000E+00  0.0000E+00
    -10.497  0.0000E+00  0.0000E+00  0.0000E+00  0.0000E+00
    -10.438  0.0000E+00  0.0000E+00  0.0000E+00  0.0000E+00
    -10.380  0.0000E+00  0.0000E+00  0.0000E+00  0.0000E+00
    -10.321  0.1332E-06  0.3679E-10  0.7794E-08  0.2153E-11
    -10.263  0.1018E+02  0.6182E+01  0.5958E+00  0.3617E+00
    -10.204  0.2310E+02  0.2267E+02  0.1948E+01  0.1688E+01
    -10.145  0.8887E+00  0.5331E+01  0.2000E+01  0.2000E+01
    -10.087  0.9109E+00  0.6408E-01  0.2053E+01  0.2004E+01
    -10.028  0.3422E+02  0.2405E+02  0.4056E+01  0.3411E+01
     -9.970  0.2183E+02  0.3284E+02  0.5333E+01  0.5333E+01
     -9.911  0.0000E+00  0.0000E+00  0.5333E+01  0.5333E+01
     -9.853  0.4403E-08  0.1232E-11  0.5333E+01  0.5333E+01
     -9.794  0.2065E+02  0.1309E+02  0.6542E+01  0.6099E+01
     -9.736  0.2136E+01  0.9698E+01  0.6667E+01  0.6667E+01
     -9.677  0.0000E+00  0.0000E+00  0.6667E+01  0.6667E+01
     -9.619  0.0000E+00  0.0000E+00  0.6667E+01  0.6667E+01
     -9.560  0.0000E+00  0.0000E+00  0.6667E+01  0.6667E+01
     -9.502  0.9510E+00  0.4278E-01  0.6722E+01  0.6669E+01
     -9.443  0.2183E+02  0.2274E+02  0.8000E+01  0.8000E+01
     -9.385  0.0000E+00  0.0000E+00  0.8000E+01  0.8000E+01
     -9.326  0.0000E+00  0.0000E+00  0.8000E+01  0.8000E+01
     -9.268  0.0000E+00  0.0000E+00  0.8000E+01  0.8000E+01
     -9.209  0.4815E-03  0.7465E-06  0.8000E+01  0.8000E+01
     -9.151  0.5331E+02  0.3926E+02  0.1112E+02  0.1030E+02
     -9.092  0.3653E+01  0.1770E+02  0.1133E+02  0.1133E+02
     -9.034  0.1780E+01  0.1532E+00  0.1144E+02  0.1134E+02
     -8.975  0.9613E+01  0.1124E+02  0.1200E+02  0.1200E+02
     -8.917  0.0000E+00  0.0000E+00  0.1200E+02  0.1200E+02
     -8.858  0.0000E+00  0.0000E+00  0.1200E+02  0.1200E+02
     -8.800  0.0000E+00  0.0000E+00  0.1200E+02  0.1200E+02
     -8.741  0.2996E+00  0.1114E-01  0.1202E+02  0.1200E+02
     -8.683  0.1727E+02  0.1428E+02  0.1303E+02  0.1284E+02
     -8.624  0.1828E+02  0.1994E+02  0.1410E+02  0.1400E+02
     -8.566  0.1163E+02  0.1318E+02  0.1478E+02  0.1477E+02
     -8.507  0.1225E+02  0.9064E+01  0.1550E+02  0.1530E+02
     -8.449  0.1594E+02  0.1626E+02  0.1643E+02  0.1626E+02
     -8.390  0.2306E+02  0.2311E+02  0.1778E+02  0.1761E+02
     -8.331  0.1059E+02  0.1153E+02  0.1840E+02  0.1828E+02
     -8.273  0.2238E+02  0.2148E+02  0.1971E+02  0.1954E+02
     -8.214  0.3277E+02  0.3271E+02  0.2163E+02  0.2145E+02
     -8.156  0.1921E+02  0.2038E+02  0.2275E+02  0.2265E+02
     -8.097  0.2234E+02  0.2259E+02  0.2406E+02  0.2397E+02
     -8.039  0.1336E+02  0.1395E+02  0.2484E+02  0.2479E+02
     -7.980  0.1869E+02  0.1859E+02  0.2593E+02  0.2587E+02
     -7.922  0.2333E+02  0.2233E+02  0.2730E+02  0.2718E+02
     -7.863  0.1081E+02  0.1044E+02  0.2793E+02  0.2779E+02
     -7.805  0.3060E+02  0.2929E+02  0.2972E+02  0.2951E+02
     -7.746  0.3125E+02  0.3093E+02  0.3155E+02  0.3132E+02
     -7.688  0.1547E+02  0.1712E+02  0.3245E+02  0.3232E+02
     -7.629  0.2466E+02  0.2444E+02  0.3390E+02  0.3375E+02
     -7.571  0.2134E+02  0.1836E+02  0.3515E+02  0.3482E+02
     -7.512  0.1592E+02  0.1948E+02  0.3608E+02  0.3596E+02
     -7.454  0.3200E+02  0.3021E+02  0.3795E+02  0.3773E+02
     -7.395  0.2603E+02  0.2387E+02  0.3947E+02  0.3913E+02
     -7.337  0.3545E+02  0.3810E+02  0.4155E+02  0.4136E+02
     -7.278  0.3139E+02  0.3154E+02  0.4339E+02  0.4320E+02
     -7.220  0.1931E+02  0.1885E+02  0.4452E+02  0.4431E+02
     -7.161  0.3954E+02  0.3597E+02  0.4683E+02  0.4641E+02
     -7.103  0.2006E+02  0.2519E+02  0.4800E+02  0.4788E+02
     -7.044  0.2937E+02  0.2830E+02  0.4972E+02  0.4954E+02
     -6.986  0.1758E+02  0.1779E+02  0.5075E+02  0.5058E+02
     -6.927  0.3248E+02  0.3093E+02  0.5265E+02  0.5239E+02
     -6.869  0.1664E+02  0.1761E+02  0.5362E+02  0.5342E+02
     -6.810  0.2523E+02  0.2266E+02  0.5510E+02  0.5475E+02
     -6.752  0.4283E+02  0.4230E+02  0.5761E+02  0.5722E+02
     -6.693  0.1562E+02  0.1951E+02  0.5852E+02  0.5837E+02
     -6.634  0.3438E+02  0.3142E+02  0.6053E+02  0.6020E+02
     -6.576  0.2879E+02  0.2834E+02  0.6222E+02  0.6186E+02
     -6.517  0.3388E+02  0.3456E+02  0.6420E+02  0.6388E+02
     -6.459  0.2978E+02  0.3169E+02  0.6594E+02  0.6574E+02
     -6.400  0.2528E+02  0.2483E+02  0.6742E+02  0.6719E+02
     -6.342  0.2691E+02  0.2890E+02  0.6900E+02  0.6888E+02
     -6.283  0.2949E+02  0.2502E+02  0.7072E+02  0.7035E+02
     -6.225  0.3130E+02  0.3282E+02  0.7255E+02  0.7227E+02
     -6.166  0.2474E+02  0.2757E+02  0.7400E+02  0.7388E+02
     -6.108  0.2063E+02  0.1809E+02  0.7521E+02  0.7494E+02
     -6.049  0.2381E+02  0.2749E+02  0.7660E+02  0.7655E+02
     -5.991  0.1741E+02  0.1531E+02  0.7762E+02  0.7744E+02
     -5.932  0.1749E+02  0.1862E+02  0.7865E+02  0.7853E+02
     -5.874  0.2509E+02  0.1978E+02  0.8011E+02  0.7969E+02
     -5.815  0.2573E+02  0.2878E+02  0.8162E+02  0.8138E+02
     -5.757  0.2906E+02  0.2893E+02  0.8332E+02  0.8307E+02
     -5.698  0.2771E+02  0.2836E+02  0.8494E+02  0.8473E+02
     -5.640  0.2077E+02  0.2144E+02  0.8616E+02  0.8598E+02
     -5.581  0.2217E+02  0.2144E+02  0.8745E+02  0.8724E+02
     -5.523  0.1866E+02  0.1734E+02  0.8855E+02  0.8825E+02
     -5.464  0.4068E+02  0.4173E+02  0.9093E+02  0.9069E+02
     -5.406  0.1632E+02  0.1613E+02  0.9188E+02  0.9164E+02
     -5.347  0.2492E+02  0.2176E+02  0.9334E+02  0.9291E+02
     -5.289  0.4356E+02  0.4506E+02  0.9589E+02  0.9555E+02
     -5.230  0.1355E+02  0.1913E+02  0.9668E+02  0.9667E+02
     -5.172  0.2256E+02  0.1439E+02  0.9800E+02  0.9751E+02
     -5.113  0.2477E+02  0.3256E+02  0.9945E+02  0.9941E+02
     -5.055  0.1872E+02  0.1390E+02  0.1005E+03  0.1002E+03
     -4.996  0.2735E+02  0.2718E+02  0.1021E+03  0.1018E+03
     -4.938  0.3038E+02  0.3098E+02  0.1039E+03  0.1036E+03
     -4.879  0.4222E+02  0.4155E+02  0.1064E+03  0.1061E+03
     -4.820  0.2626E+02  0.2822E+02  0.1079E+03  0.1077E+03
     -4.762  0.3497E+02  0.3609E+02  0.1100E+03  0.1098E+03
     -4.703  0.1908E+02  0.1929E+02  0.1111E+03  0.1110E+03
     -4.645  0.2258E+02  0.2280E+02  0.1124E+03  0.1123E+03
     -4.586  0.1190E+02  0.1079E+02  0.1131E+03  0.1129E+03
     -4.528  0.2745E+02  0.2825E+02  0.1147E+03  0.1146E+03
     -4.469  0.1856E+02  0.1898E+02  0.1158E+03  0.1157E+03
     -4.411  0.2415E+02  0.2481E+02  0.1172E+03  0.1171E+03
     -4.352  0.1841E+02  0.1823E+02  0.1183E+03  0.1182E+03
     -4.294  0.1596E+02  0.1524E+02  0.1192E+03  0.1191E+03
     -4.235  0.2833E+02  0.2714E+02  0.1209E+03  0.1207E+03
     -4.177  0.2258E+02  0.1728E+02  0.1222E+03  0.1217E+03
     -4.118  0.2316E+02  0.3178E+02  0.1236E+03  0.1236E+03
     -4.060  0.2058E+02  0.1864E+02  0.1248E+03  0.1246E+03
     -4.001  0.2443E+02  0.2341E+02  0.1262E+03  0.1260E+03
     -3.943  0.2873E+02  0.2744E+02  0.1279E+03  0.1276E+03
     -3.884  0.1488E+02  0.1632E+02  0.1288E+03  0.1286E+03
     -3.826  0.3029E+02  0.2936E+02  0.1305E+03  0.1303E+03
     -3.767  0.2797E+02  0.2994E+02  0.1322E+03  0.1320E+03
     -3.709  0.2890E+02  0.2399E+02  0.1339E+03  0.1335E+03
     -3.650  0.1488E+02  0.2084E+02  0.1347E+03  0.1347E+03
     -3.592  0.2671E+02  0.2560E+02  0.1363E+03  0.1362E+03
     -3.533  0.2244E+02  0.2193E+02  0.1376E+03  0.1375E+03
     -3.475  0.2712E+02  0.2608E+02  0.1392E+03  0.1390E+03
     -3.416  0.1562E+02  0.1488E+02  0.1401E+03  0.1399E+03
     -3.358  0.2890E+02  0.2944E+02  0.1418E+03  0.1416E+03
     -3.299  0.1503E+02  0.1707E+02  0.1427E+03  0.1426E+03
     -3.241  0.2595E+02  0.2217E+02  0.1442E+03  0.1439E+03
     -3.182  0.3455E+02  0.3310E+02  0.1462E+03  0.1458E+03
     -3.123  0.3068E+02  0.3456E+02  0.1480E+03  0.1478E+03
     -3.065  0.2182E+02  0.2199E+02  0.1493E+03  0.1491E+03
     -3.006  0.2977E+02  0.2854E+02  0.1510E+03  0.1508E+03
     -2.948  0.2144E+02  0.2133E+02  0.1523E+03  0.1520E+03
     -2.889  0.4153E+02  0.4152E+02  0.1547E+03  0.1545E+03
     -2.831  0.2606E+02  0.2528E+02  0.1562E+03  0.1559E+03
     -2.772  0.4526E+02  0.3627E+02  0.1589E+03  0.1581E+03
     -2.714  0.2286E+02  0.3481E+02  0.1602E+03  0.1601E+03
     -2.655  0.2972E+02  0.2799E+02  0.1620E+03  0.1617E+03
     -2.597  0.2269E+02  0.2405E+02  0.1633E+03  0.1631E+03
     -2.538  0.1998E+02  0.2166E+02  0.1645E+03  0.1644E+03
     -2.480  0.3491E+02  0.2850E+02  0.1665E+03  0.1661E+03
     -2.421  0.2252E+02  0.2271E+02  0.1678E+03  0.1674E+03
     -2.363  0.3121E+02  0.3228E+02  0.1696E+03  0.1693E+03
     -2.304  0.2749E+02  0.3002E+02  0.1713E+03  0.1711E+03
     -2.246  0.2323E+02  0.2244E+02  0.1726E+03  0.1724E+03
     -2.187  0.1828E+02  0.1830E+02  0.1737E+03  0.1734E+03
     -2.129  0.2676E+02  0.2589E+02  0.1753E+03  0.1750E+03
     -2.070  0.2040E+02  0.2426E+02  0.1764E+03  0.1764E+03
     -2.012  0.7140E+01  0.6901E+01  0.1769E+03  0.1768E+03
     -1.953  0.2318E+02  0.1823E+02  0.1782E+03  0.1778E+03
     -1.895  0.1814E+02  0.2251E+02  0.1793E+03  0.1792E+03
     -1.836  0.1331E+02  0.1187E+02  0.1801E+03  0.1799E+03
     -1.778  0.2130E+02  0.2220E+02  0.1813E+03  0.1812E+03
     -1.719  0.1471E+02  0.1603E+02  0.1822E+03  0.1821E+03
     -1.661  0.1171E+02  0.1111E+02  0.1829E+03  0.1827E+03
     -1.602  0.3192E+02  0.3013E+02  0.1847E+03  0.1845E+03
     -1.544  0.1111E+02  0.1270E+02  0.1854E+03  0.1853E+03
     -1.485  0.1564E+02  0.1368E+02  0.1863E+03  0.1861E+03
     -1.426  0.1949E+02  0.2182E+02  0.1874E+03  0.1873E+03
     -1.368  0.1922E+02  0.2014E+02  0.1886E+03  0.1885E+03
     -1.309  0.2486E+01  0.2376E+01  0.1887E+03  0.1886E+03
     -1.251  0.1256E+02  0.1210E+02  0.1894E+03  0.1894E+03
     -1.192  0.2425E+02  0.1907E+02  0.1909E+03  0.1905E+03
     -1.134  0.1213E+02  0.1508E+02  0.1916E+03  0.1914E+03
     -1.075  0.1039E+02  0.1302E+02  0.1922E+03  0.1921E+03
     -1.017  0.2582E+02  0.2393E+02  0.1937E+03  0.1935E+03
     -0.958  0.1220E+02  0.1406E+02  0.1944E+03  0.1943E+03
     -0.900  0.2698E+02  0.2514E+02  0.1960E+03  0.1958E+03
     -0.841  0.3723E+02  0.3168E+02  0.1982E+03  0.1977E+03
     -0.783  0.3409E+02  0.3797E+02  0.2001E+03  0.1999E+03
     -0.724  0.4392E+02  0.3843E+02  0.2027E+03  0.2021E+03
     -0.666  0.5238E+02  0.5296E+02  0.2058E+03  0.2052E+03
     -0.607  0.4051E+02  0.4206E+02  0.2082E+03  0.2077E+03
     -0.549  0.3362E+02  0.3558E+02  0.2101E+03  0.2098E+03
     -0.490  0.2528E+02  0.2582E+02  0.2116E+03  0.2113E+03
     -0.432  0.4001E+02  0.3800E+02  0.2139E+03  0.2135E+03
     -0.373  0.5036E+02  0.4861E+02  0.2169E+03  0.2164E+03
     -0.315  0.4226E+02  0.4344E+02  0.2194E+03  0.2189E+03
     -0.256  0.4749E+02  0.4924E+02  0.2221E+03  0.2218E+03
     -0.198  0.2675E+02  0.2657E+02  0.2237E+03  0.2233E+03
     -0.139  0.4463E+02  0.4360E+02  0.2263E+03  0.2259E+03
     -0.081  0.5834E+02  0.5481E+02  0.2297E+03  0.2291E+03
     -0.022  0.5359E+02  0.5612E+02  0.2329E+03  0.2324E+03
      0.036  0.4295E+02  0.4296E+02  0.2354E+03  0.2349E+03
      0.095  0.4500E+02  0.4705E+02  0.2380E+03  0.2376E+03
      0.153  0.4956E+02  0.4905E+02  0.2409E+03  0.2405E+03
      0.212  0.4145E+02  0.4393E+02  0.2433E+03  0.2431E+03
      0.270  0.4428E+02  0.4370E+02  0.2459E+03  0.2456E+03
      0.329  0.4769E+02  0.4855E+02  0.2487E+03  0.2485E+03
      0.388  0.4402E+02  0.4329E+02  0.2513E+03  0.2510E+03
      0.446  0.4448E+02  0.4697E+02  0.2539E+03  0.2538E+03
      0.505  0.4196E+02  0.3747E+02  0.2564E+03  0.2560E+03
      0.563  0.4948E+02  0.4759E+02  0.2592E+03  0.2587E+03
      0.622  0.4863E+02  0.5043E+02  0.2621E+03  0.2617E+03
      0.680  0.5861E+02  0.5528E+02  0.2655E+03  0.2649E+03
      0.739  0.5252E+02  0.5433E+02  0.2686E+03  0.2681E+03
      0.797  0.6382E+02  0.6172E+02  0.2723E+03  0.2717E+03
      0.856  0.4969E+02  0.5383E+02  0.2752E+03  0.2749E+03
      0.914  0.3951E+02  0.3727E+02  0.2776E+03  0.2771E+03
      0.973  0.6523E+02  0.6228E+02  0.2814E+03  0.2807E+03
      1.031  0.5995E+02  0.6018E+02  0.2849E+03  0.2842E+03
      1.090  0.5233E+02  0.5831E+02  0.2879E+03  0.2876E+03
      1.148  0.4613E+02  0.4676E+02  0.2906E+03  0.2904E+03
      1.207  0.4166E+02  0.4211E+02  0.2931E+03  0.2928E+03
      1.265  0.5139E+02  0.4901E+02  0.2961E+03  0.2957E+03
      1.324  0.4104E+02  0.4115E+02  0.2985E+03  0.2981E+03
      1.382  0.3998E+02  0.4129E+02  0.3008E+03  0.3005E+03
      1.441  0.4145E+02  0.4182E+02  0.3033E+03  0.3030E+03
      1.499  0.4819E+02  0.4522E+02  0.3061E+03  0.3056E+03
      1.558  0.3860E+02  0.4130E+02  0.3083E+03  0.3080E+03
      1.616  0.3325E+02  0.3247E+02  0.3103E+03  0.3099E+03
      1.675  0.6055E+02  0.5388E+02  0.3138E+03  0.3131E+03
      1.733  0.2494E+02  0.3079E+02  0.3153E+03  0.3149E+03
      1.792  0.4116E+02  0.3856E+02  0.3177E+03  0.3171E+03
      1.850  0.3216E+02  0.3845E+02  0.3196E+03  0.3194E+03
      1.909  0.2894E+02  0.2801E+02  0.3213E+03  0.3210E+03
      1.967  0.3790E+02  0.3426E+02  0.3235E+03  0.3230E+03
      2.026  0.3527E+02  0.3734E+02  0.3255E+03  0.3252E+03
      2.085  0.4802E+02  0.5244E+02  0.3284E+03  0.3283E+03
      2.143  0.3232E+02  0.2656E+02  0.3302E+03  0.3298E+03
      2.202  0.3164E+02  0.2945E+02  0.3321E+03  0.3316E+03
      2.260  0.4103E+02  0.4571E+02  0.3345E+03  0.3342E+03
      2.319  0.4295E+02  0.3506E+02  0.3370E+03  0.3363E+03
      2.377  0.3705E+02  0.4272E+02  0.3392E+03  0.3388E+03
      2.436  0.3989E+02  0.4262E+02  0.3415E+03  0.3413E+03
      2.494  0.4044E+02  0.3530E+02  0.3439E+03  0.3434E+03
      2.553  0.2927E+02  0.3563E+02  0.3456E+03  0.3454E+03
      2.611  0.4044E+02  0.3553E+02  0.3480E+03  0.3475E+03
      2.670  0.2955E+02  0.2865E+02  0.3497E+03  0.3492E+03
      2.728  0.4097E+02  0.4072E+02  0.3521E+03  0.3516E+03
      2.787  0.3561E+02  0.3506E+02  0.3542E+03  0.3536E+03
      2.845  0.4015E+02  0.4179E+02  0.3565E+03  0.3561E+03
      2.904  0.4187E+02  0.3474E+02  0.3590E+03  0.3581E+03
      2.962  0.3060E+02  0.3901E+02  0.3608E+03  0.3604E+03
      3.021  0.3532E+02  0.3244E+02  0.3628E+03  0.3623E+03
      3.079  0.4662E+02  0.4643E+02  0.3656E+03  0.3650E+03
      3.138  0.4214E+02  0.4026E+02  0.3680E+03  0.3674E+03
      3.196  0.3161E+02  0.3429E+02  0.3699E+03  0.3694E+03
      3.255  0.3229E+02  0.3432E+02  0.3718E+03  0.3714E+03
      3.313  0.3666E+02  0.3003E+02  0.3739E+03  0.3731E+03
      3.372  0.3297E+02  0.4039E+02  0.3758E+03  0.3755E+03
      3.430  0.3152E+02  0.3195E+02  0.3777E+03  0.3774E+03
      3.489  0.4352E+02  0.3912E+02  0.3802E+03  0.3797E+03
      3.547  0.2434E+02  0.3186E+02  0.3817E+03  0.3815E+03
      3.606  0.4588E+02  0.3354E+02  0.3843E+03  0.3835E+03
      3.664  0.3681E+02  0.4045E+02  0.3865E+03  0.3859E+03
      3.723  0.4050E+02  0.4263E+02  0.3889E+03  0.3883E+03
      3.782  0.4115E+02  0.4352E+02  0.3913E+03  0.3909E+03
      3.840  0.3035E+02  0.3028E+02  0.3930E+03  0.3927E+03
      3.899  0.2729E+02  0.3014E+02  0.3946E+03  0.3944E+03
      3.957  0.2675E+02  0.1996E+02  0.3962E+03  0.3956E+03
      4.016  0.4012E+02  0.4003E+02  0.3986E+03  0.3979E+03
      4.074  0.3750E+02  0.4097E+02  0.4008E+03  0.4003E+03
      4.133  0.3661E+02  0.3469E+02  0.4029E+03  0.4024E+03
      4.191  0.4557E+02  0.4547E+02  0.4056E+03  0.4050E+03
      4.250  0.2830E+02  0.3086E+02  0.4072E+03  0.4068E+03
      4.308  0.3456E+02  0.3358E+02  0.4092E+03  0.4088E+03
      4.367  0.3245E+02  0.2831E+02  0.4111E+03  0.4105E+03
      4.425  0.3617E+02  0.3994E+02  0.4133E+03  0.4128E+03
      4.484  0.3021E+02  0.3371E+02  0.4150E+03  0.4148E+03
      4.542  0.4024E+02  0.3851E+02  0.4174E+03  0.4170E+03
      4.601  0.4903E+02  0.4609E+02  0.4202E+03  0.4197E+03
      4.659  0.2734E+02  0.2571E+02  0.4218E+03  0.4212E+03
      4.718  0.3667E+02  0.3819E+02  0.4240E+03  0.4235E+03
      4.776  0.4005E+02  0.4416E+02  0.4263E+03  0.4260E+03
      4.835  0.4279E+02  0.3717E+02  0.4288E+03  0.4282E+03
      4.893  0.4478E+02  0.4330E+02  0.4315E+03  0.4308E+03
      4.952  0.2932E+02  0.3433E+02  0.4332E+03  0.4328E+03
      5.010  0.3970E+02  0.3614E+02  0.4355E+03  0.4349E+03
      5.069  0.4438E+02  0.4495E+02  0.4381E+03  0.4375E+03
      5.127  0.4693E+02  0.5164E+02  0.4408E+03  0.4405E+03
      5.186  0.4360E+02  0.3704E+02  0.4434E+03  0.4427E+03
      5.244  0.4324E+02  0.4546E+02  0.4459E+03  0.4454E+03
      5.303  0.4853E+02  0.5050E+02  0.4488E+03  0.4483E+03
      5.361  0.3535E+02  0.4023E+02  0.4508E+03  0.4507E+03
      5.420  0.5147E+02  0.4375E+02  0.4538E+03  0.4532E+03
      5.478  0.4056E+02  0.4332E+02  0.4562E+03  0.4558E+03
      5.537  0.4051E+02  0.4281E+02  0.4586E+03  0.4583E+03
      5.596  0.4970E+02  0.4873E+02  0.4615E+03  0.4611E+03
      5.654  0.3255E+02  0.3297E+02  0.4634E+03  0.4630E+03
      5.713  0.1016E+02  0.1630E+02  0.4640E+03  0.4640E+03
      5.771  0.0000E+00  0.0000E+00  0.4640E+03  0.4640E+03
      5.830  0.0000E+00  0.0000E+00  0.4640E+03  0.4640E+03
      5.888  0.0000E+00  0.0000E+00  0.4640E+03  0.4640E+03
      5.947  0.0000E+00  0.0000E+00  0.4640E+03  0.4640E+03
      6.005  0.0000E+00  0.0000E+00  0.4640E+03  0.4640E+03
      6.064  0.0000E+00  0.0000E+00  0.4640E+03  0.4640E+03
      6.122  0.0000E+00  0.0000E+00  0.4640E+03  0.4640E+03
      6.181  0.0000E+00  0.0000E+00  0.4640E+03  0.4640E+03
      6.239  0.0000E+00  0.0000E+00  0.4640E+03  0.4640E+03
      6.298  0.0000E+00  0.0000E+00  0.4640E+03  0.4640E+03
      6.356  0.0000E+00  0.0000E+00  0.4640E+03  0.4640E+03
      6.415  0.0000E+00  0.0000E+00  0.4640E+03  0.4640E+03
      6.473  0.0000E+00  0.0000E+00  0.4640E+03  0.4640E+03
