 264 264   0   0
  0.2774202E+02  0.1958175E-08  0.1958175E-08  0.1910025E-08  0.5000000E-15
  1.000000000000000E-004
  CAR 
 Si and Ge interface calculation         
      6.63568428     -9.15334063  301      4.04414640      1.00000000
     -9.153  0.0000E+00  0.0000E+00  0.0000E+00  0.0000E+00
     -9.101  0.0000E+00  0.0000E+00  0.0000E+00  0.0000E+00
     -9.048  0.0000E+00  0.0000E+00  0.0000E+00  0.0000E+00
     -8.995  0.0000E+00  0.0000E+00  0.0000E+00  0.0000E+00
     -8.943  0.0000E+00  0.0000E+00  0.0000E+00  0.0000E+00
     -8.890  0.0000E+00  0.0000E+00  0.0000E+00  0.0000E+00
     -8.838  0.0000E+00  0.0000E+00  0.0000E+00  0.0000E+00
     -8.785  0.0000E+00  0.0000E+00  0.0000E+00  0.0000E+00
     -8.732  0.0000E+00  0.0000E+00  0.0000E+00  0.0000E+00
     -8.680  0.0000E+00  0.0000E+00  0.0000E+00  0.0000E+00
     -8.627  0.0000E+00  0.0000E+00  0.0000E+00  0.0000E+00
     -8.574  0.0000E+00  0.0000E+00  0.0000E+00  0.0000E+00
     -8.522  0.0000E+00  0.0000E+00  0.0000E+00  0.0000E+00
     -8.469  0.1026E-04  0.3294E-05  0.5398E-06  0.1734E-06
     -8.417  0.1767E+02  0.1629E+02  0.9301E+00  0.8573E+00
     -8.364  0.2033E+02  0.2171E+02  0.2000E+01  0.2000E+01
     -8.311  0.2065E-12  0.3823E-13  0.2000E+01  0.2000E+01
     -8.259  0.4347E+01  0.3545E+01  0.2229E+01  0.2187E+01
     -8.206  0.2247E+02  0.2265E+02  0.3412E+01  0.3379E+01
     -8.153  0.3111E+01  0.3301E+01  0.3575E+01  0.3552E+01
     -8.101  0.2696E+02  0.2522E+02  0.4994E+01  0.4880E+01
     -8.048  0.1911E+02  0.2128E+02  0.6000E+01  0.6000E+01
     -7.995  0.1414E+02  0.1343E+02  0.6744E+01  0.6707E+01
     -7.943  0.2416E+02  0.2476E+02  0.8016E+01  0.8010E+01
     -7.890  0.2819E+02  0.2832E+02  0.9500E+01  0.9500E+01
     -7.838  0.9500E+01  0.9496E+01  0.1000E+02  0.1000E+02
     -7.785  0.2665E+02  0.2608E+02  0.1140E+02  0.1137E+02
     -7.732  0.4285E+01  0.4357E+01  0.1163E+02  0.1160E+02
     -7.680  0.7075E+01  0.7580E+01  0.1200E+02  0.1200E+02
     -7.627  0.1988E+02  0.1960E+02  0.1305E+02  0.1303E+02
     -7.574  0.1703E+02  0.1589E+02  0.1394E+02  0.1387E+02
     -7.522  0.2136E+02  0.2232E+02  0.1507E+02  0.1504E+02
     -7.469  0.3089E+02  0.3061E+02  0.1669E+02  0.1665E+02
     -7.417  0.1032E+02  0.9857E+01  0.1724E+02  0.1717E+02
     -7.364  0.1504E+02  0.1605E+02  0.1803E+02  0.1802E+02
     -7.311  0.8977E+01  0.9171E+01  0.1850E+02  0.1850E+02
     -7.259  0.2296E+02  0.2086E+02  0.1971E+02  0.1960E+02
     -7.206  0.3716E+02  0.3835E+02  0.2166E+02  0.2162E+02
     -7.153  0.2720E+02  0.2664E+02  0.2310E+02  0.2302E+02
     -7.101  0.7992E+01  0.9309E+01  0.2352E+02  0.2351E+02
     -7.048  0.4272E+02  0.4145E+02  0.2577E+02  0.2569E+02
     -6.996  0.3297E+02  0.3439E+02  0.2750E+02  0.2750E+02
     -6.943  0.4076E+02  0.3847E+02  0.2965E+02  0.2952E+02
     -6.890  0.3385E+02  0.3557E+02  0.3143E+02  0.3140E+02
     -6.838  0.3589E+02  0.3472E+02  0.3332E+02  0.3322E+02
     -6.785  0.3956E+02  0.3924E+02  0.3540E+02  0.3529E+02
     -6.732  0.8730E+02  0.8756E+02  0.3999E+02  0.3990E+02
     -6.680  0.3147E+02  0.3220E+02  0.4165E+02  0.4159E+02
     -6.627  0.1920E+02  0.1951E+02  0.4266E+02  0.4262E+02
     -6.574  0.2361E+02  0.2232E+02  0.4390E+02  0.4379E+02
     -6.522  0.4145E+02  0.4150E+02  0.4608E+02  0.4598E+02
     -6.469  0.6518E+02  0.6639E+02  0.4951E+02  0.4947E+02
     -6.417  0.3971E+02  0.3947E+02  0.5160E+02  0.5155E+02
     -6.364  0.3867E+02  0.3883E+02  0.5364E+02  0.5359E+02
     -6.311  0.4660E+02  0.4632E+02  0.5609E+02  0.5603E+02
     -6.259  0.3384E+02  0.3353E+02  0.5787E+02  0.5780E+02
     -6.206  0.6193E+02  0.6167E+02  0.6113E+02  0.6104E+02
     -6.153  0.7802E+02  0.7615E+02  0.6524E+02  0.6505E+02
     -6.101  0.7814E+02  0.7900E+02  0.6935E+02  0.6921E+02
     -6.048  0.6565E+02  0.6547E+02  0.7281E+02  0.7265E+02
     -5.996  0.7740E+02  0.7643E+02  0.7688E+02  0.7668E+02
     -5.943  0.5464E+02  0.5649E+02  0.7976E+02  0.7965E+02
     -5.890  0.7365E+02  0.7268E+02  0.8363E+02  0.8347E+02
     -5.838  0.4390E+02  0.4473E+02  0.8594E+02  0.8583E+02
     -5.785  0.8287E+02  0.8126E+02  0.9030E+02  0.9011E+02
     -5.732  0.6819E+02  0.6741E+02  0.9389E+02  0.9365E+02
     -5.680  0.9808E+02  0.9718E+02  0.9905E+02  0.9877E+02
     -5.627  0.1032E+03  0.1065E+03  0.1045E+03  0.1044E+03
     -5.574  0.6640E+02  0.6509E+02  0.1080E+03  0.1078E+03
     -5.522  0.5654E+02  0.5805E+02  0.1110E+03  0.1109E+03
     -5.469  0.8506E+02  0.8191E+02  0.1154E+03  0.1152E+03
     -5.417  0.7475E+02  0.7592E+02  0.1194E+03  0.1192E+03
     -5.364  0.8829E+02  0.8595E+02  0.1240E+03  0.1237E+03
     -5.311  0.9247E+02  0.9523E+02  0.1289E+03  0.1287E+03
     -5.259  0.6719E+02  0.6785E+02  0.1324E+03  0.1323E+03
     -5.206  0.7149E+02  0.7180E+02  0.1362E+03  0.1360E+03
     -5.153  0.6943E+02  0.6800E+02  0.1398E+03  0.1396E+03
     -5.101  0.6796E+02  0.6798E+02  0.1434E+03  0.1432E+03
     -5.048  0.8449E+02  0.8494E+02  0.1479E+03  0.1477E+03
     -4.996  0.6588E+02  0.6539E+02  0.1513E+03  0.1511E+03
     -4.943  0.6948E+02  0.7011E+02  0.1550E+03  0.1548E+03
     -4.890  0.7790E+02  0.7858E+02  0.1591E+03  0.1589E+03
     -4.838  0.7957E+02  0.7802E+02  0.1633E+03  0.1630E+03
     -4.785  0.9885E+02  0.9737E+02  0.1685E+03  0.1682E+03
     -4.732  0.1289E+03  0.1309E+03  0.1753E+03  0.1751E+03
     -4.680  0.9082E+02  0.8805E+02  0.1800E+03  0.1797E+03
     -4.627  0.9105E+02  0.9155E+02  0.1848E+03  0.1845E+03
     -4.575  0.1136E+03  0.1133E+03  0.1908E+03  0.1905E+03
     -4.522  0.9302E+02  0.9262E+02  0.1957E+03  0.1953E+03
     -4.469  0.1137E+03  0.1126E+03  0.2017E+03  0.2013E+03
     -4.417  0.1153E+03  0.1189E+03  0.2078E+03  0.2075E+03
     -4.364  0.7164E+02  0.6793E+02  0.2115E+03  0.2111E+03
     -4.311  0.8263E+02  0.8242E+02  0.2159E+03  0.2154E+03
     -4.259  0.6509E+02  0.6871E+02  0.2193E+03  0.2191E+03
     -4.206  0.9034E+02  0.8821E+02  0.2241E+03  0.2237E+03
     -4.153  0.9381E+02  0.9669E+02  0.2290E+03  0.2288E+03
     -4.101  0.6404E+02  0.6546E+02  0.2324E+03  0.2322E+03
     -4.048  0.7063E+02  0.6740E+02  0.2361E+03  0.2358E+03
     -3.996  0.6159E+02  0.6159E+02  0.2393E+03  0.2390E+03
     -3.943  0.4084E+02  0.4361E+02  0.2415E+03  0.2413E+03
     -3.890  0.3979E+02  0.3673E+02  0.2436E+03  0.2433E+03
     -3.838  0.7320E+02  0.7589E+02  0.2474E+03  0.2472E+03
     -3.785  0.3897E+02  0.3624E+02  0.2495E+03  0.2492E+03
     -3.732  0.7511E+02  0.7654E+02  0.2534E+03  0.2532E+03
     -3.680  0.6848E+02  0.6559E+02  0.2570E+03  0.2566E+03
     -3.627  0.6620E+02  0.6795E+02  0.2605E+03  0.2602E+03
     -3.575  0.7666E+02  0.7798E+02  0.2645E+03  0.2643E+03
     -3.522  0.4989E+02  0.4775E+02  0.2672E+03  0.2668E+03
     -3.469  0.9524E+02  0.9581E+02  0.2722E+03  0.2719E+03
     -3.417  0.7279E+02  0.7456E+02  0.2760E+03  0.2758E+03
     -3.364  0.8972E+02  0.8876E+02  0.2807E+03  0.2805E+03
     -3.311  0.6429E+02  0.6331E+02  0.2841E+03  0.2838E+03
     -3.259  0.8135E+02  0.8206E+02  0.2884E+03  0.2881E+03
     -3.206  0.6539E+02  0.6589E+02  0.2918E+03  0.2916E+03
     -3.154  0.6649E+02  0.6467E+02  0.2953E+03  0.2950E+03
     -3.101  0.6492E+02  0.6650E+02  0.2988E+03  0.2985E+03
     -3.048  0.8249E+02  0.8256E+02  0.3031E+03  0.3028E+03
     -2.996  0.6411E+02  0.6450E+02  0.3065E+03  0.3062E+03
     -2.943  0.8972E+02  0.8727E+02  0.3112E+03  0.3108E+03
     -2.890  0.8548E+02  0.8731E+02  0.3157E+03  0.3154E+03
     -2.838  0.9050E+02  0.8960E+02  0.3205E+03  0.3201E+03
     -2.785  0.1034E+03  0.1009E+03  0.3259E+03  0.3254E+03
     -2.732  0.1093E+03  0.1137E+03  0.3316E+03  0.3314E+03
     -2.680  0.1044E+03  0.1035E+03  0.3371E+03  0.3369E+03
     -2.627  0.9782E+02  0.9652E+02  0.3423E+03  0.3420E+03
     -2.575  0.1141E+03  0.1145E+03  0.3483E+03  0.3480E+03
     -2.522  0.1257E+03  0.1243E+03  0.3549E+03  0.3545E+03
     -2.469  0.1036E+03  0.1048E+03  0.3604E+03  0.3600E+03
     -2.417  0.8521E+02  0.8558E+02  0.3648E+03  0.3645E+03
     -2.364  0.9593E+02  0.9575E+02  0.3699E+03  0.3696E+03
     -2.311  0.9407E+02  0.9366E+02  0.3748E+03  0.3745E+03
     -2.259  0.1128E+03  0.1141E+03  0.3808E+03  0.3805E+03
     -2.206  0.6109E+02  0.6298E+02  0.3840E+03  0.3838E+03
     -2.154  0.2896E+02  0.3057E+02  0.3855E+03  0.3854E+03
     -2.101  0.5936E+02  0.5507E+02  0.3886E+03  0.3883E+03
     -2.048  0.7379E+02  0.7465E+02  0.3925E+03  0.3923E+03
     -1.996  0.8753E+02  0.8721E+02  0.3971E+03  0.3969E+03
     -1.943  0.9807E+02  0.1011E+03  0.4023E+03  0.4022E+03
     -1.890  0.9393E+02  0.9028E+02  0.4072E+03  0.4069E+03
     -1.838  0.5844E+02  0.6097E+02  0.4103E+03  0.4101E+03
     -1.785  0.1008E+03  0.9785E+02  0.4156E+03  0.4153E+03
     -1.732  0.1025E+03  0.1029E+03  0.4210E+03  0.4207E+03
     -1.680  0.8151E+02  0.8226E+02  0.4253E+03  0.4250E+03
     -1.627  0.9748E+02  0.9787E+02  0.4304E+03  0.4302E+03
     -1.575  0.8944E+02  0.8780E+02  0.4351E+03  0.4348E+03
     -1.522  0.5878E+02  0.6122E+02  0.4382E+03  0.4380E+03
     -1.469  0.4832E+02  0.4940E+02  0.4408E+03  0.4406E+03
     -1.417  0.6183E+02  0.5824E+02  0.4440E+03  0.4437E+03
     -1.364  0.6961E+02  0.6965E+02  0.4477E+03  0.4474E+03
     -1.311  0.5367E+02  0.5899E+02  0.4505E+03  0.4505E+03
     -1.259  0.4321E+02  0.3902E+02  0.4528E+03  0.4525E+03
     -1.206  0.6188E+02  0.6372E+02  0.4561E+03  0.4559E+03
     -1.154  0.6256E+02  0.6345E+02  0.4593E+03  0.4592E+03
     -1.101  0.5031E+02  0.4881E+02  0.4620E+03  0.4618E+03
     -1.048  0.4512E+02  0.4585E+02  0.4644E+03  0.4642E+03
     -0.996  0.4733E+02  0.4948E+02  0.4669E+03  0.4668E+03
     -0.943  0.2730E+02  0.2789E+02  0.4683E+03  0.4683E+03
     -0.890  0.6805E+02  0.6317E+02  0.4719E+03  0.4716E+03
     -0.838  0.8467E+02  0.8824E+02  0.4763E+03  0.4762E+03
     -0.785  0.4296E+02  0.4119E+02  0.4786E+03  0.4784E+03
     -0.733  0.5292E+02  0.5182E+02  0.4814E+03  0.4811E+03
     -0.680  0.8043E+02  0.8062E+02  0.4856E+03  0.4854E+03
     -0.627  0.3805E+02  0.3918E+02  0.4876E+03  0.4874E+03
     -0.575  0.2849E+02  0.3047E+02  0.4891E+03  0.4890E+03
     -0.522  0.2181E+02  0.2293E+02  0.4903E+03  0.4902E+03
     -0.469  0.3204E+02  0.3014E+02  0.4919E+03  0.4918E+03
     -0.417  0.2469E+02  0.2479E+02  0.4932E+03  0.4931E+03
     -0.364  0.4270E+02  0.4079E+02  0.4955E+03  0.4953E+03
     -0.311  0.6538E+02  0.6551E+02  0.4989E+03  0.4987E+03
     -0.259  0.6817E+02  0.6793E+02  0.5025E+03  0.5023E+03
     -0.206  0.9282E+02  0.9414E+02  0.5074E+03  0.5073E+03
     -0.154  0.1134E+03  0.1119E+03  0.5134E+03  0.5132E+03
     -0.101  0.1080E+03  0.1070E+03  0.5191E+03  0.5188E+03
     -0.048  0.1218E+03  0.1218E+03  0.5255E+03  0.5252E+03
      0.004  0.1055E+03  0.1034E+03  0.5310E+03  0.5306E+03
      0.057  0.1492E+03  0.1505E+03  0.5389E+03  0.5386E+03
      0.110  0.1124E+03  0.1131E+03  0.5448E+03  0.5445E+03
      0.162  0.9356E+02  0.9478E+02  0.5497E+03  0.5495E+03
      0.215  0.8317E+02  0.8235E+02  0.5541E+03  0.5538E+03
      0.267  0.7552E+02  0.7673E+02  0.5581E+03  0.5579E+03
      0.320  0.1016E+03  0.9898E+02  0.5634E+03  0.5631E+03
      0.373  0.7192E+02  0.7327E+02  0.5672E+03  0.5669E+03
      0.425  0.1293E+03  0.1303E+03  0.5740E+03  0.5738E+03
      0.478  0.7276E+02  0.7423E+02  0.5778E+03  0.5777E+03
      0.531  0.9939E+02  0.9500E+02  0.5831E+03  0.5827E+03
      0.583  0.1309E+03  0.1343E+03  0.5900E+03  0.5898E+03
      0.636  0.1034E+03  0.1027E+03  0.5954E+03  0.5952E+03
      0.688  0.1597E+03  0.1536E+03  0.6038E+03  0.6033E+03
      0.741  0.1480E+03  0.1499E+03  0.6116E+03  0.6111E+03
      0.794  0.1234E+03  0.1280E+03  0.6181E+03  0.6179E+03
      0.846  0.9945E+02  0.9994E+02  0.6233E+03  0.6231E+03
      0.899  0.1166E+03  0.1152E+03  0.6295E+03  0.6292E+03
      0.952  0.9271E+02  0.9066E+02  0.6343E+03  0.6340E+03
      1.004  0.1354E+03  0.1343E+03  0.6415E+03  0.6410E+03
      1.057  0.1434E+03  0.1427E+03  0.6490E+03  0.6486E+03
      1.110  0.1797E+03  0.1800E+03  0.6585E+03  0.6580E+03
      1.162  0.1597E+03  0.1602E+03  0.6669E+03  0.6665E+03
      1.215  0.1904E+03  0.1903E+03  0.6769E+03  0.6765E+03
      1.267  0.1610E+03  0.1624E+03  0.6854E+03  0.6850E+03
      1.320  0.2049E+03  0.1999E+03  0.6962E+03  0.6955E+03
      1.373  0.1563E+03  0.1612E+03  0.7044E+03  0.7040E+03
      1.425  0.1565E+03  0.1560E+03  0.7126E+03  0.7122E+03
      1.478  0.1614E+03  0.1566E+03  0.7211E+03  0.7205E+03
      1.531  0.2017E+03  0.2041E+03  0.7317E+03  0.7312E+03
      1.583  0.1817E+03  0.1795E+03  0.7413E+03  0.7407E+03
      1.636  0.1883E+03  0.1906E+03  0.7512E+03  0.7507E+03
      1.688  0.1872E+03  0.1877E+03  0.7610E+03  0.7606E+03
      1.741  0.2057E+03  0.2015E+03  0.7719E+03  0.7712E+03
      1.794  0.1538E+03  0.1571E+03  0.7800E+03  0.7795E+03
      1.846  0.1734E+03  0.1750E+03  0.7891E+03  0.7887E+03
      1.899  0.1650E+03  0.1602E+03  0.7978E+03  0.7971E+03
      1.952  0.2049E+03  0.2048E+03  0.8086E+03  0.8079E+03
      2.004  0.1698E+03  0.1761E+03  0.8175E+03  0.8171E+03
      2.057  0.1703E+03  0.1670E+03  0.8265E+03  0.8259E+03
      2.109  0.2087E+03  0.2053E+03  0.8374E+03  0.8367E+03
      2.162  0.1869E+03  0.1914E+03  0.8473E+03  0.8468E+03
      2.215  0.1340E+03  0.1345E+03  0.8543E+03  0.8539E+03
      2.267  0.1626E+03  0.1593E+03  0.8629E+03  0.8623E+03
      2.320  0.1569E+03  0.1575E+03  0.8711E+03  0.8706E+03
      2.373  0.1840E+03  0.1811E+03  0.8808E+03  0.8801E+03
      2.425  0.1691E+03  0.1737E+03  0.8897E+03  0.8892E+03
      2.478  0.1502E+03  0.1495E+03  0.8976E+03  0.8971E+03
      2.531  0.1263E+03  0.1290E+03  0.9043E+03  0.9039E+03
      2.583  0.1321E+03  0.1289E+03  0.9112E+03  0.9107E+03
      2.636  0.1332E+03  0.1342E+03  0.9182E+03  0.9177E+03
      2.688  0.1218E+03  0.1229E+03  0.9247E+03  0.9242E+03
      2.741  0.1616E+03  0.1571E+03  0.9332E+03  0.9325E+03
      2.794  0.1368E+03  0.1445E+03  0.9404E+03  0.9401E+03
      2.846  0.1346E+03  0.1230E+03  0.9474E+03  0.9465E+03
      2.899  0.1649E+03  0.1674E+03  0.9561E+03  0.9554E+03
      2.952  0.8430E+02  0.8951E+02  0.9606E+03  0.9601E+03
      3.004  0.1244E+03  0.1201E+03  0.9671E+03  0.9664E+03
      3.057  0.1376E+03  0.1373E+03  0.9743E+03  0.9736E+03
      3.109  0.1123E+03  0.1142E+03  0.9803E+03  0.9796E+03
      3.162  0.1070E+03  0.1078E+03  0.9859E+03  0.9853E+03
      3.215  0.1274E+03  0.1285E+03  0.9926E+03  0.9921E+03
      3.267  0.9447E+02  0.9160E+02  0.9976E+03  0.9969E+03
      3.320  0.1176E+03  0.1176E+03  0.1004E+04  0.1003E+04
      3.373  0.9384E+02  0.9486E+02  0.1009E+04  0.1008E+04
      3.425  0.6106E+02  0.6832E+02  0.1012E+04  0.1012E+04
      3.478  0.1018E+03  0.9961E+02  0.1017E+04  0.1017E+04
      3.531  0.8798E+02  0.8184E+02  0.1022E+04  0.1021E+04
      3.583  0.8216E+02  0.7958E+02  0.1026E+04  0.1025E+04
      3.636  0.1079E+03  0.1181E+03  0.1032E+04  0.1032E+04
      3.688  0.5748E+02  0.5379E+02  0.1035E+04  0.1034E+04
      3.741  0.4912E+02  0.5424E+02  0.1038E+04  0.1037E+04
      3.794  0.5383E+02  0.4841E+02  0.1040E+04  0.1040E+04
      3.846  0.5212E+02  0.5465E+02  0.1043E+04  0.1043E+04
      3.899  0.2622E+02  0.2676E+02  0.1044E+04  0.1044E+04
      3.952  0.7042E+02  0.6384E+02  0.1048E+04  0.1047E+04
      4.004  0.6365E+02  0.5830E+02  0.1052E+04  0.1051E+04
      4.057  0.1120E+03  0.1069E+03  0.1057E+04  0.1056E+04
      4.109  0.1105E+03  0.1179E+03  0.1063E+04  0.1062E+04
      4.162  0.7839E+02  0.7590E+02  0.1067E+04  0.1066E+04
      4.215  0.1050E+03  0.1053E+03  0.1073E+04  0.1072E+04
      4.267  0.1043E+03  0.1049E+03  0.1078E+04  0.1077E+04
      4.320  0.9611E+02  0.8815E+02  0.1083E+04  0.1082E+04
      4.373  0.1181E+03  0.1212E+03  0.1090E+04  0.1088E+04
      4.425  0.1279E+03  0.1329E+03  0.1096E+04  0.1095E+04
      4.478  0.1176E+03  0.1211E+03  0.1103E+04  0.1102E+04
      4.530  0.1046E+03  0.1080E+03  0.1108E+04  0.1108E+04
      4.583  0.9473E+02  0.9317E+02  0.1113E+04  0.1112E+04
      4.636  0.1130E+03  0.1030E+03  0.1119E+04  0.1118E+04
      4.688  0.1094E+03  0.1160E+03  0.1125E+04  0.1124E+04
      4.741  0.1141E+03  0.1136E+03  0.1131E+04  0.1130E+04
      4.794  0.1167E+03  0.1112E+03  0.1137E+04  0.1136E+04
      4.846  0.1423E+03  0.1479E+03  0.1144E+04  0.1144E+04
      4.899  0.1098E+03  0.1112E+03  0.1150E+04  0.1149E+04
      4.952  0.1175E+03  0.1183E+03  0.1156E+04  0.1156E+04
      5.004  0.1255E+03  0.1232E+03  0.1163E+04  0.1162E+04
      5.057  0.1316E+03  0.1330E+03  0.1170E+04  0.1169E+04
      5.109  0.1137E+03  0.1113E+03  0.1176E+04  0.1175E+04
      5.162  0.1001E+03  0.1068E+03  0.1181E+04  0.1181E+04
      5.215  0.9701E+02  0.9986E+02  0.1186E+04  0.1186E+04
      5.267  0.9812E+02  0.9263E+02  0.1191E+04  0.1191E+04
      5.320  0.1184E+03  0.1200E+03  0.1198E+04  0.1197E+04
      5.373  0.1249E+03  0.1236E+03  0.1204E+04  0.1204E+04
      5.425  0.1502E+03  0.1481E+03  0.1212E+04  0.1211E+04
      5.478  0.1468E+03  0.1515E+03  0.1220E+04  0.1219E+04
      5.530  0.1374E+03  0.1376E+03  0.1227E+04  0.1227E+04
      5.583  0.1567E+03  0.1542E+03  0.1235E+04  0.1235E+04
      5.636  0.1322E+03  0.1359E+03  0.1242E+04  0.1242E+04
      5.688  0.9541E+02  0.9567E+02  0.1247E+04  0.1247E+04
      5.741  0.1137E+03  0.1122E+03  0.1253E+04  0.1253E+04
      5.794  0.1278E+03  0.1248E+03  0.1260E+04  0.1259E+04
      5.846  0.1276E+03  0.1316E+03  0.1267E+04  0.1266E+04
      5.899  0.8797E+02  0.9082E+02  0.1271E+04  0.1271E+04
      5.951  0.1227E+02  0.1822E+02  0.1272E+04  0.1272E+04
      6.004  0.0000E+00  0.0000E+00  0.1272E+04  0.1272E+04
      6.057  0.0000E+00  0.0000E+00  0.1272E+04  0.1272E+04
      6.109  0.0000E+00  0.0000E+00  0.1272E+04  0.1272E+04
      6.162  0.0000E+00  0.0000E+00  0.1272E+04  0.1272E+04
      6.215  0.0000E+00  0.0000E+00  0.1272E+04  0.1272E+04
      6.267  0.0000E+00  0.0000E+00  0.1272E+04  0.1272E+04
      6.320  0.0000E+00  0.0000E+00  0.1272E+04  0.1272E+04
      6.373  0.0000E+00  0.0000E+00  0.1272E+04  0.1272E+04
      6.425  0.0000E+00  0.0000E+00  0.1272E+04  0.1272E+04
      6.478  0.0000E+00  0.0000E+00  0.1272E+04  0.1272E+04
      6.530  0.0000E+00  0.0000E+00  0.1272E+04  0.1272E+04
      6.583  0.0000E+00  0.0000E+00  0.1272E+04  0.1272E+04
      6.636  0.0000E+00  0.0000E+00  0.1272E+04  0.1272E+04
