 264 264   0   0
  0.2774202E+02  0.1958175E-08  0.1958175E-08  0.1910025E-08  0.5000000E-15
  1.000000000000000E-004
  CAR 
 Si and Ge interface calculation         
      6.63971955     -9.13546385  301      4.04978293      1.00000000
     -9.135  0.0000E+00  0.0000E+00  0.0000E+00  0.0000E+00
     -9.083  0.0000E+00  0.0000E+00  0.0000E+00  0.0000E+00
     -9.030  0.0000E+00  0.0000E+00  0.0000E+00  0.0000E+00
     -8.978  0.0000E+00  0.0000E+00  0.0000E+00  0.0000E+00
     -8.925  0.0000E+00  0.0000E+00  0.0000E+00  0.0000E+00
     -8.873  0.0000E+00  0.0000E+00  0.0000E+00  0.0000E+00
     -8.820  0.0000E+00  0.0000E+00  0.0000E+00  0.0000E+00
     -8.767  0.0000E+00  0.0000E+00  0.0000E+00  0.0000E+00
     -8.715  0.0000E+00  0.0000E+00  0.0000E+00  0.0000E+00
     -8.662  0.0000E+00  0.0000E+00  0.0000E+00  0.0000E+00
     -8.610  0.0000E+00  0.0000E+00  0.0000E+00  0.0000E+00
     -8.557  0.0000E+00  0.0000E+00  0.0000E+00  0.0000E+00
     -8.504  0.0000E+00  0.0000E+00  0.0000E+00  0.0000E+00
     -8.452  0.1046E-04  0.3314E-05  0.5499E-06  0.1743E-06
     -8.399  0.1458E+02  0.1366E+02  0.7667E+00  0.7185E+00
     -8.347  0.2344E+02  0.2435E+02  0.1999E+01  0.1999E+01
     -8.294  0.5179E-01  0.4381E-01  0.2002E+01  0.2001E+01
     -8.242  0.1845E+02  0.1820E+02  0.2972E+01  0.2958E+01
     -8.189  0.1001E+02  0.1026E+02  0.3499E+01  0.3497E+01
     -8.136  0.9533E+01  0.9517E+01  0.4000E+01  0.3998E+01
     -8.084  0.3432E+02  0.3318E+02  0.5805E+01  0.5742E+01
     -8.031  0.6755E+01  0.7176E+01  0.6160E+01  0.6120E+01
     -7.979  0.2439E+02  0.2378E+02  0.7442E+01  0.7370E+01
     -7.926  0.2068E+02  0.2184E+02  0.8530E+01  0.8518E+01
     -7.873  0.2489E+02  0.2415E+02  0.9839E+01  0.9788E+01
     -7.821  0.5014E+01  0.5420E+01  0.1010E+02  0.1007E+02
     -7.768  0.2440E+02  0.2413E+02  0.1139E+02  0.1134E+02
     -7.716  0.1132E+02  0.1195E+02  0.1198E+02  0.1197E+02
     -7.663  0.3849E+00  0.5779E+00  0.1200E+02  0.1200E+02
     -7.611  0.2900E+02  0.2871E+02  0.1353E+02  0.1351E+02
     -7.558  0.1995E+02  0.1980E+02  0.1457E+02  0.1455E+02
     -7.505  0.3073E+02  0.3025E+02  0.1619E+02  0.1614E+02
     -7.453  0.1675E+02  0.1726E+02  0.1707E+02  0.1705E+02
     -7.400  0.1764E+02  0.1806E+02  0.1800E+02  0.1800E+02
     -7.348  0.9030E+01  0.8784E+01  0.1847E+02  0.1846E+02
     -7.295  0.6658E+01  0.5951E+01  0.1882E+02  0.1877E+02
     -7.242  0.3173E+02  0.3255E+02  0.2049E+02  0.2049E+02
     -7.190  0.2224E+02  0.2157E+02  0.2166E+02  0.2162E+02
     -7.137  0.3473E+02  0.3534E+02  0.2349E+02  0.2348E+02
     -7.085  0.2657E+02  0.2499E+02  0.2489E+02  0.2479E+02
     -7.032  0.3686E+02  0.3734E+02  0.2682E+02  0.2676E+02
     -6.980  0.2365E+02  0.2335E+02  0.2807E+02  0.2798E+02
     -6.927  0.4526E+02  0.4521E+02  0.3045E+02  0.3036E+02
     -6.874  0.2529E+02  0.2525E+02  0.3178E+02  0.3169E+02
     -6.822  0.4288E+02  0.4427E+02  0.3403E+02  0.3402E+02
     -6.769  0.5489E+02  0.5158E+02  0.3692E+02  0.3673E+02
     -6.717  0.6731E+02  0.7035E+02  0.4046E+02  0.4043E+02
     -6.664  0.3210E+02  0.3165E+02  0.4215E+02  0.4209E+02
     -6.611  0.1669E+02  0.1749E+02  0.4302E+02  0.4301E+02
     -6.559  0.2753E+02  0.2648E+02  0.4447E+02  0.4440E+02
     -6.506  0.5601E+02  0.5648E+02  0.4742E+02  0.4737E+02
     -6.454  0.4379E+02  0.4144E+02  0.4972E+02  0.4955E+02
     -6.401  0.5355E+02  0.5587E+02  0.5253E+02  0.5249E+02
     -6.349  0.4324E+02  0.4253E+02  0.5481E+02  0.5473E+02
     -6.296  0.3086E+02  0.3046E+02  0.5643E+02  0.5633E+02
     -6.243  0.5521E+02  0.5287E+02  0.5933E+02  0.5911E+02
     -6.191  0.6839E+02  0.7050E+02  0.6293E+02  0.6282E+02
     -6.138  0.7618E+02  0.7609E+02  0.6694E+02  0.6682E+02
     -6.086  0.6598E+02  0.6600E+02  0.7041E+02  0.7029E+02
     -6.033  0.7104E+02  0.6852E+02  0.7414E+02  0.7389E+02
     -5.980  0.7296E+02  0.7435E+02  0.7798E+02  0.7780E+02
     -5.928  0.7848E+02  0.7855E+02  0.8210E+02  0.8193E+02
     -5.875  0.6094E+02  0.6190E+02  0.8531E+02  0.8519E+02
     -5.823  0.5791E+02  0.5736E+02  0.8835E+02  0.8820E+02
     -5.770  0.7976E+02  0.7915E+02  0.9255E+02  0.9237E+02
     -5.718  0.5870E+02  0.5945E+02  0.9563E+02  0.9549E+02
     -5.665  0.1029E+03  0.1002E+03  0.1010E+03  0.1008E+03
     -5.612  0.9454E+02  0.9765E+02  0.1060E+03  0.1059E+03
     -5.560  0.7046E+02  0.6828E+02  0.1097E+03  0.1095E+03
     -5.507  0.6305E+02  0.6476E+02  0.1130E+03  0.1129E+03
     -5.455  0.6898E+02  0.6755E+02  0.1167E+03  0.1164E+03
     -5.402  0.8806E+02  0.8700E+02  0.1213E+03  0.1210E+03
     -5.349  0.8605E+02  0.8564E+02  0.1258E+03  0.1255E+03
     -5.297  0.8641E+02  0.8710E+02  0.1304E+03  0.1301E+03
     -5.244  0.7630E+02  0.7748E+02  0.1344E+03  0.1342E+03
     -5.192  0.6715E+02  0.6873E+02  0.1379E+03  0.1378E+03
     -5.139  0.5882E+02  0.5816E+02  0.1410E+03  0.1408E+03
     -5.087  0.7209E+02  0.6971E+02  0.1448E+03  0.1445E+03
     -5.034  0.7789E+02  0.7819E+02  0.1489E+03  0.1486E+03
     -4.981  0.4510E+02  0.4701E+02  0.1513E+03  0.1511E+03
     -4.929  0.8961E+02  0.8999E+02  0.1560E+03  0.1558E+03
     -4.876  0.6372E+02  0.6229E+02  0.1593E+03  0.1591E+03
     -4.824  0.9189E+02  0.8953E+02  0.1642E+03  0.1638E+03
     -4.771  0.1120E+03  0.1136E+03  0.1700E+03  0.1698E+03
     -4.718  0.1047E+03  0.1054E+03  0.1755E+03  0.1753E+03
     -4.666  0.1002E+03  0.9987E+02  0.1808E+03  0.1806E+03
     -4.613  0.1091E+03  0.1091E+03  0.1865E+03  0.1863E+03
     -4.561  0.8961E+02  0.8706E+02  0.1913E+03  0.1909E+03
     -4.508  0.1124E+03  0.1119E+03  0.1972E+03  0.1968E+03
     -4.455  0.1065E+03  0.1076E+03  0.2028E+03  0.2024E+03
     -4.403  0.8427E+02  0.8606E+02  0.2072E+03  0.2070E+03
     -4.350  0.8909E+02  0.8786E+02  0.2119E+03  0.2116E+03
     -4.298  0.7224E+02  0.7285E+02  0.2157E+03  0.2154E+03
     -4.245  0.8449E+02  0.8596E+02  0.2201E+03  0.2199E+03
     -4.193  0.1010E+03  0.9805E+02  0.2254E+03  0.2251E+03
     -4.140  0.1016E+03  0.1042E+03  0.2308E+03  0.2306E+03
     -4.087  0.5505E+02  0.5505E+02  0.2337E+03  0.2335E+03
     -4.035  0.9265E+02  0.9398E+02  0.2385E+03  0.2384E+03
     -3.982  0.3406E+02  0.3484E+02  0.2403E+03  0.2402E+03
     -3.930  0.4607E+02  0.4483E+02  0.2428E+03  0.2426E+03
     -3.877  0.4303E+02  0.4205E+02  0.2450E+03  0.2448E+03
     -3.824  0.6142E+02  0.6252E+02  0.2483E+03  0.2481E+03
     -3.772  0.4968E+02  0.4940E+02  0.2509E+03  0.2507E+03
     -3.719  0.6329E+02  0.6216E+02  0.2542E+03  0.2540E+03
     -3.667  0.7501E+02  0.7489E+02  0.2581E+03  0.2579E+03
     -3.614  0.6237E+02  0.6294E+02  0.2614E+03  0.2612E+03
     -3.562  0.7252E+02  0.7338E+02  0.2652E+03  0.2651E+03
     -3.509  0.6996E+02  0.6610E+02  0.2689E+03  0.2685E+03
     -3.456  0.6520E+02  0.6863E+02  0.2723E+03  0.2721E+03
     -3.404  0.7950E+02  0.7567E+02  0.2765E+03  0.2761E+03
     -3.351  0.9960E+02  0.1004E+03  0.2818E+03  0.2814E+03
     -3.299  0.6109E+02  0.6397E+02  0.2850E+03  0.2848E+03
     -3.246  0.7213E+02  0.7129E+02  0.2888E+03  0.2885E+03
     -3.193  0.7660E+02  0.7685E+02  0.2928E+03  0.2926E+03
     -3.141  0.6877E+02  0.6685E+02  0.2964E+03  0.2961E+03
     -3.088  0.7540E+02  0.7704E+02  0.3004E+03  0.3001E+03
     -3.036  0.7018E+02  0.7105E+02  0.3041E+03  0.3039E+03
     -2.983  0.8157E+02  0.8153E+02  0.3083E+03  0.3081E+03
     -2.931  0.8140E+02  0.7823E+02  0.3126E+03  0.3123E+03
     -2.878  0.7787E+02  0.7932E+02  0.3167E+03  0.3164E+03
     -2.825  0.9850E+02  0.9877E+02  0.3219E+03  0.3216E+03
     -2.773  0.1072E+03  0.1085E+03  0.3275E+03  0.3273E+03
     -2.720  0.9559E+02  0.9510E+02  0.3326E+03  0.3323E+03
     -2.668  0.1042E+03  0.1030E+03  0.3380E+03  0.3377E+03
     -2.615  0.9569E+02  0.9504E+02  0.3431E+03  0.3427E+03
     -2.562  0.1250E+03  0.1242E+03  0.3496E+03  0.3493E+03
     -2.510  0.1304E+03  0.1302E+03  0.3565E+03  0.3561E+03
     -2.457  0.9163E+02  0.9454E+02  0.3613E+03  0.3611E+03
     -2.405  0.1023E+03  0.1008E+03  0.3667E+03  0.3664E+03
     -2.352  0.9100E+02  0.9020E+02  0.3715E+03  0.3711E+03
     -2.300  0.9655E+02  0.9659E+02  0.3766E+03  0.3762E+03
     -2.247  0.9821E+02  0.1029E+03  0.3817E+03  0.3816E+03
     -2.194  0.5620E+02  0.5668E+02  0.3847E+03  0.3846E+03
     -2.142  0.3148E+02  0.2932E+02  0.3863E+03  0.3861E+03
     -2.089  0.6566E+02  0.6536E+02  0.3898E+03  0.3896E+03
     -2.037  0.7155E+02  0.6861E+02  0.3936E+03  0.3932E+03
     -1.984  0.8950E+02  0.9263E+02  0.3983E+03  0.3981E+03
     -1.931  0.1087E+03  0.1067E+03  0.4040E+03  0.4037E+03
     -1.879  0.8987E+02  0.9085E+02  0.4087E+03  0.4085E+03
     -1.826  0.5670E+02  0.5795E+02  0.4117E+03  0.4115E+03
     -1.774  0.1018E+03  0.1015E+03  0.4170E+03  0.4168E+03
     -1.721  0.1019E+03  0.9817E+02  0.4224E+03  0.4220E+03
     -1.669  0.8547E+02  0.8676E+02  0.4269E+03  0.4266E+03
     -1.616  0.7272E+02  0.7327E+02  0.4307E+03  0.4304E+03
     -1.563  0.1039E+03  0.1062E+03  0.4362E+03  0.4360E+03
     -1.511  0.5074E+02  0.5263E+02  0.4388E+03  0.4388E+03
     -1.458  0.5855E+02  0.5703E+02  0.4419E+03  0.4418E+03
     -1.406  0.5751E+02  0.5464E+02  0.4450E+03  0.4446E+03
     -1.353  0.7811E+02  0.8033E+02  0.4491E+03  0.4489E+03
     -1.300  0.3228E+02  0.3443E+02  0.4508E+03  0.4507E+03
     -1.248  0.4361E+02  0.3951E+02  0.4531E+03  0.4527E+03
     -1.195  0.6756E+02  0.7032E+02  0.4566E+03  0.4564E+03
     -1.143  0.6037E+02  0.6079E+02  0.4598E+03  0.4596E+03
     -1.090  0.5012E+02  0.5015E+02  0.4624E+03  0.4623E+03
     -1.038  0.4535E+02  0.4466E+02  0.4648E+03  0.4646E+03
     -0.985  0.4452E+02  0.4617E+02  0.4671E+03  0.4671E+03
     -0.932  0.3093E+02  0.2899E+02  0.4688E+03  0.4686E+03
     -0.880  0.6685E+02  0.6627E+02  0.4723E+03  0.4721E+03
     -0.827  0.8053E+02  0.8092E+02  0.4765E+03  0.4763E+03
     -0.775  0.4607E+02  0.4753E+02  0.4789E+03  0.4788E+03
     -0.722  0.5307E+02  0.5037E+02  0.4817E+03  0.4815E+03
     -0.669  0.7835E+02  0.8040E+02  0.4858E+03  0.4857E+03
     -0.617  0.4351E+02  0.4359E+02  0.4881E+03  0.4880E+03
     -0.564  0.2300E+02  0.2396E+02  0.4893E+03  0.4892E+03
     -0.512  0.2066E+02  0.2098E+02  0.4904E+03  0.4903E+03
     -0.459  0.3044E+02  0.3116E+02  0.4920E+03  0.4920E+03
     -0.407  0.2855E+02  0.2821E+02  0.4935E+03  0.4935E+03
     -0.354  0.4452E+02  0.4171E+02  0.4959E+03  0.4957E+03
     -0.301  0.7963E+02  0.8062E+02  0.5001E+03  0.4999E+03
     -0.249  0.7807E+02  0.7789E+02  0.5042E+03  0.5040E+03
     -0.196  0.8480E+02  0.8390E+02  0.5086E+03  0.5084E+03
     -0.144  0.1120E+03  0.1124E+03  0.5145E+03  0.5143E+03
     -0.091  0.1152E+03  0.1127E+03  0.5206E+03  0.5202E+03
     -0.038  0.1098E+03  0.1121E+03  0.5263E+03  0.5261E+03
      0.014  0.1294E+03  0.1244E+03  0.5332E+03  0.5327E+03
      0.067  0.1320E+03  0.1368E+03  0.5401E+03  0.5399E+03
      0.119  0.1086E+03  0.1080E+03  0.5458E+03  0.5456E+03
      0.172  0.9059E+02  0.9018E+02  0.5506E+03  0.5503E+03
      0.224  0.9050E+02  0.9275E+02  0.5553E+03  0.5552E+03
      0.277  0.7549E+02  0.7336E+02  0.5593E+03  0.5590E+03
      0.330  0.9889E+02  0.9972E+02  0.5645E+03  0.5643E+03
      0.382  0.8619E+02  0.8379E+02  0.5690E+03  0.5687E+03
      0.435  0.1036E+03  0.1056E+03  0.5745E+03  0.5742E+03
      0.487  0.8101E+02  0.8232E+02  0.5787E+03  0.5786E+03
      0.540  0.1215E+03  0.1172E+03  0.5851E+03  0.5847E+03
      0.593  0.1184E+03  0.1201E+03  0.5913E+03  0.5910E+03
      0.645  0.1172E+03  0.1161E+03  0.5975E+03  0.5972E+03
      0.698  0.1557E+03  0.1544E+03  0.6057E+03  0.6053E+03
      0.750  0.1327E+03  0.1334E+03  0.6127E+03  0.6123E+03
      0.803  0.1298E+03  0.1327E+03  0.6195E+03  0.6193E+03
      0.855  0.8834E+02  0.8549E+02  0.6241E+03  0.6238E+03
      0.908  0.1180E+03  0.1201E+03  0.6304E+03  0.6301E+03
      0.961  0.1112E+03  0.1118E+03  0.6362E+03  0.6360E+03
      1.013  0.1195E+03  0.1165E+03  0.6425E+03  0.6421E+03
      1.066  0.1480E+03  0.1471E+03  0.6503E+03  0.6498E+03
      1.118  0.1731E+03  0.1737E+03  0.6594E+03  0.6589E+03
      1.171  0.1641E+03  0.1651E+03  0.6680E+03  0.6676E+03
      1.224  0.1938E+03  0.1943E+03  0.6782E+03  0.6778E+03
      1.276  0.1655E+03  0.1629E+03  0.6869E+03  0.6864E+03
      1.329  0.2037E+03  0.2036E+03  0.6976E+03  0.6971E+03
      1.381  0.1568E+03  0.1574E+03  0.7059E+03  0.7054E+03
      1.434  0.1519E+03  0.1537E+03  0.7138E+03  0.7135E+03
      1.486  0.1635E+03  0.1587E+03  0.7224E+03  0.7218E+03
      1.539  0.2044E+03  0.2072E+03  0.7332E+03  0.7327E+03
      1.592  0.1888E+03  0.1879E+03  0.7431E+03  0.7426E+03
      1.644  0.1817E+03  0.1814E+03  0.7527E+03  0.7521E+03
      1.697  0.1874E+03  0.1874E+03  0.7625E+03  0.7620E+03
      1.749  0.1969E+03  0.1946E+03  0.7729E+03  0.7722E+03
      1.802  0.1612E+03  0.1640E+03  0.7814E+03  0.7808E+03
      1.855  0.1512E+03  0.1536E+03  0.7893E+03  0.7889E+03
      1.907  0.1798E+03  0.1751E+03  0.7988E+03  0.7981E+03
      1.960  0.2142E+03  0.2157E+03  0.8100E+03  0.8095E+03
      2.012  0.1464E+03  0.1495E+03  0.8177E+03  0.8173E+03
      2.065  0.1983E+03  0.1932E+03  0.8281E+03  0.8275E+03
      2.118  0.1926E+03  0.1941E+03  0.8383E+03  0.8377E+03
      2.170  0.1879E+03  0.1880E+03  0.8482E+03  0.8476E+03
      2.223  0.1327E+03  0.1331E+03  0.8551E+03  0.8546E+03
      2.275  0.1711E+03  0.1701E+03  0.8641E+03  0.8635E+03
      2.328  0.1541E+03  0.1542E+03  0.8722E+03  0.8716E+03
      2.380  0.1942E+03  0.1923E+03  0.8824E+03  0.8817E+03
      2.433  0.1689E+03  0.1727E+03  0.8913E+03  0.8908E+03
      2.486  0.1300E+03  0.1297E+03  0.8982E+03  0.8976E+03
      2.538  0.1195E+03  0.1208E+03  0.9044E+03  0.9040E+03
      2.591  0.1590E+03  0.1559E+03  0.9128E+03  0.9122E+03
      2.643  0.1353E+03  0.1401E+03  0.9199E+03  0.9196E+03
      2.696  0.1213E+03  0.1159E+03  0.9263E+03  0.9257E+03
      2.749  0.1826E+03  0.1801E+03  0.9359E+03  0.9351E+03
      2.801  0.1071E+03  0.1135E+03  0.9415E+03  0.9411E+03
      2.854  0.1540E+03  0.1495E+03  0.9496E+03  0.9490E+03
      2.906  0.1517E+03  0.1576E+03  0.9576E+03  0.9572E+03
      2.959  0.8825E+02  0.8770E+02  0.9623E+03  0.9619E+03
      3.011  0.1257E+03  0.1211E+03  0.9689E+03  0.9682E+03
      3.064  0.1289E+03  0.1313E+03  0.9756E+03  0.9751E+03
      3.117  0.1070E+03  0.1053E+03  0.9813E+03  0.9807E+03
      3.169  0.1040E+03  0.1044E+03  0.9867E+03  0.9862E+03
      3.222  0.1259E+03  0.1303E+03  0.9934E+03  0.9930E+03
      3.274  0.1118E+03  0.1005E+03  0.9992E+03  0.9983E+03
      3.327  0.1000E+03  0.1104E+03  0.1005E+04  0.1004E+04
      3.380  0.9186E+02  0.8823E+02  0.1009E+04  0.1009E+04
      3.432  0.5691E+02  0.6048E+02  0.1012E+04  0.1012E+04
      3.485  0.9208E+02  0.8827E+02  0.1017E+04  0.1017E+04
      3.537  0.9859E+02  0.9857E+02  0.1022E+04  0.1022E+04
      3.590  0.8010E+02  0.7660E+02  0.1027E+04  0.1026E+04
      3.642  0.9748E+02  0.1025E+03  0.1032E+04  0.1031E+04
      3.695  0.7156E+02  0.7471E+02  0.1035E+04  0.1035E+04
      3.748  0.4039E+02  0.4446E+02  0.1038E+04  0.1037E+04
      3.800  0.5662E+02  0.4772E+02  0.1041E+04  0.1040E+04
      3.853  0.5484E+02  0.5594E+02  0.1043E+04  0.1043E+04
      3.905  0.2793E+02  0.3027E+02  0.1045E+04  0.1044E+04
      3.958  0.6670E+02  0.6411E+02  0.1048E+04  0.1048E+04
      4.011  0.6902E+02  0.6587E+02  0.1052E+04  0.1051E+04
      4.063  0.1069E+03  0.1005E+03  0.1058E+04  0.1057E+04
      4.116  0.1219E+03  0.1305E+03  0.1064E+04  0.1063E+04
      4.168  0.8771E+02  0.8615E+02  0.1069E+04  0.1068E+04
      4.221  0.7627E+02  0.7122E+02  0.1073E+04  0.1072E+04
      4.273  0.1027E+03  0.1098E+03  0.1078E+04  0.1077E+04
      4.326  0.1163E+03  0.1045E+03  0.1084E+04  0.1083E+04
      4.379  0.1401E+03  0.1437E+03  0.1092E+04  0.1091E+04
      4.431  0.1125E+03  0.1136E+03  0.1097E+04  0.1097E+04
      4.484  0.1178E+03  0.1204E+03  0.1104E+04  0.1103E+04
      4.536  0.8819E+02  0.9293E+02  0.1108E+04  0.1108E+04
      4.589  0.1031E+03  0.1037E+03  0.1114E+04  0.1113E+04
      4.642  0.1347E+03  0.1246E+03  0.1121E+04  0.1120E+04
      4.694  0.1171E+03  0.1246E+03  0.1127E+04  0.1126E+04
      4.747  0.1095E+03  0.1060E+03  0.1133E+04  0.1132E+04
      4.799  0.1262E+03  0.1262E+03  0.1139E+04  0.1139E+04
      4.852  0.1188E+03  0.1205E+03  0.1146E+04  0.1145E+04
      4.904  0.1277E+03  0.1276E+03  0.1152E+04  0.1152E+04
      4.957  0.1103E+03  0.1112E+03  0.1158E+04  0.1157E+04
      5.010  0.1133E+03  0.1159E+03  0.1164E+04  0.1163E+04
      5.062  0.1498E+03  0.1465E+03  0.1172E+04  0.1171E+04
      5.115  0.9798E+02  0.1011E+03  0.1177E+04  0.1177E+04
      5.167  0.1004E+03  0.1016E+03  0.1182E+04  0.1182E+04
      5.220  0.1037E+03  0.1057E+03  0.1188E+04  0.1187E+04
      5.273  0.1003E+03  0.9852E+02  0.1193E+04  0.1193E+04
      5.325  0.1133E+03  0.1128E+03  0.1199E+04  0.1199E+04
      5.378  0.1274E+03  0.1254E+03  0.1206E+04  0.1205E+04
      5.430  0.1296E+03  0.1339E+03  0.1213E+04  0.1212E+04
      5.483  0.1302E+03  0.1238E+03  0.1219E+04  0.1219E+04
      5.535  0.1722E+03  0.1736E+03  0.1229E+04  0.1228E+04
      5.588  0.1417E+03  0.1456E+03  0.1236E+04  0.1235E+04
      5.641  0.1318E+03  0.1317E+03  0.1243E+04  0.1242E+04
      5.693  0.1047E+03  0.1060E+03  0.1248E+04  0.1248E+04
      5.746  0.1185E+03  0.1184E+03  0.1255E+04  0.1254E+04
      5.798  0.1123E+03  0.1134E+03  0.1261E+04  0.1260E+04
      5.851  0.1144E+03  0.1147E+03  0.1267E+04  0.1266E+04
      5.904  0.9012E+02  0.9557E+02  0.1271E+04  0.1271E+04
      5.956  0.1362E+02  0.1517E+02  0.1272E+04  0.1272E+04
      6.009  0.0000E+00  0.0000E+00  0.1272E+04  0.1272E+04
      6.061  0.0000E+00  0.0000E+00  0.1272E+04  0.1272E+04
      6.114  0.0000E+00  0.0000E+00  0.1272E+04  0.1272E+04
      6.166  0.0000E+00  0.0000E+00  0.1272E+04  0.1272E+04
      6.219  0.0000E+00  0.0000E+00  0.1272E+04  0.1272E+04
      6.272  0.0000E+00  0.0000E+00  0.1272E+04  0.1272E+04
      6.324  0.0000E+00  0.0000E+00  0.1272E+04  0.1272E+04
      6.377  0.0000E+00  0.0000E+00  0.1272E+04  0.1272E+04
      6.429  0.0000E+00  0.0000E+00  0.1272E+04  0.1272E+04
      6.482  0.0000E+00  0.0000E+00  0.1272E+04  0.1272E+04
      6.535  0.0000E+00  0.0000E+00  0.1272E+04  0.1272E+04
      6.587  0.0000E+00  0.0000E+00  0.1272E+04  0.1272E+04
      6.640  0.0000E+00  0.0000E+00  0.1272E+04  0.1272E+04
