 120 120   0   0
  0.1187863E+02  0.1330318E-08  0.1629300E-08  0.7204130E-09  0.5000000E-15
  1.000000000000000E-004
  CAR 
 Si and Ge interface calculation         
      9.09144807    -14.32567891  301      5.31920108      1.00000000
    -14.326  0.0000E+00  0.0000E+00  0.0000E+00  0.0000E+00
    -14.248  0.0000E+00  0.0000E+00  0.0000E+00  0.0000E+00
    -14.170  0.0000E+00  0.0000E+00  0.0000E+00  0.0000E+00
    -14.092  0.0000E+00  0.0000E+00  0.0000E+00  0.0000E+00
    -14.013  0.0000E+00  0.0000E+00  0.0000E+00  0.0000E+00
    -13.935  0.0000E+00  0.0000E+00  0.0000E+00  0.0000E+00
    -13.857  0.0000E+00  0.0000E+00  0.0000E+00  0.0000E+00
    -13.779  0.0000E+00  0.0000E+00  0.0000E+00  0.0000E+00
    -13.701  0.0000E+00  0.0000E+00  0.0000E+00  0.0000E+00
    -13.623  0.0000E+00  0.0000E+00  0.0000E+00  0.0000E+00
    -13.545  0.0000E+00  0.0000E+00  0.0000E+00  0.0000E+00
    -13.467  0.0000E+00  0.0000E+00  0.0000E+00  0.0000E+00
    -13.389  0.0000E+00  0.0000E+00  0.0000E+00  0.0000E+00
    -13.311  0.1312E-11  0.1778E-15  0.1024E-12  0.1388E-16
    -13.233  0.4270E+01  0.4239E+01  0.3333E+00  0.3309E+00
    -13.155  0.1801E+02  0.1475E+02  0.1739E+01  0.1484E+01
    -13.077  0.5856E+01  0.8623E+01  0.2304E+01  0.2158E+01
    -12.999  0.8576E+01  0.9102E+01  0.3003E+01  0.2901E+01
    -12.921  0.1689E+02  0.1707E+02  0.4333E+01  0.4333E+01
    -12.843  0.1281E+02  0.1280E+02  0.5333E+01  0.5332E+01
    -12.765  0.1691E+02  0.1633E+02  0.6654E+01  0.6608E+01
    -12.686  0.1283E+02  0.1247E+02  0.7668E+01  0.7640E+01
    -12.608  0.7712E+01  0.5949E+01  0.8271E+01  0.8131E+01
    -12.530  0.1280E+02  0.1519E+02  0.9333E+01  0.9317E+01
    -12.452  0.6571E+01  0.4221E+01  0.9846E+01  0.9663E+01
    -12.374  0.2431E+02  0.2528E+02  0.1175E+02  0.1167E+02
    -12.296  0.7542E+01  0.8462E+01  0.1233E+02  0.1233E+02
    -12.218  0.1860E+02  0.1482E+02  0.1379E+02  0.1349E+02
    -12.140  0.8964E+01  0.1297E+02  0.1463E+02  0.1450E+02
    -12.062  0.1280E+02  0.1452E+02  0.1567E+02  0.1567E+02
    -11.984  0.8394E+01  0.6847E+01  0.1632E+02  0.1620E+02
    -11.906  0.7475E+01  0.4824E+01  0.1692E+02  0.1671E+02
    -11.828  0.2242E+02  0.2502E+02  0.1867E+02  0.1867E+02
    -11.750  0.8492E+01  0.7396E+01  0.1933E+02  0.1924E+02
    -11.672  0.1307E+02  0.1172E+02  0.2035E+02  0.2025E+02
    -11.594  0.2085E+02  0.1882E+02  0.2199E+02  0.2180E+02
    -11.516  0.1983E+02  0.1560E+02  0.2356E+02  0.2322E+02
    -11.438  0.8684E+01  0.1070E+02  0.2426E+02  0.2409E+02
    -11.360  0.1297E+02  0.1594E+02  0.2535E+02  0.2533E+02
    -11.281  0.8382E+01  0.8537E+01  0.2600E+02  0.2600E+02
    -11.203  0.4268E+01  0.4270E+01  0.2633E+02  0.2633E+02
    -11.125  0.0000E+00  0.0000E+00  0.2633E+02  0.2633E+02
    -11.047  0.2947E+01  0.4116E+00  0.2656E+02  0.2637E+02
    -10.969  0.1840E+02  0.2094E+02  0.2800E+02  0.2800E+02
    -10.891  0.0000E+00  0.0000E+00  0.2800E+02  0.2800E+02
    -10.813  0.2829E+01  0.5362E+00  0.2822E+02  0.2804E+02
    -10.735  0.2102E+02  0.1959E+02  0.2986E+02  0.2957E+02
    -10.657  0.5651E-02  0.5497E+01  0.3000E+02  0.3000E+02
    -10.579  0.1281E+02  0.1281E+02  0.3100E+02  0.3100E+02
    -10.501  0.7489E+00  0.3571E-01  0.3106E+02  0.3100E+02
    -10.423  0.2063E+02  0.2132E+02  0.3267E+02  0.3267E+02
    -10.345  0.8513E+01  0.8539E+01  0.3333E+02  0.3333E+02
    -10.267  0.1290E+02  0.1282E+02  0.3434E+02  0.3433E+02
    -10.189  0.2447E+02  0.2164E+02  0.3625E+02  0.3602E+02
    -10.111  0.5029E+01  0.8292E+01  0.3673E+02  0.3667E+02
    -10.033  0.1261E+02  0.6527E+01  0.3771E+02  0.3718E+02
     -9.954  0.1935E+02  0.2759E+02  0.3933E+02  0.3933E+02
     -9.876  0.8554E+01  0.8541E+01  0.4000E+02  0.4000E+02
     -9.798  0.3348E+02  0.2918E+02  0.4261E+02  0.4228E+02
     -9.720  0.1238E+02  0.1316E+02  0.4363E+02  0.4353E+02
     -9.642  0.0000E+00  0.1782E+01  0.4367E+02  0.4367E+02
     -9.564  0.4585E+01  0.7278E+00  0.4402E+02  0.4372E+02
     -9.486  0.7832E+01  0.1208E+02  0.4467E+02  0.4467E+02
     -9.408  0.4270E+01  0.4270E+01  0.4500E+02  0.4500E+02
     -9.330  0.1387E+02  0.1287E+02  0.4608E+02  0.4600E+02
     -9.252  0.1602E+02  0.1701E+02  0.4733E+02  0.4733E+02
     -9.174  0.8536E+01  0.8492E+01  0.4800E+02  0.4800E+02
     -9.096  0.1149E+02  0.6447E+01  0.4890E+02  0.4850E+02
     -9.018  0.1708E+02  0.2167E+02  0.5033E+02  0.5033E+02
     -8.940  0.1988E+02  0.1558E+02  0.5189E+02  0.5155E+02
     -8.862  0.1874E+02  0.1667E+02  0.5340E+02  0.5302E+02
     -8.784  0.2683E+02  0.2894E+02  0.5556E+02  0.5530E+02
     -8.706  0.1350E+02  0.1528E+02  0.5667E+02  0.5666E+02
     -8.628  0.1281E+02  0.1281E+02  0.5767E+02  0.5767E+02
     -8.549  0.1709E+02  0.8077E+01  0.5900E+02  0.5830E+02
     -8.471  0.2091E+02  0.2913E+02  0.6087E+02  0.6063E+02
     -8.393  0.2485E+02  0.2060E+02  0.6284E+02  0.6225E+02
     -8.315  0.3635E+02  0.3960E+02  0.6574E+02  0.6541E+02
     -8.237  0.2172E+02  0.2181E+02  0.6749E+02  0.6723E+02
     -8.159  0.1394E+02  0.1242E+02  0.6860E+02  0.6824E+02
     -8.081  0.1318E+02  0.1823E+02  0.6969E+02  0.6967E+02
     -8.003  0.2739E+02  0.2399E+02  0.7183E+02  0.7154E+02
     -7.925  0.1785E+02  0.1971E+02  0.7332E+02  0.7316E+02
     -7.847  0.9024E+01  0.8064E+01  0.7404E+02  0.7389E+02
     -7.769  0.1685E+02  0.1585E+02  0.7537E+02  0.7513E+02
     -7.691  0.6927E+01  0.8415E+01  0.7592E+02  0.7582E+02
     -7.613  0.5036E+01  0.5645E+01  0.7633E+02  0.7626E+02
     -7.535  0.2571E+02  0.2226E+02  0.7836E+02  0.7800E+02
     -7.457  0.2118E+02  0.2199E+02  0.8008E+02  0.7975E+02
     -7.379  0.7183E+01  0.1053E+02  0.8067E+02  0.8067E+02
     -7.301  0.1273E+02  0.1158E+02  0.8166E+02  0.8157E+02
     -7.222  0.8310E+00  0.6006E+00  0.8173E+02  0.8167E+02
     -7.144  0.1198E+02  0.1277E+02  0.8267E+02  0.8267E+02
     -7.066  0.4003E+01  0.2869E+01  0.8298E+02  0.8289E+02
     -6.988  0.0000E+00  0.6651E+00  0.8300E+02  0.8300E+02
     -6.910  0.3481E+01  0.9890E+00  0.8327E+02  0.8308E+02
     -6.832  0.7730E+01  0.9877E+01  0.8398E+02  0.8385E+02
     -6.754  0.2660E+01  0.2712E+01  0.8421E+02  0.8409E+02
     -6.676  0.4581E+01  0.6004E+01  0.8462E+02  0.8459E+02
     -6.598  0.9085E+01  0.9451E+01  0.8533E+02  0.8533E+02
     -6.520  0.3845E+00  0.2098E-01  0.8536E+02  0.8533E+02
     -6.442  0.1242E+02  0.1257E+02  0.8633E+02  0.8632E+02
     -6.364  0.9789E+01  0.8769E+01  0.8710E+02  0.8702E+02
     -6.286  0.1200E+02  0.1256E+02  0.8803E+02  0.8800E+02
     -6.208  0.9098E+01  0.9129E+01  0.8874E+02  0.8871E+02
     -6.130  0.2599E+02  0.2382E+02  0.9078E+02  0.9057E+02
     -6.052  0.3598E+01  0.4981E+01  0.9111E+02  0.9101E+02
     -5.974  0.1567E+02  0.1513E+02  0.9234E+02  0.9219E+02
     -5.896  0.4059E+01  0.5619E+01  0.9267E+02  0.9267E+02
     -5.817  0.2219E+02  0.1907E+02  0.9440E+02  0.9415E+02
     -5.739  0.1722E+02  0.1912E+02  0.9586E+02  0.9567E+02
     -5.661  0.1471E+02  0.1469E+02  0.9704E+02  0.9686E+02
     -5.583  0.2663E+02  0.2358E+02  0.9912E+02  0.9877E+02
     -5.505  0.2464E+02  0.2570E+02  0.1012E+03  0.1008E+03
     -5.427  0.2580E+02  0.2745E+02  0.1033E+03  0.1030E+03
     -5.349  0.1731E+02  0.1542E+02  0.1046E+03  0.1042E+03
     -5.271  0.2276E+02  0.2715E+02  0.1065E+03  0.1064E+03
     -5.193  0.2806E+02  0.2604E+02  0.1087E+03  0.1085E+03
     -5.115  0.3843E+02  0.3589E+02  0.1117E+03  0.1113E+03
     -5.037  0.2348E+02  0.2386E+02  0.1136E+03  0.1132E+03
     -4.959  0.2897E+02  0.2791E+02  0.1159E+03  0.1155E+03
     -4.881  0.1690E+02  0.1972E+02  0.1174E+03  0.1171E+03
     -4.803  0.2839E+02  0.3030E+02  0.1197E+03  0.1195E+03
     -4.725  0.3042E+02  0.3144E+02  0.1222E+03  0.1220E+03
     -4.647  0.2139E+02  0.2172E+02  0.1239E+03  0.1237E+03
     -4.569  0.2391E+02  0.2313E+02  0.1258E+03  0.1255E+03
     -4.490  0.2763E+02  0.3004E+02  0.1280E+03  0.1279E+03
     -4.412  0.3291E+02  0.2993E+02  0.1306E+03  0.1303E+03
     -4.334  0.2658E+02  0.2523E+02  0.1327E+03  0.1324E+03
     -4.256  0.1951E+02  0.2101E+02  0.1342E+03  0.1340E+03
     -4.178  0.3101E+02  0.2906E+02  0.1366E+03  0.1363E+03
     -4.100  0.3142E+02  0.3353E+02  0.1392E+03  0.1390E+03
     -4.022  0.2809E+02  0.2641E+02  0.1414E+03  0.1411E+03
     -3.944  0.2906E+02  0.2986E+02  0.1438E+03  0.1434E+03
     -3.866  0.3368E+02  0.3305E+02  0.1464E+03  0.1461E+03
     -3.788  0.2730E+02  0.2697E+02  0.1486E+03  0.1483E+03
     -3.710  0.2820E+02  0.2921E+02  0.1509E+03  0.1507E+03
     -3.632  0.2065E+02  0.1989E+02  0.1525E+03  0.1523E+03
     -3.554  0.3181E+02  0.2873E+02  0.1550E+03  0.1545E+03
     -3.476  0.1780E+02  0.2102E+02  0.1565E+03  0.1562E+03
     -3.398  0.3535E+02  0.3474E+02  0.1593E+03  0.1590E+03
     -3.320  0.2419E+02  0.2483E+02  0.1612E+03  0.1610E+03
     -3.242  0.2822E+02  0.2949E+02  0.1635E+03  0.1633E+03
     -3.164  0.3236E+02  0.3160E+02  0.1660E+03  0.1658E+03
     -3.085  0.2447E+02  0.2305E+02  0.1680E+03  0.1677E+03
     -3.007  0.2862E+02  0.2662E+02  0.1702E+03  0.1699E+03
     -2.929  0.1819E+02  0.1972E+02  0.1717E+03  0.1715E+03
     -2.851  0.2980E+02  0.3031E+02  0.1741E+03  0.1739E+03
     -2.773  0.2495E+02  0.2323E+02  0.1761E+03  0.1757E+03
     -2.695  0.1921E+02  0.2372E+02  0.1777E+03  0.1776E+03
     -2.617  0.2416E+02  0.2101E+02  0.1796E+03  0.1793E+03
     -2.539  0.1908E+02  0.2131E+02  0.1812E+03  0.1810E+03
     -2.461  0.2459E+02  0.2516E+02  0.1831E+03  0.1830E+03
     -2.383  0.2585E+02  0.2494E+02  0.1852E+03  0.1850E+03
     -2.305  0.2817E+02  0.2834E+02  0.1874E+03  0.1873E+03
     -2.227  0.2403E+02  0.2224E+02  0.1893E+03  0.1890E+03
     -2.149  0.2847E+02  0.3066E+02  0.1917E+03  0.1915E+03
     -2.071  0.2684E+02  0.2485E+02  0.1938E+03  0.1935E+03
     -1.993  0.2508E+02  0.2692E+02  0.1958E+03  0.1956E+03
     -1.915  0.1771E+02  0.1841E+02  0.1972E+03  0.1970E+03
     -1.837  0.2320E+02  0.2278E+02  0.1990E+03  0.1988E+03
     -1.758  0.3126E+02  0.2806E+02  0.2015E+03  0.2011E+03
     -1.680  0.4235E+02  0.4367E+02  0.2049E+03  0.2046E+03
     -1.602  0.3421E+02  0.2976E+02  0.2076E+03  0.2069E+03
     -1.524  0.3232E+02  0.3985E+02  0.2104E+03  0.2101E+03
     -1.446  0.3383E+02  0.3350E+02  0.2131E+03  0.2127E+03
     -1.368  0.3159E+02  0.3163E+02  0.2156E+03  0.2153E+03
     -1.290  0.2830E+02  0.2927E+02  0.2179E+03  0.2176E+03
     -1.212  0.4031E+02  0.3901E+02  0.2210E+03  0.2206E+03
     -1.134  0.3953E+02  0.4403E+02  0.2242E+03  0.2242E+03
     -1.056  0.2892E+02  0.2479E+02  0.2265E+03  0.2262E+03
     -0.978  0.3327E+02  0.3399E+02  0.2291E+03  0.2289E+03
     -0.900  0.3288E+02  0.3026E+02  0.2318E+03  0.2313E+03
     -0.822  0.4436E+02  0.4762E+02  0.2353E+03  0.2351E+03
     -0.744  0.3203E+02  0.2957E+02  0.2379E+03  0.2375E+03
     -0.666  0.3913E+02  0.3832E+02  0.2410E+03  0.2406E+03
     -0.588  0.3952E+02  0.3651E+02  0.2441E+03  0.2436E+03
     -0.510  0.3116E+02  0.3384E+02  0.2466E+03  0.2464E+03
     -0.432  0.4809E+02  0.4138E+02  0.2504E+03  0.2497E+03
     -0.353  0.3988E+02  0.4541E+02  0.2536E+03  0.2534E+03
     -0.275  0.4352E+02  0.3739E+02  0.2570E+03  0.2564E+03
     -0.197  0.3218E+02  0.3389E+02  0.2596E+03  0.2592E+03
     -0.119  0.4080E+02  0.4077E+02  0.2628E+03  0.2625E+03
     -0.041  0.3847E+02  0.3809E+02  0.2659E+03  0.2655E+03
      0.037  0.3243E+02  0.3234E+02  0.2684E+03  0.2681E+03
      0.115  0.3481E+02  0.3471E+02  0.2712E+03  0.2709E+03
      0.193  0.3384E+02  0.3436E+02  0.2740E+03  0.2736E+03
      0.271  0.2816E+02  0.2914E+02  0.2762E+03  0.2759E+03
      0.349  0.3462E+02  0.3430E+02  0.2790E+03  0.2787E+03
      0.427  0.2125E+02  0.1898E+02  0.2807E+03  0.2803E+03
      0.505  0.3543E+02  0.3853E+02  0.2837E+03  0.2833E+03
      0.583  0.4127E+02  0.4029E+02  0.2870E+03  0.2865E+03
      0.661  0.3275E+02  0.3689E+02  0.2896E+03  0.2894E+03
      0.739  0.4855E+02  0.4777E+02  0.2934E+03  0.2931E+03
      0.817  0.4258E+02  0.3894E+02  0.2968E+03  0.2963E+03
      0.895  0.3754E+02  0.4061E+02  0.2998E+03  0.2995E+03
      0.974  0.4589E+02  0.4193E+02  0.3034E+03  0.3030E+03
      1.052  0.3718E+02  0.3685E+02  0.3064E+03  0.3060E+03
      1.130  0.3638E+02  0.3558E+02  0.3093E+03  0.3088E+03
      1.208  0.4734E+02  0.4705E+02  0.3131E+03  0.3125E+03
      1.286  0.3363E+02  0.3374E+02  0.3158E+03  0.3152E+03
      1.364  0.3360E+02  0.3468E+02  0.3186E+03  0.3181E+03
      1.442  0.3487E+02  0.3925E+02  0.3213E+03  0.3211E+03
      1.520  0.3794E+02  0.3656E+02  0.3243E+03  0.3240E+03
      1.598  0.3424E+02  0.3423E+02  0.3270E+03  0.3267E+03
      1.676  0.3402E+02  0.3352E+02  0.3297E+03  0.3294E+03
      1.754  0.2898E+02  0.2818E+02  0.3320E+03  0.3316E+03
      1.832  0.3229E+02  0.3297E+02  0.3346E+03  0.3342E+03
      1.910  0.3947E+02  0.3750E+02  0.3377E+03  0.3372E+03
      1.988  0.4372E+02  0.4137E+02  0.3413E+03  0.3405E+03
      2.066  0.3142E+02  0.3337E+02  0.3438E+03  0.3434E+03
      2.144  0.3318E+02  0.3244E+02  0.3465E+03  0.3460E+03
      2.222  0.3586E+02  0.3796E+02  0.3494E+03  0.3490E+03
      2.300  0.3694E+02  0.3649E+02  0.3524E+03  0.3519E+03
      2.379  0.4042E+02  0.3996E+02  0.3555E+03  0.3550E+03
      2.457  0.4735E+02  0.4397E+02  0.3593E+03  0.3585E+03
      2.535  0.4025E+02  0.4065E+02  0.3625E+03  0.3618E+03
      2.613  0.3879E+02  0.4347E+02  0.3658E+03  0.3653E+03
      2.691  0.3548E+02  0.3589E+02  0.3686E+03  0.3681E+03
      2.769  0.3556E+02  0.3790E+02  0.3715E+03  0.3711E+03
      2.847  0.4283E+02  0.3914E+02  0.3749E+03  0.3743E+03
      2.925  0.5422E+02  0.5098E+02  0.3792E+03  0.3784E+03
      3.003  0.4141E+02  0.3729E+02  0.3825E+03  0.3815E+03
      3.081  0.3473E+02  0.4560E+02  0.3855E+03  0.3851E+03
      3.159  0.4553E+02  0.4292E+02  0.3891E+03  0.3884E+03
      3.237  0.3805E+02  0.3645E+02  0.3922E+03  0.3914E+03
      3.315  0.4054E+02  0.4217E+02  0.3954E+03  0.3948E+03
      3.393  0.3819E+02  0.3582E+02  0.3984E+03  0.3978E+03
      3.471  0.4594E+02  0.4538E+02  0.4021E+03  0.4014E+03
      3.549  0.3834E+02  0.3905E+02  0.4051E+03  0.4046E+03
      3.627  0.5167E+02  0.4809E+02  0.4092E+03  0.4084E+03
      3.706  0.4383E+02  0.4595E+02  0.4128E+03  0.4121E+03
      3.784  0.3898E+02  0.3998E+02  0.4159E+03  0.4153E+03
      3.862  0.4584E+02  0.4524E+02  0.4195E+03  0.4189E+03
      3.940  0.4715E+02  0.4198E+02  0.4233E+03  0.4223E+03
      4.018  0.3891E+02  0.4193E+02  0.4264E+03  0.4257E+03
      4.096  0.4276E+02  0.4268E+02  0.4298E+03  0.4291E+03
      4.174  0.4142E+02  0.4371E+02  0.4331E+03  0.4326E+03
      4.252  0.3163E+02  0.3314E+02  0.4357E+03  0.4353E+03
      4.330  0.3375E+02  0.2777E+02  0.4383E+03  0.4375E+03
      4.408  0.4217E+02  0.4626E+02  0.4417E+03  0.4411E+03
      4.486  0.4293E+02  0.4322E+02  0.4451E+03  0.4446E+03
      4.564  0.3734E+02  0.3555E+02  0.4481E+03  0.4475E+03
      4.642  0.4102E+02  0.4216E+02  0.4514E+03  0.4509E+03
      4.720  0.3582E+02  0.3099E+02  0.4542E+03  0.4533E+03
      4.798  0.4179E+02  0.4262E+02  0.4576E+03  0.4567E+03
      4.876  0.4207E+02  0.4580E+02  0.4611E+03  0.4603E+03
      4.954  0.4372E+02  0.4114E+02  0.4645E+03  0.4636E+03
      5.032  0.4663E+02  0.4607E+02  0.4683E+03  0.4673E+03
      5.111  0.4478E+02  0.4252E+02  0.4718E+03  0.4707E+03
      5.189  0.3747E+02  0.4558E+02  0.4748E+03  0.4743E+03
      5.267  0.3487E+02  0.2988E+02  0.4776E+03  0.4768E+03
      5.345  0.4233E+02  0.3674E+02  0.4809E+03  0.4798E+03
      5.423  0.4084E+02  0.4097E+02  0.4841E+03  0.4830E+03
      5.501  0.4561E+02  0.4733E+02  0.4879E+03  0.4868E+03
      5.579  0.3066E+02  0.3749E+02  0.4904E+03  0.4897E+03
      5.657  0.3883E+02  0.3633E+02  0.4936E+03  0.4926E+03
      5.735  0.3822E+02  0.3639E+02  0.4966E+03  0.4956E+03
      5.813  0.3988E+02  0.4050E+02  0.4998E+03  0.4988E+03
      5.891  0.4068E+02  0.4297E+02  0.5031E+03  0.5022E+03
      5.969  0.3232E+02  0.3466E+02  0.5057E+03  0.5049E+03
      6.047  0.3999E+02  0.3949E+02  0.5088E+03  0.5081E+03
      6.125  0.3102E+02  0.3469E+02  0.5114E+03  0.5109E+03
      6.203  0.3715E+02  0.3376E+02  0.5143E+03  0.5136E+03
      6.281  0.3770E+02  0.3894E+02  0.5173E+03  0.5167E+03
      6.359  0.2647E+02  0.2461E+02  0.5194E+03  0.5186E+03
      6.438  0.4233E+02  0.4327E+02  0.5228E+03  0.5221E+03
      6.516  0.3945E+02  0.3375E+02  0.5259E+03  0.5248E+03
      6.594  0.3857E+02  0.3988E+02  0.5290E+03  0.5280E+03
      6.672  0.3146E+02  0.3893E+02  0.5316E+03  0.5312E+03
      6.750  0.3907E+02  0.3315E+02  0.5348E+03  0.5339E+03
      6.828  0.4700E+02  0.4629E+02  0.5385E+03  0.5376E+03
      6.906  0.4496E+02  0.4215E+02  0.5420E+03  0.5410E+03
      6.984  0.3271E+02  0.3850E+02  0.5447E+03  0.5440E+03
      7.062  0.4247E+02  0.4184E+02  0.5480E+03  0.5473E+03
      7.140  0.3455E+02  0.3167E+02  0.5508E+03  0.5499E+03
      7.218  0.3813E+02  0.4152E+02  0.5539E+03  0.5533E+03
      7.296  0.3141E+02  0.2672E+02  0.5564E+03  0.5555E+03
      7.374  0.2504E+02  0.2892E+02  0.5584E+03  0.5578E+03
      7.452  0.3308E+02  0.3190E+02  0.5610E+03  0.5603E+03
      7.530  0.4368E+02  0.4290E+02  0.5646E+03  0.5636E+03
      7.608  0.3714E+02  0.3803E+02  0.5676E+03  0.5667E+03
      7.686  0.3136E+02  0.4001E+02  0.5702E+03  0.5700E+03
      7.764  0.3263E+02  0.2583E+02  0.5727E+03  0.5721E+03
      7.843  0.2128E+02  0.2711E+02  0.5745E+03  0.5743E+03
      7.921  0.1154E+02  0.1237E+02  0.5754E+03  0.5753E+03
      7.999  0.5322E+01  0.7531E+01  0.5759E+03  0.5758E+03
      8.077  0.1067E+01  0.1068E+01  0.5760E+03  0.5760E+03
      8.155  0.0000E+00  0.0000E+00  0.5760E+03  0.5760E+03
      8.233  0.0000E+00  0.0000E+00  0.5760E+03  0.5760E+03
      8.311  0.0000E+00  0.0000E+00  0.5760E+03  0.5760E+03
      8.389  0.0000E+00  0.0000E+00  0.5760E+03  0.5760E+03
      8.467  0.0000E+00  0.0000E+00  0.5760E+03  0.5760E+03
      8.545  0.0000E+00  0.0000E+00  0.5760E+03  0.5760E+03
      8.623  0.0000E+00  0.0000E+00  0.5760E+03  0.5760E+03
      8.701  0.0000E+00  0.0000E+00  0.5760E+03  0.5760E+03
      8.779  0.0000E+00  0.0000E+00  0.5760E+03  0.5760E+03
      8.857  0.0000E+00  0.0000E+00  0.5760E+03  0.5760E+03
      8.935  0.0000E+00  0.0000E+00  0.5760E+03  0.5760E+03
      9.013  0.0000E+00  0.0000E+00  0.5760E+03  0.5760E+03
      9.091  0.0000E+00  0.0000E+00  0.5760E+03  0.5760E+03
