 120 120   0   0
  0.2169524E+02  0.7680595E-09  0.1629300E-08  0.2080414E-08  0.5000000E-15
  1.000000000000000E-004
  CAR 
 Si and Ge interface calculation         
      7.92068475     -8.52845310  301      4.86497369      1.00000000
     -8.528  0.0000E+00  0.0000E+00  0.0000E+00  0.0000E+00
     -8.474  0.0000E+00  0.0000E+00  0.0000E+00  0.0000E+00
     -8.419  0.0000E+00  0.0000E+00  0.0000E+00  0.0000E+00
     -8.364  0.0000E+00  0.0000E+00  0.0000E+00  0.0000E+00
     -8.309  0.0000E+00  0.0000E+00  0.0000E+00  0.0000E+00
     -8.254  0.0000E+00  0.0000E+00  0.0000E+00  0.0000E+00
     -8.199  0.0000E+00  0.0000E+00  0.0000E+00  0.0000E+00
     -8.145  0.0000E+00  0.0000E+00  0.0000E+00  0.0000E+00
     -8.090  0.0000E+00  0.0000E+00  0.0000E+00  0.0000E+00
     -8.035  0.0000E+00  0.0000E+00  0.0000E+00  0.0000E+00
     -7.980  0.0000E+00  0.0000E+00  0.0000E+00  0.0000E+00
     -7.925  0.0000E+00  0.0000E+00  0.0000E+00  0.0000E+00
     -7.870  0.0000E+00  0.0000E+00  0.0000E+00  0.0000E+00
     -7.816  0.9160E-06  0.1992E-08  0.5023E-07  0.1092E-09
     -7.761  0.3981E+01  0.2932E+01  0.2183E+00  0.1607E+00
     -7.706  0.5789E+00  0.1628E+01  0.2500E+00  0.2500E+00
     -7.651  0.9391E+01  0.7552E+01  0.7649E+00  0.6641E+00
     -7.596  0.8949E+01  0.1070E+02  0.1256E+01  0.1251E+01
     -7.542  0.5275E+01  0.2836E+01  0.1545E+01  0.1406E+01
     -7.487  0.1717E+02  0.1937E+02  0.2486E+01  0.2468E+01
     -7.432  0.1161E+02  0.1179E+02  0.3123E+01  0.3115E+01
     -7.377  0.6877E+01  0.6832E+01  0.3500E+01  0.3489E+01
     -7.322  0.1683E+02  0.1425E+02  0.4423E+01  0.4271E+01
     -7.267  0.1374E+02  0.1220E+02  0.5176E+01  0.4940E+01
     -7.213  0.2100E+02  0.2428E+02  0.6328E+01  0.6271E+01
     -7.158  0.1779E+02  0.1454E+02  0.7304E+01  0.7068E+01
     -7.103  0.2167E+02  0.2143E+02  0.8492E+01  0.8243E+01
     -7.048  0.2308E+02  0.2750E+02  0.9757E+01  0.9751E+01
     -6.993  0.1308E+02  0.1145E+02  0.1047E+02  0.1038E+02
     -6.938  0.2555E+02  0.2414E+02  0.1188E+02  0.1170E+02
     -6.884  0.2266E+02  0.2190E+02  0.1312E+02  0.1290E+02
     -6.829  0.2226E+02  0.2102E+02  0.1434E+02  0.1406E+02
     -6.774  0.2261E+02  0.2329E+02  0.1558E+02  0.1533E+02
     -6.719  0.2754E+02  0.2888E+02  0.1709E+02  0.1692E+02
     -6.664  0.2434E+02  0.2542E+02  0.1842E+02  0.1831E+02
     -6.609  0.1148E+02  0.9862E+01  0.1905E+02  0.1885E+02
     -6.555  0.3085E+02  0.3360E+02  0.2074E+02  0.2069E+02
     -6.500  0.3410E+02  0.3072E+02  0.2261E+02  0.2238E+02
     -6.445  0.3087E+02  0.2867E+02  0.2431E+02  0.2395E+02
     -6.390  0.3977E+02  0.4187E+02  0.2649E+02  0.2625E+02
     -6.335  0.2140E+02  0.2385E+02  0.2766E+02  0.2755E+02
     -6.280  0.3794E+02  0.3188E+02  0.2974E+02  0.2930E+02
     -6.226  0.3047E+02  0.3677E+02  0.3141E+02  0.3132E+02
     -6.171  0.2184E+02  0.2152E+02  0.3261E+02  0.3250E+02
     -6.116  0.3419E+02  0.3126E+02  0.3448E+02  0.3421E+02
     -6.061  0.4332E+02  0.4409E+02  0.3686E+02  0.3663E+02
     -6.006  0.2605E+02  0.2702E+02  0.3829E+02  0.3811E+02
     -5.951  0.3535E+02  0.3449E+02  0.4022E+02  0.4000E+02
     -5.897  0.3778E+02  0.3792E+02  0.4230E+02  0.4208E+02
     -5.842  0.2609E+02  0.2698E+02  0.4373E+02  0.4356E+02
     -5.787  0.3292E+02  0.3263E+02  0.4553E+02  0.4535E+02
     -5.732  0.4437E+02  0.4444E+02  0.4796E+02  0.4779E+02
     -5.677  0.5383E+02  0.5340E+02  0.5092E+02  0.5071E+02
     -5.622  0.2966E+02  0.2855E+02  0.5254E+02  0.5228E+02
     -5.568  0.3486E+02  0.3307E+02  0.5445E+02  0.5409E+02
     -5.513  0.4733E+02  0.4823E+02  0.5705E+02  0.5674E+02
     -5.458  0.4121E+02  0.4405E+02  0.5931E+02  0.5915E+02
     -5.403  0.5012E+02  0.4813E+02  0.6206E+02  0.6179E+02
     -5.348  0.4133E+02  0.4361E+02  0.6432E+02  0.6418E+02
     -5.293  0.3105E+02  0.3141E+02  0.6603E+02  0.6591E+02
     -5.239  0.4680E+02  0.4428E+02  0.6859E+02  0.6833E+02
     -5.184  0.4429E+02  0.4543E+02  0.7102E+02  0.7082E+02
     -5.129  0.4388E+02  0.4142E+02  0.7343E+02  0.7310E+02
     -5.074  0.4712E+02  0.4846E+02  0.7601E+02  0.7575E+02
     -5.019  0.3041E+02  0.3313E+02  0.7768E+02  0.7757E+02
     -4.964  0.5316E+02  0.4986E+02  0.8059E+02  0.8030E+02
     -4.910  0.2791E+02  0.3179E+02  0.8212E+02  0.8205E+02
     -4.855  0.2970E+02  0.2847E+02  0.8375E+02  0.8361E+02
     -4.800  0.2776E+02  0.2616E+02  0.8527E+02  0.8504E+02
     -4.745  0.3790E+02  0.3820E+02  0.8735E+02  0.8714E+02
     -4.690  0.2725E+02  0.2991E+02  0.8884E+02  0.8878E+02
     -4.635  0.2949E+02  0.2485E+02  0.9046E+02  0.9014E+02
     -4.581  0.3600E+02  0.3828E+02  0.9244E+02  0.9224E+02
     -4.526  0.3620E+02  0.3498E+02  0.9442E+02  0.9415E+02
     -4.471  0.3488E+02  0.3421E+02  0.9633E+02  0.9603E+02
     -4.416  0.5238E+02  0.5434E+02  0.9920E+02  0.9901E+02
     -4.361  0.3737E+02  0.3518E+02  0.1013E+03  0.1009E+03
     -4.307  0.3485E+02  0.3870E+02  0.1032E+03  0.1031E+03
     -4.252  0.3346E+02  0.3353E+02  0.1050E+03  0.1049E+03
     -4.197  0.2642E+02  0.2670E+02  0.1064E+03  0.1064E+03
     -4.142  0.2559E+02  0.2346E+02  0.1079E+03  0.1076E+03
     -4.087  0.2760E+02  0.2919E+02  0.1094E+03  0.1093E+03
     -4.032  0.1640E+02  0.1767E+02  0.1103E+03  0.1102E+03
     -3.978  0.1115E+02  0.1196E+02  0.1109E+03  0.1109E+03
     -3.923  0.1139E+02  0.6967E+01  0.1115E+03  0.1113E+03
     -3.868  0.3605E+02  0.3669E+02  0.1135E+03  0.1133E+03
     -3.813  0.9441E+01  0.1227E+02  0.1140E+03  0.1139E+03
     -3.758  0.1903E+02  0.1471E+02  0.1150E+03  0.1147E+03
     -3.703  0.2043E+02  0.2107E+02  0.1162E+03  0.1159E+03
     -3.649  0.2092E+02  0.2467E+02  0.1173E+03  0.1173E+03
     -3.594  0.6311E+01  0.6194E+01  0.1177E+03  0.1176E+03
     -3.539  0.2494E+02  0.2272E+02  0.1190E+03  0.1188E+03
     -3.484  0.2160E+02  0.2341E+02  0.1202E+03  0.1201E+03
     -3.429  0.1353E+02  0.1300E+02  0.1209E+03  0.1208E+03
     -3.374  0.1644E+02  0.1594E+02  0.1218E+03  0.1217E+03
     -3.320  0.1771E+02  0.1624E+02  0.1228E+03  0.1226E+03
     -3.265  0.2574E+02  0.2766E+02  0.1242E+03  0.1241E+03
     -3.210  0.2632E+02  0.2704E+02  0.1257E+03  0.1256E+03
     -3.155  0.2079E+02  0.1837E+02  0.1268E+03  0.1266E+03
     -3.100  0.3587E+02  0.3466E+02  0.1288E+03  0.1285E+03
     -3.045  0.2605E+02  0.2819E+02  0.1302E+03  0.1301E+03
     -2.991  0.2633E+02  0.2666E+02  0.1317E+03  0.1315E+03
     -2.936  0.2759E+02  0.2329E+02  0.1332E+03  0.1328E+03
     -2.881  0.1633E+02  0.1823E+02  0.1341E+03  0.1338E+03
     -2.826  0.3364E+02  0.3282E+02  0.1359E+03  0.1356E+03
     -2.771  0.2392E+02  0.2247E+02  0.1372E+03  0.1368E+03
     -2.716  0.3804E+02  0.3961E+02  0.1393E+03  0.1390E+03
     -2.662  0.2915E+02  0.2992E+02  0.1409E+03  0.1406E+03
     -2.607  0.3105E+02  0.3052E+02  0.1426E+03  0.1423E+03
     -2.552  0.4272E+02  0.4207E+02  0.1449E+03  0.1446E+03
     -2.497  0.5137E+02  0.4978E+02  0.1478E+03  0.1473E+03
     -2.442  0.6565E+02  0.6367E+02  0.1514E+03  0.1508E+03
     -2.387  0.5355E+02  0.5728E+02  0.1543E+03  0.1540E+03
     -2.333  0.6526E+02  0.6182E+02  0.1579E+03  0.1574E+03
     -2.278  0.6170E+02  0.6302E+02  0.1613E+03  0.1608E+03
     -2.223  0.5418E+02  0.5434E+02  0.1642E+03  0.1638E+03
     -2.168  0.4545E+02  0.4962E+02  0.1667E+03  0.1665E+03
     -2.113  0.5739E+02  0.5312E+02  0.1699E+03  0.1694E+03
     -2.058  0.3059E+02  0.3719E+02  0.1715E+03  0.1715E+03
     -2.004  0.3716E+02  0.3421E+02  0.1736E+03  0.1734E+03
     -1.949  0.3712E+02  0.3822E+02  0.1756E+03  0.1754E+03
     -1.894  0.3333E+02  0.3066E+02  0.1774E+03  0.1771E+03
     -1.839  0.3803E+02  0.3951E+02  0.1795E+03  0.1793E+03
     -1.784  0.3687E+02  0.3722E+02  0.1816E+03  0.1813E+03
     -1.729  0.2978E+02  0.2929E+02  0.1832E+03  0.1829E+03
     -1.675  0.3198E+02  0.3208E+02  0.1849E+03  0.1847E+03
     -1.620  0.2375E+02  0.2658E+02  0.1862E+03  0.1862E+03
     -1.565  0.3460E+02  0.2983E+02  0.1881E+03  0.1878E+03
     -1.510  0.3221E+02  0.3320E+02  0.1899E+03  0.1896E+03
     -1.455  0.4758E+02  0.4043E+02  0.1925E+03  0.1918E+03
     -1.400  0.3465E+02  0.4234E+02  0.1944E+03  0.1942E+03
     -1.346  0.2189E+02  0.2411E+02  0.1956E+03  0.1955E+03
     -1.291  0.3387E+02  0.3535E+02  0.1975E+03  0.1974E+03
     -1.236  0.1414E+02  0.1449E+02  0.1982E+03  0.1982E+03
     -1.181  0.1444E+02  0.1254E+02  0.1990E+03  0.1989E+03
     -1.126  0.2175E+02  0.1960E+02  0.2002E+03  0.2000E+03
     -1.072  0.1803E+02  0.2085E+02  0.2012E+03  0.2011E+03
     -1.017  0.2402E+02  0.2384E+02  0.2025E+03  0.2024E+03
     -0.962  0.2606E+02  0.2573E+02  0.2040E+03  0.2038E+03
     -0.907  0.2132E+02  0.2191E+02  0.2051E+03  0.2050E+03
     -0.852  0.2120E+02  0.2107E+02  0.2063E+03  0.2062E+03
     -0.797  0.1009E+02  0.1039E+02  0.2068E+03  0.2068E+03
     -0.743  0.1317E+02  0.1251E+02  0.2076E+03  0.2074E+03
     -0.688  0.1712E+02  0.1925E+02  0.2085E+03  0.2085E+03
     -0.633  0.2803E+02  0.2147E+02  0.2100E+03  0.2097E+03
     -0.578  0.2047E+02  0.2412E+02  0.2112E+03  0.2110E+03
     -0.523  0.2985E+02  0.2593E+02  0.2128E+03  0.2124E+03
     -0.468  0.3962E+02  0.4267E+02  0.2150E+03  0.2148E+03
     -0.414  0.2547E+02  0.2602E+02  0.2164E+03  0.2162E+03
     -0.359  0.2657E+02  0.2805E+02  0.2178E+03  0.2177E+03
     -0.304  0.1205E+02  0.1286E+02  0.2185E+03  0.2184E+03
     -0.249  0.7516E+01  0.6293E+01  0.2189E+03  0.2188E+03
     -0.194  0.2479E+02  0.2360E+02  0.2203E+03  0.2201E+03
     -0.139  0.1539E+02  0.1761E+02  0.2211E+03  0.2210E+03
     -0.085  0.1056E+02  0.8595E+01  0.2217E+03  0.2215E+03
     -0.030  0.1472E+02  0.1756E+02  0.2225E+03  0.2225E+03
      0.025  0.1826E+02  0.1749E+02  0.2235E+03  0.2234E+03
      0.080  0.1575E+02  0.1548E+02  0.2244E+03  0.2243E+03
      0.135  0.1247E+02  0.1184E+02  0.2250E+03  0.2249E+03
      0.190  0.2081E+02  0.1972E+02  0.2262E+03  0.2260E+03
      0.244  0.5046E+02  0.4998E+02  0.2289E+03  0.2287E+03
      0.299  0.7020E+02  0.6332E+02  0.2328E+03  0.2322E+03
      0.354  0.3637E+02  0.4295E+02  0.2348E+03  0.2346E+03
      0.409  0.3159E+02  0.3305E+02  0.2365E+03  0.2364E+03
      0.464  0.3445E+02  0.3089E+02  0.2384E+03  0.2381E+03
      0.519  0.6021E+02  0.6405E+02  0.2417E+03  0.2416E+03
      0.573  0.6558E+02  0.6051E+02  0.2453E+03  0.2449E+03
      0.628  0.4292E+02  0.4773E+02  0.2477E+03  0.2475E+03
      0.683  0.6450E+02  0.5755E+02  0.2512E+03  0.2507E+03
      0.738  0.4278E+02  0.4592E+02  0.2535E+03  0.2532E+03
      0.793  0.7307E+02  0.6608E+02  0.2576E+03  0.2568E+03
      0.848  0.9018E+02  0.9287E+02  0.2625E+03  0.2619E+03
      0.902  0.6105E+02  0.6520E+02  0.2658E+03  0.2655E+03
      0.957  0.7810E+02  0.7766E+02  0.2701E+03  0.2698E+03
      1.012  0.4221E+02  0.4110E+02  0.2724E+03  0.2720E+03
      1.067  0.3910E+02  0.3999E+02  0.2746E+03  0.2742E+03
      1.122  0.8105E+02  0.8277E+02  0.2790E+03  0.2787E+03
      1.177  0.7173E+02  0.6915E+02  0.2830E+03  0.2825E+03
      1.231  0.7063E+02  0.6756E+02  0.2868E+03  0.2862E+03
      1.286  0.8059E+02  0.8315E+02  0.2913E+03  0.2908E+03
      1.341  0.7718E+02  0.7501E+02  0.2955E+03  0.2949E+03
      1.396  0.7618E+02  0.7753E+02  0.2997E+03  0.2992E+03
      1.451  0.4347E+02  0.4568E+02  0.3020E+03  0.3017E+03
      1.506  0.1031E+03  0.9463E+02  0.3077E+03  0.3068E+03
      1.560  0.6136E+02  0.7206E+02  0.3111E+03  0.3108E+03
      1.615  0.4573E+02  0.4053E+02  0.3136E+03  0.3130E+03
      1.670  0.7143E+02  0.7584E+02  0.3175E+03  0.3172E+03
      1.725  0.8215E+02  0.8315E+02  0.3220E+03  0.3217E+03
      1.780  0.8783E+02  0.8039E+02  0.3268E+03  0.3261E+03
      1.835  0.8669E+02  0.8654E+02  0.3316E+03  0.3309E+03
      1.889  0.9189E+02  0.9286E+02  0.3366E+03  0.3360E+03
      1.944  0.8322E+02  0.8326E+02  0.3412E+03  0.3405E+03
      1.999  0.7182E+02  0.7227E+02  0.3451E+03  0.3445E+03
      2.054  0.6359E+02  0.6822E+02  0.3486E+03  0.3483E+03
      2.109  0.5690E+02  0.5697E+02  0.3517E+03  0.3514E+03
      2.163  0.6618E+02  0.6301E+02  0.3553E+03  0.3548E+03
      2.218  0.7293E+02  0.7778E+02  0.3593E+03  0.3591E+03
      2.273  0.8436E+02  0.7614E+02  0.3640E+03  0.3633E+03
      2.328  0.6962E+02  0.7901E+02  0.3678E+03  0.3676E+03
      2.383  0.5793E+02  0.5386E+02  0.3710E+03  0.3706E+03
      2.438  0.6862E+02  0.6801E+02  0.3747E+03  0.3743E+03
      2.492  0.6452E+02  0.6390E+02  0.3783E+03  0.3778E+03
      2.547  0.9234E+02  0.9427E+02  0.3833E+03  0.3830E+03
      2.602  0.7091E+02  0.6857E+02  0.3872E+03  0.3867E+03
      2.657  0.6701E+02  0.6736E+02  0.3909E+03  0.3904E+03
      2.712  0.5952E+02  0.6444E+02  0.3941E+03  0.3939E+03
      2.767  0.5913E+02  0.5873E+02  0.3974E+03  0.3972E+03
      2.821  0.6370E+02  0.5832E+02  0.4009E+03  0.4004E+03
      2.876  0.4562E+02  0.4548E+02  0.4034E+03  0.4029E+03
      2.931  0.4970E+02  0.5002E+02  0.4061E+03  0.4056E+03
      2.986  0.6907E+02  0.6914E+02  0.4099E+03  0.4094E+03
      3.041  0.7472E+02  0.7377E+02  0.4140E+03  0.4134E+03
      3.096  0.6660E+02  0.6310E+02  0.4176E+03  0.4169E+03
      3.150  0.7132E+02  0.6879E+02  0.4216E+03  0.4207E+03
      3.205  0.5394E+02  0.6442E+02  0.4245E+03  0.4242E+03
      3.260  0.6231E+02  0.6278E+02  0.4279E+03  0.4276E+03
      3.315  0.7867E+02  0.6769E+02  0.4322E+03  0.4314E+03
      3.370  0.6985E+02  0.7368E+02  0.4361E+03  0.4354E+03
      3.425  0.5402E+02  0.5999E+02  0.4390E+03  0.4387E+03
      3.479  0.6169E+02  0.5951E+02  0.4424E+03  0.4419E+03
      3.534  0.5333E+02  0.5563E+02  0.4453E+03  0.4450E+03
      3.589  0.4108E+02  0.4030E+02  0.4476E+03  0.4472E+03
      3.644  0.4289E+02  0.4283E+02  0.4499E+03  0.4496E+03
      3.699  0.4429E+02  0.4527E+02  0.4524E+03  0.4520E+03
      3.754  0.4576E+02  0.4593E+02  0.4549E+03  0.4546E+03
      3.808  0.3257E+02  0.3435E+02  0.4567E+03  0.4564E+03
      3.863  0.3971E+02  0.3758E+02  0.4588E+03  0.4585E+03
      3.918  0.2509E+02  0.2657E+02  0.4602E+03  0.4600E+03
      3.973  0.2582E+02  0.2798E+02  0.4616E+03  0.4615E+03
      4.028  0.4323E+02  0.4208E+02  0.4640E+03  0.4638E+03
      4.083  0.3414E+02  0.3368E+02  0.4659E+03  0.4656E+03
      4.137  0.2112E+02  0.2378E+02  0.4670E+03  0.4669E+03
      4.192  0.2152E+02  0.1685E+02  0.4682E+03  0.4679E+03
      4.247  0.2360E+02  0.2224E+02  0.4695E+03  0.4691E+03
      4.302  0.2811E+02  0.2298E+02  0.4710E+03  0.4703E+03
      4.357  0.1656E+02  0.2650E+02  0.4720E+03  0.4718E+03
      4.412  0.1676E+02  0.1955E+02  0.4729E+03  0.4729E+03
      4.466  0.1408E+02  0.1090E+01  0.4736E+03  0.4729E+03
      4.521  0.1973E+02  0.1802E+02  0.4747E+03  0.4739E+03
      4.576  0.1381E+02  0.1962E+02  0.4755E+03  0.4750E+03
      4.631  0.1287E+02  0.8614E+01  0.4762E+03  0.4755E+03
      4.686  0.6190E+01  0.1390E+02  0.4765E+03  0.4762E+03
      4.741  0.1731E+02  0.8292E+01  0.4775E+03  0.4767E+03
      4.795  0.1141E+02  0.1479E+02  0.4781E+03  0.4775E+03
      4.850  0.4270E+02  0.1767E+02  0.4804E+03  0.4785E+03
      4.905  0.2026E+02  0.4170E+02  0.4816E+03  0.4808E+03
      4.960  0.1746E+02  0.2029E+02  0.4825E+03  0.4819E+03
      5.015  0.3008E+02  0.2197E+02  0.4842E+03  0.4831E+03
      5.070  0.3103E+02  0.2882E+02  0.4859E+03  0.4846E+03
      5.124  0.3405E+02  0.2715E+02  0.4877E+03  0.4861E+03
      5.179  0.2753E+02  0.4007E+02  0.4892E+03  0.4883E+03
      5.234  0.4940E+02  0.2786E+02  0.4920E+03  0.4899E+03
      5.289  0.3300E+02  0.5965E+02  0.4938E+03  0.4931E+03
      5.344  0.2544E+02  0.1823E+02  0.4952E+03  0.4941E+03
      5.398  0.4529E+02  0.4672E+02  0.4976E+03  0.4967E+03
      5.453  0.2794E+02  0.3800E+02  0.4992E+03  0.4988E+03
      5.508  0.3937E+02  0.3422E+02  0.5013E+03  0.5007E+03
      5.563  0.4113E+02  0.3980E+02  0.5036E+03  0.5028E+03
      5.618  0.4496E+02  0.4501E+02  0.5061E+03  0.5053E+03
      5.673  0.4341E+02  0.4704E+02  0.5084E+03  0.5079E+03
      5.727  0.3288E+02  0.3618E+02  0.5102E+03  0.5099E+03
      5.782  0.5587E+02  0.4354E+02  0.5133E+03  0.5123E+03
      5.837  0.5837E+02  0.6191E+02  0.5165E+03  0.5156E+03
      5.892  0.3990E+02  0.4832E+02  0.5187E+03  0.5183E+03
      5.947  0.5532E+02  0.4445E+02  0.5217E+03  0.5207E+03
      6.002  0.6907E+02  0.7271E+02  0.5255E+03  0.5247E+03
      6.056  0.5316E+02  0.5618E+02  0.5284E+03  0.5278E+03
      6.111  0.3522E+02  0.4292E+02  0.5304E+03  0.5302E+03
      6.166  0.4501E+02  0.3828E+02  0.5328E+03  0.5323E+03
      6.221  0.4544E+02  0.4503E+02  0.5353E+03  0.5347E+03
      6.276  0.6005E+02  0.6358E+02  0.5386E+03  0.5382E+03
      6.331  0.5280E+02  0.4986E+02  0.5415E+03  0.5409E+03
      6.385  0.5303E+02  0.5478E+02  0.5444E+03  0.5439E+03
      6.440  0.5111E+02  0.4860E+02  0.5472E+03  0.5466E+03
      6.495  0.5062E+02  0.5290E+02  0.5500E+03  0.5495E+03
      6.550  0.5771E+02  0.5390E+02  0.5531E+03  0.5525E+03
      6.605  0.7600E+02  0.7630E+02  0.5573E+03  0.5567E+03
      6.660  0.5383E+02  0.5704E+02  0.5603E+03  0.5598E+03
      6.714  0.3789E+02  0.4185E+02  0.5623E+03  0.5621E+03
      6.769  0.5284E+02  0.4907E+02  0.5652E+03  0.5648E+03
      6.824  0.3602E+02  0.3752E+02  0.5672E+03  0.5668E+03
      6.879  0.4267E+02  0.4202E+02  0.5696E+03  0.5691E+03
      6.934  0.5147E+02  0.4912E+02  0.5724E+03  0.5718E+03
      6.989  0.2425E+02  0.2981E+02  0.5737E+03  0.5735E+03
      7.043  0.1476E+02  0.1661E+02  0.5745E+03  0.5744E+03
      7.098  0.1570E+02  0.1803E+02  0.5754E+03  0.5754E+03
      7.153  0.8823E+01  0.9306E+01  0.5759E+03  0.5759E+03
      7.208  0.2503E+01  0.2511E+01  0.5760E+03  0.5760E+03
      7.263  0.0000E+00  0.0000E+00  0.5760E+03  0.5760E+03
      7.318  0.0000E+00  0.0000E+00  0.5760E+03  0.5760E+03
      7.372  0.0000E+00  0.0000E+00  0.5760E+03  0.5760E+03
      7.427  0.0000E+00  0.0000E+00  0.5760E+03  0.5760E+03
      7.482  0.0000E+00  0.0000E+00  0.5760E+03  0.5760E+03
      7.537  0.0000E+00  0.0000E+00  0.5760E+03  0.5760E+03
      7.592  0.0000E+00  0.0000E+00  0.5760E+03  0.5760E+03
      7.647  0.0000E+00  0.0000E+00  0.5760E+03  0.5760E+03
      7.701  0.0000E+00  0.0000E+00  0.5760E+03  0.5760E+03
      7.756  0.0000E+00  0.0000E+00  0.5760E+03  0.5760E+03
      7.811  0.0000E+00  0.0000E+00  0.5760E+03  0.5760E+03
      7.866  0.0000E+00  0.0000E+00  0.5760E+03  0.5760E+03
      7.921  0.0000E+00  0.0000E+00  0.5760E+03  0.5760E+03
