 vasp.6.4.3 19Mar24 (build Oct 22 2024 11:23:12) complex                        
  
 executed on             LinuxIFC date 2025.06.08  20:02:37
 running   64 mpi-ranks, on    4 nodes
 distrk:  each k-point on   64 cores,    1 groups
 distr:  one band on NCORE=  16 cores,    4 groups


--------------------------------------------------------------------------------------------------------


 INCAR:
   SYSTEM = Si and Ge interface calculation
   ISTART = 0
   ICHARG = 2
   LWAVE = .FALSE.
   LREAL = AUTO
   ENCUT = 700
   ENAUG = 900
   ADDGRID = .TRUE.
   LMAXMIX = 6
   LASPH = .TRUE.
   LMIXTAU = .TRUE.
   NCORE = 16
   NELM = 100
   NBANDS = 404
   EDIFF = 1d-7
   AMIX = 0.6
   ISMEAR = 0
   SIGMA = 0.01
   NELECT = 672
   ISPIN = 2
   NUPDOWN = 1
   LVTOT = .FALSE.
   LVHAR = .TRUE.

 POTCAR:    PAW_PBE Ge 05Jan2001                  
 POTCAR:    PAW_PBE Sn 08Apr2002                  
 -----------------------------------------------------------------------------
|                                                                             |
|           W    W    AA    RRRRR   N    N  II  N    N   GGGG   !!!           |
|           W    W   A  A   R    R  NN   N  II  NN   N  G    G  !!!           |
|           W    W  A    A  R    R  N N  N  II  N N  N  G       !!!           |
|           W WW W  AAAAAA  RRRRR   N  N N  II  N  N N  G  GGG   !            |
|           WW  WW  A    A  R   R   N   NN  II  N   NN  G    G                |
|           W    W  A    A  R    R  N    N  II  N    N   GGGG   !!!           |
|                                                                             |
|     You use a magnetic or noncollinear calculation, but did not specify     |
|     the initial magnetic moment with the MAGMOM tag. Note that a            |
|     default of 5.952e-3 will be used for all atoms. This ferromagnetic      |
|     setup may break the symmetry of the crystal, in particular it may       |
|     rule out finding an antiferromagnetic solution. Thence, we              |
|     recommend setting the initial magnetic moment manually or verifying     |
|     carefully that this magnetic setup is desired.                          |
|                                                                             |
 -----------------------------------------------------------------------------

 POTCAR:    PAW_PBE Ge 05Jan2001                  
   VRHFIN =Ge: s2p2                                                                                 
   LEXCH  = PE                                                                                      
   EATOM  =   104.9960 eV,    7.7170 Ry                                                             
                                                                                                    
   TITEL  = PAW_PBE Ge 05Jan2001                                                                    
   LULTRA =        F    use ultrasoft PP ?                                                          
   IUNSCR =        1    unscreen: 0-lin 1-nonlin 2-no                                               
   RPACOR =    2.170    partial core radius                                                         
   POMASS =   72.610; ZVAL   =    4.000    mass and valenz                                          
   RCORE  =    2.300    outmost cutoff radius                                                       
   RWIGS  =    2.300; RWIGS  =    1.217    wigner-seitz radius (au A)                               
   ENMAX  =  173.807; ENMIN  =  130.355 eV                                                          
   ICORE  =        3    local potential                                                             
   LCOR   =        T    correct aug charges                                                         
   LPAW   =        T    paw PP                                                                      
   EAUG   =  385.843                                                                                
   DEXC   =    0.000                                                                                
   RMAX   =    2.342    core radius for proj-oper                                                   
   RAUG   =    1.300    factor for augmentation sphere                                              
   RDEP   =    2.318    radius for radial grids                                                     
   RDEPT  =    2.103    core radius for aug-charge                                                  
                                                                                                    
   Atomic configuration                                                                             
   10 entries                                                                                       
     n  l   j            E        occ.                                                              
     1  0  0.50    -10959.8463   2.0000                                                             
     2  0  0.50     -1371.6056   2.0000                                                             
     2  1  1.50     -1198.4791   6.0000                                                             
     3  0  0.50      -168.4733   2.0000                                                             
     3  1  1.50      -115.6019   6.0000                                                             
     3  2  2.50       -29.3106  10.0000                                                             
     4  0  0.50       -11.7309   2.0000                                                             
     4  1  0.50        -3.8952   2.0000                                                             
     4  2  1.50        -4.0817   0.0000                                                             
     4  3  2.50        -4.0817   0.0000                                                             
   Description                                                                                      
     l       E           TYP  RCUT    TYP  RCUT                                                     
     0    -11.7309493     23  2.300                                                                 
     0     -7.4578696     23  2.300                                                                 
     1     -3.8952261     23  2.300                                                                 
     1      6.1178114     23  2.300                                                                 
     2     -4.0817478     23  2.300                                                                 
     3     -1.3605826      7  2.300                                                                 
  local pseudopotential read in
  partial core-charges read in
  partial kinetic energy density read in
  atomic valenz-charges read in
  non local Contribution for L=           0  read in
    real space projection operators read in
  non local Contribution for L=           0  read in
    real space projection operators read in
  non local Contribution for L=           1  read in
    real space projection operators read in
  non local Contribution for L=           1  read in
    real space projection operators read in
  non local Contribution for L=           2  read in
    real space projection operators read in
    PAW grid and wavefunctions read in
 
   number of l-projection  operators is LMAX  =           5
   number of lm-projection operators is LMMAX =          13
 
 POTCAR:    PAW_PBE Sn 08Apr2002                  
   VRHFIN =Sn: s2p2                                                                                 
   LEXCH  = PE                                                                                      
   EATOM  =    94.0860 eV,    6.9151 Ry                                                             
                                                                                                    
   TITEL  = PAW_PBE Sn 08Apr2002                                                                    
   LULTRA =        F    use ultrasoft PP ?                                                          
   IUNSCR =        1    unscreen: 0-lin 1-nonlin 2-no                                               
   RPACOR =    2.000    partial core radius                                                         
   POMASS =  118.710; ZVAL   =    4.000    mass and valenz                                          
   RCORE  =    3.000    outmost cutoff radius                                                       
   RWIGS  =    2.960; RWIGS  =    1.566    wigner-seitz radius (au A)                               
   ENMAX  =  103.236; ENMIN  =   77.427 eV                                                          
   ICORE  =        3    local potential                                                             
   LCOR   =        T    correct aug charges                                                         
   LPAW   =        T    paw PP                                                                      
   EAUG   =  263.585                                                                                
   DEXC   =    0.000                                                                                
   RMAX   =    3.078    core radius for proj-oper                                                   
   RAUG   =    1.300    factor for augmentation sphere                                              
   RDEP   =    3.022    radius for radial grids                                                     
   RDEPT  =    2.655    core radius for aug-charge                                                  
                                                                                                    
   Atomic configuration                                                                             
   13 entries                                                                                       
     n  l   j            E        occ.                                                              
     1  0  0.50    -29007.2859   2.0000                                                             
     2  0  0.50     -4378.8056   2.0000                                                             
     2  1  1.50     -3930.4293   6.0000                                                             
     3  0  0.50      -845.0264   2.0000                                                             
     3  1  1.50      -698.5725   6.0000                                                             
     3  2  2.50      -473.2839  10.0000                                                             
     4  0  0.50      -133.9036   2.0000                                                             
     4  1  1.50       -89.6752   6.0000                                                             
     4  2  2.50       -25.8375  10.0000                                                             
     5  0  0.50       -10.5484   2.0000                                                             
     5  1  0.50        -3.6940   2.0000                                                             
     5  2  1.50        -1.3606   0.0000                                                             
     4  3  2.50        -4.0817   0.0000                                                             
   Description                                                                                      
     l       E           TYP  RCUT    TYP  RCUT                                                     
     0    -10.5483727     23  3.000                                                                 
     0     27.2116520     23  3.000                                                                 
     1     -3.6939829     23  3.000                                                                 
     1      1.9821976     23  3.000                                                                 
     2     -1.3605826     23  3.000                                                                 
     3     -2.7211652     23  3.000                                                                 
  local pseudopotential read in
  partial core-charges read in
  partial kinetic energy density read in
  atomic valenz-charges read in
  non local Contribution for L=           0  read in
    real space projection operators read in
  non local Contribution for L=           0  read in
    real space projection operators read in
  non local Contribution for L=           1  read in
    real space projection operators read in
  non local Contribution for L=           1  read in
    real space projection operators read in
  non local Contribution for L=           2  read in
    real space projection operators read in
    PAW grid and wavefunctions read in
 
   number of l-projection  operators is LMAX  =           5
   number of lm-projection operators is LMMAX =          13
 
 Optimization of the real space projectors (new method)

 maximal supplied QI-value         = 16.25
 optimisation between [QCUT,QGAM] = [ 13.49, 26.98] = [ 50.95,203.80] Ry 
 Optimized for a Real-space Cutoff    1.25 Angstroem

   l    n(q)    QCUT    max X(q) W(low)/X(q) W(high)/X(q)  e(spline) 
   0     10    13.489    65.336    0.91E-04    0.11E-03    0.34E-06
   0     10    13.489    52.220    0.89E-04    0.11E-03    0.34E-06
   1     10    13.489    36.409    0.22E-03    0.27E-03    0.14E-06
   1     10    13.489    21.334    0.21E-03    0.27E-03    0.14E-06
   2      9    13.489     4.673    0.11E-03    0.12E-03    0.19E-06
 Optimization of the real space projectors (new method)

 maximal supplied QI-value         = 12.47
 optimisation between [QCUT,QGAM] = [ 12.47, 27.06] = [ 43.56,205.12] Ry 
 Optimized for a Real-space Cutoff    1.58 Angstroem

   l    n(q)    QCUT    max X(q) W(low)/X(q) W(high)/X(q)  e(spline) 
   0     13    12.472    14.688    0.45E-04    0.45E-04    0.25E-05
   0     13    12.472     7.308    0.94E-04    0.11E-03    0.61E-05
   1     12    12.472    45.102    0.34E-03    0.14E-03    0.21E-05
   1     12    12.472    30.691    0.31E-03    0.13E-03    0.20E-05
   2     12    12.472     7.156    0.86E-04    0.11E-03    0.17E-05
 WARNING: PSMAXN for non-local potential too small
          PSMAXN should be >   13.5545592237991       NTYP=           2
  PAW_PBE Ge 05Jan2001                  :
 energy of atom  1       EATOM= -104.9960
 kinetic energy error for atom=    0.0001 (will be added to EATOM!!)
  PAW_PBE Sn 08Apr2002                  :
 energy of atom  2       EATOM=  -94.0860
 kinetic energy error for atom=    0.0000 (will be added to EATOM!!)
 
 
 POSCAR: Ge+Sn
  positions in direct lattice
  No initial velocities read in


 exchange-correlation table for PE
   RHO(1)=    0.500       N(1)  =     2000
   RHO(2)=  100.500       N(2)  =     4000
 


--------------------------------------------------------------------------------------------------------


 ion  position               nearest neighbor table
   1  0.971  0.456  0.000- 150 1.85 125 2.36  74 2.45  91 2.45  55 2.45 161 3.27
   2  0.721  0.081  0.093- 108 2.11  92 2.45  56 2.45  75 2.45  67 2.45 162 3.00
   3  0.471  0.706  0.186-  76 2.45  57 2.45  93 2.45  68 2.45
   4  0.221  0.331  0.279-  69 2.45  77 2.45  58 2.45  94 2.45
   5  0.971  0.956  0.373-  97 2.07  95 2.45  78 2.45  59 2.45  70 2.45 145 3.07
   6  0.721  0.581  0.466- 163 1.89 128 2.39  60 2.45  96 2.45  71 2.45 146 3.20
   7  0.471  0.456  0.000- 168 1.57 114 1.80  80 2.45  85 2.45  49 2.45 132 2.83
   8  0.221  0.081  0.093-  61 2.45  86 2.45  50 2.45  81 2.45 144 3.15
   9  0.971  0.706  0.186-  82 2.45  51 2.45  87 2.45  62 2.45
  10  0.721  0.331  0.279-  63 2.45  83 2.45  52 2.45  88 2.45
  11  0.471  0.956  0.373-  64 2.45  84 2.45  89 2.45  53 2.45 151 3.23
  12  0.221  0.581  0.466- 139 1.62 109 1.67  54 2.45  90 2.45  65 2.45 121 2.96
  13  0.971  0.956  0.000- 162 1.85 101 2.36  79 2.45  67 2.45  86 2.45 149 3.27
  14  0.721  0.581  0.093- 132 2.11  80 2.45  68 2.45  87 2.45  55 2.45 150 3.00
  15  0.471  0.206  0.186-  81 2.45  69 2.45  88 2.45  56 2.45
  16  0.221  0.831  0.279-  57 2.45  70 2.45  89 2.45  82 2.45
  17  0.971  0.456  0.373- 121 2.07  83 2.45  90 2.45  71 2.45  58 2.45 157 3.07
  18  0.721  0.081  0.466- 133 1.89 104 2.39  72 2.45  84 2.45  59 2.45 158 3.20
  19  0.471  0.956  0.000- 138 1.57 120 1.80  73 2.45  92 2.45  61 2.45 108 2.83
  20  0.221  0.581  0.093-  74 2.45  49 2.45  62 2.45  93 2.45 156 3.15
  21  0.971  0.206  0.186-  75 2.45  63 2.45  50 2.45  94 2.45
  22  0.721  0.831  0.279-  64 2.45  51 2.45  95 2.45  76 2.45
  23  0.471  0.456  0.373-  96 2.45  77 2.45  52 2.45  65 2.45 139 3.23
  24  0.221  0.081  0.466- 151 1.62 115 1.67  66 2.45  53 2.45  78 2.45  97 2.96
  25  0.971  0.706  0.000- 102 0.53 150 2.33  55 2.45  62 2.45  79 2.45 149 2.95 156 3.19
  26  0.721  0.331  0.093-  56 2.45  80 2.45  63 2.45  91 2.45 168 2.75
  27  0.471  0.956  0.186-  57 2.45  64 2.45  92 2.45  81 2.45
  28  0.221  0.581  0.279-  65 2.45  93 2.45  58 2.45  82 2.45
  29  0.971  0.206  0.373-  66 2.45  59 2.45  83 2.45  94 2.45 157 2.73
  30  0.721  0.831  0.466- 127 0.66 145 2.23  60 2.45  84 2.45  95 2.45 134 2.98 163 3.31
  31  0.471  0.706  0.000-  49 2.45  68 2.45  73 2.45 156 2.53 167 2.78 113 2.92 132 3.16 138 3.34

  32  0.221  0.331  0.093-  50 2.45  85 2.45  69 2.45  74 2.45 144 2.57 114 2.61
  33  0.971  0.956  0.186-  86 2.45  51 2.45  70 2.45  75 2.45
  34  0.721  0.581  0.279-  87 2.45  71 2.45  52 2.45  76 2.45
  35  0.471  0.206  0.373-  72 2.45  53 2.45  88 2.45  77 2.45 133 2.54 115 2.69
  36  0.221  0.831  0.466- 151 2.44  54 2.45  78 2.45  89 2.45 152 2.81 116 2.84 109 3.18
  37  0.971  0.206  0.000- 126 0.53 162 2.33  91 2.45  67 2.45  50 2.45 161 2.95 144 3.19
  38  0.721  0.831  0.093-  68 2.45  92 2.45  51 2.45  79 2.45 138 2.75
  39  0.471  0.456  0.186-  52 2.45  69 2.45  93 2.45  80 2.45
  40  0.221  0.081  0.279-  81 2.45  70 2.45  94 2.45  53 2.45
  41  0.971  0.706  0.373-  95 2.45  71 2.45  54 2.45  82 2.45 145 2.73
  42  0.721  0.331  0.466- 103 0.66 157 2.23  96 2.45  72 2.45  83 2.45 164 2.98 133 3.31
  43  0.471  0.206  0.000-  85 2.45  56 2.45  61 2.45 144 2.53 137 2.78 119 2.92 108 3.16 168 3.34

  44  0.221  0.831  0.093-  62 2.45  86 2.45  73 2.45  57 2.45 156 2.57 120 2.61
  45  0.971  0.456  0.186-  58 2.45  63 2.45  87 2.45  74 2.45
  46  0.721  0.081  0.279-  75 2.45  64 2.45  88 2.45  59 2.45
  47  0.471  0.706  0.373-  89 2.45  76 2.45  65 2.45  60 2.45 163 2.54 109 2.69
  48  0.221  0.331  0.466- 139 2.44  90 2.45  77 2.45  66 2.45 140 2.81 110 2.84 115 3.18
  49  0.346  0.581  0.000-  31 2.45  20 2.45   7 2.45 113 2.54 156 2.65 114 2.92 143 2.99
  50  0.096  0.206  0.093- 126 2.31  32 2.45  37 2.45  21 2.45   8 2.45 144 2.69
  51  0.846  0.831  0.186-  22 2.45  33 2.45   9 2.45  38 2.45
  52  0.596  0.456  0.279-  39 2.45  10 2.45  34 2.45  23 2.45
  53  0.346  0.081  0.373- 115 2.28  24 2.45  40 2.45  35 2.45  11 2.45 151 2.77
  54  0.096  0.706  0.466-  12 2.45  36 2.45  41 2.45  98 2.57 145 2.68 109 2.84 152 2.91
  55  0.846  0.581  0.000- 150 0.84 132 2.04  25 2.45   1 2.45  14 2.45 102 2.98 125 3.29
  56  0.596  0.206  0.093-  26 2.45   2 2.45  43 2.45  15 2.45 108 3.12
  57  0.346  0.831  0.186-  16 2.45  27 2.45   3 2.45  44 2.45
  58  0.096  0.456  0.279-  45 2.45   4 2.45  28 2.45  17 2.45
  59  0.846  0.081  0.373-  29 2.45  18 2.45   5 2.45  46 2.45  97 3.09
  60  0.596  0.706  0.466- 163 0.93 127 1.93   6 2.45  30 2.45  47 2.45 109 3.11 128 3.31
  61  0.346  0.081  0.000-   8 2.45  43 2.45  19 2.45 119 2.54 144 2.65 120 2.92 155 2.99
  62  0.096  0.706  0.093- 102 2.31  25 2.45  44 2.45  20 2.45   9 2.45 156 2.69
  63  0.846  0.331  0.186-  10 2.45  21 2.45  45 2.45  26 2.45
  64  0.596  0.956  0.279-  22 2.45  11 2.45  27 2.45  46 2.45
  65  0.346  0.581  0.373- 109 2.28  28 2.45  47 2.45  12 2.45  23 2.45 139 2.77
  66  0.096  0.206  0.466-  24 2.45  29 2.45  48 2.45 122 2.57 157 2.68 115 2.84 140 2.91
  67  0.846  0.081  0.000- 162 0.84 108 2.04  37 2.45  13 2.45   2 2.45 126 2.98 101 3.29
  68  0.596  0.706  0.093-  38 2.45  14 2.45  31 2.45   3 2.45 132 3.12
  69  0.346  0.331  0.186-   4 2.45  15 2.45  39 2.45  32 2.45
  70  0.096  0.956  0.279-  16 2.45  40 2.45  33 2.45   5 2.45
  71  0.846  0.581  0.373-  41 2.45  34 2.45  17 2.45   6 2.45 121 3.09
  72  0.596  0.206  0.466- 133 0.93 103 1.93  18 2.45  35 2.45  42 2.45 115 3.11 104 3.31
  73  0.346  0.831  0.000- 120 1.09 156 1.92  19 2.45  44 2.45  31 2.45 138 2.90
  74  0.096  0.456  0.093-  20 2.45   1 2.45  45 2.45  32 2.45
  75  0.846  0.081  0.186-  46 2.45  21 2.45   2 2.45  33 2.45
  76  0.596  0.706  0.279-   3 2.45  47 2.45  22 2.45  34 2.45
  77  0.346  0.331  0.373-  23 2.45   4 2.45  48 2.45  35 2.45 139 3.32
  78  0.096  0.956  0.466-  97 1.16 151 1.80   5 2.45  24 2.45  36 2.45 145 3.03
  79  0.846  0.831  0.000- 102 2.36 149 2.44  13 2.45  25 2.45  38 2.45 131 3.07 138 3.16
  80  0.596  0.456  0.093- 168 2.20  14 2.45   7 2.45  39 2.45  26 2.45 132 2.78
  81  0.346  0.081  0.186-  40 2.45  15 2.45   8 2.45  27 2.45
  82  0.096  0.706  0.279-   9 2.45  16 2.45  28 2.45  41 2.45
  83  0.846  0.331  0.373- 157 2.17  17 2.45  10 2.45  29 2.45  42 2.45 103 2.86
  84  0.596  0.956  0.466- 127 2.39  18 2.45  30 2.45  11 2.45 134 2.47 104 3.00 133 3.09
  85  0.346  0.331  0.000- 114 1.09 144 1.92  32 2.45  43 2.45   7 2.45 168 2.90
  86  0.096  0.956  0.093-  33 2.45  44 2.45  13 2.45   8 2.45
  87  0.846  0.581  0.186-  34 2.45  45 2.45   9 2.45  14 2.45
  88  0.596  0.206  0.279-  15 2.45  46 2.45  10 2.45  35 2.45
  89  0.346  0.831  0.373-  47 2.45  16 2.45  11 2.45  36 2.45 151 3.32
  90  0.096  0.456  0.466- 121 1.16 139 1.80  17 2.45  48 2.45  12 2.45 157 3.03
  91  0.846  0.331  0.000- 126 2.36 161 2.44  37 2.45   1 2.45  26 2.45 107 3.07 168 3.16
  92  0.596  0.956  0.093- 138 2.20  38 2.45   2 2.45  27 2.45  19 2.45 108 2.78
  93  0.346  0.581  0.186-  28 2.45  39 2.45   3 2.45  20 2.45
  94  0.096  0.206  0.279-  40 2.45   4 2.45  21 2.45  29 2.45
  95  0.846  0.831  0.373- 145 2.17  41 2.45   5 2.45  22 2.45  30 2.45 127 2.86
  96  0.596  0.456  0.466- 103 2.39  23 2.45  42 2.45   6 2.45 164 2.47 128 3.00 163 3.09
  97  0.000  0.982  0.466-  78 1.16   5 2.07 158 2.82 145 2.83 151 2.83  24 2.96  59 3.09
  98  1.000  0.732  0.573-  54 2.57 145 2.82 159 2.82 146 2.83 152 2.83
  99  1.000  0.482  0.679- 160 2.82 146 2.82 147 2.83 153 2.83
 100  1.000  0.232  0.786- 161 2.82 147 2.82 148 2.83 154 2.83
 101  1.000  0.982  0.893-  13 2.36 148 2.82 162 2.82 149 2.83 155 2.83  67 3.29
 102  1.000  0.732  0.000-  25 0.53  62 2.31  79 2.36 149 2.82 156 2.83 150 2.83  55 2.98
 103  0.667  0.315  0.466-  42 0.66  72 1.93  96 2.39 164 2.82 133 2.83 157 2.83  83 2.86
 104  0.667  0.065  0.573-  18 2.39 133 2.82 165 2.82 134 2.83 158 2.83  84 3.00  72 3.31
 105  0.667  0.815  0.679- 166 2.82 134 2.82 159 2.83 135 2.83
 106  0.667  0.565  0.786- 135 2.82 167 2.82 160 2.83 136 2.83
 107  0.667  0.315  0.893- 168 2.82 136 2.82 161 2.83 137 2.83  91 3.07
 108  0.667  0.065  0.000-  67 2.04   2 2.11  92 2.78 137 2.82  19 2.83 138 2.83 162 2.83  56 3.12
                            43 3.16
 109  0.333  0.649  0.466-  12 1.67  65 2.28  47 2.69 152 2.82 163 2.83 139 2.83  54 2.84  60 3.11
                            36 3.18
 110  0.333  0.399  0.573- 139 2.82 153 2.82 164 2.83 140 2.83  48 2.84
 111  0.333  0.149  0.679- 154 2.82 140 2.82 165 2.83 141 2.83
 112  0.333  0.899  0.786- 141 2.82 155 2.82 166 2.83 142 2.83
 113  0.333  0.649  0.893-  49 2.54 156 2.82 142 2.82 167 2.83 143 2.83  31 2.92
 114  0.333  0.399  0.000-  85 1.09   7 1.80  32 2.61 143 2.82 168 2.83 144 2.83  49 2.92
 115  0.333  0.149  0.466-  24 1.67  53 2.28  35 2.69 140 2.82 133 2.83 151 2.83  66 2.84  72 3.11
                            48 3.18
 116  0.333  0.899  0.573- 151 2.82 141 2.82 152 2.83 134 2.83  36 2.84
 117  0.333  0.649  0.679- 142 2.82 152 2.82 135 2.83 153 2.83
 118  0.333  0.399  0.786- 153 2.82 143 2.82 136 2.83 154 2.83
 119  0.333  0.149  0.893-  61 2.54 154 2.82 144 2.82 155 2.83 137 2.83  43 2.92
 120  0.333  0.899  0.000-  73 1.09  19 1.80  44 2.61 155 2.82 138 2.83 156 2.83  61 2.92
 121  0.000  0.482  0.466-  90 1.16  17 2.07 146 2.82 157 2.83 139 2.83  12 2.96  71 3.09
 122  1.000  0.232  0.573-  66 2.57 157 2.82 147 2.82 158 2.83 140 2.83
 123  1.000  0.982  0.679- 148 2.82 158 2.82 159 2.83 141 2.83
 124  1.000  0.732  0.786- 149 2.82 159 2.82 160 2.83 142 2.83
 125  1.000  0.482  0.893-   1 2.36 160 2.82 150 2.82 161 2.83 143 2.83  55 3.29
 126  1.000  0.232  0.000-  37 0.53  50 2.31  91 2.36 161 2.82 162 2.83 144 2.83  67 2.98
 127  0.667  0.815  0.466-  30 0.66  60 1.93  84 2.39 134 2.82 145 2.83 163 2.83  95 2.86
 128  0.667  0.565  0.573-   6 2.39 135 2.82 163 2.82 146 2.83 164 2.83  96 3.00  60 3.31
 129  0.667  0.315  0.679- 136 2.82 164 2.82 147 2.83 165 2.83
 130  0.667  0.065  0.786- 137 2.82 165 2.82 148 2.83 166 2.83
 131  0.667  0.815  0.893- 138 2.82 166 2.82 149 2.83 167 2.83  79 3.07
 132  0.667  0.565  0.000-  55 2.04  14 2.11  80 2.78 167 2.82   7 2.83 150 2.83 168 2.83  68 3.12
                            31 3.16
 133  0.583  0.149  0.466-  72 0.93  18 1.89  35 2.54 104 2.82 115 2.83 103 2.83  84 3.09  42 3.31

 134  0.583  0.899  0.573-  84 2.47 127 2.82 105 2.82 104 2.83 116 2.83  30 2.98
 135  0.583  0.649  0.679- 106 2.82 128 2.82 117 2.83 105 2.83
 136  0.583  0.399  0.786- 129 2.82 107 2.82 118 2.83 106 2.83
 137  0.583  0.149  0.893-  43 2.78 130 2.82 108 2.82 107 2.83 119 2.83
 138  0.583  0.899  0.000-  19 1.57  92 2.20  38 2.75 131 2.82 108 2.83 120 2.83  73 2.90  79 3.16
                            31 3.34
 139  0.250  0.482  0.466-  12 1.62  90 1.80  48 2.44  65 2.77 110 2.82 121 2.83 109 2.83  23 3.23
                            77 3.32
 140  0.250  0.232  0.573-  48 2.81 115 2.82 111 2.82 122 2.83 110 2.83  66 2.91
 141  0.250  0.982  0.679- 112 2.82 116 2.82 123 2.83 111 2.83
 142  0.250  0.732  0.786- 117 2.82 113 2.82 124 2.83 112 2.83
 143  0.250  0.482  0.893- 114 2.82 118 2.82 125 2.83 113 2.83  49 2.99
 144  0.250  0.232  0.000-  85 1.92  43 2.53  32 2.57  61 2.65  50 2.69 119 2.82 126 2.83 114 2.83
                             8 3.15  37 3.19
 145  0.917  0.815  0.466-  95 2.17  30 2.23  54 2.68  41 2.73  98 2.82  97 2.83 127 2.83  78 3.03
                             5 3.07
 146  0.917  0.565  0.573- 121 2.82  99 2.82  98 2.83 128 2.83   6 3.20
 147  0.917  0.315  0.679- 100 2.82 122 2.82 129 2.83  99 2.83
 148  0.917  0.065  0.786- 123 2.82 101 2.82 100 2.83 130 2.83
 149  0.917  0.815  0.893-  79 2.44 124 2.82 102 2.82 101 2.83 131 2.83  25 2.95  13 3.27
 150  0.917  0.565  0.000-  55 0.84   1 1.85  25 2.33 125 2.82 132 2.83 102 2.83  14 3.00
 151  0.250  0.982  0.466-  24 1.62  78 1.80  36 2.44  53 2.77 116 2.82 115 2.83  97 2.83  11 3.23
                            89 3.32
 152  0.250  0.732  0.573-  36 2.81 109 2.82 117 2.82 116 2.83  98 2.83  54 2.91
 153  0.250  0.482  0.679- 118 2.82 110 2.82  99 2.83 117 2.83
 154  0.250  0.232  0.786- 111 2.82 119 2.82 118 2.83 100 2.83
 155  0.250  0.982  0.893- 120 2.82 112 2.82 119 2.83 101 2.83  61 2.99
 156  0.250  0.732  0.000-  73 1.92  31 2.53  44 2.57  49 2.65  62 2.69 113 2.82 102 2.83 120 2.83
                            20 3.15  25 3.19
 157  0.917  0.315  0.466-  83 2.17  42 2.23  66 2.68  29 2.73 122 2.82 121 2.83 103 2.83  90 3.03
                            17 3.07
 158  0.917  0.065  0.573-  97 2.82 123 2.82 122 2.83 104 2.83  18 3.20
 159  0.917  0.815  0.679- 124 2.82  98 2.82 105 2.83 123 2.83
 160  0.917  0.565  0.786-  99 2.82 125 2.82 124 2.83 106 2.83
 161  0.917  0.315  0.893-  91 2.44 100 2.82 126 2.82 125 2.83 107 2.83  37 2.95   1 3.27
 162  0.917  0.065  0.000-  67 0.84  13 1.85  37 2.33 101 2.82 126 2.83 108 2.83   2 3.00
 163  0.583  0.649  0.466-  60 0.93   6 1.89  47 2.54 128 2.82 109 2.83 127 2.83  96 3.09  30 3.31

 164  0.583  0.399  0.573-  96 2.47 103 2.82 129 2.82 110 2.83 128 2.83  42 2.98
 165  0.583  0.149  0.679- 130 2.82 104 2.82 111 2.83 129 2.83
 166  0.583  0.899  0.786- 105 2.82 131 2.82 112 2.83 130 2.83
 167  0.583  0.649  0.893-  31 2.78 106 2.82 132 2.82 131 2.83 113 2.83
 168  0.583  0.399  0.000-   7 1.57  80 2.20  26 2.75 107 2.82 132 2.83 114 2.83  85 2.90  91 3.16
                            43 3.34
 
 -----------------------------------------------------------------------------
|                                                                             |
|           W    W    AA    RRRRR   N    N  II  N    N   GGGG   !!!           |
|           W    W   A  A   R    R  NN   N  II  NN   N  G    G  !!!           |
|           W    W  A    A  R    R  N N  N  II  N N  N  G       !!!           |
|           W WW W  AAAAAA  RRRRR   N  N N  II  N  N N  G  GGG   !            |
|           WW  WW  A    A  R   R   N   NN  II  N   NN  G    G                |
|           W    W  A    A  R    R  N    N  II  N    N   GGGG   !!!           |
|                                                                             |
|     The distance between some ions is very small. Please check the          |
|     nearest-neighbor list in the OUTCAR file.                               |
|     I HOPE YOU KNOW WHAT YOU ARE DOING!                                     |
|                                                                             |
 -----------------------------------------------------------------------------

  LATTYP: Found a simple orthorhombic cell.
 ALAT       =    11.3156003950
 B/A-ratio  =     1.4142136035
 C/A-ratio  =     1.8976516921
  
  Lattice vectors:
  
 A1 = (  11.3156003950,   0.0000000000,   0.0000000000)
 A2 = (   0.0000000000,  16.0026760100,   0.0000000000)
 A3 = (   0.0000000000,   0.0000000000,  21.4730682370)


Analysis of symmetry for initial positions (statically):
=====================================================================
 Subroutine PRICEL returns following result:
 
  LATTYP: Found a simple orthorhombic cell.
 ALAT       =     8.0013360847
 B/A-ratio  =     1.4142138607
 C/A-ratio  =     2.6836853258
  
  Lattice vectors:
  
 A1 = (   0.0000000000,  -8.0013360847,   0.0000000000)
 A2 = (  11.3156003950,   0.0000000000,   0.0000000000)
 A3 = (   0.0000000000,   0.0000000000,  21.4730682370)
 
   2 primitive cells build up your supercell.
 

 Routine SETGRP: Setting up the symmetry group for a 
 simple orthorhombic supercell.


 Subroutine GETGRP returns: Found  1 space group operations
 (whereof  1 operations were pure point group operations)
 out of a pool of  8 trial point group operations.


The static configuration has the point symmetry C_1 .


Analysis of symmetry for dynamics (positions and initial velocities):
=====================================================================
 Subroutine PRICEL returns following result:
 
  LATTYP: Found a simple orthorhombic cell.
 ALAT       =     8.0013360847
 B/A-ratio  =     1.4142138607
 C/A-ratio  =     2.6836853258
  
  Lattice vectors:
  
 A1 = (   0.0000000000,  -8.0013360847,   0.0000000000)
 A2 = (  11.3156003950,   0.0000000000,   0.0000000000)
 A3 = (   0.0000000000,   0.0000000000,  21.4730682370)
 
   2 primitive cells build up your supercell.
 

 Routine SETGRP: Setting up the symmetry group for a 
 simple orthorhombic supercell.


 Subroutine GETGRP returns: Found  1 space group operations
 (whereof  1 operations were pure point group operations)
 out of a pool of  8 trial point group operations.


The dynamic configuration has the point symmetry C_1 .


Analysis of structural, dynamic, and magnetic symmetry:
=====================================================================
 Subroutine PRICEL returns following result:
 
  LATTYP: Found a simple orthorhombic cell.
 ALAT       =     8.0013360847
 B/A-ratio  =     1.4142138607
 C/A-ratio  =     2.6836853258
  
  Lattice vectors:
  
 A1 = (   0.0000000000,  -8.0013360847,   0.0000000000)
 A2 = (  11.3156003950,   0.0000000000,   0.0000000000)
 A3 = (   0.0000000000,   0.0000000000,  21.4730682370)
 
   2 primitive cells build up your supercell.
 

 Routine SETGRP: Setting up the symmetry group for a 
 simple orthorhombic supercell.


 Subroutine GETGRP returns: Found  1 space group operations
 (whereof  1 operations were pure point group operations)
 out of a pool of  8 trial point group operations.


The overall configuration has the point symmetry C_1 .


 Subroutine INISYM returns: Found  1 space group operations
 (whereof  1 operations are pure point group operations),
 and found     2 'primitive' translations


----------------------------------------------------------------------------------------

                                     Primitive cell                                     

  volume of cell :    1944.1699

  direct lattice vectors                    reciprocal lattice vectors
     0.000000000 -8.001336085  0.000000000     0.000000000 -0.124979127  0.000000000
    11.315600395  0.000000000  0.000000000     0.088373570  0.000000000  0.000000000
     0.000000000  0.000000000 21.473068237     0.000000000  0.000000000  0.046569963

  length of vectors
     8.001336085 11.315600395 21.473068237     0.124979127  0.088373570  0.046569963

  position of ions in fractional coordinates (direct lattice)
     0.088011463  0.970662773  0.000000022
     0.838011463  0.720662713  0.093155533
     0.588011403  0.470662773  0.186311051
     0.338011345  0.220662892  0.279466480
     0.088011523  0.970662713  0.372622073
     0.838011463  0.720662713  0.465777546
     0.088011463  0.470662773  0.000000022
     0.838011463  0.220662758  0.093155533
     0.588011403  0.970662773  0.186311051
     0.338011345  0.720662832  0.279466480
     0.088011523  0.470662832  0.372622073
     0.838011463  0.220662773  0.465777546
     0.588011403  0.970662773  0.000000025
     0.338011583  0.720662713  0.093155526
     0.088011523  0.470662773  0.186311036
     0.838011225  0.220662892  0.279466510
     0.588011165  0.970662713  0.372621983
     0.338011583  0.720662713  0.465777516
     0.588011403  0.470662773  0.000000025
     0.338011583  0.220662758  0.093155526
     0.088011523  0.970662773  0.186311036
     0.838011225  0.720662832  0.279466510
     0.588011165  0.470662832  0.372621983
     0.338011583  0.220662773  0.465777516
     0.838011343  0.345662743  0.000000031
     0.588011403  0.095662758  0.093155526
     0.338011583  0.845662773  0.186311036
     0.088011285  0.595662832  0.279466480
     0.838011225  0.345662773  0.372621983
     0.588011403  0.095662713  0.465777546
     0.838011343  0.845662832  0.000000031
     0.588011403  0.595662773  0.093155526
     0.338011583  0.345662802  0.186311036
     0.088011285  0.095662884  0.279466480
     0.838011225  0.845662832  0.372621983
     0.588011403  0.595662773  0.465777546
     0.338011583  0.345662743  0.000000022
     0.088011403  0.095662758  0.093155526
     0.838011463  0.845662773  0.186311036
     0.588011405  0.595662832  0.279466510
     0.338011345  0.345662773  0.372621983
     0.088011523  0.095662713  0.465777516
     0.338011583  0.845662832  0.000000022
     0.088011403  0.595662773  0.093155526
     0.838011463  0.345662802  0.186311036
     0.588011405  0.095662884  0.279466510
     0.338011345  0.845662832  0.372621983
     0.088011523  0.595662773  0.465777516
     0.035958775  0.000000000  0.465777546
     0.535959013  0.999999940  0.572621942
     0.035959251  0.999999881  0.679466605
     0.535959729  0.999999821  0.786311030
     0.035959489  0.999999762  0.893155456
     0.535959967  0.999999762  0.000000000
     0.369292167  0.666666746  0.465777546
     0.869292107  0.666666746  0.572622061
     0.369292525  0.666666627  0.679466605
     0.869292703  0.666666627  0.786311030
     0.369292943  0.666666567  0.893155575
     0.869293061  0.666666508  0.000000000
     0.702625321  0.333333403  0.465777546
     0.202625561  0.333333343  0.572621942
     0.702625679  0.333333254  0.679466605
     0.202626275  0.333333254  0.786311030
     0.702626037  0.333333164  0.893155575
     0.202626515  0.333333164  0.000000000
     0.702625321  0.583333433  0.465777606
     0.202625561  0.583333313  0.572622061
     0.702625917  0.583333313  0.679466605
     0.202626157  0.583333194  0.786311030
     0.702626037  0.583333194  0.893155456
     0.202626395  0.583333194  0.000000000
     0.035958833  0.250000000  0.465777606
     0.535959043  0.249999940  0.572621942
     0.035959251  0.249999970  0.679466605
     0.535959609  0.249999881  0.786311030
     0.035959489  0.249999762  0.893155575
     0.535959967  0.249999717  0.000000000
     0.369292167  0.916666806  0.465777606
     0.869292107  0.916666627  0.572621942
     0.369292585  0.916666508  0.679466605
     0.869292703  0.916666627  0.786311030
     0.369292943  0.916666567  0.893155456
     0.869293181  0.916666448  0.000000000

  ion indices of the primitive-cell ions
   primitive index   ion index
                 1           1
                 2          14
                 3           3
                 4           4
                 5          17
                 6           6
                 7           7
                 8          20
                 9           9
                10          10
                11          23
                12          12
                13          25
                14          26
                15          39
                16          28
                17          41
                18          42
                19          31
                20          32
                21          45
                22          34
                23          47
                24          48
                25          49
                26          62
                27          63
                28          52
                29          65
                30          54
                31          55
                32          68
                33          69
                34          58
                35          71
                36          60
                37          85
                38          74
                39          87
                40          88
                41          77
                42          90
                43          91
                44          80
                45          93
                46          94
                47          83
                48          96
                49         121
                50         122
                51          99
                52         100
                53         125
                54         126
                55         103
                56         128
                57         129
                58         106
                59         107
                60         132
                61         109
                62         110
                63         117
                64         118
                65         113
                66         114
                67         163
                68         164
                69         135
                70         136
                71         167
                72         168
                73         139
                74         140
                75         153
                76         154
                77         143
                78         144
                79         157
                80         146
                81         147
                82         160
                83         161
                84         150

----------------------------------------------------------------------------------------

 
 
 KPOINTS: Automatic KPOINTS generated             

Automatic generation of k-mesh.
 Grid dimensions read from file:
 generate k-points for:    3    2    1

 Generating k-lattice:

  Cartesian coordinates                     Fractional coordinates (reciprocal lattice)
     0.029457857  0.000000000  0.000000000     0.333333333  0.000000000  0.000000000
     0.000000000  0.031244774  0.000000000     0.000000000  0.500000000  0.000000000
     0.000000000  0.000000000  0.046569963     0.000000000  0.000000000  1.000000000

  Length of vectors
     0.029457857  0.031244774  0.046569963

  Shift w.r.t. Gamma in fractional coordinates (k-lattice)
     0.000000000  0.000000000  0.000000000

 
 Subroutine IBZKPT returns following result:
 ===========================================
 
 Found      4 irreducible k-points:
 
 Following reciprocal coordinates:
            Coordinates               Weight
  0.000000  0.000000  0.000000      1.000000
  0.333333  0.000000  0.000000      2.000000
  0.000000  0.500000  0.000000      1.000000
  0.333333  0.500000  0.000000      2.000000
 
 Following cartesian coordinates:
            Coordinates               Weight
  0.000000  0.000000  0.000000      1.000000
  0.029458  0.000000  0.000000      2.000000
  0.000000  0.031245  0.000000      1.000000
  0.029458  0.031245  0.000000      2.000000
 


--------------------------------------------------------------------------------------------------------




 Dimension of arrays:
   k-points           NKPTS =      4   k-points in BZ     NKDIM =      4   number of bands    NBANDS=    404
   number of dos      NEDOS =    301   number of ions     NIONS =    168
   non local maximal  LDIM  =      5   non local SUM 2l+1 LMDIM =     13
   total plane-waves  NPLWV = ******
   max r-space proj   IRMAX =   5175   max aug-charges    IRDMAX= 239726
   dimension x,y,z NGX =    80 NGY =  108 NGZ =  140
   dimension x,y,z NGXF=   160 NGYF=  216 NGZF=  280
   support grid    NGXF=   320 NGYF=  432 NGZF=  560
   ions per type =              96  72
   NGX,Y,Z   is equivalent  to a cutoff of  11.75, 11.22, 10.84 a.u.
   NGXF,Y,Z  is equivalent  to a cutoff of  23.51, 22.44, 21.68 a.u.

 SYSTEM =  Si and Ge interface calculation         
 POSCAR =  Ge+Sn                                   

 Startparameter for this run:
   NWRITE =      2    write-flag & timer
   PREC   = normal    normal or accurate (medium, high low for compatibility)
   ISTART =      0    job   : 0-new  1-cont  2-samecut
   ICHARG =      2    charge: 1-file 2-atom 10-const
   ISPIN  =      2    spin polarized calculation?
   LNONCOLLINEAR =      F non collinear calculations
   LSORBIT =      F    spin-orbit coupling
   INIWAV =      1    electr: 0-lowe 1-rand  2-diag
   LASPH  =      T    aspherical Exc in radial PAW
 Electronic Relaxation 1
   ENCUT  =  700.0 eV  51.45 Ry    7.17 a.u.  24.41 34.52 46.32*2*pi/ulx,y,z
   ENINI  =  700.0     initial cutoff
   ENAUG  =  900.0 eV  augmentation charge cutoff
   NELM   =    100;   NELMIN=  2; NELMDL= -5     # of ELM steps 
   EDIFF  = 0.1E-06   stopping-criterion for ELM
   LREAL  =      T    real-space projection
   NLSPLINE    = F    spline interpolate recip. space projectors
   LCOMPAT=      F    compatible to vasp.4.4
   GGA_COMPAT  = T    GGA compatible to vasp.4.4-vasp.4.6
   LMAXPAW     = -100 max onsite density
   LMAXMIX     =    6 max onsite mixed and CHGCAR
   VOSKOWN=      0    Vosko Wilk Nusair interpolation
   ROPT   =   -0.00050  -0.00050
 Ionic relaxation
   EDIFFG = 0.1E-05   stopping-criterion for IOM
   NSW    =      0    number of steps for IOM
   NBLOCK =      1;   KBLOCK =      1    inner block; outer block 
   IBRION =     -1    ionic relax: 0-MD 1-quasi-New 2-CG
   NFREE  =      0    steps in history (QN), initial steepest desc. (CG)
   ISIF   =      2    stress and relaxation
   IWAVPR =     10    prediction:  0-non 1-charg 2-wave 3-comb
   ISYM   =      2    0-nonsym 1-usesym 2-fastsym
   LCORR  =      T    Harris-Foulkes like correction to forces

   POTIM  = 0.5000    time-step for ionic-motion
   TEIN   =    0.0    initial temperature
   TEBEG  =    0.0;   TEEND  =   0.0 temperature during run
   SMASS  =  -3.00    Nose mass-parameter (am)
   estimated Nose-frequenzy (Omega)   =  0.10E-29 period in steps = 0.13E+47 mass=  -0.293E-26a.u.
   SCALEE = 1.0000    scale energy and forces
   NPACO  =    256;   APACO  = 10.0  distance and # of slots for P.C.
   PSTRESS=    0.0 pullay stress

  Mass of Ions in am
   POMASS =  72.61118.71
  Ionic Valenz
   ZVAL   =   4.00  4.00
  Atomic Wigner-Seitz radii
   RWIGS  =  -1.00 -1.00
  virtual crystal weights 
   VCA    =   1.00  1.00
   NELECT =     672.0000    total number of electrons
   NUPDOWN=       1.0000    fix difference up-down

 DOS related values:
   EMIN   =  10.00;   EMAX   =-10.00  energy-range for DOS
   EFERMI =   0.00;   METHOD = LEGACY      
   ISMEAR =     0;   SIGMA  =   0.01  broadening in eV -4-tet -1-fermi 0-gaus

 Electronic relaxation 2 (details)
   IALGO  =     38    algorithm
   LDIAG  =      T    sub-space diagonalisation (order eigenvalues)
   LSUBROT=      F    optimize rotation matrix (better conditioning)
   TURBO    =      0    0=normal 1=particle mesh
   IRESTART =      0    0=no restart 2=restart with 2 vectors
   NREBOOT  =      0    no. of reboots
   NMIN     =      0    reboot dimension
   EREF     =   0.00    reference energy to select bands
   IMIX   =      4    mixing-type and parameters
     AMIX     =   0.60;   BMIX     =  1.00
     AMIX_MAG =   2.40;   BMIX_MAG =  1.00
     AMIN     =   0.10
     WC   =   100.;   INIMIX=   1;  MIXPRE=   1;  MAXMIX= -45

 Intra band minimization:
   WEIMIN = 0.0000     energy-eigenvalue tresh-hold
   EBREAK =  0.62E-10  absolut break condition
   DEPER  =   0.30     relativ break condition  

   TIME   =   0.40     timestep for ELM

  volume/ion in A,a.u.               =      23.14       156.19
  Fermi-wavevector in a.u.,A,eV,Ry     =   0.911891  1.723225 11.313871  0.831546
  Thomas-Fermi vector in A             =   2.036224
 
 Write flags
   LWAVE        =      F    write WAVECAR
   LDOWNSAMPLE  =      F    k-point downsampling of WAVECAR
   LCHARG       =      T    write CHGCAR
   LVTOT        =      F    write LOCPOT, total local potential
   LVHAR        =      T    write LOCPOT, Hartree potential only
   WRT_POTENTIAL=  hartree ionic  ! write potential to hdf5 file
   LELF         =      F    write electronic localiz. function (ELF)
   LORBIT       =      0    0 simple, 1 ext, 2 COOP (PROOUT), +10 PAW based schemes


 Dipole corrections
   LMONO      =      F    monopole corrections only (constant potential shift)
   LDIPOL     =      F    correct potential (dipole corrections)
   IDIPOL     =      0    1-x, 2-y, 3-z, 4-all directions 
   EPSILON    =  1.0000000 bulk dielectric constant
   LVACPOTAV  =      F  vacuum potentials using an averaging scheme for the charge density
   VACPOTFLAT =  0.1000000 required flatness to determine vacuum potential
 Exchange correlation treatment:
   GGA     = PE    functional components
   XC_C    = 1    coefficients multiplying the functional components
   LIBXC   =     F    Libxc                    
   VOSKOWN =     0    Vosko Wilk Nusair interpolation
   LHFCALC =     F    Hartree Fock is set to
   LHFONE  =     F    Hartree Fock one center treatment
   AEXX    =    0.0000 exact exchange contribution

 Parameters of functionals:
   PE:
     No parameter
 
 Van der Waals corrections
   IVDW    =     0    specifies the selected vdW correction

 Linear response parameters
   LEPSILON=     F    determine dielectric tensor
   LRPA    =     F    only Hartree local field effects (RPA)
   LNABLA  =     F    use nabla operator in PAW spheres
   LVEL    =     F    velocity operator in full k-point grid
   CSHIFT  =0.1000    complex shift for real part using Kramers Kronig
   OMEGAMAX=  -1.0    maximum frequency
   DEG_THRESHOLD= 0.2000000E-02 threshold for treating states as degnerate
   RTIME   =   -0.100 relaxation time in fs
  (WPLASMAI=    0.000 imaginary part of plasma frequency in eV, 0.658/RTIME)
   DFIELD  = 0.0000000 0.0000000 0.0000000 field for delta impulse in time
 
  Optional k-point grid parameters
   LKPOINTS_OPT  =     F    use optional k-point grid
   KPOINTS_OPT_MODE=     1    mode for optional k-point grid
 
 Orbital magnetization related:
   ORBITALMAG=     F  switch on orbital magnetization
   LCHIMAG   =     F  perturbation theory with respect to B field
   DQ        =  0.001000  dq finite difference perturbation B field
   LLRAUG    =     F  two centre corrections for induced B field
   LBONE     =     F  B-component reconstruction in AE one-centre
   LVGVCALC  =     T  calculate vGv susceptibility
   LVGVAPPL  =     F  apply vGv susceptibility instead of pGv for G=0

 Random number generation:
   RANDOM_GENERATOR = DEFAULT
   PCG_SEED         = not used


--------------------------------------------------------------------------------------------------------


 Static calculation
 charge density and potential will be updated during run
 spin polarized calculation
 Variant of blocked Davidson
 Davidson routine will perform the subspace rotation
 perform sub-space diagonalisation
    after iterative eigenvector-optimisation
 modified Broyden-mixing scheme, WC =      100.0
 initial mixing is a Kerker type mixing with AMIX =  0.6000 and BMIX =      1.0000
 Hartree-type preconditioning will be used
 using additional bands           68
 real space projection scheme for non local part
 use partial core corrections
 calculate Harris-corrections to forces 
   (improved forces if not selfconsistent)
 use gradient corrections 
 use of overlap-Matrix (Vanderbilt PP)
 Gauss-broadening in eV      SIGMA  =   0.01


--------------------------------------------------------------------------------------------------------


  energy-cutoff  :      700.00
  volume of cell :     3888.34
      direct lattice vectors                 reciprocal lattice vectors
    11.315600395  0.000000000  0.000000000     0.088373570  0.000000000  0.000000000
     0.000000000 16.002676010  0.000000000     0.000000000  0.062489549  0.000000000
     0.000000000  0.000000000 21.473068237     0.000000000  0.000000000  0.046569963

  length of vectors
    11.315600395 16.002676010 21.473068237     0.088373570  0.062489549  0.046569963


 
 k-points in units of 2pi/SCALE and weight: Automatic KPOINTS generated             
   0.00000000  0.00000000  0.00000000       0.167
   0.02945786  0.00000000  0.00000000       0.333
   0.00000000  0.03124477  0.00000000       0.167
   0.02945786  0.03124477  0.00000000       0.333
 
 k-points in reciprocal lattice and weights: Automatic KPOINTS generated             
   0.00000000  0.00000000  0.00000000       0.167
   0.33333333  0.00000000  0.00000000       0.333
   0.00000000  0.50000000  0.00000000       0.167
   0.33333333  0.50000000  0.00000000       0.333
 
 position of ions in fractional coordinates (direct lattice) 
   0.97066277  0.45599416  0.00000002
   0.72066271  0.08099414  0.09315553
   0.47066277  0.70599413  0.18631105
   0.22066289  0.33099425  0.27946648
   0.97066271  0.95599413  0.37262198
   0.72066271  0.58099413  0.46577755
   0.47066277  0.45599416  0.00000002
   0.22066276  0.08099414  0.09315553
   0.97066277  0.70599413  0.18631105
   0.72066283  0.33099425  0.27946648
   0.47066283  0.95599413  0.37262198
   0.22066277  0.58099413  0.46577755
   0.97066277  0.95599413  0.00000002
   0.72066271  0.58099413  0.09315553
   0.47066277  0.20599413  0.18631104
   0.22066289  0.83099437  0.27946648
   0.97066271  0.45599413  0.37262207
   0.72066271  0.08099413  0.46577752
   0.47066277  0.95599413  0.00000002
   0.22066276  0.58099413  0.09315553
   0.97066277  0.20599413  0.18631104
   0.72066283  0.83099437  0.27946648
   0.47066283  0.45599413  0.37262207
   0.22066277  0.08099413  0.46577752
   0.97066277  0.70599413  0.00000002
   0.72066271  0.33099413  0.09315553
   0.47066277  0.95599413  0.18631104
   0.22066289  0.58099425  0.27946651
   0.97066271  0.20599419  0.37262207
   0.72066271  0.83099413  0.46577755
   0.47066277  0.70599413  0.00000002
   0.22066276  0.33099413  0.09315553
   0.97066277  0.95599413  0.18631104
   0.72066283  0.58099425  0.27946651
   0.47066283  0.20599419  0.37262207
   0.22066277  0.83099413  0.46577755
   0.97066277  0.20599414  0.00000002
   0.72066271  0.83099413  0.09315553
   0.47066277  0.45599413  0.18631104
   0.22066289  0.08099425  0.27946651
   0.97066271  0.70599425  0.37262198
   0.72066271  0.33099413  0.46577752
   0.47066277  0.20599414  0.00000002
   0.22066276  0.83099413  0.09315553
   0.97066277  0.45599413  0.18631104
   0.72066283  0.08099425  0.27946651
   0.47066283  0.70599425  0.37262198
   0.22066277  0.33099413  0.46577752
   0.34566274  0.58099419  0.00000003
   0.09566276  0.20599416  0.09315553
   0.84566277  0.83099413  0.18631104
   0.59566283  0.45599425  0.27946648
   0.34566277  0.08099419  0.37262207
   0.09566271  0.70599413  0.46577755
   0.84566283  0.58099419  0.00000003
   0.59566277  0.20599416  0.09315553
   0.34566280  0.83099413  0.18631104
   0.09566288  0.45599425  0.27946648
   0.84566283  0.08099419  0.37262207
   0.59566277  0.70599413  0.46577755
   0.34566274  0.08099414  0.00000002
   0.09566276  0.70599413  0.09315553
   0.84566277  0.33099413  0.18631104
   0.59566283  0.95599425  0.27946651
   0.34566277  0.58099425  0.37262198
   0.09566271  0.20599401  0.46577752
   0.84566283  0.08099414  0.00000002
   0.59566277  0.70599413  0.09315553
   0.34566280  0.33099413  0.18631104
   0.09566288  0.95599425  0.27946651
   0.84566283  0.58099425  0.37262198
   0.59566277  0.20599401  0.46577752
   0.34566274  0.83099419  0.00000000
   0.09566276  0.45599419  0.09315553
   0.84566277  0.08099417  0.18631104
   0.59566283  0.70599431  0.27946648
   0.34566277  0.33099425  0.37262198
   0.09566271  0.95599413  0.46577749
   0.84566283  0.83099419  0.00000000
   0.59566277  0.45599419  0.09315553
   0.34566280  0.08099417  0.18631104
   0.09566288  0.70599431  0.27946648
   0.84566283  0.33099425  0.37262198
   0.59566277  0.95599413  0.46577749
   0.34566274  0.33099413  0.00000002
   0.09566276  0.95599413  0.09315553
   0.84566277  0.58099413  0.18631104
   0.59566283  0.20599425  0.27946651
   0.34566277  0.83099413  0.37262198
   0.09566271  0.45599413  0.46577752
   0.84566283  0.33099413  0.00000002
   0.59566277  0.95599413  0.09315553
   0.34566280  0.58099413  0.18631104
   0.09566288  0.20599425  0.27946651
   0.84566283  0.83099413  0.37262198
   0.59566277  0.45599413  0.46577752
   0.00000000  0.98202050  0.46577755
   0.99999994  0.73202038  0.57262194
   0.99999988  0.48202026  0.67946661
   0.99999982  0.23202008  0.78631103
   0.99999976  0.98202002  0.89315546
   0.99999976  0.73201990  0.00000000
   0.66666675  0.31535384  0.46577755
   0.66666669  0.06535378  0.57262194
   0.66666663  0.81535363  0.67946661
   0.66666663  0.56535351  0.78631103
   0.66666657  0.31535345  0.89315558
   0.66666651  0.06535327  0.00000000
   0.33333340  0.64868718  0.46577755
   0.33333334  0.39868712  0.57262194
   0.33333328  0.14868700  0.67946661
   0.33333322  0.89868689  0.78631103
   0.33333316  0.64868683  0.89315558
   0.33333316  0.39868665  0.00000000
   0.33333337  0.14868717  0.46577755
   0.33333331  0.89868712  0.57262194
   0.33333325  0.64868700  0.67946661
   0.33333325  0.39868677  0.78631103
   0.33333322  0.14868671  0.89315546
   0.33333316  0.89868665  0.00000000
   0.00000000  0.48202050  0.46577755
   0.99999994  0.23202044  0.57262194
   0.99999988  0.98202032  0.67946661
   0.99999982  0.73202014  0.78631103
   0.99999976  0.48202014  0.89315546
   0.99999976  0.23201996  0.00000000
   0.66666681  0.81535393  0.46577755
   0.66666675  0.56535381  0.57262206
   0.66666663  0.31535366  0.67946661
   0.66666663  0.06535357  0.78631103
   0.66666651  0.81535351  0.89315558
   0.66666651  0.56535333  0.00000000
   0.58333337  0.14868717  0.46577761
   0.58333337  0.89868712  0.57262194
   0.58333331  0.64868689  0.67946661
   0.58333319  0.39868683  0.78631103
   0.58333325  0.14868677  0.89315546
   0.58333313  0.89868677  0.00000000
   0.25000000  0.48202047  0.46577761
   0.24999994  0.23202042  0.57262194
   0.24999991  0.98202032  0.67946661
   0.24999982  0.73202014  0.78631103
   0.24999976  0.48202014  0.89315558
   0.24999972  0.23201996  0.00000000
   0.91666675  0.81535387  0.46577755
   0.91666663  0.56535381  0.57262194
   0.91666651  0.31535363  0.67946661
   0.91666651  0.06535353  0.78631103
   0.91666645  0.81535345  0.89315546
   0.91666645  0.56535327  0.00000000
   0.25000003  0.98202050  0.46577755
   0.24999999  0.73202044  0.57262206
   0.24999997  0.48202026  0.67946661
   0.24999988  0.23202014  0.78631103
   0.24999982  0.98202014  0.89315558
   0.24999970  0.73202002  0.00000000
   0.91666681  0.31535384  0.46577761
   0.91666669  0.06535379  0.57262206
   0.91666663  0.81535363  0.67946661
   0.91666663  0.56535351  0.78631103
   0.91666657  0.31535345  0.89315546
   0.91666645  0.06535339  0.00000000
   0.58333343  0.64868718  0.46577761
   0.58333331  0.39868712  0.57262206
   0.58333325  0.14868699  0.67946661
   0.58333325  0.89868689  0.78631103
   0.58333319  0.64868683  0.89315546
   0.58333319  0.39868671  0.00000000
 
 position of ions in cartesian coordinates  (Angst):
  10.98363206  7.29712679  0.00000047
   8.15473128  1.29612293  2.00033497
   5.32583186 11.29779531  4.00066991
   2.49693311  5.29679371  6.00100279
  10.98363138 15.29846431  8.00133727
   8.15473128  9.29746081 10.00167303
   5.32583186  7.29712679  0.00000047
   2.49693159  1.29612293  2.00033497
  10.98363206 11.29779531  4.00066991
   8.15473263  5.29679371  6.00100279
   5.32583253 15.29846431  8.00133727
   2.49693176  9.29746081 10.00167303
  10.98363206 15.29846431  0.00000041
   8.15473128  9.29746081  2.00033512
   5.32583186  3.29645731  4.00066959
   2.49693311 13.29813364  6.00100279
  10.98363138  7.29712631  8.00133920
   8.15473128  1.29612281 10.00167238
   5.32583186 15.29846431  0.00000041
   2.49693159  9.29746081  2.00033512
  10.98363206  3.29645731  4.00066959
   8.15473263 13.29813364  6.00100279
   5.32583253  7.29712631  8.00133920
   2.49693176  1.29612281 10.00167238
  10.98363206 11.29779531  0.00000054
   8.15473128  5.29679181  2.00033497
   5.32583186 15.29846431  4.00066959
   2.49693311  9.29746271  6.00100344
  10.98363138  3.29645827  8.00133920
   8.15473128 13.29812981 10.00167303
   5.32583186 11.29779531  0.00000054
   2.49693159  5.29679181  2.00033497
  10.98363206 15.29846431  4.00066959
   8.15473263  9.29746271  6.00100344
   5.32583253  3.29645827  8.00133920
   2.49693176 13.29812981 10.00167303
  10.98363206  3.29645755  0.00000045
   8.15473128 13.29812981  2.00033497
   5.32583186  7.29712631  4.00066959
   2.49693311  1.29612471  6.00100344
  10.98363138 11.29779722  8.00133727
   8.15473128  5.29679181 10.00167238
   5.32583186  3.29645755  0.00000045
   2.49693159 13.29812981  2.00033497
  10.98363206  7.29712631  4.00066959
   8.15473263  1.29612471  6.00100344
   5.32583253 11.29779722  8.00133727
   2.49693176  5.29679181 10.00167238
   3.91138147  9.29746177  0.00000067
   1.08248154  3.29645779  2.00033497
   9.56918201 13.29812981  4.00066959
   6.74028258  7.29712821  6.00100279
   3.91138181  1.29612377  8.00133920
   1.08248103 11.29779531 10.00167303
   9.56918268  9.29746177  0.00000067
   6.74028191  3.29645779  2.00033497
   3.91138214 13.29812981  4.00066959
   1.08248297  7.29712821  6.00100279
   9.56918268  1.29612377  8.00133920
   6.74028191 11.29779531 10.00167303
   3.91138147  1.29612293  0.00000034
   1.08248154 11.29779531  2.00033497
   9.56918201  5.29679181  4.00066959
   6.74028258 15.29846622  6.00100344
   3.91138181  9.29746271  8.00133727
   1.08248103  3.29645540 10.00167238
   9.56918268  1.29612293  0.00000034
   6.74028191 11.29779531  2.00033497
   3.91138214  5.29679181  4.00066959
   1.08248297 15.29846622  6.00100344
   9.56918268  9.29746271  8.00133727
   6.74028191  3.29645540 10.00167238
   3.91138147 13.29813077  0.00000000
   1.08248154  7.29712727  2.00033497
   9.56918201  1.29612353  4.00066959
   6.74028258 11.29779818  6.00100279
   3.91138181  5.29679371  8.00133727
   1.08248103 15.29846431 10.00167176
   9.56918268 13.29813077  0.00000000
   6.74028191  7.29712727  2.00033497
   3.91138214  1.29612353  4.00066959
   1.08248297 11.29779818  6.00100279
   9.56918268  5.29679371  8.00133727
   6.74028191 15.29846431 10.00167176
   3.91138147  5.29679181  0.00000047
   1.08248154 15.29846431  2.00033512
   9.56918201  9.29746081  4.00066959
   6.74028258  3.29645921  6.00100344
   3.91138181 13.29812981  8.00133727
   1.08248103  7.29712631 10.00167238
   9.56918268  5.29679181  0.00000047
   6.74028191 15.29846431  2.00033512
   3.91138214  9.29746081  4.00066959
   1.08248297  3.29645921  6.00100344
   9.56918268 13.29812981  8.00133727
   6.74028191  7.29712631 10.00167238
   0.00000000 15.71495585 10.00167303
  11.31559972 11.71428494 12.29595003
  11.31559905  7.71361404 14.59023277
  11.31559837  3.71294217 16.88451040
  11.31559770 15.71494822 19.17878805
  11.31559770 11.71427731  0.00000000
   7.54373449  5.04650535 10.00167303
   7.54373383  1.04583538 12.29595003
   7.54373315 13.04784001 14.59023277
   7.54373315  9.04716910 16.88451040
   7.54373247  5.04649914 19.17879061
   7.54373180  1.04582727  0.00000000
   3.77186759 10.38073084 10.00167303
   3.77186691  6.38006087 12.29595003
   3.77186624  2.37938997 14.59023277
   3.77186556 14.38139507 16.88451040
   3.77186488 10.38072511 19.17879061
   3.77186488  6.38005324  0.00000000
   3.77186725  2.37939259 10.00167303
   3.77186657 14.38139888 12.29595003
   3.77186590 10.38072797 14.59023277
   3.77186590  6.38005516 16.88451040
   3.77186556  2.37938520 19.17878805
   3.77186488 14.38139125  0.00000000
   0.00000000  7.71361784 10.00167303
  11.31559972  3.71294790 12.29595003
  11.31559905 15.71495300 14.59023277
  11.31559837 11.71428113 16.88451040
  11.31559770  7.71361213 19.17878805
  11.31559770  3.71294026  0.00000000
   7.54373517 13.04784478 10.00167303
   7.54373449  9.04717387 12.29595259
   7.54373315  5.04650248 14.59023277
   7.54373315  1.04583193 16.88451040
   7.54373180 13.04783810 19.17879061
   7.54373180  9.04716624  0.00000000
   6.60076735  2.37939259 10.00167432
   6.60076735 14.38139888 12.29595003
   6.60076667 10.38072607 14.59023277
   6.60076532  6.38005611 16.88451040
   6.60076600  2.37938616 19.17878805
   6.60076465 14.38139317  0.00000000
   2.82890010  7.71361738 10.00167432
   2.82889942  3.71294766 12.29595003
   2.82889909 15.71495300 14.59023277
   2.82889807 11.71428113 16.88451040
   2.82889741  7.71361213 19.17879061
   2.82889690  3.71294026  0.00000000
  10.37263459 13.04784382 10.00167303
  10.37263325  9.04717387 12.29595003
  10.37263190  5.04650200 14.59023277
  10.37263190  1.04583133 16.88451040
  10.37263122 13.04783714 19.17878805
  10.37263122  9.04716528  0.00000000
   2.82890044 15.71495585 10.00167303
   2.82889993 11.71428590 12.29595259
   2.82889976  7.71361404 14.59023277
   2.82889875  3.71294313 16.88451040
   2.82889807 15.71495014 19.17879061
   2.82889673 11.71427921  0.00000000
  10.37263527  5.04650535 10.00167432
  10.37263393  1.04583550 12.29595259
  10.37263325 13.04784001 14.59023277
  10.37263325  9.04716910 16.88451040
  10.37263257  5.04649914 19.17878805
  10.37263122  1.04582919  0.00000000
   6.60076802 10.38073084 10.00167432
   6.60076667  6.38006087 12.29595259
   6.60076600  2.37938973 14.59023277
   6.60076600 14.38139507 16.88451040
   6.60076532 10.38072511 19.17878805
   6.60076532  6.38005420  0.00000000
 


--------------------------------------------------------------------------------------------------------


 k-point     1 :   0.0000 0.0000 0.0000  plane waves:  163589
 k-point     2 :   0.3333 0.0000 0.0000  plane waves:  163541
 k-point     3 :   0.0000 0.5000 0.0000  plane waves:  163566
 k-point     4 :   0.3333 0.5000 0.0000  plane waves:  163490

 maximum and minimum number of plane-waves per node :     10248    10188

 maximum number of plane-waves:    163589
 maximum index in each direction: 
   IXMAX=   24   IYMAX=   34   IZMAX=   46
   IXMIN=  -24   IYMIN=  -35   IZMIN=  -46


 real space projection operators:
  total allocation   :      60237.94 KBytes
  max/ min on nodes  :       3810.62       3713.12


 parallel 3D FFT for wavefunctions:
    minimum data exchange during FFTs selected (reduces bandwidth)
 parallel 3D FFT for charge:
    minimum data exchange during FFTs selected (reduces bandwidth)


 total amount of memory used by VASP MPI-rank0   229228. kBytes
=======================================================================

   base      :      30000. kBytes
   nonlr-proj:      19329. kBytes
   fftplans  :      24866. kBytes
   grid      :      20663. kBytes
   one-center:        178. kBytes
   wavefun   :     134192. kBytes
 
     INWAV:  cpu time      0.0000: real time      0.0001
 Broyden mixing: mesh for mixing (old mesh)
   NGX = 49   NGY = 69   NGZ = 93
  (NGX  =160   NGY  =216   NGZ  =280)
  gives a total of 314433 points

 initial charge density was supplied:
 charge density of overlapping atoms calculated
 number of electron     672.0000000 magnetization       1.0000000
 keeping initial charge density in first step


--------------------------------------------------------------------------------------------------------


 Maximum index for non-local projection operator          341
 Maximum index for augmentation-charges         4384 (set IRDMAX)


--------------------------------------------------------------------------------------------------------


 First call to EWALD:  gamma=   0.113
 Maximum number of real-space cells 4x 3x 2
 Maximum number of reciprocal cells 2x 3x 4

    FEWALD:  cpu time      0.0048: real time      0.0048


--------------------------------------- Ionic step        1  -------------------------------------------




--------------------------------------- Iteration      1(   1)  ---------------------------------------


    POTLOK:  cpu time      0.3416: real time      0.3442
    SETDIJ:  cpu time      2.5468: real time      2.5602
     EDDAV:  cpu time     30.5271: real time     30.7756
       DOS:  cpu time      0.0018: real time      0.0019
    --------------------------------------------
      LOOP:  cpu time     33.4174: real time     33.6820

 eigenvalue-minimisations  :  6464
 total energy-change (2. order) : 0.5700219E+04  (-0.2931715E+05)
 number of electron     672.0000000 magnetization       1.0000000
 augmentation part      672.0000000 magnetization       1.0000000

 Free energy of the ion-electron system (eV)
  ---------------------------------------------------
  alpha Z        PSCENC =      1181.91690694
  Ewald energy   TEWEN  =    -10682.90236587
  -Hartree energ DENC   =     -6417.93128052
  -exchange      EXHF   =         0.00000000
  -V(xc)+E(xc)   XCENC  =     -9285.74241902
  PAW double counting   =     22099.84193803   -11791.56227843
  entropy T*S    EENTRO =        -0.00178397
  eigenvalues    EBANDS =      3742.80195152
  atomic energy  EATOM  =     16853.79812076
  Solvation  Ediel_sol  =         0.00000000
  ---------------------------------------------------
  free energy    TOTEN  =      5700.21878944 eV

  energy without entropy =     5700.22057342  energy(sigma->0) =     5700.21968143


--------------------------------------------------------------------------------------------------------




--------------------------------------- Iteration      1(   2)  ---------------------------------------


     EDDAV:  cpu time     34.1384: real time     34.4080
       DOS:  cpu time      0.0014: real time      0.0014
    --------------------------------------------
      LOOP:  cpu time     34.1398: real time     34.4094

 eigenvalue-minimisations  :  7640
 total energy-change (2. order) :-0.3918168E+04  (-0.3789445E+04)
 number of electron     672.0000000 magnetization       1.0000000
 augmentation part      672.0000000 magnetization       1.0000000

 Free energy of the ion-electron system (eV)
  ---------------------------------------------------
  alpha Z        PSCENC =      1181.91690694
  Ewald energy   TEWEN  =    -10682.90236587
  -Hartree energ DENC   =     -6417.93128052
  -exchange      EXHF   =         0.00000000
  -V(xc)+E(xc)   XCENC  =     -9285.74241902
  PAW double counting   =     22099.84193803   -11791.56227843
  entropy T*S    EENTRO =        -0.00265969
  eigenvalues    EBANDS =      -175.36486341
  atomic energy  EATOM  =     16853.79812076
  Solvation  Ediel_sol  =         0.00000000
  ---------------------------------------------------
  free energy    TOTEN  =      1782.05109879 eV

  energy without entropy =     1782.05375848  energy(sigma->0) =     1782.05242863


--------------------------------------------------------------------------------------------------------




--------------------------------------- Iteration      1(   3)  ---------------------------------------


     EDDAV:  cpu time     36.3973: real time     36.6855
       DOS:  cpu time      0.0015: real time      0.0015
    --------------------------------------------
      LOOP:  cpu time     36.3988: real time     36.6870

 eigenvalue-minimisations  :  8272
 total energy-change (2. order) :-0.4365904E+03  (-0.4216033E+03)
 number of electron     672.0000000 magnetization       1.0000000
 augmentation part      672.0000000 magnetization       1.0000000

 Free energy of the ion-electron system (eV)
  ---------------------------------------------------
  alpha Z        PSCENC =      1181.91690694
  Ewald energy   TEWEN  =    -10682.90236587
  -Hartree energ DENC   =     -6417.93128052
  -exchange      EXHF   =         0.00000000
  -V(xc)+E(xc)   XCENC  =     -9285.74241902
  PAW double counting   =     22099.84193803   -11791.56227843
  entropy T*S    EENTRO =        -0.00291748
  eigenvalues    EBANDS =      -611.95499490
  atomic energy  EATOM  =     16853.79812076
  Solvation  Ediel_sol  =         0.00000000
  ---------------------------------------------------
  free energy    TOTEN  =      1345.46070951 eV

  energy without entropy =     1345.46362700  energy(sigma->0) =     1345.46216825


--------------------------------------------------------------------------------------------------------




--------------------------------------- Iteration      1(   4)  ---------------------------------------


     EDDAV:  cpu time     35.2059: real time     35.4818
       DOS:  cpu time      0.0015: real time      0.0015
    --------------------------------------------
      LOOP:  cpu time     35.2073: real time     35.4832

 eigenvalue-minimisations  :  7912
 total energy-change (2. order) :-0.2064061E+02  (-0.1995929E+02)
 number of electron     672.0000000 magnetization       1.0000000
 augmentation part      672.0000000 magnetization       1.0000000

 Free energy of the ion-electron system (eV)
  ---------------------------------------------------
  alpha Z        PSCENC =      1181.91690694
  Ewald energy   TEWEN  =    -10682.90236587
  -Hartree energ DENC   =     -6417.93128052
  -exchange      EXHF   =         0.00000000
  -V(xc)+E(xc)   XCENC  =     -9285.74241902
  PAW double counting   =     22099.84193803   -11791.56227843
  entropy T*S    EENTRO =        -0.00447887
  eigenvalues    EBANDS =      -632.59404076
  atomic energy  EATOM  =     16853.79812076
  Solvation  Ediel_sol  =         0.00000000
  ---------------------------------------------------
  free energy    TOTEN  =      1324.82010226 eV

  energy without entropy =     1324.82458114  energy(sigma->0) =     1324.82234170


--------------------------------------------------------------------------------------------------------




--------------------------------------- Iteration      1(   5)  ---------------------------------------


     EDDAV:  cpu time     37.9000: real time     38.2004
       DOS:  cpu time      0.0014: real time      0.0014
    CHARGE:  cpu time      1.9209: real time      1.9438
    MIXING:  cpu time      0.0128: real time      0.0129
    --------------------------------------------
      LOOP:  cpu time     39.8351: real time     40.1585

 eigenvalue-minimisations  :  8680
 total energy-change (2. order) :-0.1066894E+01  (-0.1048620E+01)
 number of electron     671.9999991 magnetization       1.0000000
 augmentation part     -142.8196279 magnetization      -0.1360621

 Broyden mixing:
  rms(total) = 0.85184E+01    rms(broyden)= 0.85184E+01
  rms(prec ) = 0.86568E+01
  weight for this iteration     100.00

 Free energy of the ion-electron system (eV)
  ---------------------------------------------------
  alpha Z        PSCENC =      1181.91690694
  Ewald energy   TEWEN  =    -10682.90236587
  -Hartree energ DENC   =     -6417.93128052
  -exchange      EXHF   =         0.00000000
  -V(xc)+E(xc)   XCENC  =     -9285.74241902
  PAW double counting   =     22099.84193803   -11791.56227843
  entropy T*S    EENTRO =        -0.00409457
  eigenvalues    EBANDS =      -633.66131915
  atomic energy  EATOM  =     16853.79812076
  Solvation  Ediel_sol  =         0.00000000
  ---------------------------------------------------
  free energy    TOTEN  =      1323.75320818 eV

  energy without entropy =     1323.75730274  energy(sigma->0) =     1323.75525546


--------------------------------------------------------------------------------------------------------




--------------------------------------- Iteration      1(   6)  ---------------------------------------


    POTLOK:  cpu time      0.3287: real time      0.3307
    SETDIJ:  cpu time      2.5292: real time      2.5421
     EDDAV:  cpu time     37.4492: real time     37.7576
       DOS:  cpu time      0.0014: real time      0.0014
    CHARGE:  cpu time      1.9162: real time      1.9328
    MIXING:  cpu time      0.0160: real time      0.0168
    --------------------------------------------
      LOOP:  cpu time     42.2407: real time     42.5813

 eigenvalue-minimisations  :  8544
 total energy-change (2. order) : 0.7138503E+02  (-0.6953548E+01)
 number of electron     671.9999991 magnetization       1.0000000
 augmentation part     -142.2420287 magnetization      -0.1302745

 Broyden mixing:
  rms(total) = 0.48010E+01    rms(broyden)= 0.48010E+01
  rms(prec ) = 0.49395E+01
  weight for this iteration     100.00

 eigenvalues of (default mixing * dielectric matrix)
  average eigenvalue GAMMA=   2.0876
  2.0876

 Free energy of the ion-electron system (eV)
  ---------------------------------------------------
  alpha Z        PSCENC =      1181.91690694
  Ewald energy   TEWEN  =    -10682.90236587
  -Hartree energ DENC   =     -6599.84374216
  -exchange      EXHF   =         0.00000000
  -V(xc)+E(xc)   XCENC  =     -9247.87027079
  PAW double counting   =     45517.64418349   -35269.08392109
  entropy T*S    EENTRO =        -0.00267530
  eigenvalues    EBANDS =      -358.51799628
  atomic energy  EATOM  =     16853.79812076
  Solvation  Ediel_sol  =         0.00000000
  ---------------------------------------------------
  free energy    TOTEN  =      1395.13823970 eV

  energy without entropy =     1395.14091500  energy(sigma->0) =     1395.13957735


--------------------------------------------------------------------------------------------------------




--------------------------------------- Iteration      1(   7)  ---------------------------------------


    POTLOK:  cpu time      0.3278: real time      0.3308
    SETDIJ:  cpu time      2.5312: real time      2.5442
     EDDAV:  cpu time     41.4744: real time     41.8227
       DOS:  cpu time      0.0014: real time      0.0014
    CHARGE:  cpu time      1.9069: real time      1.9237
    MIXING:  cpu time      0.0152: real time      0.0625
    --------------------------------------------
      LOOP:  cpu time     46.2569: real time     46.6853

 eigenvalue-minimisations  :  9664
 total energy-change (2. order) :-0.9452559E+01  (-0.1376370E+02)
 number of electron     671.9999991 magnetization       1.0000000
 augmentation part     -140.6285982 magnetization      -0.1136476

 Broyden mixing:
  rms(total) = 0.16049E+01    rms(broyden)= 0.16049E+01
  rms(prec ) = 0.42725E+01
  weight for this iteration     100.00

 eigenvalues of (default mixing * dielectric matrix)
  average eigenvalue GAMMA=   1.3638
  2.0918  0.6357

 Free energy of the ion-electron system (eV)
  ---------------------------------------------------
  alpha Z        PSCENC =      1181.91690694
  Ewald energy   TEWEN  =    -10682.90236587
  -Hartree energ DENC   =     -6464.73590473
  -exchange      EXHF   =         0.00000000
  -V(xc)+E(xc)   XCENC  =     -9216.38721183
  PAW double counting   =     82627.02008699   -72445.38667443
  entropy T*S    EENTRO =        -0.00470482
  eigenvalues    EBANDS =      -467.63257212
  atomic energy  EATOM  =     16853.79812076
  Solvation  Ediel_sol  =         0.00000000
  ---------------------------------------------------
  free energy    TOTEN  =      1385.68568090 eV

  energy without entropy =     1385.69038572  energy(sigma->0) =     1385.68803331


--------------------------------------------------------------------------------------------------------




--------------------------------------- Iteration      1(   8)  ---------------------------------------


    POTLOK:  cpu time      0.3271: real time      0.3303
    SETDIJ:  cpu time      2.5277: real time      2.5410
     EDDAV:  cpu time     45.2072: real time     45.5693
       DOS:  cpu time      0.0014: real time      0.0014
    CHARGE:  cpu time      1.9140: real time      1.9316
    MIXING:  cpu time      0.0156: real time      0.0157
    --------------------------------------------
      LOOP:  cpu time     49.9931: real time     50.3893

 eigenvalue-minimisations  : 10736
 total energy-change (2. order) : 0.2375630E+02  (-0.9744776E+01)
 number of electron     671.9999991 magnetization       1.0000000
 augmentation part     -141.1589530 magnetization      -0.1103438

 Broyden mixing:
  rms(total) = 0.85113E+00    rms(broyden)= 0.85113E+00
  rms(prec ) = 0.22348E+01
  weight for this iteration     100.00

 eigenvalues of (default mixing * dielectric matrix)
  average eigenvalue GAMMA=   1.1202
  2.0893  0.9574  0.3137

 Free energy of the ion-electron system (eV)
  ---------------------------------------------------
  alpha Z        PSCENC =      1181.91690694
  Ewald energy   TEWEN  =    -10682.90236587
  -Hartree energ DENC   =     -6602.02470504
  -exchange      EXHF   =         0.00000000
  -V(xc)+E(xc)   XCENC  =     -9212.48812604
  PAW double counting   =     90549.99628915   -80380.13688379
  entropy T*S    EENTRO =        -0.00271920
  eigenvalues    EBANDS =      -298.71453499
  atomic energy  EATOM  =     16853.79812076
  Solvation  Ediel_sol  =         0.00000000
  ---------------------------------------------------
  free energy    TOTEN  =      1409.44198193 eV

  energy without entropy =     1409.44470113  energy(sigma->0) =     1409.44334153


--------------------------------------------------------------------------------------------------------




--------------------------------------- Iteration      1(   9)  ---------------------------------------


    POTLOK:  cpu time      0.3284: real time      0.3304
    SETDIJ:  cpu time      2.5337: real time      2.5469
     EDDAV:  cpu time     37.9265: real time     38.2352
       DOS:  cpu time      0.0014: real time      0.0014
    CHARGE:  cpu time      1.9028: real time      1.9196
    MIXING:  cpu time      0.0150: real time      0.0150
    --------------------------------------------
      LOOP:  cpu time     42.7077: real time     43.0486

 eigenvalue-minimisations  :  8672
 total energy-change (2. order) : 0.1772726E+01  (-0.3603676E+01)
 number of electron     671.9999991 magnetization       1.0000000
 augmentation part     -141.1021998 magnetization      -0.1011614

 Broyden mixing:
  rms(total) = 0.64785E+00    rms(broyden)= 0.64785E+00
  rms(prec ) = 0.14193E+01
[...]
   0.111E+02 0.896E+00 0.133E+03   -.113E+02 -.550E+00 -.134E+03   -.515E+00 -.114E+00 -.488E+00   -.350E-04 0.232E-06 -.101E-04
   0.291E+02 0.312E+02 0.116E+03   -.303E+02 -.333E+02 -.117E+03   -.126E+02 -.165E+02 -.193E+01   -.203E-04 0.171E-06 0.334E-04
   -.254E+02 0.879E+01 -.131E+03   0.231E+02 -.919E+01 0.133E+03   0.926E+01 -.143E+01 0.746E+01   0.961E-05 0.187E-04 -.127E-04
   0.452E-01 -.136E+01 -.128E+03   -.420E+00 0.119E+01 0.129E+03   0.345E+00 0.397E+00 0.261E+00   0.178E-04 -.163E-04 0.599E-05
   0.437E+00 -.522E+00 -.467E+02   -.223E+00 0.217E+00 0.466E+02   -.396E+00 0.500E+00 0.175E+00   0.107E-04 0.387E-06 -.614E-05
   0.204E-01 -.296E+00 0.484E+02   -.234E-01 0.217E+00 -.488E+02   -.783E-01 0.282E+00 0.145E+00   0.967E-07 -.122E-04 0.131E-04
   -.364E+01 -.886E+00 0.153E+03   0.372E+01 0.107E+01 -.154E+03   0.187E+00 -.650E+00 -.353E+01   -.964E-05 0.234E-04 0.720E-05
   -.209E+02 0.505E+01 0.993E+02   0.287E+03 -.782E+02 -.989E+02   0.249E+02 0.781E+00 -.536E-01   -.199E-04 -.405E-04 0.164E-04
   -.593E+02 0.284E+02 -.105E+03   0.727E+02 -.502E+02 0.105E+03   0.320E+02 -.279E+02 0.110E+01   -.354E-04 -.487E-04 0.137E-04
   -.113E+02 0.315E+00 -.143E+03   0.113E+02 -.930E+00 0.143E+03   0.596E+00 0.102E+01 0.186E+01   -.356E-04 0.192E-04 0.390E-04
   -.529E+00 -.278E+00 -.481E+02   0.699E+00 0.190E+00 0.481E+02   -.281E+00 0.269E+00 0.174E+00   -.134E-04 -.584E-05 -.315E-05
   0.128E+01 -.620E+00 0.471E+02   -.983E+00 0.191E+00 -.472E+02   -.458E+00 0.532E+00 -.142E+00   -.869E-05 -.288E-05 -.109E-04
   0.111E+02 0.896E+00 0.133E+03   -.113E+02 -.550E+00 -.134E+03   -.515E+00 -.114E+00 -.488E+00   -.322E-04 -.164E-04 -.250E-05
   0.291E+02 0.312E+02 0.116E+03   -.303E+02 -.333E+02 -.117E+03   -.126E+02 -.165E+02 -.193E+01   -.218E-04 0.195E-04 0.325E-04
   -.254E+02 0.879E+01 -.131E+03   0.231E+02 -.919E+01 0.133E+03   0.926E+01 -.143E+01 0.746E+01   0.186E-05 0.228E-04 -.103E-04
   0.453E-01 -.136E+01 -.128E+03   -.420E+00 0.119E+01 0.129E+03   0.345E+00 0.397E+00 0.261E+00   0.175E-04 -.766E-05 0.884E-05
   0.437E+00 -.522E+00 -.467E+02   -.223E+00 0.217E+00 0.466E+02   -.396E+00 0.500E+00 0.175E+00   0.116E-04 0.162E-05 0.375E-05
   0.204E-01 -.296E+00 0.484E+02   -.234E-01 0.217E+00 -.488E+02   -.783E-01 0.282E+00 0.145E+00   -.546E-07 -.248E-05 0.132E-04
   -.364E+01 -.886E+00 0.153E+03   0.372E+01 0.107E+01 -.154E+03   0.187E+00 -.650E+00 -.353E+01   -.875E-05 0.242E-04 -.825E-05
   -.209E+02 0.505E+01 0.993E+02   0.287E+03 -.782E+02 -.989E+02   0.249E+02 0.781E+00 -.536E-01   -.255E-04 -.729E-04 0.180E-04
   0.303E+02 0.207E+02 -.107E+03   -.671E+02 -.238E+03 0.106E+03   -.207E+02 -.293E+02 0.189E+01   0.478E-04 -.336E-04 -.272E-05
   0.112E+02 0.222E+01 -.149E+03   -.109E+02 -.244E+01 0.149E+03   -.712E+00 0.501E-01 0.254E+01   0.154E-04 0.365E-05 0.179E-04
   0.100E+01 -.580E+00 -.485E+02   -.894E+00 0.178E+00 0.483E+02   -.192E+00 0.628E+00 0.300E+00   0.945E-05 -.756E-05 0.198E-04
   -.424E+00 -.356E+00 0.469E+02   0.594E+00 0.180E+00 -.471E+02   -.281E+00 0.342E+00 0.954E-01   0.127E-04 -.277E-05 0.854E-05
   -.960E+01 0.114E+01 0.134E+03   0.967E+01 -.131E+01 -.134E+03   0.546E-01 0.379E+00 -.595E+00   0.330E-04 0.119E-04 -.529E-06
   -.469E+02 0.342E+02 0.125E+03   0.697E+02 -.526E+02 -.128E+03   0.347E+02 -.245E+02 -.543E+01   0.683E-04 -.105E-04 0.145E-04
 -----------------------------------------------------------------------------------------------
   -.869E+01 0.668E+00 0.125E+01   -.554E-12 -.377E-12 0.284E-12   0.878E+01 -.110E+01 -.140E+01   -.497E-05 -.829E-04 -.630E-04
 
 
 POSITION                                       TOTAL-FORCE (eV/Angst)
 -----------------------------------------------------------------------------------
     10.98363      7.29713      0.00000        10.856844    -28.793422      4.194588
      8.15473      1.29612      2.00033         2.982357      1.718987     10.679384
      5.32583     11.29780      4.00067         0.137156     -0.011468      0.162633
      2.49693      5.29679      6.00100         0.047240     -0.084495     -0.062348
     10.98363     15.29846      8.00134        -3.026082     -1.497065    -13.629252
      8.15473      9.29746     10.00167        22.099954    -15.233160     -3.620176
      5.32583      7.29713      0.00000       -26.371384     57.597379     -0.537839
      2.49693      1.29612      2.00033         0.074187     -0.356807      0.654850
     10.98363     11.29780      4.00067        -0.034641      0.031000      0.200348
      8.15473      5.29679      6.00100        -0.010850      0.085358     -0.418886
      5.32583     15.29846      8.00134         0.164130     -0.159416     -0.242484
      2.49693      9.29746     10.00167       -47.294071     26.724104      0.346929
     10.98363     15.29846      0.00000        10.856844    -28.793422      4.194588
      8.15473      9.29746      2.00034         2.982357      1.718987     10.679384
      5.32583      3.29646      4.00067         0.137156     -0.011468      0.162633
      2.49693     13.29813      6.00100         0.047240     -0.084495     -0.062348
     10.98363      7.29713      8.00134        -3.026082     -1.497065    -13.629252
      8.15473      1.29612     10.00167        22.099954    -15.233160     -3.620176
      5.32583     15.29846      0.00000       -26.371384     57.597379     -0.537839
      2.49693      9.29746      2.00034         0.074187     -0.356807      0.654850
     10.98363      3.29646      4.00067        -0.034641      0.031000      0.200348
      8.15473     13.29813      6.00100        -0.010850      0.085358     -0.418886
      5.32583      7.29713      8.00134         0.164130     -0.159416     -0.242484
      2.49693      1.29612     10.00167       -47.294071     26.724104      0.346929
     10.98363     11.29780      0.00000      -491.814750   -614.484493     -1.328671
      8.15473      5.29679      2.00033         0.689420     -0.831406      1.011575
      5.32583     15.29846      4.00067        -0.231586     -0.152905      0.305355
      2.49693      9.29746      6.00100        -0.148574      0.064805     -0.184535
     10.98363      3.29646      8.00134         0.126429     -1.224989     -1.473260
      8.15473     13.29813     10.00167       468.891748    195.898499      0.617059
      5.32583     11.29780      0.00000         3.513948      0.353264      0.812213
      2.49693      5.29679      2.00033        -1.230385      0.915597      4.731065
     10.98363     15.29846      4.00067         0.010467     -0.100886      0.055555
      8.15473      9.29746      6.00100        -0.024708     -0.113538     -0.121009
      5.32583      3.29646      8.00134        -0.595963      1.759158     -3.924408
      2.49693     13.29813     10.00167         0.324242     -3.477424     -0.898908
     10.98363      3.29646      0.00000      -491.814750   -614.484493     -1.328671
      8.15473     13.29813      2.00033         0.689420     -0.831406      1.011575
      5.32583      7.29713      4.00067        -0.231586     -0.152905      0.305355
      2.49693      1.29612      6.00100        -0.148574      0.064805     -0.184535
     10.98363     11.29780      8.00134         0.126429     -1.224989     -1.473260
      8.15473      5.29679     10.00167       468.891748    195.898499      0.617059
      5.32583      3.29646      0.00000         3.513948      0.353264      0.812213
      2.49693     13.29813      2.00033        -1.230385      0.915597      4.731065
     10.98363      7.29713      4.00067         0.010467     -0.100886      0.055555
      8.15473      1.29612      6.00100        -0.024708     -0.113538     -0.121009
      5.32583     11.29780      8.00134        -0.595963      1.759158     -3.924408
      2.49693      5.29679     10.00167         0.324242     -3.477424     -0.898908
      3.91138      9.29746      0.00000        -0.038544     -0.774949      1.769755
      1.08248      3.29646      2.00033         1.861004     -1.780135      7.513643
      9.56918     13.29813      4.00067         0.106079      0.125302      0.160867
      6.74028      7.29713      6.00100         0.041248      0.092068     -0.140428
      3.91138      1.29612      8.00134         1.354295     -2.231751     -7.496086
      1.08248     11.29780     10.00167        -0.894101     -0.607821     -1.504340
      9.56918      9.29746      0.00000      -290.109509     99.300075     -0.256454
      6.74028      3.29646      2.00033        -0.062199      0.636174      0.706903
      3.91138     13.29813      4.00067         0.030667      0.026914      0.206449
      1.08248      7.29713      6.00100         0.188638      0.094299     -0.324546
      9.56918      1.29612      8.00134        -0.156860      0.333697     -0.641455
      6.74028     11.29780     10.00167        27.761056    240.292447     -0.022355
      3.91138      1.29612      0.00000        -0.038544     -0.774949      1.769755
      1.08248     11.29780      2.00033         1.861004     -1.780135      7.513643
      9.56918      5.29679      4.00067         0.106079      0.125302      0.160867
      6.74028     15.29847      6.00100         0.041248      0.092068     -0.140428
      3.91138      9.29746      8.00134         1.354295     -2.231751     -7.496086
      1.08248      3.29646     10.00167        -0.894101     -0.607821     -1.504340
      9.56918      1.29612      0.00000      -290.109509     99.300075     -0.256454
      6.74028     11.29780      2.00033        -0.062199      0.636174      0.706903
      3.91138      5.29679      4.00067         0.030667      0.026914      0.206449
      1.08248     15.29847      6.00100         0.188638      0.094299     -0.324546
      9.56918      9.29746      8.00134        -0.156860      0.333697     -0.641455
      6.74028      3.29646     10.00167        27.761056    240.292447     -0.022355
      3.91138     13.29813      0.00000        31.799148   -174.173268     -0.421260
      1.08248      7.29713      2.00033         0.047200     -0.237530      0.524495
      9.56918      1.29612      4.00067         0.031621     -0.041343      0.532897
      6.74028     11.29780      6.00100         0.051362      0.018134     -0.284059
      3.91138      5.29679      8.00134         0.069823     -0.027631     -0.475302
      1.08248     15.29846     10.00167       122.703965    -68.066486      1.357071
      9.56918     13.29813      0.00000        -4.945037      3.740350      3.262385
      6.74028      7.29713      2.00033         0.559140      2.367501      9.258264
      3.91138      1.29612      4.00067         0.092121     -0.036178      0.028563
      1.08248     11.29780      6.00100        -0.060099      0.056145     -0.073623
      9.56918      5.29679      8.00134        -3.360585      0.837702     -8.545302
      6.74028     15.29846     10.00167        -2.088214      4.526115     -3.071685
      3.91138      5.29679      0.00000        31.799148   -174.173268     -0.421260
      1.08248     15.29846      2.00034         0.047200     -0.237530      0.524495
      9.56918      9.29746      4.00067         0.031621     -0.041343      0.532897
      6.74028      3.29646      6.00100         0.051362      0.018134     -0.284059
      3.91138     13.29813      8.00134         0.069823     -0.027631     -0.475302
      1.08248      7.29713     10.00167       122.703965    -68.066486      1.357071
      9.56918      5.29679      0.00000        -4.945037      3.740350      3.262385
      6.74028     15.29846      2.00034         0.559140      2.367501      9.258264
      3.91138      9.29746      4.00067         0.092121     -0.036178      0.028563
      1.08248      3.29646      6.00100        -0.060099      0.056145     -0.073623
      9.56918     13.29813      8.00134        -3.360585      0.837702     -8.545302
      6.74028      7.29713     10.00167        -2.088214      4.526115     -3.071685
      0.00000     15.71496     10.00167      -156.631686     62.619607     11.834004
     11.31560     11.71428     12.29595        -0.381273     -0.290361      1.896164
     11.31560      7.71361     14.59023         0.148273     -0.148997      0.052214
     11.31560      3.71294     16.88451         0.088256     -0.136894     -0.217544
     11.31560     15.71495     19.17879         1.178103     -0.115288     -4.893385
     11.31560     11.71428      0.00000       493.639621    616.246678     -4.294756
      7.54373      5.04651     10.00167      -463.002894   -178.876458     -0.609623
      7.54373      1.04584     12.29595        -0.173651     -0.529584      5.418528
      7.54373     13.04784     14.59023         0.019338     -0.138855      0.364775
      7.54373      9.04717     16.88451         0.097692     -0.191170     -0.094155
      7.54373      5.04650     19.17879        -0.016118     -0.289425     -0.813023
      7.54373      1.04583      0.00000       -14.859510     -0.731640    -12.067769
      3.77187     10.38073     10.00167        37.889454     36.190874      6.010527
      3.77187      6.38006     12.29595         0.720292     -0.300793      1.326780
      3.77187      2.37939     14.59023         0.148299     -0.101938      0.149504
      3.77187     14.38140     16.88451         0.100898     -0.187868     -0.043364
      3.77186     10.38073     19.17879        -0.358002      0.032819     -3.191593
      3.77186      6.38005      0.00000       -52.032805    173.777072     -1.905743
      3.77187      2.37939     10.00167        37.889454     36.190874      6.010527
      3.77187     14.38140     12.29595         0.720292     -0.300793      1.326780
      3.77187     10.38073     14.59023         0.148299     -0.101938      0.149504
      3.77187      6.38006     16.88451         0.100898     -0.187868     -0.043364
      3.77187      2.37939     19.17879        -0.358002      0.032819     -3.191593
      3.77186     14.38139      0.00000       -52.032805    173.777072     -1.905743
      0.00000      7.71362     10.00167      -156.631686     62.619607     11.834004
     11.31560      3.71295     12.29595        -0.381273     -0.290361      1.896164
     11.31560     15.71495     14.59023         0.148273     -0.148997      0.052214
     11.31560     11.71428     16.88451         0.088256     -0.136894     -0.217544
     11.31560      7.71361     19.17879         1.178103     -0.115288     -4.893385
     11.31560      3.71294      0.00000       493.639621    616.246678     -4.294756
      7.54374     13.04784     10.00167      -463.002894   -178.876458     -0.609623
      7.54373      9.04717     12.29595        -0.173651     -0.529584      5.418528
      7.54373      5.04650     14.59023         0.019338     -0.138855      0.364775
      7.54373      1.04583     16.88451         0.097692     -0.191170     -0.094155
      7.54373     13.04784     19.17879        -0.016118     -0.289425     -0.813023
      7.54373      9.04717      0.00000       -14.859510     -0.731640    -12.067769
      6.60077      2.37939     10.00167       -57.416748   -246.162928      1.533299
      6.60077     14.38140     12.29595        -0.364391     -0.170244      3.414727
      6.60077     10.38073     14.59023        -0.085617      0.228784      0.179636
      6.60077      6.38006     16.88451        -0.111256      0.168899     -0.034219
      6.60077      2.37939     19.17879         0.128478      0.214261     -0.867202
      6.60076     14.38139      0.00000        57.511674    -42.893551     -7.790600
      2.82890      7.71362     10.00167        45.413661    -49.652129      1.389537
      2.82890      3.71295     12.29595         0.549373      0.410524      2.347509
      2.82890     15.71495     14.59023        -0.111095      0.183717      0.126298
      2.82890     11.71428     16.88451        -0.160138      0.105373     -0.279497
      2.82890      7.71361     19.17879        -0.712229      0.234697     -1.260450
      2.82890      3.71294      0.00000       -13.695864    -18.592723     -3.098293
     10.37263     13.04784     10.00167         6.950893     -1.822153      9.607883
     10.37263      9.04717     12.29595        -0.030397      0.235237      0.692972
     10.37263      5.04650     14.59023        -0.181586      0.196673      0.134520
     10.37263      1.04583     16.88451        -0.081898      0.205270     -0.258695
     10.37263     13.04784     19.17879         0.267130     -0.467461     -4.511987
     10.37263      9.04717      0.00000       291.438375    -72.346530      0.358841
      2.82890     15.71496     10.00167        45.413661    -49.652129      1.389537
      2.82890     11.71429     12.29595         0.549373      0.410524      2.347509
      2.82890      7.71361     14.59023        -0.111095      0.183717      0.126298
      2.82890      3.71294     16.88451        -0.160138      0.105373     -0.279497
      2.82890     15.71495     19.17879        -0.712229      0.234697     -1.260450
      2.82890     11.71428      0.00000       -13.695864    -18.592723     -3.098293
     10.37264      5.04651     10.00167         6.950893     -1.822153      9.607883
     10.37263      1.04584     12.29595        -0.030397      0.235237      0.692972
     10.37263     13.04784     14.59023        -0.181586      0.196673      0.134520
     10.37263      9.04717     16.88451        -0.081898      0.205270     -0.258695
     10.37263      5.04650     19.17879         0.267130     -0.467461     -4.511987
     10.37263      1.04583      0.00000       291.438375    -72.346530      0.358841
      6.60077     10.38073     10.00167       -57.416748   -246.162928      1.533299
      6.60077      6.38006     12.29595        -0.364391     -0.170244      3.414727
      6.60077      2.37939     14.59023        -0.085617      0.228784      0.179636
      6.60077     14.38140     16.88451        -0.111256      0.168899     -0.034219
      6.60077     10.38073     19.17879         0.128478      0.214261     -0.867202
      6.60077      6.38005      0.00000        57.511674    -42.893551     -7.790600
 -----------------------------------------------------------------------------------
    total drift:                                0.089159     -0.430570     -0.152996


--------------------------------------------------------------------------------------------------------



  FREE ENERGIE OF THE ION-ELECTRON SYSTEM (eV)
  ---------------------------------------------------
  free  energy   TOTEN  =      1413.55898506 eV

  energy  without entropy=     1413.56274946  energy(sigma->0) =     1413.56086726
 


--------------------------------------------------------------------------------------------------------


    POTLOK:  cpu time      2.8544: real time      2.8692


--------------------------------------------------------------------------------------------------------


     LOOP+:  cpu time   1103.7338: real time   1113.0628
    4ORBIT:  cpu time      0.0000: real time      0.0000

 total amount of memory used by VASP MPI-rank0   229228. kBytes
=======================================================================

   base      :      30000. kBytes
   nonlr-proj:      19329. kBytes
   fftplans  :      24866. kBytes
   grid      :      20663. kBytes
   one-center:        178. kBytes
   wavefun   :     134192. kBytes
 
  
  
 General timing and accounting informations for this job:
 ========================================================
  
                  Total CPU time used (sec):     1190.507
                            User time (sec):     1128.807
                          System time (sec):       61.700
                         Elapsed time (sec):     1204.454
  
                   Maximum memory used (kb):      529060.
                   Average memory used (kb):          N/A
  
                          Minor page faults:       229548
                          Major page faults:          731
                 Voluntary context switches:         3269
