  48  48   0   0
  0.2846444E+02  0.9177115E-09  0.1946760E-08  0.7647603E-09  0.5000000E-15
  1.000000000000000E-004
  CAR 
 Si and Ge interface calculation         
      7.35481991     -7.83437645  301      5.17663611      1.00000000
     -7.834  0.0000E+00  0.0000E+00  0.0000E+00  0.0000E+00
     -7.784  0.0000E+00  0.0000E+00  0.0000E+00  0.0000E+00
     -7.733  0.0000E+00  0.0000E+00  0.0000E+00  0.0000E+00
     -7.682  0.0000E+00  0.0000E+00  0.0000E+00  0.0000E+00
     -7.632  0.0000E+00  0.0000E+00  0.0000E+00  0.0000E+00
     -7.581  0.0000E+00  0.0000E+00  0.0000E+00  0.0000E+00
     -7.531  0.0000E+00  0.0000E+00  0.0000E+00  0.0000E+00
     -7.480  0.0000E+00  0.0000E+00  0.0000E+00  0.0000E+00
     -7.429  0.0000E+00  0.0000E+00  0.0000E+00  0.0000E+00
     -7.379  0.0000E+00  0.0000E+00  0.0000E+00  0.0000E+00
     -7.328  0.0000E+00  0.0000E+00  0.0000E+00  0.0000E+00
     -7.277  0.0000E+00  0.0000E+00  0.0000E+00  0.0000E+00
     -7.227  0.0000E+00  0.0000E+00  0.0000E+00  0.0000E+00
     -7.176  0.8046E-05  0.5801E-09  0.4074E-06  0.2937E-10
     -7.126  0.4896E+01  0.2731E+01  0.2479E+00  0.1383E+00
     -7.075  0.4980E+01  0.7145E+01  0.5000E+00  0.5000E+00
     -7.024  0.1208E+02  0.6501E+01  0.1112E+01  0.8292E+00
     -6.974  0.7670E+01  0.1325E+02  0.1500E+01  0.1500E+01
     -6.923  0.0000E+00  0.0000E+00  0.1500E+01  0.1500E+01
     -6.872  0.1560E-05  0.5279E-10  0.1500E+01  0.1500E+01
     -6.822  0.3295E+01  0.2303E+01  0.1667E+01  0.1617E+01
     -6.771  0.6580E+01  0.7563E+01  0.2000E+01  0.2000E+01
     -6.721  0.1214E+02  0.7088E+01  0.2615E+01  0.2358E+01
     -6.670  0.1106E+02  0.1299E+02  0.3174E+01  0.3016E+01
     -6.619  0.1631E+02  0.1941E+02  0.4000E+01  0.3999E+01
     -6.569  0.4751E-14  0.2313E-01  0.4000E+01  0.4000E+01
     -6.518  0.1348E+01  0.3840E-01  0.4068E+01  0.4002E+01
     -6.467  0.2190E+02  0.2126E+02  0.5177E+01  0.5078E+01
     -6.417  0.1299E+02  0.1423E+02  0.5835E+01  0.5799E+01
     -6.366  0.1313E+02  0.1355E+02  0.6500E+01  0.6485E+01
     -6.315  0.3316E-02  0.2999E+00  0.6500E+01  0.6500E+01
     -6.265  0.1096E+02  0.2798E+01  0.7055E+01  0.6642E+01
     -6.214  0.8793E+01  0.1695E+02  0.7500E+01  0.7500E+01
     -6.164  0.4215E+01  0.7556E+00  0.7713E+01  0.7538E+01
     -6.113  0.5660E+01  0.9057E+01  0.8000E+01  0.7997E+01
     -6.062  0.4933E-03  0.6282E-01  0.8000E+01  0.8000E+01
     -6.012  0.0000E+00  0.0000E+00  0.8000E+01  0.8000E+01
     -5.961  0.0000E+00  0.0000E+00  0.8000E+01  0.8000E+01
     -5.910  0.0000E+00  0.0000E+00  0.8000E+01  0.8000E+01
     -5.860  0.0000E+00  0.0000E+00  0.8000E+01  0.8000E+01
     -5.809  0.0000E+00  0.0000E+00  0.8000E+01  0.8000E+01
     -5.759  0.0000E+00  0.0000E+00  0.8000E+01  0.8000E+01
     -5.708  0.0000E+00  0.0000E+00  0.8000E+01  0.8000E+01
     -5.657  0.0000E+00  0.0000E+00  0.8000E+01  0.8000E+01
     -5.607  0.0000E+00  0.0000E+00  0.8000E+01  0.8000E+01
     -5.556  0.0000E+00  0.0000E+00  0.8000E+01  0.8000E+01
     -5.505  0.0000E+00  0.0000E+00  0.8000E+01  0.8000E+01
     -5.455  0.2410E-07  0.9755E-11  0.8000E+01  0.8000E+01
     -5.404  0.1575E+01  0.1066E+01  0.8080E+01  0.8054E+01
     -5.353  0.1722E+01  0.2226E+01  0.8167E+01  0.8167E+01
     -5.303  0.5333E+01  0.3851E+01  0.8437E+01  0.8362E+01
     -5.252  0.7694E+01  0.8305E+01  0.8827E+01  0.8782E+01
     -5.202  0.2008E+01  0.1244E+01  0.8928E+01  0.8845E+01
     -5.151  0.1178E+02  0.1292E+02  0.9525E+01  0.9499E+01
     -5.100  0.2124E+01  0.1887E+01  0.9632E+01  0.9595E+01
     -5.050  0.4496E+01  0.4352E+01  0.9860E+01  0.9815E+01
     -4.999  0.1205E+02  0.1041E+02  0.1047E+02  0.1034E+02
     -4.948  0.6127E+01  0.5375E+01  0.1078E+02  0.1061E+02
     -4.898  0.1377E+02  0.1412E+02  0.1148E+02  0.1133E+02
     -4.847  0.1362E+02  0.1654E+02  0.1217E+02  0.1217E+02
     -4.797  0.1278E+02  0.9421E+01  0.1281E+02  0.1264E+02
     -4.746  0.6981E+01  0.1030E+02  0.1317E+02  0.1317E+02
     -4.695  0.6556E+01  0.6273E+01  0.1350E+02  0.1348E+02
     -4.645  0.5174E+01  0.1330E+01  0.1376E+02  0.1355E+02
     -4.594  0.2211E+02  0.2210E+02  0.1488E+02  0.1467E+02
     -4.543  0.8947E+01  0.1281E+02  0.1533E+02  0.1532E+02
     -4.493  0.1525E+02  0.1040E+02  0.1611E+02  0.1584E+02
     -4.442  0.2483E+02  0.2416E+02  0.1736E+02  0.1707E+02
     -4.391  0.1594E+02  0.1989E+02  0.1817E+02  0.1807E+02
     -4.341  0.1840E+02  0.1511E+02  0.1910E+02  0.1884E+02
     -4.290  0.1416E+02  0.1706E+02  0.1982E+02  0.1970E+02
     -4.240  0.1694E+02  0.1280E+02  0.2068E+02  0.2035E+02
     -4.189  0.2057E+02  0.2200E+02  0.2172E+02  0.2146E+02
     -4.138  0.1625E+02  0.1416E+02  0.2254E+02  0.2218E+02
     -4.088  0.2113E+02  0.2312E+02  0.2361E+02  0.2335E+02
     -4.037  0.2741E+02  0.2938E+02  0.2500E+02  0.2484E+02
     -3.986  0.5093E+01  0.5087E+01  0.2526E+02  0.2510E+02
     -3.936  0.2536E+02  0.2684E+02  0.2654E+02  0.2646E+02
     -3.885  0.2078E+02  0.1655E+02  0.2759E+02  0.2729E+02
     -3.835  0.9919E+01  0.1558E+02  0.2809E+02  0.2808E+02
     -3.784  0.8119E+01  0.8236E+01  0.2850E+02  0.2850E+02
     -3.733  0.6582E+01  0.5497E+01  0.2884E+02  0.2878E+02
     -3.683  0.8145E+01  0.7934E+01  0.2925E+02  0.2918E+02
     -3.632  0.1564E+02  0.1039E+02  0.3004E+02  0.2971E+02
     -3.581  0.1873E+02  0.2278E+02  0.3099E+02  0.3086E+02
     -3.531  0.1021E+02  0.1128E+02  0.3151E+02  0.3143E+02
     -3.480  0.1512E+01  0.3017E+01  0.3158E+02  0.3158E+02
     -3.430  0.1058E+02  0.7108E+01  0.3212E+02  0.3194E+02
     -3.379  0.5879E+01  0.9315E+01  0.3242E+02  0.3241E+02
     -3.328  0.3015E+01  0.1926E+01  0.3257E+02  0.3251E+02
     -3.278  0.1036E+02  0.9671E+01  0.3309E+02  0.3300E+02
     -3.227  0.1567E+02  0.1557E+02  0.3389E+02  0.3379E+02
     -3.176  0.5863E+01  0.4173E+01  0.3418E+02  0.3400E+02
     -3.126  0.9967E+01  0.1210E+02  0.3469E+02  0.3461E+02
     -3.075  0.2095E+02  0.2198E+02  0.3575E+02  0.3573E+02
     -3.024  0.1027E+02  0.8115E+01  0.3627E+02  0.3614E+02
     -2.974  0.1960E+02  0.1994E+02  0.3726E+02  0.3715E+02
     -2.923  0.3048E+02  0.2749E+02  0.3881E+02  0.3854E+02
     -2.873  0.1443E+02  0.1495E+02  0.3954E+02  0.3930E+02
     -2.822  0.1129E+02  0.1380E+02  0.4011E+02  0.4000E+02
     -2.771  0.1176E+02  0.9221E+01  0.4070E+02  0.4046E+02
     -2.721  0.1744E+02  0.2213E+02  0.4159E+02  0.4158E+02
     -2.670  0.5470E+01  0.4625E+01  0.4186E+02  0.4182E+02
     -2.619  0.1191E+02  0.1078E+02  0.4247E+02  0.4236E+02
     -2.569  0.2529E+01  0.4369E+01  0.4259E+02  0.4258E+02
     -2.518  0.6394E+01  0.6322E+01  0.4292E+02  0.4290E+02
     -2.468  0.7875E+01  0.5288E+01  0.4332E+02  0.4317E+02
     -2.417  0.1733E+02  0.1629E+02  0.4419E+02  0.4400E+02
     -2.366  0.7795E+01  0.9549E+01  0.4459E+02  0.4448E+02
     -2.316  0.1553E+02  0.1044E+02  0.4537E+02  0.4501E+02
     -2.265  0.8635E+01  0.1470E+02  0.4581E+02  0.4575E+02
     -2.214  0.8785E+00  0.1597E+01  0.4586E+02  0.4583E+02
     -2.164  0.1270E+02  0.1100E+02  0.4650E+02  0.4639E+02
     -2.113  0.1988E+02  0.2151E+02  0.4751E+02  0.4748E+02
     -2.062  0.1214E+02  0.9071E+01  0.4812E+02  0.4794E+02
     -2.012  0.1241E+02  0.1474E+02  0.4875E+02  0.4869E+02
     -1.961  0.5911E+01  0.5681E+01  0.4905E+02  0.4897E+02
     -1.911  0.1436E+02  0.9388E+01  0.4977E+02  0.4945E+02
     -1.860  0.7978E+01  0.1420E+02  0.5018E+02  0.5017E+02
     -1.809  0.8403E+01  0.8028E+01  0.5060E+02  0.5057E+02
     -1.759  0.2233E+02  0.1534E+02  0.5173E+02  0.5135E+02
     -1.708  0.1469E+02  0.2077E+02  0.5248E+02  0.5240E+02
     -1.657  0.9877E+01  0.9526E+01  0.5298E+02  0.5288E+02
     -1.607  0.1100E+02  0.1046E+02  0.5354E+02  0.5341E+02
     -1.556  0.3197E+02  0.2816E+02  0.5515E+02  0.5484E+02
     -1.506  0.1960E+02  0.2230E+02  0.5615E+02  0.5597E+02
     -1.455  0.3728E+01  0.7196E+01  0.5634E+02  0.5633E+02
     -1.404  0.4922E+01  0.4360E+01  0.5658E+02  0.5655E+02
     -1.354  0.2504E+02  0.2337E+02  0.5785E+02  0.5774E+02
     -1.303  0.1703E+02  0.1633E+02  0.5871E+02  0.5856E+02
     -1.252  0.8887E+01  0.7828E+01  0.5916E+02  0.5896E+02
     -1.202  0.7420E+01  0.8409E+01  0.5954E+02  0.5939E+02
     -1.151  0.7465E+01  0.1004E+02  0.5992E+02  0.5989E+02
     -1.100  0.1420E+02  0.8322E+01  0.6064E+02  0.6032E+02
     -1.050  0.1074E+02  0.1680E+02  0.6118E+02  0.6117E+02
     -0.999  0.1467E+02  0.1461E+02  0.6192E+02  0.6191E+02
     -0.949  0.2095E+02  0.1407E+02  0.6298E+02  0.6262E+02
     -0.898  0.8776E+01  0.1570E+02  0.6343E+02  0.6341E+02
     -0.847  0.1537E+02  0.9475E+01  0.6421E+02  0.6389E+02
     -0.797  0.7937E+01  0.9320E+01  0.6461E+02  0.6437E+02
     -0.746  0.1372E+02  0.1107E+02  0.6530E+02  0.6493E+02
     -0.695  0.1047E+02  0.1716E+02  0.6583E+02  0.6579E+02
     -0.645  0.3159E+01  0.8692E+00  0.6599E+02  0.6584E+02
     -0.594  0.9901E+01  0.1137E+02  0.6649E+02  0.6641E+02
     -0.544  0.8488E+01  0.6207E+01  0.6692E+02  0.6673E+02
     -0.493  0.1190E+02  0.1243E+02  0.6753E+02  0.6736E+02
     -0.442  0.2585E+02  0.2294E+02  0.6884E+02  0.6852E+02
     -0.392  0.1682E+02  0.2074E+02  0.6969E+02  0.6957E+02
     -0.341  0.1598E+02  0.1575E+02  0.7050E+02  0.7037E+02
     -0.290  0.1712E+02  0.1681E+02  0.7136E+02  0.7122E+02
     -0.240  0.2277E+02  0.1465E+02  0.7252E+02  0.7196E+02
     -0.189  0.2235E+02  0.2764E+02  0.7365E+02  0.7336E+02
     -0.139  0.6145E+01  0.1102E+02  0.7396E+02  0.7392E+02
     -0.088  0.2535E+02  0.1881E+02  0.7524E+02  0.7487E+02
     -0.037  0.2069E+02  0.2576E+02  0.7629E+02  0.7617E+02
      0.013  0.1024E+02  0.8161E+01  0.7681E+02  0.7659E+02
      0.064  0.1178E+02  0.1374E+02  0.7740E+02  0.7728E+02
      0.115  0.6615E+01  0.6287E+01  0.7774E+02  0.7760E+02
      0.165  0.1409E+02  0.1419E+02  0.7845E+02  0.7832E+02
      0.216  0.1411E+02  0.1668E+02  0.7917E+02  0.7916E+02
      0.267  0.8559E+01  0.5099E+01  0.7960E+02  0.7942E+02
      0.317  0.9594E+01  0.1008E+02  0.8009E+02  0.7993E+02
      0.368  0.9033E+01  0.1099E+02  0.8054E+02  0.8049E+02
      0.418  0.7668E+01  0.5288E+01  0.8093E+02  0.8076E+02
      0.469  0.4648E+01  0.8093E+01  0.8117E+02  0.8117E+02
      0.520  0.1394E+02  0.6816E+01  0.8187E+02  0.8151E+02
      0.570  0.2207E+02  0.2538E+02  0.8299E+02  0.8280E+02
      0.621  0.9939E+01  0.1043E+02  0.8349E+02  0.8332E+02
      0.672  0.2299E+02  0.1837E+02  0.8466E+02  0.8425E+02
      0.722  0.2404E+02  0.2353E+02  0.8587E+02  0.8545E+02
      0.773  0.2099E+02  0.2077E+02  0.8694E+02  0.8650E+02
      0.823  0.1628E+02  0.1978E+02  0.8776E+02  0.8750E+02
      0.874  0.9850E+01  0.1164E+02  0.8826E+02  0.8809E+02
      0.925  0.1797E+02  0.2019E+02  0.8917E+02  0.8911E+02
      0.975  0.1998E+02  0.1964E+02  0.9018E+02  0.9010E+02
      1.026  0.2233E+02  0.1755E+02  0.9131E+02  0.9099E+02
      1.077  0.1582E+02  0.2006E+02  0.9211E+02  0.9201E+02
      1.127  0.1139E+02  0.1030E+02  0.9269E+02  0.9253E+02
      1.178  0.1309E+02  0.1130E+02  0.9335E+02  0.9310E+02
      1.229  0.7988E+01  0.7282E+01  0.9376E+02  0.9347E+02
      1.279  0.2155E+02  0.2059E+02  0.9485E+02  0.9451E+02
      1.330  0.2160E+02  0.2761E+02  0.9594E+02  0.9591E+02
      1.380  0.8443E+01  0.5381E+01  0.9637E+02  0.9618E+02
      1.431  0.1395E+02  0.1456E+02  0.9708E+02  0.9692E+02
      1.482  0.2739E+02  0.1930E+02  0.9846E+02  0.9790E+02
      1.532  0.1632E+02  0.2297E+02  0.9929E+02  0.9906E+02
      1.583  0.2344E+02  0.1789E+02  0.1005E+03  0.9997E+02
      1.634  0.1114E+02  0.1567E+02  0.1010E+03  0.1008E+03
      1.684  0.2083E+02  0.1867E+02  0.1021E+03  0.1017E+03
      1.735  0.2303E+02  0.2790E+02  0.1033E+03  0.1031E+03
      1.785  0.1752E+02  0.1268E+02  0.1041E+03  0.1038E+03
      1.836  0.1680E+02  0.1814E+02  0.1050E+03  0.1047E+03
      1.887  0.2612E+02  0.2341E+02  0.1063E+03  0.1059E+03
      1.937  0.2914E+02  0.3443E+02  0.1078E+03  0.1076E+03
      1.988  0.2595E+02  0.2626E+02  0.1091E+03  0.1089E+03
      2.039  0.2657E+02  0.1367E+02  0.1105E+03  0.1096E+03
      2.089  0.1097E+02  0.2637E+02  0.1110E+03  0.1110E+03
      2.140  0.2444E+02  0.2179E+02  0.1122E+03  0.1121E+03
      2.190  0.2610E+02  0.1931E+02  0.1136E+03  0.1130E+03
      2.241  0.1909E+02  0.2070E+02  0.1145E+03  0.1141E+03
      2.292  0.3642E+02  0.3207E+02  0.1164E+03  0.1157E+03
      2.342  0.2261E+02  0.3125E+02  0.1175E+03  0.1173E+03
      2.393  0.2722E+02  0.2006E+02  0.1189E+03  0.1183E+03
      2.444  0.1530E+02  0.2055E+02  0.1197E+03  0.1194E+03
      2.494  0.2347E+02  0.1711E+02  0.1209E+03  0.1202E+03
      2.545  0.2215E+02  0.3029E+02  0.1220E+03  0.1218E+03
      2.596  0.2761E+02  0.2265E+02  0.1234E+03  0.1229E+03
      2.646  0.3702E+02  0.3411E+02  0.1253E+03  0.1246E+03
      2.697  0.2372E+02  0.2860E+02  0.1265E+03  0.1261E+03
      2.747  0.1916E+02  0.1774E+02  0.1274E+03  0.1270E+03
      2.798  0.2535E+02  0.3021E+02  0.1287E+03  0.1285E+03
      2.849  0.3218E+02  0.2817E+02  0.1303E+03  0.1299E+03
      2.899  0.2651E+02  0.2837E+02  0.1317E+03  0.1314E+03
      2.950  0.2180E+02  0.2710E+02  0.1328E+03  0.1327E+03
      3.001  0.2111E+02  0.1529E+02  0.1339E+03  0.1335E+03
      3.051  0.2367E+02  0.1810E+02  0.1351E+03  0.1344E+03
      3.102  0.2393E+02  0.3276E+02  0.1363E+03  0.1361E+03
      3.152  0.3054E+02  0.2602E+02  0.1378E+03  0.1374E+03
      3.203  0.2361E+02  0.2420E+02  0.1390E+03  0.1386E+03
      3.254  0.3085E+02  0.2517E+02  0.1406E+03  0.1399E+03
      3.304  0.1907E+02  0.3145E+02  0.1415E+03  0.1415E+03
      3.355  0.2640E+02  0.1925E+02  0.1429E+03  0.1425E+03
      3.406  0.2261E+02  0.2270E+02  0.1440E+03  0.1436E+03
      3.456  0.2924E+02  0.2857E+02  0.1455E+03  0.1451E+03
      3.507  0.1425E+02  0.1588E+02  0.1462E+03  0.1459E+03
      3.558  0.3579E+02  0.2928E+02  0.1480E+03  0.1474E+03
      3.608  0.2582E+02  0.2978E+02  0.1493E+03  0.1489E+03
      3.659  0.2594E+02  0.2646E+02  0.1507E+03  0.1502E+03
      3.709  0.1851E+02  0.1505E+02  0.1516E+03  0.1510E+03
      3.760  0.3463E+02  0.4196E+02  0.1533E+03  0.1531E+03
      3.811  0.3040E+02  0.1875E+02  0.1549E+03  0.1540E+03
      3.861  0.1913E+02  0.2930E+02  0.1559E+03  0.1555E+03
      3.912  0.2757E+02  0.3002E+02  0.1572E+03  0.1570E+03
      3.963  0.1439E+02  0.1161E+02  0.1580E+03  0.1576E+03
      4.013  0.2746E+02  0.1865E+02  0.1594E+03  0.1586E+03
      4.064  0.3481E+02  0.3545E+02  0.1611E+03  0.1604E+03
      4.114  0.2139E+02  0.2795E+02  0.1622E+03  0.1618E+03
      4.165  0.3096E+02  0.2774E+02  0.1638E+03  0.1632E+03
      4.216  0.2673E+02  0.2477E+02  0.1651E+03  0.1644E+03
      4.266  0.2848E+02  0.3314E+02  0.1666E+03  0.1661E+03
      4.317  0.2851E+02  0.2759E+02  0.1680E+03  0.1675E+03
      4.368  0.2337E+02  0.2024E+02  0.1692E+03  0.1685E+03
      4.418  0.2527E+02  0.2662E+02  0.1705E+03  0.1699E+03
      4.469  0.3778E+02  0.3180E+02  0.1724E+03  0.1715E+03
      4.520  0.2446E+02  0.3145E+02  0.1736E+03  0.1731E+03
      4.570  0.2044E+02  0.2629E+02  0.1747E+03  0.1744E+03
      4.621  0.3135E+02  0.2424E+02  0.1763E+03  0.1757E+03
      4.671  0.3354E+02  0.3032E+02  0.1780E+03  0.1772E+03
      4.722  0.1618E+02  0.2408E+02  0.1788E+03  0.1784E+03
      4.773  0.3807E+02  0.2402E+02  0.1807E+03  0.1796E+03
      4.823  0.1740E+02  0.2787E+02  0.1816E+03  0.1810E+03
      4.874  0.3158E+02  0.2956E+02  0.1832E+03  0.1825E+03
      4.925  0.2956E+02  0.2193E+02  0.1847E+03  0.1836E+03
      4.975  0.2864E+02  0.3707E+02  0.1861E+03  0.1855E+03
      5.026  0.1655E+02  0.2187E+02  0.1870E+03  0.1866E+03
      5.076  0.3477E+02  0.2086E+02  0.1887E+03  0.1877E+03
      5.127  0.3250E+02  0.4196E+02  0.1904E+03  0.1898E+03
      5.178  0.3033E+02  0.2453E+02  0.1919E+03  0.1910E+03
      5.228  0.2354E+02  0.2635E+02  0.1931E+03  0.1924E+03
      5.279  0.2445E+02  0.1974E+02  0.1943E+03  0.1934E+03
      5.330  0.1780E+02  0.3177E+02  0.1952E+03  0.1950E+03
      5.380  0.5310E+02  0.3559E+02  0.1979E+03  0.1968E+03
      5.431  0.1729E+02  0.2767E+02  0.1988E+03  0.1982E+03
      5.481  0.2755E+02  0.2662E+02  0.2002E+03  0.1995E+03
      5.532  0.3524E+02  0.3395E+02  0.2020E+03  0.2013E+03
      5.583  0.2065E+02  0.2439E+02  0.2030E+03  0.2025E+03
      5.633  0.1955E+02  0.2154E+02  0.2040E+03  0.2036E+03
      5.684  0.2983E+02  0.2147E+02  0.2055E+03  0.2047E+03
      5.735  0.3052E+02  0.3405E+02  0.2071E+03  0.2064E+03
      5.785  0.2281E+02  0.2844E+02  0.2082E+03  0.2078E+03
      5.836  0.3299E+02  0.2593E+02  0.2099E+03  0.2091E+03
      5.887  0.3194E+02  0.2710E+02  0.2115E+03  0.2105E+03
      5.937  0.2151E+02  0.2797E+02  0.2126E+03  0.2119E+03
      5.988  0.1305E+02  0.1613E+02  0.2133E+03  0.2128E+03
      6.038  0.3961E+02  0.3285E+02  0.2153E+03  0.2144E+03
      6.089  0.3069E+02  0.3688E+02  0.2168E+03  0.2163E+03
      6.140  0.2354E+02  0.3090E+02  0.2180E+03  0.2178E+03
      6.190  0.3031E+02  0.2256E+02  0.2195E+03  0.2190E+03
      6.241  0.2913E+02  0.3540E+02  0.2210E+03  0.2208E+03
      6.292  0.3153E+02  0.2517E+02  0.2226E+03  0.2221E+03
      6.342  0.3449E+02  0.2855E+02  0.2244E+03  0.2235E+03
      6.393  0.2266E+02  0.2346E+02  0.2255E+03  0.2247E+03
      6.443  0.3493E+02  0.3779E+02  0.2273E+03  0.2266E+03
      6.494  0.1733E+02  0.2288E+02  0.2282E+03  0.2278E+03
      6.545  0.2928E+02  0.2836E+02  0.2296E+03  0.2292E+03
      6.595  0.2027E+02  0.2222E+02  0.2307E+03  0.2303E+03
      6.646  0.2442E+02  0.2838E+02  0.2319E+03  0.2318E+03
      6.697  0.1912E+01  0.4786E+01  0.2320E+03  0.2320E+03
      6.747  0.0000E+00  0.0000E+00  0.2320E+03  0.2320E+03
      6.798  0.0000E+00  0.0000E+00  0.2320E+03  0.2320E+03
      6.849  0.0000E+00  0.0000E+00  0.2320E+03  0.2320E+03
      6.899  0.0000E+00  0.0000E+00  0.2320E+03  0.2320E+03
      6.950  0.0000E+00  0.0000E+00  0.2320E+03  0.2320E+03
      7.000  0.0000E+00  0.0000E+00  0.2320E+03  0.2320E+03
      7.051  0.0000E+00  0.0000E+00  0.2320E+03  0.2320E+03
      7.102  0.0000E+00  0.0000E+00  0.2320E+03  0.2320E+03
      7.152  0.0000E+00  0.0000E+00  0.2320E+03  0.2320E+03
      7.203  0.0000E+00  0.0000E+00  0.2320E+03  0.2320E+03
      7.254  0.0000E+00  0.0000E+00  0.2320E+03  0.2320E+03
      7.304  0.0000E+00  0.0000E+00  0.2320E+03  0.2320E+03
      7.355  0.0000E+00  0.0000E+00  0.2320E+03  0.2320E+03
