Si and Ge interface calculation         
           1
    16.002676    0.000000    0.000000
   -16.002676   11.315601    0.000000
     0.000000    0.000000   21.473068
   Ge   Sn
    96    72
Direct configuration=     1
   0.96906769  0.47937849  0.00000001
   0.59406769  0.22937848  0.09315552
   0.21906763  0.97937840  0.18631107
   0.84406769  0.72937846  0.27946654
   0.46906781  0.47937852  0.37262207
   0.09406769  0.22937846  0.46577755
   0.96906769  0.97937846  0.00000001
   0.59406769  0.72937846  0.09315553
   0.21906763  0.47937840  0.18631105
   0.84406769  0.22937846  0.27946654
   0.46906781  0.97937858  0.37262198
   0.09406769  0.72937846  0.46577755
   0.46906772  0.47937849  0.00000001
   0.09406771  0.22937848  0.09315553
   0.71906763  0.97937840  0.18631105
   0.34406775  0.72937846  0.27946654
   0.96906781  0.47937852  0.37262198
   0.59406769  0.22937846  0.46577755
   0.46906769  0.97937846  0.00000000
   0.09406770  0.72937846  0.09315552
   0.71906763  0.47937840  0.18631105
   0.34406769  0.22937846  0.27946654
   0.96906781  0.97937858  0.37262207
   0.59406769  0.72937846  0.46577752
   0.21906771  0.47937849  0.00000001
   0.84406769  0.22937848  0.09315553
   0.46906763  0.97937840  0.18631105
   0.09406769  0.72937846  0.27946654
   0.71906781  0.47937852  0.37262207
   0.34406769  0.22937846  0.46577752
   0.21906768  0.97937846  0.00000001
   0.84406769  0.72937846  0.09315553
   0.46906763  0.47937840  0.18631105
   0.09406769  0.22937846  0.27946654
   0.71906781  0.97937858  0.37262207
   0.34406769  0.72937846  0.46577755
   0.71906769  0.47937849  0.00000001
   0.34406772  0.22937848  0.09315553
   0.96906763  0.97937840  0.18631105
   0.59406769  0.72937846  0.27946654
   0.21906775  0.47937852  0.37262207
   0.84406769  0.22937846  0.46577752
   0.71906763  0.97937846  0.00000002
   0.34406769  0.72937846  0.09315554
   0.96906763  0.47937840  0.18631105
   0.59406769  0.22937846  0.27946654
   0.21906787  0.97937858  0.37262210
   0.84406769  0.72937846  0.46577755
   0.21906774  0.85437852  0.00000000
   0.84406769  0.60437846  0.09315553
   0.46906769  0.35437846  0.18631105
   0.09406775  0.10437850  0.27946654
   0.71906781  0.85437852  0.37262198
   0.34406769  0.60437852  0.46577755
   0.21906768  0.35437846  0.00000001
   0.84406769  0.10437846  0.09315552
   0.46906763  0.85437840  0.18631105
   0.09406763  0.60437846  0.27946654
   0.71906769  0.35437846  0.37262207
   0.34406757  0.10437840  0.46577752
   0.71906775  0.85437852  0.00000001
   0.34406766  0.60437846  0.09315553
   0.96906763  0.35437846  0.18631104
   0.59406769  0.10437850  0.27946654
   0.21906781  0.85437852  0.37262207
   0.84406769  0.60437852  0.46577752
   0.71906769  0.35437846  0.00000001
   0.34406769  0.10437846  0.09315553
   0.96906763  0.85437840  0.18631107
   0.59406769  0.60437846  0.27946654
   0.21906775  0.35437846  0.37262207
   0.84406757  0.10437840  0.46577755
   0.96906769  0.85437852  0.00000002
   0.59406763  0.60437846  0.09315554
   0.21906763  0.35437846  0.18631105
   0.84406757  0.10437850  0.27946657
   0.46906781  0.85437852  0.37262210
   0.09406769  0.60437852  0.46577755
   0.96906769  0.35437846  0.00000000
   0.59406769  0.10437846  0.09315553
   0.21906763  0.85437840  0.18631105
   0.84406769  0.60437846  0.27946654
   0.46906769  0.35437846  0.37262198
   0.09406769  0.10437840  0.46577752
   0.46906775  0.85437852  0.00000000
   0.09406768  0.60437846  0.09315553
   0.71906769  0.35437846  0.18631105
   0.34406775  0.10437850  0.27946654
   0.96906781  0.85437852  0.37262198
   0.59406781  0.60437852  0.46577752
   0.46906769  0.35437846  0.00000001
   0.09406769  0.10437846  0.09315553
   0.71906763  0.85437840  0.18631104
   0.34406769  0.60437846  0.27946654
   0.96906769  0.35437846  0.37262207
   0.59406769  0.10437840  0.46577752
   0.98202050  0.66666669  0.46577755
   0.73202050  0.66666669  0.57262194
   0.48202038  0.66666651  0.67946661
   0.23202032  0.66666657  0.78631103
   0.98202026  0.66666639  0.89315546
   0.73202026  0.66666639  0.00000000
   0.98202050  0.33333334  0.46577755
   0.73202050  0.33333331  0.57262194
   0.48202038  0.33333319  0.67946661
   0.23202032  0.33333313  0.78631103
   0.98202026  0.33333302  0.89315546
   0.73202026  0.33333302  0.00000000
   0.98202050  0.00000000  0.46577755
   0.73202050  0.99999994  0.57262194
   0.48202038  0.99999982  0.67946661
   0.23202032  0.99999982  0.78631103
   0.98202026  0.99999970  0.89315546
   0.73202026  0.99999958  0.00000000
   0.48202050  0.66666669  0.46577755
   0.23202048  0.66666669  0.57262194
   0.98202038  0.66666657  0.67946661
   0.73202038  0.66666651  0.78631103
   0.48202032  0.66666633  0.89315546
   0.23202026  0.66666633  0.00000000
   0.48202050  0.33333334  0.46577755
   0.23202048  0.33333328  0.57262194
   0.98202038  0.33333319  0.67946661
   0.73202038  0.33333316  0.78631103
   0.48202032  0.33333307  0.89315546
   0.23202026  0.33333296  0.00000000
   0.48202050  0.00000000  0.46577755
   0.23202048  0.99999994  0.57262194
   0.98202038  0.99999988  0.67946661
   0.73202038  0.99999982  0.78631103
   0.48202032  0.99999970  0.89315546
   0.23202026  0.99999964  0.00000000
   0.73202050  0.91666675  0.46577755
   0.48202047  0.91666669  0.57262206
   0.23202039  0.91666663  0.67946661
   0.98202032  0.91666657  0.78631103
   0.73202026  0.91666639  0.89315558
   0.48202026  0.91666645  0.00000000
   0.73202050  0.58333337  0.46577755
   0.48202047  0.58333331  0.57262206
   0.23202039  0.58333319  0.67946661
   0.98202032  0.58333319  0.78631103
   0.73202026  0.58333313  0.89315558
   0.48202026  0.58333307  0.00000000
   0.73202050  0.25000000  0.46577755
   0.48202047  0.24999992  0.57262206
   0.23202039  0.24999987  0.67946661
   0.98202032  0.24999979  0.78631103
   0.73202026  0.24999973  0.89315558
   0.48202026  0.24999967  0.00000000
   0.23202050  0.91666675  0.46577755
   0.98202050  0.91666669  0.57262206
   0.73202038  0.91666657  0.67946661
   0.48202026  0.91666663  0.78631103
   0.23202032  0.91666645  0.89315546
   0.98202026  0.91666651  0.00000000
   0.23202050  0.58333337  0.46577755
   0.98202050  0.58333331  0.57262206
   0.73202038  0.58333319  0.67946661
   0.48202026  0.58333313  0.78631103
   0.23202032  0.58333307  0.89315546
   0.98202026  0.58333313  0.00000000
   0.23202050  0.25000003  0.46577755
   0.98202050  0.24999997  0.57262206
   0.73202038  0.24999985  0.67946661
   0.48202026  0.24999973  0.78631103
   0.23202032  0.24999979  0.89315546
   0.98202026  0.24999973  0.00000000
