   8   8   0   0
  0.2802521E+02  0.6075000E-09  0.6075000E-09  0.6075000E-09  0.5000000E-15
  1.000000000000000E-004
  CAR 
 Si and Ge interface calculation         
      6.85481648     -8.72080070  301      2.79329763      1.00000000
     -8.721  0.0000E+00  0.0000E+00  0.0000E+00  0.0000E+00
     -8.669  0.0000E+00  0.0000E+00  0.0000E+00  0.0000E+00
     -8.617  0.0000E+00  0.0000E+00  0.0000E+00  0.0000E+00
     -8.565  0.0000E+00  0.0000E+00  0.0000E+00  0.0000E+00
     -8.513  0.0000E+00  0.0000E+00  0.0000E+00  0.0000E+00
     -8.461  0.0000E+00  0.0000E+00  0.0000E+00  0.0000E+00
     -8.409  0.0000E+00  0.0000E+00  0.0000E+00  0.0000E+00
     -8.357  0.0000E+00  0.0000E+00  0.0000E+00  0.0000E+00
     -8.305  0.0000E+00  0.0000E+00  0.0000E+00  0.0000E+00
     -8.254  0.0000E+00  0.0000E+00  0.0000E+00  0.0000E+00
     -8.202  0.0000E+00  0.0000E+00  0.0000E+00  0.0000E+00
     -8.150  0.0000E+00  0.0000E+00  0.0000E+00  0.0000E+00
     -8.098  0.0000E+00  0.0000E+00  0.0000E+00  0.0000E+00
     -8.046  0.4586E-06  0.0000E+00  0.2381E-07  0.0000E+00
     -7.994  0.3070E+00  0.0000E+00  0.1594E-01  0.0000E+00
     -7.942  0.1169E-02  0.1569E-06  0.1600E-01  0.8147E-08
     -7.890  0.3740E-02  0.3060E+00  0.1619E-01  0.1589E-01
     -7.838  0.1845E+01  0.2175E-02  0.1120E+00  0.1600E-01
     -7.786  0.1232E-14  0.1884E-02  0.1120E+00  0.1610E-01
     -7.734  0.8622E+00  0.1847E+01  0.1568E+00  0.1120E+00
     -7.682  0.2836E+01  0.2053E-15  0.3040E+00  0.1120E+00
     -7.631  0.5391E-07  0.6492E+00  0.3040E+00  0.1457E+00
     -7.579  0.2389E+01  0.3049E+01  0.4280E+00  0.3040E+00
     -7.527  0.7625E-01  0.1739E-07  0.4320E+00  0.3040E+00
     -7.475  0.1518E-04  0.2348E+01  0.4320E+00  0.4259E+00
     -7.423  0.1847E+01  0.1169E+00  0.5279E+00  0.4320E+00
     -7.371  0.2233E-02  0.6113E-05  0.5280E+00  0.4320E+00
     -7.319  0.1211E+01  0.1845E+01  0.5909E+00  0.5278E+00
     -7.267  0.6185E+01  0.4215E-02  0.9120E+00  0.5280E+00
     -7.215  0.1218E-03  0.8966E+00  0.9120E+00  0.5745E+00
     -7.163  0.7391E+01  0.6500E+01  0.1296E+01  0.9120E+00
     -7.111  0.5255E-02  0.5449E-04  0.1296E+01  0.9120E+00
     -7.059  0.0000E+00  0.7386E+01  0.1296E+01  0.1295E+01
     -7.007  0.0000E+00  0.9667E-02  0.1296E+01  0.1296E+01
     -6.956  0.1033E-04  0.0000E+00  0.1296E+01  0.1296E+01
     -6.904  0.3689E+01  0.0000E+00  0.1488E+01  0.1296E+01
     -6.852  0.9439E-02  0.4488E-05  0.1488E+01  0.1296E+01
     -6.800  0.7373E+01  0.3682E+01  0.1871E+01  0.1487E+01
     -6.748  0.1114E+01  0.1588E-01  0.1929E+01  0.1488E+01
     -6.696  0.7581E+00  0.7359E+01  0.1968E+01  0.1870E+01
     -6.644  0.7426E+00  0.9852E+00  0.2007E+01  0.1921E+01
     -6.592  0.6654E+01  0.9007E+00  0.2352E+01  0.1968E+01
     -6.540  0.1922E+01  0.5270E+00  0.2452E+01  0.1995E+01
     -6.488  0.7939E+01  0.6869E+01  0.2864E+01  0.2352E+01
     -6.436  0.0000E+00  0.1509E+01  0.2864E+01  0.2430E+01
     -6.384  0.0000E+00  0.8352E+01  0.2864E+01  0.2864E+01
     -6.333  0.1043E-02  0.0000E+00  0.2864E+01  0.2864E+01
     -6.281  0.7404E+01  0.0000E+00  0.3248E+01  0.2864E+01
     -6.229  0.1478E+02  0.5211E-03  0.4016E+01  0.2864E+01
     -6.177  0.1438E+01  0.7400E+01  0.4091E+01  0.3248E+01
     -6.125  0.5958E+01  0.1479E+02  0.4400E+01  0.4016E+01
     -6.073  0.0000E+00  0.1213E+01  0.4400E+01  0.4079E+01
     -6.021  0.0000E+00  0.6183E+01  0.4400E+01  0.4400E+01
     -5.969  0.0000E+00  0.0000E+00  0.4400E+01  0.4400E+01
     -5.917  0.7541E-01  0.0000E+00  0.4404E+01  0.4400E+01
     -5.865  0.7321E+01  0.0000E+00  0.4784E+01  0.4400E+01
     -5.813  0.4305E+01  0.4757E-01  0.5007E+01  0.4402E+01
     -5.761  0.1296E+01  0.7349E+01  0.5075E+01  0.4784E+01
     -5.710  0.8190E+01  0.3923E+01  0.5500E+01  0.4988E+01
     -5.658  0.6549E+01  0.1647E+01  0.5840E+01  0.5073E+01
     -5.606  0.1474E+02  0.7881E+01  0.6606E+01  0.5482E+01
     -5.554  0.6989E-01  0.6889E+01  0.6609E+01  0.5840E+01
     -5.502  0.7374E+01  0.1469E+02  0.6992E+01  0.6603E+01
     -5.450  0.0000E+00  0.1098E+00  0.6992E+01  0.6608E+01
     -5.398  0.0000E+00  0.7388E+01  0.6992E+01  0.6992E+01
     -5.346  0.0000E+00  0.0000E+00  0.6992E+01  0.6992E+01
     -5.294  0.3736E-01  0.0000E+00  0.6994E+01  0.6992E+01
     -5.242  0.7359E+01  0.0000E+00  0.7376E+01  0.6992E+01
     -5.190  0.0000E+00  0.9022E-02  0.7376E+01  0.6992E+01
     -5.138  0.0000E+00  0.7387E+01  0.7376E+01  0.7376E+01
     -5.086  0.2105E+00  0.0000E+00  0.7387E+01  0.7376E+01
     -5.035  0.3557E+01  0.0000E+00  0.7572E+01  0.7376E+01
     -4.983  0.4561E+01  0.3579E-01  0.7808E+01  0.7378E+01
     -4.931  0.3690E+01  0.3669E+01  0.8000E+01  0.7568E+01
     -4.879  0.0000E+00  0.4475E+01  0.8000E+01  0.7801E+01
     -4.827  0.0000E+00  0.3839E+01  0.8000E+01  0.8000E+01
     -4.775  0.0000E+00  0.2216E-03  0.8000E+01  0.8000E+01
     -4.723  0.0000E+00  0.0000E+00  0.8000E+01  0.8000E+01
     -4.671  0.0000E+00  0.0000E+00  0.8000E+01  0.8000E+01
     -4.619  0.0000E+00  0.0000E+00  0.8000E+01  0.8000E+01
     -4.567  0.0000E+00  0.0000E+00  0.8000E+01  0.8000E+01
     -4.515  0.0000E+00  0.0000E+00  0.8000E+01  0.8000E+01
     -4.463  0.0000E+00  0.0000E+00  0.8000E+01  0.8000E+01
     -4.412  0.0000E+00  0.0000E+00  0.8000E+01  0.8000E+01
     -4.360  0.0000E+00  0.0000E+00  0.8000E+01  0.8000E+01
     -4.308  0.0000E+00  0.0000E+00  0.8000E+01  0.8000E+01
     -4.256  0.0000E+00  0.0000E+00  0.8000E+01  0.8000E+01
     -4.204  0.0000E+00  0.0000E+00  0.8000E+01  0.8000E+01
     -4.152  0.0000E+00  0.0000E+00  0.8000E+01  0.8000E+01
     -4.100  0.0000E+00  0.0000E+00  0.8000E+01  0.8000E+01
     -4.048  0.1105E+00  0.0000E+00  0.8006E+01  0.8000E+01
     -3.996  0.4441E+01  0.7996E-12  0.8236E+01  0.8000E+01
     -3.944  0.3744E+01  0.5672E+00  0.8431E+01  0.8029E+01
     -3.892  0.3712E+01  0.4056E+01  0.8623E+01  0.8240E+01
     -3.840  0.1109E-01  0.3699E+01  0.8624E+01  0.8432E+01
     -3.789  0.0000E+00  0.3696E+01  0.8624E+01  0.8624E+01
     -3.737  0.0000E+00  0.0000E+00  0.8624E+01  0.8624E+01
     -3.685  0.3686E-03  0.0000E+00  0.8624E+01  0.8624E+01
     -3.633  0.7394E+01  0.0000E+00  0.9008E+01  0.8624E+01
     -3.581  0.2065E-02  0.1530E-01  0.9008E+01  0.8625E+01
     -3.529  0.0000E+00  0.7381E+01  0.9008E+01  0.9008E+01
     -3.477  0.0000E+00  0.0000E+00  0.9008E+01  0.9008E+01
     -3.425  0.0000E+00  0.0000E+00  0.9008E+01  0.9008E+01
     -3.373  0.2412E+00  0.0000E+00  0.9021E+01  0.9008E+01
     -3.321  0.2195E+02  0.0000E+00  0.1016E+02  0.9008E+01
     -3.269  0.8211E-15  0.1143E+01  0.1016E+02  0.9067E+01
     -3.217  0.1428E+01  0.2105E+02  0.1023E+02  0.1016E+02
     -3.165  0.1343E+02  0.3324E-12  0.1093E+02  0.1016E+02
     -3.114  0.1452E+02  0.3377E+01  0.1169E+02  0.1034E+02
     -3.062  0.3957E+01  0.1149E+02  0.1189E+02  0.1093E+02
     -3.010  0.1787E+01  0.1470E+02  0.1198E+02  0.1169E+02
     -2.958  0.0000E+00  0.4077E+01  0.1198E+02  0.1191E+02
     -2.906  0.0000E+00  0.1493E+01  0.1198E+02  0.1198E+02
     -2.854  0.0000E+00  0.0000E+00  0.1198E+02  0.1198E+02
     -2.802  0.0000E+00  0.0000E+00  0.1198E+02  0.1198E+02
     -2.750  0.5940E+00  0.0000E+00  0.1201E+02  0.1198E+02
     -2.698  0.1428E+02  0.0000E+00  0.1276E+02  0.1198E+02
     -2.646  0.2387E+01  0.1026E+01  0.1288E+02  0.1204E+02
     -2.594  0.0000E+00  0.1383E+02  0.1288E+02  0.1276E+02
     -2.542  0.0000E+00  0.2397E+01  0.1288E+02  0.1288E+02
     -2.491  0.0000E+00  0.0000E+00  0.1288E+02  0.1288E+02
     -2.439  0.3509E-01  0.0000E+00  0.1288E+02  0.1288E+02
     -2.387  0.7361E+01  0.0000E+00  0.1326E+02  0.1288E+02
     -2.335  0.0000E+00  0.1526E+00  0.1326E+02  0.1289E+02
     -2.283  0.0000E+00  0.7244E+01  0.1326E+02  0.1326E+02
     -2.231  0.0000E+00  0.0000E+00  0.1326E+02  0.1326E+02
     -2.179  0.3440E-05  0.0000E+00  0.1326E+02  0.1326E+02
     -2.127  0.7341E+01  0.0000E+00  0.1365E+02  0.1326E+02
     -2.075  0.5484E-01  0.2896E-04  0.1365E+02  0.1326E+02
     -2.023  0.0000E+00  0.7381E+01  0.1365E+02  0.1365E+02
     -1.971  0.7007E-04  0.1505E-01  0.1365E+02  0.1365E+02
     -1.919  0.7388E+01  0.0000E+00  0.1403E+02  0.1365E+02
     -1.868  0.8037E-02  0.1241E-03  0.1403E+02  0.1365E+02
     -1.816  0.6698E+01  0.7391E+01  0.1438E+02  0.1403E+02
     -1.764  0.6982E+00  0.5181E-02  0.1442E+02  0.1403E+02
     -1.712  0.0000E+00  0.7197E+01  0.1442E+02  0.1441E+02
     -1.660  0.0000E+00  0.1993E+00  0.1442E+02  0.1442E+02
     -1.608  0.1347E-09  0.0000E+00  0.1442E+02  0.1442E+02
     -1.556  0.1525E+01  0.0000E+00  0.1450E+02  0.1442E+02
     -1.504  0.3245E+00  0.9170E-08  0.1451E+02  0.1442E+02
     -1.452  0.1331E+00  0.1750E+01  0.1452E+02  0.1451E+02
     -1.400  0.3565E+01  0.9923E-01  0.1470E+02  0.1451E+02
     -1.348  0.0000E+00  0.3144E+00  0.1470E+02  0.1453E+02
     -1.296  0.0000E+00  0.3384E+01  0.1470E+02  0.1470E+02
     -1.245  0.0000E+00  0.0000E+00  0.1470E+02  0.1470E+02
     -1.193  0.0000E+00  0.0000E+00  0.1470E+02  0.1470E+02
     -1.141  0.0000E+00  0.0000E+00  0.1470E+02  0.1470E+02
     -1.089  0.1328E-10  0.0000E+00  0.1470E+02  0.1470E+02
     -1.037  0.4820E+01  0.0000E+00  0.1495E+02  0.1470E+02
     -0.985  0.2576E+01  0.6794E-10  0.1509E+02  0.1470E+02
     -0.933  0.0000E+00  0.5426E+01  0.1509E+02  0.1499E+02
     -0.881  0.0000E+00  0.1970E+01  0.1509E+02  0.1509E+02
     -0.829  0.0000E+00  0.0000E+00  0.1509E+02  0.1509E+02
     -0.777  0.0000E+00  0.0000E+00  0.1509E+02  0.1509E+02
     -0.725  0.0000E+00  0.0000E+00  0.1509E+02  0.1509E+02
     -0.673  0.0000E+00  0.0000E+00  0.1509E+02  0.1509E+02
     -0.621  0.0000E+00  0.0000E+00  0.1509E+02  0.1509E+02
     -0.570  0.0000E+00  0.0000E+00  0.1509E+02  0.1509E+02
     -0.518  0.5837E-05  0.0000E+00  0.1509E+02  0.1509E+02
     -0.466  0.7355E+01  0.0000E+00  0.1547E+02  0.1509E+02
     -0.414  0.4084E-01  0.5867E-04  0.1547E+02  0.1509E+02
     -0.362  0.0000E+00  0.7387E+01  0.1547E+02  0.1547E+02
     -0.310  0.0000E+00  0.9161E-02  0.1547E+02  0.1547E+02
     -0.258  0.5071E-08  0.0000E+00  0.1547E+02  0.1547E+02
     -0.206  0.6661E+01  0.0000E+00  0.1582E+02  0.1547E+02
     -0.154  0.4434E+01  0.4277E-12  0.1605E+02  0.1547E+02
     -0.102  0.1345E-03  0.3464E+01  0.1605E+02  0.1565E+02
     -0.050  0.2035E-11  0.7615E+01  0.1605E+02  0.1605E+02
      0.002  0.2178E+01  0.1501E-01  0.1616E+02  0.1605E+02
      0.053  0.8126E+01  0.0000E+00  0.1658E+02  0.1605E+02
      0.105  0.1951E+02  0.5286E+00  0.1760E+02  0.1608E+02
      0.157  0.3826E+00  0.6409E+01  0.1762E+02  0.1641E+02
      0.209  0.5093E-01  0.2022E+02  0.1762E+02  0.1746E+02
      0.261  0.3995E+01  0.3044E+01  0.1783E+02  0.1762E+02
      0.313  0.1814E+02  0.5255E-03  0.1877E+02  0.1762E+02
      0.365  0.6750E+01  0.3719E+01  0.1912E+02  0.1781E+02
      0.417  0.6468E+00  0.1845E+02  0.1915E+02  0.1877E+02
      0.469  0.0000E+00  0.4676E+01  0.1915E+02  0.1901E+02
      0.521  0.0000E+00  0.2741E+01  0.1915E+02  0.1915E+02
      0.573  0.2548E-02  0.0000E+00  0.1915E+02  0.1915E+02
      0.625  0.5805E+01  0.0000E+00  0.1945E+02  0.1915E+02
      0.676  0.8984E+01  0.2434E-04  0.1992E+02  0.1915E+02
      0.728  0.2710E-13  0.4487E+01  0.1992E+02  0.1938E+02
      0.780  0.4435E+01  0.1030E+02  0.2015E+02  0.1992E+02
      0.832  0.1244E+02  0.1049E-02  0.2080E+02  0.1992E+02
      0.884  0.4986E+01  0.1116E+01  0.2106E+02  0.1998E+02
      0.936  0.1108E+02  0.1637E+02  0.2163E+02  0.2083E+02
      0.988  0.5883E+01  0.2533E+01  0.2194E+02  0.2096E+02
      1.040  0.8262E+01  0.1168E+02  0.2236E+02  0.2157E+02
      1.092  0.1183E+02  0.7139E+01  0.2298E+02  0.2194E+02
      1.144  0.7095E+01  0.7275E+01  0.2335E+02  0.2231E+02
      1.196  0.2397E+01  0.1146E+02  0.2347E+02  0.2291E+02
      1.248  0.1004E-07  0.7553E+01  0.2347E+02  0.2330E+02
      1.300  0.6890E+01  0.3301E+01  0.2383E+02  0.2347E+02
      1.351  0.1530E+02  0.3871E-10  0.2462E+02  0.2347E+02
      1.403  0.0000E+00  0.5228E+01  0.2462E+02  0.2374E+02
      1.455  0.2504E-10  0.1696E+02  0.2462E+02  0.2462E+02
      1.507  0.2659E+01  0.6974E-03  0.2476E+02  0.2462E+02
      1.559  0.1193E+02  0.5211E-13  0.2538E+02  0.2462E+02
      1.611  0.3904E+01  0.1464E+01  0.2558E+02  0.2470E+02
      1.663  0.7394E+01  0.1105E+02  0.2597E+02  0.2527E+02
      1.715  0.1588E+02  0.5981E+01  0.2679E+02  0.2558E+02
      1.767  0.7582E+00  0.7377E+01  0.2683E+02  0.2597E+02
      1.819  0.1892E-04  0.1390E+02  0.2683E+02  0.2669E+02
      1.871  0.3692E+01  0.2756E+01  0.2702E+02  0.2683E+02
      1.923  0.7475E+01  0.3018E-06  0.2741E+02  0.2683E+02
      1.974  0.1612E+02  0.3633E+01  0.2825E+02  0.2702E+02
      2.026  0.5993E+01  0.7304E+01  0.2856E+02  0.2740E+02
      2.078  0.0000E+00  0.1158E+02  0.2856E+02  0.2800E+02
      2.130  0.3002E-08  0.1076E+02  0.2856E+02  0.2856E+02
      2.182  0.6546E+01  0.0000E+00  0.2890E+02  0.2856E+02
      2.234  0.1120E+02  0.1343E-10  0.2948E+02  0.2856E+02
      2.286  0.7476E+00  0.4825E+01  0.2952E+02  0.2881E+02
      2.338  0.1632E+01  0.1182E+02  0.2960E+02  0.2942E+02
      2.390  0.5764E+01  0.1842E+01  0.2990E+02  0.2952E+02
      2.442  0.8734E-02  0.4183E+00  0.2990E+02  0.2954E+02
      2.494  0.4922E+01  0.6978E+01  0.3016E+02  0.2990E+02
      2.546  0.1101E+00  0.4967E-03  0.3017E+02  0.2990E+02
      2.597  0.3642E+01  0.4930E+01  0.3035E+02  0.3016E+02
      2.649  0.7342E+01  0.1148E-01  0.3074E+02  0.3016E+02
      2.701  0.7385E+01  0.3693E+01  0.3112E+02  0.3035E+02
      2.753  0.1337E+01  0.7391E+01  0.3119E+02  0.3074E+02
      2.805  0.2373E+01  0.7284E+01  0.3131E+02  0.3111E+02
      2.857  0.0000E+00  0.5586E+00  0.3131E+02  0.3114E+02
      2.909  0.0000E+00  0.3252E+01  0.3131E+02  0.3131E+02
      2.961  0.0000E+00  0.0000E+00  0.3131E+02  0.3131E+02
      3.013  0.8650E-10  0.0000E+00  0.3131E+02  0.3131E+02
      3.065  0.3767E+01  0.0000E+00  0.3151E+02  0.3131E+02
      3.117  0.4130E+01  0.2243E-12  0.3172E+02  0.3131E+02
      3.169  0.1041E+01  0.2248E+01  0.3178E+02  0.3143E+02
      3.221  0.0000E+00  0.4577E+01  0.3178E+02  0.3167E+02
      3.272  0.0000E+00  0.2112E+01  0.3178E+02  0.3178E+02
      3.324  0.0000E+00  0.0000E+00  0.3178E+02  0.3178E+02
      3.376  0.0000E+00  0.0000E+00  0.3178E+02  0.3178E+02
      3.428  0.5943E-01  0.0000E+00  0.3178E+02  0.3178E+02
      3.480  0.3639E+01  0.0000E+00  0.3197E+02  0.3178E+02
      3.532  0.0000E+00  0.4752E-02  0.3197E+02  0.3178E+02
      3.584  0.0000E+00  0.3693E+01  0.3197E+02  0.3197E+02
      3.636  0.2843E-04  0.0000E+00  0.3197E+02  0.3197E+02
      3.688  0.9241E+00  0.0000E+00  0.3202E+02  0.3197E+02
      3.740  0.1562E-02  0.3589E-06  0.3202E+02  0.3197E+02
      3.792  0.2464E+01  0.9170E+00  0.3214E+02  0.3202E+02
      3.844  0.0000E+00  0.1091E-01  0.3214E+02  0.3202E+02
      3.895  0.0000E+00  0.2462E+01  0.3214E+02  0.3214E+02
      3.947  0.0000E+00  0.0000E+00  0.3214E+02  0.3214E+02
      3.999  0.0000E+00  0.0000E+00  0.3214E+02  0.3214E+02
      4.051  0.0000E+00  0.0000E+00  0.3214E+02  0.3214E+02
      4.103  0.0000E+00  0.0000E+00  0.3214E+02  0.3214E+02
      4.155  0.6101E-12  0.0000E+00  0.3214E+02  0.3214E+02
      4.207  0.1226E+01  0.0000E+00  0.3221E+02  0.3214E+02
      4.259  0.4011E+01  0.0000E+00  0.3242E+02  0.3214E+02
      4.311  0.2593E-02  0.5419E-01  0.3242E+02  0.3215E+02
      4.363  0.0000E+00  0.5184E+01  0.3242E+02  0.3242E+02
      4.415  0.1577E+00  0.8309E-03  0.3242E+02  0.3242E+02
      4.467  0.1691E+01  0.0000E+00  0.3251E+02  0.3242E+02
      4.518  0.0000E+00  0.3241E-02  0.3251E+02  0.3242E+02
      4.570  0.8997E+00  0.1846E+01  0.3256E+02  0.3251E+02
      4.622  0.6780E+01  0.0000E+00  0.3291E+02  0.3251E+02
      4.674  0.3522E+01  0.1058E+01  0.3309E+02  0.3257E+02
      4.726  0.7288E+01  0.6343E+01  0.3347E+02  0.3290E+02
      4.778  0.3943E+01  0.3892E+01  0.3368E+02  0.3310E+02
      4.830  0.6364E+01  0.7197E+01  0.3401E+02  0.3347E+02
      4.882  0.7869E+00  0.6201E+00  0.3405E+02  0.3350E+02
      4.934  0.4213E+01  0.1009E+02  0.3427E+02  0.3403E+02
      4.986  0.1513E+02  0.3875E+00  0.3505E+02  0.3405E+02
      5.038  0.2848E+01  0.1037E+01  0.3520E+02  0.3410E+02
      5.090  0.4856E-08  0.1754E+02  0.3520E+02  0.3501E+02
      5.141  0.6943E+01  0.3614E+01  0.3556E+02  0.3520E+02
      5.193  0.1149E+02  0.4633E-11  0.3616E+02  0.3520E+02
      5.245  0.7427E+01  0.4532E+01  0.3654E+02  0.3544E+02
      5.297  0.2976E-01  0.1368E+02  0.3654E+02  0.3615E+02
      5.349  0.1658E+00  0.6934E+01  0.3655E+02  0.3651E+02
      5.401  0.5986E+01  0.7360E+00  0.3686E+02  0.3654E+02
      5.453  0.1234E+02  0.4147E+00  0.3750E+02  0.3657E+02
      5.505  0.7251E-02  0.5959E+01  0.3750E+02  0.3687E+02
      5.557  0.7389E+01  0.1212E+02  0.3789E+02  0.3750E+02
      5.609  0.8144E+01  0.1254E-03  0.3831E+02  0.3750E+02
      5.661  0.6663E+01  0.7391E+01  0.3866E+02  0.3789E+02
      5.713  0.8192E+01  0.3793E+01  0.3908E+02  0.3808E+02
      5.765  0.1041E+01  0.1102E+02  0.3914E+02  0.3866E+02
      5.816  0.7394E+01  0.7600E+01  0.3952E+02  0.3905E+02
      5.868  0.3498E-03  0.1632E+01  0.3952E+02  0.3914E+02
      5.920  0.5243E-09  0.7392E+01  0.3952E+02  0.3952E+02
      5.972  0.6090E+01  0.3489E-02  0.3984E+02  0.3952E+02
      6.024  0.1322E+01  0.2250E-08  0.3990E+02  0.3952E+02
      6.076  0.1833E+01  0.6477E+01  0.4000E+02  0.3986E+02
      6.128  0.0000E+00  0.9257E+00  0.4000E+02  0.3990E+02
      6.180  0.0000E+00  0.1842E+01  0.4000E+02  0.4000E+02
      6.232  0.0000E+00  0.0000E+00  0.4000E+02  0.4000E+02
      6.284  0.0000E+00  0.0000E+00  0.4000E+02  0.4000E+02
      6.336  0.0000E+00  0.0000E+00  0.4000E+02  0.4000E+02
      6.388  0.0000E+00  0.0000E+00  0.4000E+02  0.4000E+02
      6.439  0.0000E+00  0.0000E+00  0.4000E+02  0.4000E+02
      6.491  0.0000E+00  0.0000E+00  0.4000E+02  0.4000E+02
      6.543  0.0000E+00  0.0000E+00  0.4000E+02  0.4000E+02
      6.595  0.0000E+00  0.0000E+00  0.4000E+02  0.4000E+02
      6.647  0.0000E+00  0.0000E+00  0.4000E+02  0.4000E+02
      6.699  0.0000E+00  0.0000E+00  0.4000E+02  0.4000E+02
      6.751  0.0000E+00  0.0000E+00  0.4000E+02  0.4000E+02
      6.803  0.0000E+00  0.0000E+00  0.4000E+02  0.4000E+02
      6.855  0.0000E+00  0.0000E+00  0.4000E+02  0.4000E+02
