       N       E                     dE             d eps       ncg     rms          rms(c)
DAV:   1     0.149207979753E+03    0.14921E+03   -0.13304E+04  5040   0.159E+03
DAV:   2    -0.195192106208E+02   -0.16873E+03   -0.16292E+03  6572   0.181E+02
DAV:   3    -0.324981435563E+02   -0.12979E+02   -0.12707E+02  6524   0.520E+01
DAV:   4    -0.328399746349E+02   -0.34183E+00   -0.32982E+00  6340   0.789E+00
DAV:   5    -0.328539362195E+02   -0.13962E-01   -0.13875E-01  6300   0.113E+00    0.652E+00
DAV:   6    -0.323520159549E+02    0.50192E+00   -0.92912E-01  6360   0.388E+00    0.299E+00
DAV:   7    -0.323005725936E+02    0.51443E-01   -0.11872E-01  5656   0.181E+00    0.753E-01
DAV:   8    -0.323014739940E+02   -0.90140E-03   -0.16206E-02  5732   0.828E-01    0.439E-01
DAV:   9    -0.323041558401E+02   -0.26818E-02   -0.43671E-03  5532   0.498E-01    0.137E-01
DAV:  10    -0.323044432232E+02   -0.28738E-03   -0.45137E-04  5984   0.160E-01    0.872E-02
DAV:  11    -0.323045267330E+02   -0.83510E-04   -0.12313E-04  5548   0.809E-02    0.132E-02
DAV:  12    -0.323045354631E+02   -0.87301E-05   -0.14399E-05  6092   0.238E-02    0.675E-03
DAV:  13    -0.323045373016E+02   -0.18384E-05   -0.24282E-06  5752   0.122E-02    0.251E-03
DAV:  14    -0.323045373895E+02   -0.87969E-07   -0.76148E-07  5704   0.518E-03
   1 F= -.32304537E+02 E0= -.32304162E+02  d E =-.749972E-03  mag=     1.0000
