 264 264   0   0
  0.2774202E+02  0.1958175E-08  0.1958175E-08  0.1910025E-08  0.5000000E-15
  1.000000000000000E-004
  CAR 
 Si and Ge interface calculation         
      6.62801660     -9.17224676  301      4.03631244      1.00000000
     -9.172  0.0000E+00  0.0000E+00  0.0000E+00  0.0000E+00
     -9.120  0.0000E+00  0.0000E+00  0.0000E+00  0.0000E+00
     -9.067  0.0000E+00  0.0000E+00  0.0000E+00  0.0000E+00
     -9.014  0.0000E+00  0.0000E+00  0.0000E+00  0.0000E+00
     -8.962  0.0000E+00  0.0000E+00  0.0000E+00  0.0000E+00
     -8.909  0.0000E+00  0.0000E+00  0.0000E+00  0.0000E+00
     -8.856  0.0000E+00  0.0000E+00  0.0000E+00  0.0000E+00
     -8.804  0.0000E+00  0.0000E+00  0.0000E+00  0.0000E+00
     -8.751  0.0000E+00  0.0000E+00  0.0000E+00  0.0000E+00
     -8.698  0.0000E+00  0.0000E+00  0.0000E+00  0.0000E+00
     -8.646  0.0000E+00  0.0000E+00  0.0000E+00  0.0000E+00
     -8.593  0.0000E+00  0.0000E+00  0.0000E+00  0.0000E+00
     -8.540  0.0000E+00  0.0000E+00  0.0000E+00  0.0000E+00
     -8.488  0.1008E-04  0.2890E-05  0.5308E-06  0.1522E-06
     -8.435  0.1931E+02  0.1761E+02  0.1017E+01  0.9274E+00
     -8.382  0.1867E+02  0.2037E+02  0.2000E+01  0.2000E+01
     -8.330  0.0000E+00  0.0000E+00  0.2000E+01  0.2000E+01
     -8.277  0.4255E-03  0.1602E-03  0.2000E+01  0.2000E+01
     -8.224  0.1966E+02  0.1935E+02  0.3036E+01  0.3019E+01
     -8.172  0.1075E+02  0.1040E+02  0.3602E+01  0.3567E+01
     -8.119  0.1702E+02  0.1766E+02  0.4498E+01  0.4497E+01
     -8.066  0.9641E+01  0.9590E+01  0.5006E+01  0.5002E+01
     -8.014  0.1887E+02  0.1895E+02  0.6000E+01  0.6000E+01
     -7.961  0.1749E+02  0.1642E+02  0.6921E+01  0.6865E+01
     -7.908  0.2993E+02  0.3096E+02  0.8497E+01  0.8495E+01
     -7.856  0.2153E+01  0.1702E+01  0.8611E+01  0.8585E+01
     -7.803  0.2185E+02  0.2137E+02  0.9761E+01  0.9711E+01
     -7.750  0.1403E+02  0.1499E+02  0.1050E+02  0.1050E+02
     -7.698  0.1943E+02  0.1924E+02  0.1152E+02  0.1151E+02
     -7.645  0.3615E+02  0.3581E+02  0.1343E+02  0.1340E+02
     -7.592  0.3380E+01  0.3382E+01  0.1361E+02  0.1358E+02
     -7.540  0.3586E+02  0.3631E+02  0.1549E+02  0.1549E+02
     -7.487  0.1232E+02  0.1081E+02  0.1614E+02  0.1606E+02
     -7.434  0.1627E+02  0.1785E+02  0.1700E+02  0.1700E+02
     -7.382  0.9033E+01  0.8781E+01  0.1748E+02  0.1746E+02
     -7.329  0.2115E+02  0.1992E+02  0.1859E+02  0.1851E+02
     -7.276  0.4395E+02  0.4463E+02  0.2090E+02  0.2086E+02
     -7.224  0.2080E+02  0.2158E+02  0.2200E+02  0.2200E+02
     -7.171  0.2460E+02  0.2287E+02  0.2330E+02  0.2320E+02
     -7.118  0.3243E+02  0.3414E+02  0.2500E+02  0.2500E+02
     -7.066  0.2492E+02  0.2387E+02  0.2632E+02  0.2626E+02
     -7.013  0.4041E+02  0.3982E+02  0.2844E+02  0.2836E+02
     -6.960  0.1849E+02  0.1837E+02  0.2942E+02  0.2932E+02
     -6.908  0.4456E+02  0.4539E+02  0.3177E+02  0.3171E+02
     -6.855  0.4112E+02  0.4113E+02  0.3393E+02  0.3388E+02
     -6.802  0.4245E+02  0.4255E+02  0.3617E+02  0.3612E+02
     -6.750  0.4399E+02  0.4414E+02  0.3848E+02  0.3845E+02
     -6.697  0.3936E+02  0.3961E+02  0.4056E+02  0.4053E+02
     -6.644  0.5049E+02  0.4874E+02  0.4322E+02  0.4310E+02
     -6.592  0.2652E+02  0.2788E+02  0.4461E+02  0.4457E+02
     -6.539  0.4465E+02  0.4450E+02  0.4696E+02  0.4691E+02
     -6.486  0.4341E+02  0.4351E+02  0.4925E+02  0.4920E+02
     -6.434  0.2814E+02  0.2784E+02  0.5073E+02  0.5067E+02
     -6.381  0.5893E+02  0.5873E+02  0.5384E+02  0.5376E+02
     -6.328  0.4782E+02  0.4612E+02  0.5635E+02  0.5619E+02
     -6.276  0.4648E+02  0.4774E+02  0.5880E+02  0.5871E+02
     -6.223  0.5525E+02  0.5594E+02  0.6171E+02  0.6165E+02
     -6.170  0.4569E+02  0.4602E+02  0.6412E+02  0.6408E+02
     -6.118  0.6632E+02  0.6443E+02  0.6761E+02  0.6747E+02
     -6.065  0.7686E+02  0.7732E+02  0.7166E+02  0.7154E+02
     -6.012  0.7528E+02  0.7437E+02  0.7562E+02  0.7546E+02
     -5.960  0.6183E+02  0.6198E+02  0.7888E+02  0.7872E+02
     -5.907  0.7506E+02  0.7399E+02  0.8283E+02  0.8262E+02
     -5.854  0.6151E+02  0.6394E+02  0.8607E+02  0.8599E+02
     -5.802  0.8675E+02  0.8507E+02  0.9064E+02  0.9047E+02
     -5.749  0.5904E+02  0.5997E+02  0.9375E+02  0.9363E+02
     -5.696  0.9845E+02  0.9701E+02  0.9894E+02  0.9874E+02
     -5.644  0.7932E+02  0.7942E+02  0.1031E+03  0.1029E+03
     -5.591  0.8655E+02  0.8777E+02  0.1077E+03  0.1075E+03
     -5.538  0.5179E+02  0.5245E+02  0.1104E+03  0.1103E+03
     -5.486  0.6794E+02  0.6679E+02  0.1140E+03  0.1138E+03
     -5.433  0.6651E+02  0.6605E+02  0.1175E+03  0.1173E+03
     -5.380  0.8016E+02  0.7991E+02  0.1217E+03  0.1215E+03
     -5.328  0.8590E+02  0.8676E+02  0.1262E+03  0.1261E+03
     -5.275  0.8791E+02  0.8774E+02  0.1309E+03  0.1307E+03
     -5.222  0.6970E+02  0.7018E+02  0.1345E+03  0.1344E+03
     -5.170  0.6243E+02  0.6204E+02  0.1378E+03  0.1377E+03
     -5.117  0.8395E+02  0.8409E+02  0.1422E+03  0.1421E+03
     -5.064  0.7909E+02  0.7662E+02  0.1464E+03  0.1461E+03
     -5.012  0.6008E+02  0.6233E+02  0.1496E+03  0.1494E+03
     -4.959  0.6917E+02  0.6873E+02  0.1532E+03  0.1530E+03
     -4.906  0.7838E+02  0.7902E+02  0.1573E+03  0.1572E+03
     -4.854  0.6987E+02  0.6802E+02  0.1610E+03  0.1608E+03
     -4.801  0.9879E+02  0.9911E+02  0.1662E+03  0.1660E+03
     -4.748  0.1154E+03  0.1124E+03  0.1723E+03  0.1719E+03
     -4.696  0.1310E+03  0.1325E+03  0.1792E+03  0.1789E+03
     -4.643  0.1029E+03  0.1023E+03  0.1846E+03  0.1843E+03
     -4.590  0.1101E+03  0.1105E+03  0.1904E+03  0.1901E+03
     -4.538  0.9896E+02  0.9448E+02  0.1956E+03  0.1951E+03
     -4.485  0.1026E+03  0.1055E+03  0.2010E+03  0.2006E+03
     -4.432  0.1169E+03  0.1155E+03  0.2072E+03  0.2067E+03
     -4.380  0.9542E+02  0.9875E+02  0.2122E+03  0.2119E+03
     -4.327  0.6605E+02  0.6614E+02  0.2157E+03  0.2154E+03
     -4.274  0.4798E+02  0.4770E+02  0.2182E+03  0.2179E+03
     -4.221  0.7129E+02  0.7283E+02  0.2220E+03  0.2217E+03
     -4.169  0.1127E+03  0.1106E+03  0.2279E+03  0.2276E+03
     -4.116  0.8688E+02  0.9229E+02  0.2325E+03  0.2324E+03
     -4.063  0.6603E+02  0.6243E+02  0.2360E+03  0.2357E+03
     -4.011  0.6016E+02  0.6042E+02  0.2391E+03  0.2389E+03
     -3.958  0.3345E+02  0.3418E+02  0.2409E+03  0.2407E+03
     -3.905  0.4619E+02  0.4605E+02  0.2433E+03  0.2431E+03
     -3.853  0.5536E+02  0.5256E+02  0.2462E+03  0.2459E+03
     -3.800  0.5301E+02  0.5522E+02  0.2490E+03  0.2488E+03
     -3.747  0.5322E+02  0.5270E+02  0.2518E+03  0.2516E+03
     -3.695  0.7814E+02  0.7686E+02  0.2560E+03  0.2556E+03
     -3.642  0.5569E+02  0.5401E+02  0.2589E+03  0.2585E+03
     -3.589  0.9160E+02  0.9462E+02  0.2637E+03  0.2635E+03
     -3.537  0.4664E+02  0.4660E+02  0.2662E+03  0.2659E+03
     -3.484  0.8624E+02  0.8357E+02  0.2707E+03  0.2703E+03
     -3.431  0.8279E+02  0.8577E+02  0.2751E+03  0.2748E+03
     -3.379  0.7067E+02  0.6767E+02  0.2788E+03  0.2784E+03
     -3.326  0.7559E+02  0.7996E+02  0.2828E+03  0.2826E+03
     -3.273  0.8642E+02  0.8419E+02  0.2873E+03  0.2870E+03
     -3.221  0.6753E+02  0.6697E+02  0.2909E+03  0.2906E+03
     -3.168  0.8131E+02  0.8174E+02  0.2952E+03  0.2949E+03
     -3.115  0.6577E+02  0.6707E+02  0.2986E+03  0.2984E+03
     -3.063  0.8031E+02  0.7827E+02  0.3029E+03  0.3025E+03
     -3.010  0.5332E+02  0.5319E+02  0.3057E+03  0.3053E+03
     -2.957  0.9848E+02  0.9891E+02  0.3109E+03  0.3105E+03
     -2.905  0.8958E+02  0.8664E+02  0.3156E+03  0.3151E+03
     -2.852  0.9364E+02  0.9721E+02  0.3205E+03  0.3202E+03
     -2.799  0.9533E+02  0.9298E+02  0.3255E+03  0.3251E+03
     -2.747  0.1039E+03  0.1063E+03  0.3310E+03  0.3307E+03
     -2.694  0.9994E+02  0.9808E+02  0.3363E+03  0.3359E+03
     -2.641  0.8873E+02  0.8899E+02  0.3409E+03  0.3406E+03
     -2.589  0.1207E+03  0.1211E+03  0.3473E+03  0.3470E+03
     -2.536  0.1080E+03  0.1068E+03  0.3530E+03  0.3526E+03
     -2.483  0.1075E+03  0.1108E+03  0.3586E+03  0.3584E+03
     -2.431  0.1043E+03  0.1018E+03  0.3641E+03  0.3638E+03
     -2.378  0.8930E+02  0.9108E+02  0.3688E+03  0.3686E+03
     -2.325  0.9564E+02  0.9327E+02  0.3739E+03  0.3735E+03
     -2.273  0.1104E+03  0.1133E+03  0.3797E+03  0.3794E+03
     -2.220  0.6644E+02  0.6800E+02  0.3832E+03  0.3830E+03
     -2.167  0.3117E+02  0.3295E+02  0.3848E+03  0.3848E+03
     -2.115  0.5098E+02  0.4616E+02  0.3875E+03  0.3872E+03
     -2.062  0.7582E+02  0.7775E+02  0.3915E+03  0.3913E+03
     -2.009  0.8248E+02  0.8143E+02  0.3959E+03  0.3956E+03
     -1.957  0.9193E+02  0.9247E+02  0.4007E+03  0.4004E+03
     -1.904  0.9597E+02  0.9555E+02  0.4057E+03  0.4055E+03
     -1.851  0.7363E+02  0.7483E+02  0.4096E+03  0.4094E+03
     -1.799  0.6887E+02  0.6453E+02  0.4133E+03  0.4128E+03
     -1.746  0.1093E+03  0.1104E+03  0.4190E+03  0.4186E+03
     -1.693  0.1015E+03  0.1033E+03  0.4244E+03  0.4241E+03
     -1.641  0.9112E+02  0.9196E+02  0.4292E+03  0.4289E+03
     -1.588  0.7770E+02  0.7466E+02  0.4332E+03  0.4329E+03
     -1.535  0.7765E+02  0.8055E+02  0.4373E+03  0.4371E+03
     -1.483  0.4839E+02  0.5088E+02  0.4399E+03  0.4398E+03
     -1.430  0.6453E+02  0.6313E+02  0.4433E+03  0.4431E+03
     -1.377  0.5148E+02  0.5047E+02  0.4460E+03  0.4458E+03
     -1.325  0.6972E+02  0.6860E+02  0.4497E+03  0.4494E+03
     -1.272  0.3548E+02  0.3800E+02  0.4515E+03  0.4514E+03
     -1.219  0.5885E+02  0.5635E+02  0.4546E+03  0.4543E+03
     -1.167  0.6619E+02  0.6746E+02  0.4581E+03  0.4579E+03
     -1.114  0.5498E+02  0.5607E+02  0.4610E+03  0.4608E+03
     -1.061  0.5083E+02  0.5041E+02  0.4637E+03  0.4635E+03
     -1.009  0.5456E+02  0.5693E+02  0.4666E+03  0.4665E+03
     -0.956  0.3067E+02  0.3021E+02  0.4682E+03  0.4681E+03
     -0.903  0.3691E+02  0.3599E+02  0.4701E+03  0.4700E+03
     -0.851  0.6610E+02  0.6460E+02  0.4736E+03  0.4734E+03
     -0.798  0.8396E+02  0.8522E+02  0.4780E+03  0.4779E+03
     -0.745  0.3364E+02  0.3401E+02  0.4798E+03  0.4797E+03
     -0.693  0.7397E+02  0.6863E+02  0.4837E+03  0.4833E+03
     -0.640  0.5426E+02  0.6124E+02  0.4866E+03  0.4865E+03
     -0.587  0.4106E+02  0.4108E+02  0.4887E+03  0.4887E+03
     -0.535  0.1977E+02  0.1945E+02  0.4898E+03  0.4897E+03
     -0.482  0.1919E+02  0.1801E+02  0.4908E+03  0.4906E+03
     -0.429  0.3328E+02  0.3368E+02  0.4925E+03  0.4924E+03
     -0.377  0.4702E+02  0.4618E+02  0.4950E+03  0.4949E+03
     -0.324  0.5673E+02  0.5505E+02  0.4980E+03  0.4978E+03
     -0.271  0.7476E+02  0.7565E+02  0.5019E+03  0.5017E+03
     -0.219  0.9719E+02  0.9625E+02  0.5070E+03  0.5068E+03
     -0.166  0.1020E+03  0.1024E+03  0.5124E+03  0.5122E+03
     -0.113  0.1025E+03  0.1013E+03  0.5178E+03  0.5175E+03
     -0.061  0.1168E+03  0.1176E+03  0.5240E+03  0.5237E+03
     -0.008  0.9995E+02  0.1010E+03  0.5292E+03  0.5290E+03
      0.045  0.1411E+03  0.1366E+03  0.5367E+03  0.5362E+03
      0.097  0.1133E+03  0.1152E+03  0.5426E+03  0.5423E+03
      0.150  0.1153E+03  0.1165E+03  0.5487E+03  0.5485E+03
      0.203  0.7699E+02  0.7768E+02  0.5528E+03  0.5525E+03
      0.255  0.8209E+02  0.8348E+02  0.5571E+03  0.5569E+03
      0.308  0.8342E+02  0.8165E+02  0.5615E+03  0.5612E+03
      0.361  0.9671E+02  0.9787E+02  0.5666E+03  0.5664E+03
      0.413  0.1148E+03  0.1105E+03  0.5726E+03  0.5722E+03
      0.466  0.7754E+02  0.7964E+02  0.5767E+03  0.5764E+03
      0.519  0.8622E+02  0.8652E+02  0.5812E+03  0.5810E+03
      0.571  0.1397E+03  0.1398E+03  0.5886E+03  0.5883E+03
      0.624  0.1171E+03  0.1170E+03  0.5948E+03  0.5945E+03
      0.677  0.1225E+03  0.1186E+03  0.6012E+03  0.6007E+03
      0.729  0.1567E+03  0.1602E+03  0.6095E+03  0.6092E+03
      0.782  0.1285E+03  0.1268E+03  0.6162E+03  0.6159E+03
      0.835  0.1037E+03  0.1075E+03  0.6217E+03  0.6215E+03
      0.887  0.1007E+03  0.9686E+02  0.6270E+03  0.6266E+03
      0.940  0.1130E+03  0.1160E+03  0.6329E+03  0.6327E+03
      0.993  0.1136E+03  0.1123E+03  0.6389E+03  0.6386E+03
      1.045  0.1209E+03  0.1170E+03  0.6453E+03  0.6448E+03
      1.098  0.1782E+03  0.1794E+03  0.6547E+03  0.6542E+03
      1.151  0.1728E+03  0.1725E+03  0.6638E+03  0.6633E+03
      1.203  0.1940E+03  0.1934E+03  0.6740E+03  0.6735E+03
      1.256  0.1684E+03  0.1692E+03  0.6829E+03  0.6824E+03
      1.309  0.1900E+03  0.1887E+03  0.6929E+03  0.6924E+03
      1.361  0.1876E+03  0.1916E+03  0.7028E+03  0.7025E+03
      1.414  0.1423E+03  0.1403E+03  0.7103E+03  0.7098E+03
      1.467  0.1400E+03  0.1383E+03  0.7176E+03  0.7171E+03
      1.519  0.2196E+03  0.2185E+03  0.7292E+03  0.7286E+03
      1.572  0.1865E+03  0.1879E+03  0.7390E+03  0.7385E+03
      1.625  0.1953E+03  0.1965E+03  0.7493E+03  0.7489E+03
      1.677  0.1690E+03  0.1643E+03  0.7582E+03  0.7575E+03
      1.730  0.1954E+03  0.2014E+03  0.7685E+03  0.7682E+03
      1.783  0.1826E+03  0.1822E+03  0.7781E+03  0.7778E+03
      1.835  0.1638E+03  0.1629E+03  0.7867E+03  0.7863E+03
      1.888  0.1575E+03  0.1529E+03  0.7950E+03  0.7944E+03
      1.941  0.2116E+03  0.2088E+03  0.8062E+03  0.8054E+03
      1.993  0.1723E+03  0.1803E+03  0.8153E+03  0.8149E+03
      2.046  0.1762E+03  0.1704E+03  0.8245E+03  0.8238E+03
      2.099  0.1899E+03  0.1902E+03  0.8345E+03  0.8339E+03
      2.151  0.1976E+03  0.1979E+03  0.8449E+03  0.8443E+03
      2.204  0.1335E+03  0.1346E+03  0.8520E+03  0.8514E+03
      2.257  0.1701E+03  0.1711E+03  0.8609E+03  0.8604E+03
      2.309  0.1577E+03  0.1590E+03  0.8692E+03  0.8688E+03
      2.362  0.1746E+03  0.1707E+03  0.8784E+03  0.8778E+03
      2.415  0.1880E+03  0.1924E+03  0.8883E+03  0.8879E+03
      2.467  0.1435E+03  0.1439E+03  0.8959E+03  0.8955E+03
      2.520  0.1225E+03  0.1235E+03  0.9023E+03  0.9020E+03
      2.573  0.1286E+03  0.1253E+03  0.9091E+03  0.9086E+03
      2.625  0.1530E+03  0.1532E+03  0.9172E+03  0.9166E+03
      2.678  0.1218E+03  0.1214E+03  0.9236E+03  0.9230E+03
      2.731  0.1454E+03  0.1400E+03  0.9313E+03  0.9304E+03
      2.783  0.1525E+03  0.1602E+03  0.9393E+03  0.9388E+03
      2.836  0.1330E+03  0.1264E+03  0.9463E+03  0.9455E+03
      2.889  0.1659E+03  0.1655E+03  0.9550E+03  0.9542E+03
      2.941  0.9697E+02  0.1016E+03  0.9601E+03  0.9596E+03
      2.994  0.1250E+03  0.1214E+03  0.9667E+03  0.9660E+03
      3.047  0.1290E+03  0.1296E+03  0.9735E+03  0.9728E+03
      3.099  0.1235E+03  0.1251E+03  0.9800E+03  0.9794E+03
      3.152  0.1012E+03  0.1026E+03  0.9853E+03  0.9848E+03
      3.205  0.1198E+03  0.1195E+03  0.9916E+03  0.9911E+03
      3.257  0.1043E+03  0.1041E+03  0.9971E+03  0.9966E+03
      3.310  0.1035E+03  0.9658E+02  0.1003E+04  0.1002E+04
      3.363  0.1067E+03  0.1129E+03  0.1008E+04  0.1008E+04
      3.415  0.6719E+02  0.7167E+02  0.1012E+04  0.1011E+04
      3.468  0.1049E+03  0.1007E+03  0.1017E+04  0.1017E+04
      3.521  0.7789E+02  0.7791E+02  0.1021E+04  0.1021E+04
      3.573  0.8539E+02  0.7906E+02  0.1026E+04  0.1025E+04
      3.626  0.1002E+03  0.1071E+03  0.1031E+04  0.1031E+04
      3.679  0.5591E+02  0.5731E+02  0.1034E+04  0.1034E+04
      3.731  0.6522E+02  0.6699E+02  0.1038E+04  0.1037E+04
      3.784  0.4644E+02  0.4609E+02  0.1040E+04  0.1040E+04
      3.837  0.4647E+02  0.5089E+02  0.1042E+04  0.1042E+04
      3.889  0.3718E+02  0.3466E+02  0.1044E+04  0.1044E+04
      3.942  0.6963E+02  0.6101E+02  0.1048E+04  0.1047E+04
      3.995  0.6951E+02  0.6181E+02  0.1052E+04  0.1051E+04
      4.047  0.1173E+03  0.1119E+03  0.1058E+04  0.1056E+04
      4.100  0.1150E+03  0.1249E+03  0.1064E+04  0.1063E+04
      4.153  0.7288E+02  0.7782E+02  0.1068E+04  0.1067E+04
      4.205  0.1125E+03  0.1024E+03  0.1074E+04  0.1072E+04
      4.258  0.8808E+02  0.8998E+02  0.1078E+04  0.1077E+04
      4.311  0.1061E+03  0.1015E+03  0.1084E+04  0.1083E+04
      4.363  0.1389E+03  0.1464E+03  0.1091E+04  0.1090E+04
      4.416  0.9565E+02  0.1026E+03  0.1096E+04  0.1096E+04
      4.469  0.1259E+03  0.1227E+03  0.1103E+04  0.1102E+04
      4.521  0.9687E+02  0.9486E+02  0.1108E+04  0.1107E+04
      4.574  0.1058E+03  0.1124E+03  0.1114E+04  0.1113E+04
      4.627  0.1053E+03  0.1012E+03  0.1119E+04  0.1118E+04
      4.679  0.1216E+03  0.1192E+03  0.1126E+04  0.1125E+04
      4.732  0.1098E+03  0.1090E+03  0.1131E+04  0.1130E+04
      4.785  0.1130E+03  0.1126E+03  0.1137E+04  0.1136E+04
      4.837  0.1265E+03  0.1281E+03  0.1144E+04  0.1143E+04
      4.890  0.1180E+03  0.1215E+03  0.1150E+04  0.1149E+04
      4.943  0.1094E+03  0.1139E+03  0.1156E+04  0.1155E+04
      4.995  0.1325E+03  0.1235E+03  0.1163E+04  0.1162E+04
      5.048  0.1189E+03  0.1217E+03  0.1169E+04  0.1168E+04
      5.101  0.1254E+03  0.1307E+03  0.1176E+04  0.1175E+04
      5.153  0.8077E+02  0.7925E+02  0.1180E+04  0.1179E+04
      5.206  0.1066E+03  0.1069E+03  0.1186E+04  0.1185E+04
      5.259  0.9721E+02  0.9591E+02  0.1191E+04  0.1190E+04
      5.311  0.1061E+03  0.1084E+03  0.1196E+04  0.1196E+04
      5.364  0.1366E+03  0.1353E+03  0.1204E+04  0.1203E+04
      5.417  0.1327E+03  0.1301E+03  0.1211E+04  0.1210E+04
      5.469  0.1418E+03  0.1405E+03  0.1218E+04  0.1217E+04
      5.522  0.1567E+03  0.1591E+03  0.1226E+04  0.1226E+04
      5.575  0.1535E+03  0.1520E+03  0.1234E+04  0.1234E+04
      5.627  0.1334E+03  0.1373E+03  0.1241E+04  0.1241E+04
      5.680  0.1091E+03  0.1121E+03  0.1247E+04  0.1247E+04
      5.733  0.1138E+03  0.1107E+03  0.1253E+04  0.1253E+04
      5.785  0.1232E+03  0.1224E+03  0.1260E+04  0.1259E+04
      5.838  0.1213E+03  0.1222E+03  0.1266E+04  0.1265E+04
      5.891  0.9803E+02  0.9732E+02  0.1271E+04  0.1271E+04
      5.943  0.1597E+02  0.2692E+02  0.1272E+04  0.1272E+04
      5.996  0.0000E+00  0.0000E+00  0.1272E+04  0.1272E+04
      6.049  0.0000E+00  0.0000E+00  0.1272E+04  0.1272E+04
      6.101  0.0000E+00  0.0000E+00  0.1272E+04  0.1272E+04
      6.154  0.0000E+00  0.0000E+00  0.1272E+04  0.1272E+04
      6.207  0.0000E+00  0.0000E+00  0.1272E+04  0.1272E+04
      6.259  0.0000E+00  0.0000E+00  0.1272E+04  0.1272E+04
      6.312  0.0000E+00  0.0000E+00  0.1272E+04  0.1272E+04
      6.365  0.0000E+00  0.0000E+00  0.1272E+04  0.1272E+04
      6.417  0.0000E+00  0.0000E+00  0.1272E+04  0.1272E+04
      6.470  0.0000E+00  0.0000E+00  0.1272E+04  0.1272E+04
      6.523  0.0000E+00  0.0000E+00  0.1272E+04  0.1272E+04
      6.575  0.0000E+00  0.0000E+00  0.1272E+04  0.1272E+04
      6.628  0.0000E+00  0.0000E+00  0.1272E+04  0.1272E+04
