 192 192   0   0
  0.1781218E+02  0.1697340E-08  0.1789154E-08  0.1126164E-08  0.5000000E-15
  1.000000000000000E-004
  CAR 
 Si and Ge interface calculation         
      9.54259159     -9.62180614  301      6.71070713      1.00000000
     -9.622  0.0000E+00  0.0000E+00  0.0000E+00  0.0000E+00
     -9.558  0.0000E+00  0.0000E+00  0.0000E+00  0.0000E+00
     -9.494  0.0000E+00  0.0000E+00  0.0000E+00  0.0000E+00
     -9.430  0.0000E+00  0.0000E+00  0.0000E+00  0.0000E+00
     -9.366  0.0000E+00  0.0000E+00  0.0000E+00  0.0000E+00
     -9.302  0.0000E+00  0.0000E+00  0.0000E+00  0.0000E+00
     -9.239  0.0000E+00  0.0000E+00  0.0000E+00  0.0000E+00
     -9.175  0.0000E+00  0.0000E+00  0.0000E+00  0.0000E+00
     -9.111  0.0000E+00  0.0000E+00  0.0000E+00  0.0000E+00
     -9.047  0.0000E+00  0.0000E+00  0.0000E+00  0.0000E+00
     -8.983  0.0000E+00  0.0000E+00  0.0000E+00  0.0000E+00
     -8.919  0.0000E+00  0.0000E+00  0.0000E+00  0.0000E+00
     -8.855  0.0000E+00  0.0000E+00  0.0000E+00  0.0000E+00
     -8.791  0.1413E-07  0.4190E-09  0.9025E-09  0.2677E-10
     -8.727  0.4368E+02  0.3615E+02  0.2791E+01  0.2309E+01
     -8.664  0.4455E+02  0.4622E+02  0.5642E+01  0.5266E+01
     -8.600  0.3687E+02  0.4277E+02  0.8000E+01  0.8000E+01
     -8.536  0.0000E+00  0.0000E+00  0.8000E+01  0.8000E+01
     -8.472  0.0000E+00  0.0000E+00  0.8000E+01  0.8000E+01
     -8.408  0.5419E+01  0.2077E+01  0.8346E+01  0.8133E+01
     -8.344  0.4917E+02  0.4847E+02  0.1149E+02  0.1123E+02
     -8.280  0.8026E+01  0.1206E+02  0.1200E+02  0.1200E+02
     -8.216  0.0000E+00  0.0000E+00  0.1200E+02  0.1200E+02
     -8.153  0.5616E-12  0.1014E-14  0.1200E+02  0.1200E+02
     -8.089  0.1457E+02  0.1185E+02  0.1293E+02  0.1276E+02
     -8.025  0.3215E+02  0.3358E+02  0.1498E+02  0.1490E+02
     -7.961  0.1565E+02  0.1719E+02  0.1600E+02  0.1600E+02
     -7.897  0.0000E+00  0.0000E+00  0.1600E+02  0.1600E+02
     -7.833  0.1917E+01  0.7117E+00  0.1612E+02  0.1605E+02
     -7.769  0.4507E+02  0.4612E+02  0.1900E+02  0.1899E+02
     -7.705  0.1560E+02  0.1564E+02  0.2000E+02  0.2000E+02
     -7.641  0.1640E+01  0.5805E+00  0.2010E+02  0.2004E+02
     -7.578  0.1401E+02  0.1507E+02  0.2100E+02  0.2100E+02
     -7.514  0.3075E+02  0.2919E+02  0.2296E+02  0.2287E+02
     -7.450  0.5606E+00  0.2113E+01  0.2300E+02  0.2300E+02
     -7.386  0.1563E+02  0.1555E+02  0.2400E+02  0.2399E+02
     -7.322  0.3014E+02  0.2018E+02  0.2593E+02  0.2528E+02
     -7.258  0.3247E+02  0.4252E+02  0.2800E+02  0.2800E+02
     -7.194  0.1824E+01  0.3761E+00  0.2812E+02  0.2802E+02
     -7.130  0.5349E+02  0.5321E+02  0.3153E+02  0.3142E+02
     -7.067  0.7298E+01  0.9031E+01  0.3200E+02  0.3200E+02
     -7.003  0.1576E+02  0.1143E+02  0.3301E+02  0.3273E+02
     -6.939  0.4675E+02  0.5062E+02  0.3599E+02  0.3596E+02
     -6.875  0.3508E+02  0.3079E+02  0.3823E+02  0.3793E+02
     -6.811  0.1879E+02  0.2269E+02  0.3944E+02  0.3938E+02
     -6.747  0.9760E+01  0.9777E+01  0.4006E+02  0.4001E+02
     -6.683  0.4666E+02  0.4089E+02  0.4304E+02  0.4262E+02
     -6.619  0.1579E+02  0.2169E+02  0.4405E+02  0.4401E+02
     -6.556  0.3768E+02  0.3397E+02  0.4646E+02  0.4618E+02
     -6.492  0.2396E+02  0.2805E+02  0.4799E+02  0.4797E+02
     -6.428  0.2381E+01  0.1672E+01  0.4815E+02  0.4808E+02
     -6.364  0.3069E+02  0.2641E+02  0.5011E+02  0.4977E+02
     -6.300  0.2962E+02  0.3495E+02  0.5200E+02  0.5200E+02
     -6.236  0.0000E+00  0.0000E+00  0.5200E+02  0.5200E+02
     -6.172  0.0000E+00  0.0000E+00  0.5200E+02  0.5200E+02
     -6.108  0.3890E-08  0.7774E-10  0.5200E+02  0.5200E+02
     -6.044  0.1429E+02  0.1307E+02  0.5291E+02  0.5283E+02
     -5.981  0.1315E+02  0.1154E+02  0.5376E+02  0.5357E+02
     -5.917  0.3487E+02  0.3575E+02  0.5598E+02  0.5586E+02
     -5.853  0.4527E+02  0.4527E+02  0.5888E+02  0.5875E+02
     -5.789  0.1729E+02  0.1874E+02  0.5998E+02  0.5995E+02
     -5.725  0.2222E+02  0.2070E+02  0.6140E+02  0.6127E+02
     -5.661  0.3343E+02  0.3499E+02  0.6354E+02  0.6351E+02
     -5.597  0.2197E+02  0.2080E+02  0.6494E+02  0.6484E+02
     -5.533  0.1744E+02  0.1227E+02  0.6606E+02  0.6562E+02
     -5.470  0.5247E+02  0.5416E+02  0.6941E+02  0.6908E+02
     -5.406  0.3825E+02  0.4173E+02  0.7185E+02  0.7175E+02
     -5.342  0.2234E+01  0.3943E+01  0.7200E+02  0.7200E+02
     -5.278  0.0000E+00  0.0000E+00  0.7200E+02  0.7200E+02
     -5.214  0.2138E+01  0.1381E+01  0.7214E+02  0.7209E+02
     -5.150  0.1091E+02  0.1162E+02  0.7283E+02  0.7283E+02
     -5.086  0.4278E+02  0.4019E+02  0.7557E+02  0.7540E+02
     -5.022  0.2855E+02  0.2692E+02  0.7739E+02  0.7712E+02
     -4.958  0.3015E+02  0.3166E+02  0.7932E+02  0.7914E+02
     -4.895  0.1549E+02  0.1693E+02  0.8031E+02  0.8023E+02
     -4.831  0.1689E+02  0.1728E+02  0.8139E+02  0.8133E+02
     -4.767  0.2037E+02  0.1900E+02  0.8269E+02  0.8254E+02
     -4.703  0.2805E+02  0.2789E+02  0.8449E+02  0.8433E+02
     -4.639  0.2960E+02  0.3035E+02  0.8638E+02  0.8627E+02
     -4.575  0.2761E+02  0.2814E+02  0.8814E+02  0.8807E+02
     -4.511  0.3313E+02  0.3305E+02  0.9026E+02  0.9018E+02
     -4.447  0.2656E+02  0.2650E+02  0.9195E+02  0.9187E+02
     -4.384  0.3729E+02  0.3382E+02  0.9434E+02  0.9404E+02
     -4.320  0.2990E+02  0.3378E+02  0.9625E+02  0.9619E+02
     -4.256  0.3428E+02  0.3055E+02  0.9844E+02  0.9815E+02
     -4.192  0.4168E+02  0.4389E+02  0.1011E+03  0.1010E+03
     -4.128  0.2844E+02  0.2925E+02  0.1029E+03  0.1028E+03
     -4.064  0.4182E+02  0.3752E+02  0.1056E+03  0.1052E+03
     -4.000  0.4290E+02  0.4420E+02  0.1083E+03  0.1080E+03
     -3.936  0.5070E+02  0.5238E+02  0.1116E+03  0.1114E+03
     -3.872  0.3672E+02  0.3792E+02  0.1139E+03  0.1138E+03
     -3.809  0.4658E+02  0.4548E+02  0.1169E+03  0.1167E+03
     -3.745  0.5390E+02  0.5364E+02  0.1203E+03  0.1201E+03
     -3.681  0.5072E+02  0.5165E+02  0.1236E+03  0.1234E+03
     -3.617  0.5061E+02  0.4620E+02  0.1268E+03  0.1264E+03
     -3.553  0.3891E+02  0.4344E+02  0.1293E+03  0.1292E+03
     -3.489  0.2729E+02  0.2525E+02  0.1310E+03  0.1308E+03
     -3.425  0.5980E+02  0.6105E+02  0.1349E+03  0.1347E+03
     -3.361  0.3906E+02  0.3844E+02  0.1374E+03  0.1371E+03
     -3.298  0.4633E+02  0.4658E+02  0.1403E+03  0.1401E+03
     -3.234  0.6441E+02  0.6142E+02  0.1444E+03  0.1440E+03
     -3.170  0.4988E+02  0.5273E+02  0.1476E+03  0.1474E+03
     -3.106  0.4831E+02  0.4698E+02  0.1507E+03  0.1504E+03
     -3.042  0.4770E+02  0.4952E+02  0.1538E+03  0.1536E+03
     -2.978  0.4166E+02  0.4292E+02  0.1564E+03  0.1563E+03
     -2.914  0.4494E+02  0.4278E+02  0.1593E+03  0.1591E+03
     -2.850  0.4680E+02  0.4613E+02  0.1623E+03  0.1620E+03
     -2.787  0.3462E+02  0.3745E+02  0.1645E+03  0.1644E+03
     -2.723  0.4720E+02  0.4699E+02  0.1675E+03  0.1674E+03
     -2.659  0.3506E+02  0.3491E+02  0.1698E+03  0.1696E+03
     -2.595  0.4218E+02  0.3981E+02  0.1725E+03  0.1722E+03
     -2.531  0.4834E+02  0.5102E+02  0.1756E+03  0.1754E+03
     -2.467  0.5764E+02  0.5631E+02  0.1792E+03  0.1790E+03
     -2.403  0.4104E+02  0.4138E+02  0.1819E+03  0.1817E+03
     -2.339  0.4673E+02  0.4287E+02  0.1849E+03  0.1844E+03
     -2.275  0.4927E+02  0.5297E+02  0.1880E+03  0.1878E+03
     -2.212  0.4723E+02  0.4685E+02  0.1910E+03  0.1908E+03
     -2.148  0.4784E+02  0.4798E+02  0.1941E+03  0.1939E+03
     -2.084  0.3936E+02  0.3977E+02  0.1966E+03  0.1964E+03
     -2.020  0.3755E+02  0.3678E+02  0.1990E+03  0.1988E+03
     -1.956  0.4524E+02  0.4777E+02  0.2019E+03  0.2018E+03
     -1.892  0.5818E+02  0.5555E+02  0.2056E+03  0.2054E+03
     -1.828  0.5352E+02  0.4949E+02  0.2090E+03  0.2085E+03
     -1.764  0.5195E+02  0.5624E+02  0.2123E+03  0.2121E+03
     -1.701  0.4464E+02  0.4437E+02  0.2152E+03  0.2150E+03
     -1.637  0.5560E+02  0.5500E+02  0.2187E+03  0.2185E+03
     -1.573  0.5345E+02  0.5270E+02  0.2222E+03  0.2218E+03
     -1.509  0.3684E+02  0.3984E+02  0.2245E+03  0.2244E+03
     -1.445  0.5293E+02  0.5079E+02  0.2279E+03  0.2276E+03
     -1.381  0.5098E+02  0.5060E+02  0.2312E+03  0.2309E+03
     -1.317  0.4914E+02  0.5127E+02  0.2343E+03  0.2341E+03
     -1.253  0.4814E+02  0.4741E+02  0.2374E+03  0.2372E+03
     -1.189  0.4054E+02  0.3836E+02  0.2400E+03  0.2396E+03
     -1.126  0.4500E+02  0.5017E+02  0.2428E+03  0.2428E+03
     -1.062  0.4973E+02  0.4507E+02  0.2460E+03  0.2457E+03
     -0.998  0.5723E+02  0.5862E+02  0.2497E+03  0.2495E+03
     -0.934  0.3603E+02  0.3388E+02  0.2520E+03  0.2516E+03
     -0.870  0.6841E+02  0.7031E+02  0.2563E+03  0.2561E+03
     -0.806  0.3323E+02  0.3305E+02  0.2585E+03  0.2582E+03
     -0.742  0.5592E+02  0.5859E+02  0.2620E+03  0.2620E+03
     -0.678  0.4125E+02  0.3886E+02  0.2647E+03  0.2645E+03
     -0.615  0.6077E+02  0.5757E+02  0.2686E+03  0.2681E+03
     -0.551  0.6265E+02  0.6589E+02  0.2726E+03  0.2723E+03
     -0.487  0.5480E+02  0.5426E+02  0.2761E+03  0.2758E+03
     -0.423  0.5108E+02  0.4889E+02  0.2793E+03  0.2789E+03
     -0.359  0.4884E+02  0.5189E+02  0.2825E+03  0.2823E+03
     -0.295  0.5323E+02  0.5200E+02  0.2859E+03  0.2856E+03
     -0.231  0.5148E+02  0.5015E+02  0.2892E+03  0.2888E+03
     -0.167  0.6343E+02  0.6250E+02  0.2932E+03  0.2928E+03
     -0.103  0.4099E+02  0.4026E+02  0.2958E+03  0.2954E+03
     -0.040  0.6243E+02  0.6194E+02  0.2998E+03  0.2993E+03
      0.024  0.6107E+02  0.6569E+02  0.3037E+03  0.3035E+03
      0.088  0.6574E+02  0.6372E+02  0.3079E+03  0.3076E+03
      0.152  0.5260E+02  0.5240E+02  0.3113E+03  0.3109E+03
      0.216  0.5339E+02  0.5511E+02  0.3147E+03  0.3145E+03
      0.280  0.6200E+02  0.6063E+02  0.3187E+03  0.3183E+03
      0.344  0.5359E+02  0.5397E+02  0.3221E+03  0.3218E+03
      0.408  0.6224E+02  0.6090E+02  0.3261E+03  0.3257E+03
      0.471  0.5971E+02  0.5973E+02  0.3299E+03  0.3295E+03
      0.535  0.7375E+02  0.7253E+02  0.3346E+03  0.3341E+03
      0.599  0.6515E+02  0.6599E+02  0.3387E+03  0.3383E+03
      0.663  0.4323E+02  0.4548E+02  0.3415E+03  0.3412E+03
      0.727  0.6331E+02  0.6386E+02  0.3456E+03  0.3453E+03
      0.791  0.6655E+02  0.6386E+02  0.3498E+03  0.3494E+03
      0.855  0.5694E+02  0.5688E+02  0.3535E+03  0.3530E+03
      0.919  0.6433E+02  0.6465E+02  0.3576E+03  0.3572E+03
      0.982  0.6824E+02  0.6660E+02  0.3619E+03  0.3614E+03
      1.046  0.6888E+02  0.6891E+02  0.3663E+03  0.3658E+03
      1.110  0.5638E+02  0.5694E+02  0.3699E+03  0.3695E+03
      1.174  0.7255E+02  0.7392E+02  0.3746E+03  0.3742E+03
      1.238  0.6320E+02  0.6196E+02  0.3786E+03  0.3782E+03
      1.302  0.7212E+02  0.7374E+02  0.3832E+03  0.3829E+03
      1.366  0.6035E+02  0.6424E+02  0.3871E+03  0.3870E+03
      1.430  0.5346E+02  0.5054E+02  0.3905E+03  0.3902E+03
      1.494  0.5740E+02  0.5491E+02  0.3942E+03  0.3937E+03
      1.557  0.6921E+02  0.6983E+02  0.3986E+03  0.3982E+03
      1.621  0.6135E+02  0.6225E+02  0.4025E+03  0.4022E+03
      1.685  0.6300E+02  0.6456E+02  0.4065E+03  0.4063E+03
      1.749  0.6980E+02  0.6574E+02  0.4110E+03  0.4105E+03
      1.813  0.6395E+02  0.6406E+02  0.4151E+03  0.4146E+03
      1.877  0.8793E+02  0.8928E+02  0.4207E+03  0.4203E+03
      1.941  0.6023E+02  0.6326E+02  0.4245E+03  0.4243E+03
      2.005  0.7434E+02  0.7161E+02  0.4293E+03  0.4289E+03
      2.068  0.7756E+02  0.7935E+02  0.4343E+03  0.4340E+03
      2.132  0.6734E+02  0.6684E+02  0.4386E+03  0.4383E+03
      2.196  0.7667E+02  0.7485E+02  0.4435E+03  0.4430E+03
      2.260  0.4932E+02  0.5064E+02  0.4466E+03  0.4463E+03
      2.324  0.7653E+02  0.7474E+02  0.4515E+03  0.4511E+03
      2.388  0.7618E+02  0.7606E+02  0.4564E+03  0.4559E+03
      2.452  0.7915E+02  0.7897E+02  0.4614E+03  0.4610E+03
      2.516  0.6437E+02  0.6555E+02  0.4656E+03  0.4651E+03
      2.580  0.7003E+02  0.7036E+02  0.4700E+03  0.4696E+03
      2.643  0.8559E+02  0.8560E+02  0.4755E+03  0.4751E+03
      2.707  0.7633E+02  0.7548E+02  0.4804E+03  0.4799E+03
      2.771  0.6537E+02  0.6893E+02  0.4846E+03  0.4843E+03
      2.835  0.7235E+02  0.6850E+02  0.4892E+03  0.4887E+03
      2.899  0.7451E+02  0.7741E+02  0.4939E+03  0.4937E+03
      2.963  0.7119E+02  0.7021E+02  0.4985E+03  0.4982E+03
      3.027  0.7518E+02  0.7020E+02  0.5033E+03  0.5027E+03
      3.091  0.6917E+02  0.7588E+02  0.5077E+03  0.5075E+03
      3.154  0.1057E+03  0.1045E+03  0.5145E+03  0.5142E+03
      3.218  0.7348E+02  0.7003E+02  0.5192E+03  0.5187E+03
      3.282  0.8400E+02  0.8710E+02  0.5245E+03  0.5242E+03
      3.346  0.7340E+02  0.7080E+02  0.5292E+03  0.5287E+03
      3.410  0.7621E+02  0.7548E+02  0.5341E+03  0.5336E+03
      3.474  0.7723E+02  0.7757E+02  0.5390E+03  0.5385E+03
      3.538  0.8568E+02  0.9044E+02  0.5445E+03  0.5443E+03
      3.602  0.7685E+02  0.7712E+02  0.5494E+03  0.5492E+03
      3.666  0.6927E+02  0.6756E+02  0.5539E+03  0.5536E+03
      3.729  0.7546E+02  0.7319E+02  0.5587E+03  0.5582E+03
      3.793  0.8227E+02  0.8161E+02  0.5639E+03  0.5634E+03
      3.857  0.7309E+02  0.7477E+02  0.5686E+03  0.5682E+03
      3.921  0.6286E+02  0.6525E+02  0.5726E+03  0.5724E+03
      3.985  0.7580E+02  0.7330E+02  0.5775E+03  0.5771E+03
      4.049  0.7356E+02  0.7793E+02  0.5822E+03  0.5821E+03
      4.113  0.7997E+02  0.7454E+02  0.5873E+03  0.5868E+03
      4.177  0.7588E+02  0.7791E+02  0.5921E+03  0.5918E+03
      4.240  0.7011E+02  0.7033E+02  0.5966E+03  0.5963E+03
      4.304  0.8163E+02  0.8149E+02  0.6018E+03  0.6015E+03
      4.368  0.6240E+02  0.6211E+02  0.6058E+03  0.6055E+03
      4.432  0.7949E+02  0.8055E+02  0.6109E+03  0.6106E+03
      4.496  0.7931E+02  0.7794E+02  0.6160E+03  0.6156E+03
      4.560  0.5834E+02  0.5628E+02  0.6197E+03  0.6192E+03
      4.624  0.8213E+02  0.8702E+02  0.6249E+03  0.6248E+03
      4.688  0.6474E+02  0.6268E+02  0.6291E+03  0.6288E+03
      4.751  0.8229E+02  0.7967E+02  0.6343E+03  0.6339E+03
      4.815  0.6906E+02  0.7214E+02  0.6387E+03  0.6385E+03
      4.879  0.7419E+02  0.7246E+02  0.6435E+03  0.6431E+03
      4.943  0.7864E+02  0.7965E+02  0.6485E+03  0.6482E+03
      5.007  0.5839E+02  0.5763E+02  0.6522E+03  0.6519E+03
      5.071  0.7685E+02  0.7583E+02  0.6572E+03  0.6567E+03
      5.135  0.5969E+02  0.6289E+02  0.6610E+03  0.6608E+03
      5.199  0.5911E+02  0.5771E+02  0.6647E+03  0.6644E+03
      5.263  0.7230E+02  0.7298E+02  0.6694E+03  0.6691E+03
      5.326  0.5327E+02  0.5270E+02  0.6728E+03  0.6725E+03
      5.390  0.5373E+02  0.4758E+02  0.6762E+03  0.6755E+03
      5.454  0.6718E+02  0.7251E+02  0.6805E+03  0.6801E+03
      5.518  0.4879E+02  0.4720E+02  0.6836E+03  0.6832E+03
      5.582  0.7384E+02  0.7422E+02  0.6883E+03  0.6879E+03
      5.646  0.6567E+02  0.6532E+02  0.6925E+03  0.6921E+03
      5.710  0.7334E+02  0.7294E+02  0.6972E+03  0.6967E+03
      5.774  0.6169E+02  0.6142E+02  0.7012E+03  0.7007E+03
      5.837  0.5835E+02  0.5532E+02  0.7049E+03  0.7042E+03
      5.901  0.7205E+02  0.7965E+02  0.7095E+03  0.7093E+03
      5.965  0.5109E+02  0.4736E+02  0.7128E+03  0.7123E+03
      6.029  0.7403E+02  0.7236E+02  0.7175E+03  0.7170E+03
      6.093  0.7195E+02  0.6863E+02  0.7221E+03  0.7213E+03
      6.157  0.7952E+02  0.8354E+02  0.7272E+03  0.7267E+03
      6.221  0.7138E+02  0.7031E+02  0.7317E+03  0.7312E+03
      6.285  0.8558E+02  0.8010E+02  0.7372E+03  0.7363E+03
      6.349  0.6042E+02  0.6756E+02  0.7411E+03  0.7406E+03
      6.412  0.7714E+02  0.7124E+02  0.7460E+03  0.7452E+03
      6.476  0.6205E+02  0.6653E+02  0.7500E+03  0.7494E+03
      6.540  0.7193E+02  0.6412E+02  0.7546E+03  0.7535E+03
      6.604  0.8441E+02  0.8735E+02  0.7600E+03  0.7591E+03
      6.668  0.6744E+02  0.7046E+02  0.7643E+03  0.7636E+03
      6.732  0.6585E+02  0.6872E+02  0.7685E+03  0.7680E+03
      6.796  0.5856E+02  0.5583E+02  0.7722E+03  0.7716E+03
      6.860  0.8686E+02  0.8691E+02  0.7778E+03  0.7771E+03
      6.923  0.7147E+02  0.6888E+02  0.7823E+03  0.7815E+03
      6.987  0.6678E+02  0.6436E+02  0.7866E+03  0.7856E+03
      7.051  0.7662E+02  0.8004E+02  0.7915E+03  0.7907E+03
      7.115  0.8610E+02  0.8381E+02  0.7970E+03  0.7961E+03
      7.179  0.7309E+02  0.8002E+02  0.8017E+03  0.8012E+03
      7.243  0.7154E+02  0.6829E+02  0.8062E+03  0.8056E+03
      7.307  0.9331E+02  0.8741E+02  0.8122E+03  0.8112E+03
      7.371  0.8385E+02  0.8771E+02  0.8176E+03  0.8168E+03
      7.435  0.7086E+02  0.7150E+02  0.8221E+03  0.8213E+03
      7.498  0.7459E+02  0.7223E+02  0.8269E+03  0.8259E+03
      7.562  0.8387E+02  0.8955E+02  0.8322E+03  0.8317E+03
      7.626  0.9425E+02  0.9108E+02  0.8382E+03  0.8375E+03
      7.690  0.8232E+02  0.8262E+02  0.8435E+03  0.8428E+03
      7.754  0.9324E+02  0.9000E+02  0.8495E+03  0.8485E+03
      7.818  0.7381E+02  0.7811E+02  0.8542E+03  0.8535E+03
      7.882  0.9140E+02  0.9062E+02  0.8600E+03  0.8593E+03
      7.946  0.7895E+02  0.8383E+02  0.8651E+03  0.8647E+03
      8.009  0.7281E+02  0.7384E+02  0.8697E+03  0.8694E+03
      8.073  0.8907E+02  0.8635E+02  0.8754E+03  0.8749E+03
      8.137  0.8679E+02  0.8662E+02  0.8810E+03  0.8804E+03
      8.201  0.9497E+02  0.9416E+02  0.8870E+03  0.8864E+03
      8.265  0.9476E+02  0.9372E+02  0.8931E+03  0.8924E+03
      8.329  0.7349E+02  0.7517E+02  0.8978E+03  0.8972E+03
      8.393  0.9368E+02  0.9077E+02  0.9038E+03  0.9030E+03
      8.457  0.9540E+02  0.9543E+02  0.9099E+03  0.9091E+03
      8.520  0.1069E+03  0.1088E+03  0.9167E+03  0.9161E+03
      8.584  0.9666E+02  0.9732E+02  0.9229E+03  0.9223E+03
      8.648  0.6631E+02  0.7096E+02  0.9271E+03  0.9268E+03
      8.712  0.1392E+02  0.1803E+02  0.9280E+03  0.9280E+03
      8.776  0.0000E+00  0.0000E+00  0.9280E+03  0.9280E+03
      8.840  0.0000E+00  0.0000E+00  0.9280E+03  0.9280E+03
      8.904  0.0000E+00  0.0000E+00  0.9280E+03  0.9280E+03
      8.968  0.0000E+00  0.0000E+00  0.9280E+03  0.9280E+03
      9.032  0.0000E+00  0.0000E+00  0.9280E+03  0.9280E+03
      9.095  0.0000E+00  0.0000E+00  0.9280E+03  0.9280E+03
      9.159  0.0000E+00  0.0000E+00  0.9280E+03  0.9280E+03
      9.223  0.0000E+00  0.0000E+00  0.9280E+03  0.9280E+03
      9.287  0.0000E+00  0.0000E+00  0.9280E+03  0.9280E+03
      9.351  0.0000E+00  0.0000E+00  0.9280E+03  0.9280E+03
      9.415  0.0000E+00  0.0000E+00  0.9280E+03  0.9280E+03
      9.479  0.0000E+00  0.0000E+00  0.9280E+03  0.9280E+03
      9.543  0.0000E+00  0.0000E+00  0.9280E+03  0.9280E+03
