Si and Ge interface calculation         
           1
    16.973400    0.000000    0.000000
     0.000000   17.891535    0.000000
     0.000000    0.000000   11.261644
   Ge   Si
    72   120
Direct configuration=     1
   0.13037896  0.82620442  0.39717922
   0.96371245  0.07620390  0.00000000
   0.79704571  0.42620403  0.07943586
   0.63037902  0.77620411  0.15887171
   0.46371227  0.12620437  0.23830758
   0.29704553  0.47620463  0.31774345
   0.46371227  0.82620442  0.39717922
   0.29704577  0.07620390  0.00000000
   0.13037910  0.42620403  0.07943586
   0.96371239  0.77620411  0.15887171
   0.79704565  0.12620437  0.23830758
   0.63037890  0.47620463  0.31774345
   0.79704565  0.82620442  0.39717922
   0.63037914  0.07620390  0.00000000
   0.46371245  0.42620403  0.07943586
   0.29704574  0.77620411  0.15887171
   0.13037901  0.12620437  0.23830758
   0.96371227  0.47620463  0.31774345
   0.21371222  0.57620478  0.39717942
   0.04704577  0.82620394  0.00000001
   0.88037908  0.17620420  0.07943582
   0.71371233  0.52620423  0.15887170
   0.54704565  0.87620449  0.23830756
   0.38037896  0.22620463  0.31774345
   0.54704559  0.57620478  0.39717942
   0.38037911  0.82620394  0.00000001
   0.21371241  0.17620420  0.07943582
   0.04704573  0.52620423  0.15887170
   0.88037902  0.87620449  0.23830756
   0.71371227  0.22620463  0.31774345
   0.88037890  0.57620478  0.39717942
   0.71371239  0.82620394  0.00000001
   0.54704571  0.17620420  0.07943582
   0.38037905  0.52620423  0.15887170
   0.21371232  0.87620449  0.23830756
   0.04704562  0.22620463  0.31774345
   0.13037890  0.32620454  0.39717931
   0.96371239  0.57620394  0.00000000
   0.79704571  0.92620414  0.07943588
   0.63037902  0.27620411  0.15887168
   0.46371227  0.62620437  0.23830758
   0.29704559  0.97620440  0.31774345
   0.46371222  0.32620454  0.39717931
   0.29704577  0.57620394  0.00000000
   0.13037907  0.92620414  0.07943588
   0.96371239  0.27620411  0.15887168
   0.79704565  0.62620437  0.23830758
   0.63037896  0.97620440  0.31774345
   0.79704559  0.32620454  0.39717931
   0.63037908  0.57620394  0.00000000
   0.46371242  0.92620414  0.07943588
   0.29704574  0.27620411  0.15887168
   0.13037901  0.62620437  0.23830758
   0.96371227  0.97620440  0.31774345
   0.21371227  0.07620454  0.39717928
   0.04704577  0.32620391  0.00000001
   0.88037908  0.67620403  0.07943586
   0.71371233  0.02620411  0.15887172
   0.54704565  0.37620425  0.23830756
   0.38037890  0.72620463  0.31774342
   0.54704565  0.07620454  0.39717928
   0.38037911  0.32620391  0.00000001
   0.21371244  0.67620403  0.07943586
   0.04704573  0.02620411  0.15887172
   0.88037902  0.37620425  0.23830756
   0.71371222  0.72620463  0.31774342
   0.88037896  0.07620454  0.39717928
   0.71371245  0.32620391  0.00000001
   0.54704571  0.67620403  0.07943586
   0.38037905  0.02620411  0.15887172
   0.21371232  0.37620425  0.23830756
   0.04704557  0.72620463  0.31774342
   0.99822032  0.99466091  0.39717942
   0.94822025  0.84466088  0.63830763
   0.89822018  0.69466090  0.87943584
   0.09822031  0.29466096  0.39717942
   0.04822024  0.14466093  0.63830763
   0.99822015  0.99466091  0.87943584
   0.39822033  0.19466098  0.39717942
   0.34822026  0.04466093  0.63830763
   0.29822019  0.89466089  0.87943584
   0.69822037  0.09466096  0.39717942
   0.64822030  0.94466090  0.63830763
   0.59822023  0.79466087  0.87943584
   0.19822031  0.59466100  0.39717942
   0.14822024  0.44466096  0.63830763
   0.09822017  0.29466093  0.87943584
   0.49822035  0.49466094  0.39717942
   0.44822028  0.34466091  0.63830763
   0.39822018  0.19466086  0.87943584
   0.79822034  0.39466101  0.39717942
   0.74822027  0.24466097  0.63830763
   0.69822019  0.09466093  0.87943584
   0.29822031  0.89466095  0.39717942
   0.24822023  0.74466097  0.63830763
   0.19822015  0.59466088  0.87943584
   0.59822029  0.79466099  0.39717942
   0.54822022  0.64466095  0.63830763
   0.49822015  0.49466088  0.87943584
   0.89822036  0.69466096  0.39717942
   0.84822029  0.54466093  0.63830763
   0.79822022  0.39466086  0.87943584
   0.09822030  0.04466095  0.51774347
   0.04822024  0.89466095  0.75887179
   0.99822015  0.74466085  0.99999994
   0.19822033  0.34466100  0.51774347
   0.14822026  0.19466093  0.75887179
   0.09822017  0.04466087  0.99999994
   0.49822035  0.24466099  0.51774347
   0.44822028  0.09466093  0.75887179
   0.39822018  0.94466090  0.99999994
   0.79822040  0.14466098  0.51774347
   0.74822032  0.99466091  0.75887179
   0.69822025  0.84466088  0.99999994
   0.99822032  0.74466097  0.51774347
   0.94822025  0.59466094  0.75887179
   0.89822018  0.44466090  0.99999994
   0.29822031  0.64466095  0.51774347
   0.24822025  0.49466091  0.75887179
   0.19822016  0.34466088  0.99999994
   0.59822035  0.54466093  0.51774347
   0.54822028  0.39466092  0.75887179
   0.49822018  0.24466087  0.99999994
   0.89822030  0.44466102  0.51774347
   0.84822023  0.29466099  0.75887179
   0.79822016  0.14466093  0.99999994
   0.39822033  0.94466102  0.51774347
   0.34822026  0.79466099  0.75887179
   0.29822019  0.64466095  0.99999994
   0.69822043  0.84466106  0.51774347
   0.64822036  0.69466096  0.75887179
   0.59822023  0.54466093  0.99999994
   0.19822031  0.09466095  0.39717942
   0.14822024  0.94466090  0.63830763
   0.09822016  0.79466087  0.87943584
   0.49822032  0.99466097  0.39717942
   0.44822025  0.84466088  0.63830763
   0.39822021  0.69466084  0.87943584
   0.99822032  0.49466094  0.39717942
   0.94822025  0.34466094  0.63830763
   0.89822018  0.19466087  0.87943584
   0.29822034  0.39466101  0.39717942
   0.24822027  0.24466099  0.63830763
   0.19822018  0.09466093  0.87943584
   0.59822035  0.29466096  0.39717942
   0.54822028  0.14466093  0.63830763
   0.49822021  0.99466085  0.87943584
   0.89822042  0.19466092  0.39717942
   0.84822035  0.04466091  0.63830763
   0.79822028  0.89466083  0.87943584
   0.09822030  0.79466104  0.39717942
   0.04822024  0.64466101  0.63830763
   0.99822015  0.49466094  0.87943584
   0.39822033  0.69466102  0.39717942
   0.34822026  0.54466104  0.63830763
   0.29822019  0.39466095  0.87943584
   0.69822031  0.59466100  0.39717942
   0.64822024  0.44466096  0.63830763
   0.59822023  0.29466090  0.87943584
   0.79822034  0.89466107  0.39717942
   0.74822027  0.74466097  0.63830763
   0.69822019  0.59466100  0.87943584
   0.99822032  0.24466093  0.51774347
   0.94822025  0.09466090  0.75887179
   0.89822012  0.94466084  0.99999994
   0.29822034  0.14466096  0.51774347
   0.24822027  0.99466091  0.75887179
   0.19822018  0.84466088  0.99999994
   0.59822035  0.04466096  0.51774347
   0.54822028  0.89466095  0.75887179
   0.49822021  0.74466085  0.99999994
   0.09822030  0.54466093  0.51774347
   0.04822024  0.39466092  0.75887179
   0.99822015  0.24466085  0.99999994
   0.39822030  0.44466096  0.51774347
   0.34822026  0.29466093  0.75887179
   0.29822019  0.14466086  0.99999994
   0.69822037  0.34466094  0.51774347
   0.64822030  0.19466090  0.75887179
   0.59822023  0.04466084  0.99999994
   0.19822031  0.84466106  0.51774347
   0.14822026  0.69466102  0.75887179
   0.09822016  0.54466093  0.99999994
   0.49822030  0.74466091  0.51774347
   0.44822025  0.59466088  0.75887179
   0.39822015  0.44466081  0.99999994
   0.79822034  0.64466095  0.51774347
   0.74822027  0.49466091  0.75887179
   0.69822019  0.34466085  0.99999994
   0.89822030  0.94466102  0.51774347
   0.84822023  0.79466104  0.75887179
   0.79822016  0.64466095  0.99999994
