 228 228   0   0
  0.1793161E+02  0.1717433E-08  0.1717433E-08  0.1386100E-08  0.5000000E-15
  1.000000000000000E-004
  CAR 
 Si and Ge interface calculation         
      9.43455833    -10.34658302  301      6.59878627      1.00000000
    -10.347  0.0000E+00  0.0000E+00  0.0000E+00  0.0000E+00
    -10.281  0.0000E+00  0.0000E+00  0.0000E+00  0.0000E+00
    -10.215  0.0000E+00  0.0000E+00  0.0000E+00  0.0000E+00
    -10.149  0.0000E+00  0.0000E+00  0.0000E+00  0.0000E+00
    -10.083  0.0000E+00  0.0000E+00  0.0000E+00  0.0000E+00
    -10.017  0.0000E+00  0.0000E+00  0.0000E+00  0.0000E+00
     -9.951  0.0000E+00  0.0000E+00  0.0000E+00  0.0000E+00
     -9.885  0.0000E+00  0.0000E+00  0.0000E+00  0.0000E+00
     -9.819  0.0000E+00  0.0000E+00  0.0000E+00  0.0000E+00
     -9.753  0.0000E+00  0.0000E+00  0.0000E+00  0.0000E+00
     -9.687  0.0000E+00  0.0000E+00  0.0000E+00  0.0000E+00
     -9.621  0.0000E+00  0.0000E+00  0.0000E+00  0.0000E+00
     -9.555  0.0000E+00  0.0000E+00  0.0000E+00  0.0000E+00
     -9.489  0.7134E-08  0.1358E-08  0.4704E-09  0.8954E-10
     -9.423  0.6541E+02  0.5924E+02  0.4313E+01  0.3906E+01
     -9.358  0.5560E+02  0.6208E+02  0.8000E+01  0.8000E+01
     -9.292  0.0000E+00  0.0000E+00  0.8000E+01  0.8000E+01
     -9.226  0.0000E+00  0.0000E+00  0.8000E+01  0.8000E+01
     -9.160  0.0000E+00  0.0000E+00  0.8000E+01  0.8000E+01
     -9.094  0.0000E+00  0.0000E+00  0.8000E+01  0.8000E+01
     -9.028  0.0000E+00  0.0000E+00  0.8000E+01  0.8000E+01
     -8.962  0.0000E+00  0.0000E+00  0.8000E+01  0.8000E+01
     -8.896  0.0000E+00  0.0000E+00  0.8000E+01  0.8000E+01
     -8.830  0.0000E+00  0.0000E+00  0.8000E+01  0.8000E+01
     -8.764  0.0000E+00  0.0000E+00  0.8000E+01  0.8000E+01
     -8.698  0.4651E-11  0.7419E-12  0.8000E+01  0.8000E+01
     -8.632  0.1037E+02  0.9553E+01  0.8684E+01  0.8630E+01
     -8.566  0.1053E+03  0.1046E+03  0.1563E+02  0.1553E+02
     -8.500  0.5642E+01  0.7085E+01  0.1600E+02  0.1600E+02
     -8.434  0.3054E+01  0.1812E+01  0.1620E+02  0.1612E+02
     -8.368  0.6687E+02  0.6757E+02  0.2061E+02  0.2057E+02
     -8.303  0.3485E+02  0.3520E+02  0.2291E+02  0.2290E+02
     -8.237  0.6362E+01  0.6387E+01  0.2333E+02  0.2332E+02
     -8.171  0.1014E+02  0.1029E+02  0.2400E+02  0.2400E+02
     -8.105  0.0000E+00  0.0000E+00  0.2400E+02  0.2400E+02
     -8.039  0.0000E+00  0.0000E+00  0.2400E+02  0.2400E+02
     -7.973  0.3904E-09  0.3870E-10  0.2400E+02  0.2400E+02
     -7.907  0.2158E+02  0.2069E+02  0.2542E+02  0.2536E+02
     -7.841  0.3553E+02  0.3381E+02  0.2777E+02  0.2760E+02
     -7.775  0.5567E+02  0.5535E+02  0.3145E+02  0.3127E+02
     -7.709  0.8312E+01  0.1111E+02  0.3200E+02  0.3200E+02
     -7.643  0.7583E+01  0.7581E+01  0.3250E+02  0.3250E+02
     -7.577  0.1254E+02  0.1060E+02  0.3333E+02  0.3320E+02
     -7.511  0.2799E+02  0.2818E+02  0.3517E+02  0.3506E+02
     -7.445  0.5791E+02  0.5946E+02  0.3899E+02  0.3898E+02
     -7.379  0.1928E+02  0.1784E+02  0.4026E+02  0.4015E+02
     -7.313  0.5478E+02  0.5244E+02  0.4388E+02  0.4361E+02
     -7.248  0.2404E+02  0.2514E+02  0.4546E+02  0.4527E+02
     -7.182  0.6319E+02  0.6528E+02  0.4963E+02  0.4957E+02
     -7.116  0.3772E+02  0.3788E+02  0.5212E+02  0.5208E+02
     -7.050  0.1273E+02  0.1230E+02  0.5296E+02  0.5289E+02
     -6.984  0.3113E+02  0.3020E+02  0.5501E+02  0.5489E+02
     -6.918  0.1499E+02  0.1690E+02  0.5600E+02  0.5600E+02
     -6.852  0.2051E+02  0.1523E+02  0.5735E+02  0.5700E+02
     -6.786  0.3248E+02  0.3769E+02  0.5949E+02  0.5949E+02
     -6.720  0.1837E+01  0.7899E+00  0.5962E+02  0.5955E+02
     -6.654  0.2876E+02  0.2968E+02  0.6152E+02  0.6151E+02
     -6.588  0.3248E+02  0.3203E+02  0.6366E+02  0.6362E+02
     -6.522  0.1004E+02  0.9781E+01  0.6432E+02  0.6427E+02
     -6.456  0.7086E+01  0.7272E+01  0.6479E+02  0.6475E+02
     -6.390  0.1608E+02  0.1591E+02  0.6585E+02  0.6579E+02
     -6.324  0.2305E+01  0.3113E+01  0.6600E+02  0.6600E+02
     -6.258  0.2370E+02  0.2161E+02  0.6756E+02  0.6743E+02
     -6.193  0.2778E+02  0.2765E+02  0.6939E+02  0.6925E+02
     -6.127  0.9180E+01  0.1140E+02  0.7000E+02  0.7000E+02
     -6.061  0.3573E+01  0.3432E+01  0.7024E+02  0.7023E+02
     -5.995  0.5360E+01  0.5144E+01  0.7059E+02  0.7057E+02
     -5.929  0.3605E+02  0.3521E+02  0.7297E+02  0.7289E+02
     -5.863  0.2557E+02  0.2564E+02  0.7466E+02  0.7459E+02
     -5.797  0.5600E+02  0.5563E+02  0.7835E+02  0.7826E+02
     -5.731  0.3439E+02  0.3427E+02  0.8063E+02  0.8052E+02
     -5.665  0.4978E+02  0.4977E+02  0.8391E+02  0.8381E+02
     -5.599  0.4970E+02  0.4859E+02  0.8719E+02  0.8701E+02
     -5.533  0.4712E+02  0.4693E+02  0.9030E+02  0.9011E+02
     -5.467  0.3338E+02  0.3619E+02  0.9250E+02  0.9249E+02
     -5.401  0.3830E+02  0.3546E+02  0.9503E+02  0.9484E+02
     -5.335  0.3439E+02  0.3648E+02  0.9729E+02  0.9725E+02
     -5.269  0.3652E+02  0.3436E+02  0.9970E+02  0.9951E+02
     -5.203  0.3998E+02  0.4032E+02  0.1023E+03  0.1022E+03
     -5.138  0.3953E+02  0.3961E+02  0.1049E+03  0.1048E+03
     -5.072  0.3834E+02  0.3993E+02  0.1075E+03  0.1074E+03
     -5.006  0.2694E+02  0.2741E+02  0.1093E+03  0.1092E+03
     -4.940  0.4850E+02  0.4817E+02  0.1125E+03  0.1124E+03
     -4.874  0.2650E+02  0.2673E+02  0.1142E+03  0.1142E+03
     -4.808  0.3699E+02  0.3205E+02  0.1166E+03  0.1163E+03
     -4.742  0.2942E+02  0.3228E+02  0.1186E+03  0.1184E+03
     -4.676  0.4813E+02  0.4485E+02  0.1218E+03  0.1214E+03
     -4.610  0.4543E+02  0.4862E+02  0.1247E+03  0.1246E+03
     -4.544  0.4290E+02  0.4415E+02  0.1276E+03  0.1275E+03
     -4.478  0.4182E+02  0.4108E+02  0.1303E+03  0.1302E+03
     -4.412  0.1608E+02  0.1665E+02  0.1314E+03  0.1313E+03
     -4.346  0.5330E+02  0.4935E+02  0.1349E+03  0.1346E+03
     -4.280  0.4629E+02  0.4895E+02  0.1380E+03  0.1378E+03
     -4.214  0.3450E+02  0.3570E+02  0.1403E+03  0.1402E+03
     -4.148  0.5427E+02  0.5370E+02  0.1438E+03  0.1437E+03
     -4.083  0.3715E+02  0.3774E+02  0.1463E+03  0.1462E+03
     -4.017  0.4859E+02  0.4988E+02  0.1495E+03  0.1495E+03
     -3.951  0.3134E+02  0.2945E+02  0.1516E+03  0.1514E+03
     -3.885  0.4188E+02  0.4056E+02  0.1543E+03  0.1541E+03
     -3.819  0.6879E+02  0.6670E+02  0.1589E+03  0.1585E+03
     -3.753  0.6468E+02  0.6861E+02  0.1631E+03  0.1630E+03
     -3.687  0.6640E+02  0.6381E+02  0.1675E+03  0.1673E+03
     -3.621  0.7969E+02  0.8221E+02  0.1728E+03  0.1727E+03
     -3.555  0.4828E+02  0.4659E+02  0.1760E+03  0.1758E+03
     -3.489  0.7472E+02  0.7480E+02  0.1809E+03  0.1807E+03
     -3.423  0.5362E+02  0.5236E+02  0.1844E+03  0.1842E+03
     -3.357  0.5383E+02  0.5756E+02  0.1880E+03  0.1879E+03
     -3.291  0.5933E+02  0.5912E+02  0.1919E+03  0.1918E+03
     -3.225  0.6311E+02  0.5996E+02  0.1961E+03  0.1958E+03
     -3.159  0.5077E+02  0.5168E+02  0.1994E+03  0.1992E+03
     -3.093  0.5266E+02  0.5338E+02  0.2029E+03  0.2027E+03
     -3.028  0.3895E+02  0.4084E+02  0.2055E+03  0.2054E+03
     -2.962  0.5470E+02  0.5313E+02  0.2091E+03  0.2089E+03
     -2.896  0.5176E+02  0.5049E+02  0.2125E+03  0.2123E+03
     -2.830  0.6046E+02  0.5951E+02  0.2165E+03  0.2162E+03
     -2.764  0.4959E+02  0.5263E+02  0.2198E+03  0.2197E+03
     -2.698  0.2077E+02  0.2116E+02  0.2211E+03  0.2211E+03
     -2.632  0.7286E+02  0.7135E+02  0.2259E+03  0.2258E+03
     -2.566  0.4197E+02  0.4119E+02  0.2287E+03  0.2285E+03
     -2.500  0.6865E+02  0.6686E+02  0.2332E+03  0.2329E+03
     -2.434  0.4120E+02  0.4363E+02  0.2360E+03  0.2358E+03
     -2.368  0.7455E+02  0.7273E+02  0.2409E+03  0.2406E+03
     -2.302  0.6761E+02  0.6942E+02  0.2453E+03  0.2452E+03
     -2.236  0.3810E+02  0.3732E+02  0.2479E+03  0.2477E+03
     -2.170  0.6167E+02  0.6070E+02  0.2519E+03  0.2517E+03
     -2.104  0.4500E+02  0.4687E+02  0.2549E+03  0.2547E+03
     -2.039  0.2818E+02  0.3031E+02  0.2568E+03  0.2567E+03
     -1.973  0.4475E+02  0.4319E+02  0.2597E+03  0.2596E+03
     -1.907  0.5988E+02  0.5979E+02  0.2637E+03  0.2635E+03
     -1.841  0.4052E+02  0.4052E+02  0.2663E+03  0.2662E+03
     -1.775  0.5042E+02  0.4937E+02  0.2697E+03  0.2695E+03
     -1.709  0.5562E+02  0.5604E+02  0.2733E+03  0.2732E+03
     -1.643  0.6010E+02  0.6096E+02  0.2773E+03  0.2772E+03
     -1.577  0.3329E+02  0.3221E+02  0.2795E+03  0.2793E+03
     -1.511  0.6909E+02  0.6921E+02  0.2841E+03  0.2839E+03
     -1.445  0.6358E+02  0.6279E+02  0.2882E+03  0.2880E+03
     -1.379  0.5237E+02  0.5474E+02  0.2917E+03  0.2917E+03
     -1.313  0.5448E+02  0.5431E+02  0.2953E+03  0.2952E+03
     -1.247  0.7010E+02  0.6726E+02  0.2999E+03  0.2997E+03
     -1.181  0.5597E+02  0.5718E+02  0.3036E+03  0.3035E+03
     -1.115  0.7550E+02  0.7456E+02  0.3086E+03  0.3084E+03
     -1.049  0.7072E+02  0.6988E+02  0.3133E+03  0.3130E+03
     -0.984  0.7786E+02  0.8007E+02  0.3184E+03  0.3183E+03
     -0.918  0.5186E+02  0.5073E+02  0.3218E+03  0.3216E+03
     -0.852  0.7708E+02  0.7788E+02  0.3269E+03  0.3268E+03
     -0.786  0.5384E+02  0.5107E+02  0.3305E+03  0.3301E+03
     -0.720  0.8279E+02  0.8467E+02  0.3359E+03  0.3357E+03
     -0.654  0.6447E+02  0.6383E+02  0.3402E+03  0.3399E+03
     -0.588  0.7293E+02  0.7431E+02  0.3450E+03  0.3448E+03
     -0.522  0.7003E+02  0.6918E+02  0.3496E+03  0.3494E+03
     -0.456  0.5375E+02  0.5392E+02  0.3531E+03  0.3530E+03
     -0.390  0.7101E+02  0.7110E+02  0.3578E+03  0.3576E+03
     -0.324  0.6415E+02  0.6268E+02  0.3621E+03  0.3618E+03
     -0.258  0.7394E+02  0.7501E+02  0.3669E+03  0.3667E+03
     -0.192  0.7181E+02  0.7103E+02  0.3717E+03  0.3714E+03
     -0.126  0.6207E+02  0.6043E+02  0.3758E+03  0.3754E+03
     -0.060  0.7464E+02  0.7546E+02  0.3807E+03  0.3804E+03
      0.006  0.6440E+02  0.6212E+02  0.3850E+03  0.3845E+03
      0.071  0.7154E+02  0.7476E+02  0.3897E+03  0.3894E+03
      0.137  0.6968E+02  0.6808E+02  0.3943E+03  0.3939E+03
      0.203  0.7631E+02  0.7546E+02  0.3993E+03  0.3989E+03
      0.269  0.5809E+02  0.6011E+02  0.4032E+03  0.4029E+03
      0.335  0.8568E+02  0.8063E+02  0.4088E+03  0.4082E+03
      0.401  0.5202E+02  0.5697E+02  0.4122E+03  0.4120E+03
      0.467  0.6357E+02  0.6485E+02  0.4164E+03  0.4163E+03
      0.533  0.6853E+02  0.6761E+02  0.4210E+03  0.4207E+03
      0.599  0.6703E+02  0.6811E+02  0.4254E+03  0.4252E+03
      0.665  0.6933E+02  0.6682E+02  0.4300E+03  0.4296E+03
      0.731  0.4562E+02  0.4867E+02  0.4330E+03  0.4328E+03
      0.797  0.4278E+02  0.4439E+02  0.4358E+03  0.4358E+03
      0.863  0.7472E+02  0.7290E+02  0.4407E+03  0.4406E+03
      0.929  0.7777E+02  0.7325E+02  0.4459E+03  0.4454E+03
      0.995  0.6936E+02  0.7246E+02  0.4504E+03  0.4502E+03
      1.061  0.6364E+02  0.5897E+02  0.4547E+03  0.4541E+03
      1.126  0.8252E+02  0.8800E+02  0.4601E+03  0.4599E+03
      1.192  0.5107E+02  0.4900E+02  0.4635E+03  0.4631E+03
      1.258  0.8696E+02  0.8450E+02  0.4692E+03  0.4687E+03
      1.324  0.9023E+02  0.9053E+02  0.4752E+03  0.4747E+03
      1.390  0.7326E+02  0.7506E+02  0.4800E+03  0.4796E+03
      1.456  0.6731E+02  0.6552E+02  0.4844E+03  0.4840E+03
      1.522  0.7872E+02  0.7729E+02  0.4896E+03  0.4891E+03
      1.588  0.8335E+02  0.8624E+02  0.4951E+03  0.4948E+03
      1.654  0.9752E+02  0.9206E+02  0.5016E+03  0.5008E+03
      1.720  0.8322E+02  0.8718E+02  0.5071E+03  0.5066E+03
      1.786  0.7963E+02  0.8359E+02  0.5123E+03  0.5121E+03
      1.852  0.8822E+02  0.8246E+02  0.5181E+03  0.5175E+03
      1.918  0.7747E+02  0.8007E+02  0.5232E+03  0.5228E+03
      1.984  0.8535E+02  0.8514E+02  0.5289E+03  0.5284E+03
      2.050  0.8240E+02  0.8327E+02  0.5343E+03  0.5339E+03
      2.116  0.8322E+02  0.7980E+02  0.5398E+03  0.5392E+03
      2.181  0.8291E+02  0.8384E+02  0.5453E+03  0.5447E+03
      2.247  0.8611E+02  0.8767E+02  0.5510E+03  0.5505E+03
      2.313  0.8340E+02  0.8664E+02  0.5565E+03  0.5562E+03
      2.379  0.8417E+02  0.8453E+02  0.5620E+03  0.5618E+03
      2.445  0.8594E+02  0.8396E+02  0.5677E+03  0.5674E+03
      2.511  0.6918E+02  0.7122E+02  0.5723E+03  0.5721E+03
      2.577  0.8308E+02  0.7896E+02  0.5777E+03  0.5773E+03
      2.643  0.8186E+02  0.8461E+02  0.5831E+03  0.5829E+03
      2.709  0.9076E+02  0.8912E+02  0.5891E+03  0.5887E+03
      2.775  0.8409E+02  0.8229E+02  0.5947E+03  0.5942E+03
      2.841  0.9031E+02  0.9127E+02  0.6006E+03  0.6002E+03
      2.907  0.1039E+03  0.1040E+03  0.6075E+03  0.6071E+03
      2.973  0.9483E+02  0.9535E+02  0.6138E+03  0.6133E+03
      3.039  0.9192E+02  0.9450E+02  0.6198E+03  0.6196E+03
      3.105  0.1013E+03  0.9415E+02  0.6265E+03  0.6258E+03
      3.171  0.1009E+03  0.1083E+03  0.6332E+03  0.6329E+03
      3.236  0.1010E+03  0.1014E+03  0.6398E+03  0.6396E+03
      3.302  0.1013E+03  0.9871E+02  0.6465E+03  0.6461E+03
      3.368  0.9584E+02  0.9256E+02  0.6528E+03  0.6522E+03
      3.434  0.9499E+02  0.9754E+02  0.6591E+03  0.6587E+03
      3.500  0.8934E+02  0.9044E+02  0.6650E+03  0.6647E+03
      3.566  0.9881E+02  0.9761E+02  0.6715E+03  0.6711E+03
      3.632  0.9926E+02  0.9846E+02  0.6781E+03  0.6776E+03
      3.698  0.8397E+02  0.8533E+02  0.6836E+03  0.6832E+03
      3.764  0.7539E+02  0.7306E+02  0.6886E+03  0.6881E+03
      3.830  0.1025E+03  0.1028E+03  0.6953E+03  0.6948E+03
      3.896  0.9538E+02  0.9841E+02  0.7016E+03  0.7013E+03
      3.962  0.8314E+02  0.8140E+02  0.7071E+03  0.7067E+03
      4.028  0.9207E+02  0.9235E+02  0.7132E+03  0.7128E+03
      4.094  0.9517E+02  0.9492E+02  0.7195E+03  0.7191E+03
      4.160  0.9663E+02  0.9814E+02  0.7259E+03  0.7255E+03
      4.226  0.1026E+03  0.9957E+02  0.7326E+03  0.7321E+03
      4.291  0.8687E+02  0.9022E+02  0.7384E+03  0.7381E+03
      4.357  0.9563E+02  0.9081E+02  0.7447E+03  0.7441E+03
      4.423  0.9117E+02  0.9572E+02  0.7507E+03  0.7504E+03
      4.489  0.7676E+02  0.7618E+02  0.7558E+03  0.7554E+03
      4.555  0.9689E+02  0.9455E+02  0.7621E+03  0.7617E+03
      4.621  0.1041E+03  0.1073E+03  0.7690E+03  0.7688E+03
      4.687  0.7837E+02  0.7437E+02  0.7742E+03  0.7737E+03
      4.753  0.8246E+02  0.8798E+02  0.7796E+03  0.7795E+03
      4.819  0.9590E+02  0.9098E+02  0.7859E+03  0.7855E+03
      4.885  0.7299E+02  0.7407E+02  0.7908E+03  0.7904E+03
      4.951  0.7884E+02  0.8096E+02  0.7960E+03  0.7957E+03
      5.017  0.1062E+03  0.1023E+03  0.8030E+03  0.8025E+03
      5.083  0.6864E+02  0.7073E+02  0.8075E+03  0.8071E+03
      5.149  0.6032E+02  0.6114E+02  0.8115E+03  0.8112E+03
      5.215  0.7884E+02  0.7828E+02  0.8167E+03  0.8163E+03
      5.281  0.6953E+02  0.6717E+02  0.8213E+03  0.8208E+03
      5.346  0.8026E+02  0.8307E+02  0.8266E+03  0.8262E+03
      5.412  0.7448E+02  0.6863E+02  0.8315E+03  0.8308E+03
      5.478  0.7532E+02  0.7333E+02  0.8364E+03  0.8356E+03
      5.544  0.5770E+02  0.6651E+02  0.8403E+03  0.8400E+03
      5.610  0.8652E+02  0.7783E+02  0.8460E+03  0.8451E+03
      5.676  0.7395E+02  0.8184E+02  0.8508E+03  0.8505E+03
      5.742  0.5385E+02  0.4692E+02  0.8544E+03  0.8536E+03
      5.808  0.7785E+02  0.7896E+02  0.8595E+03  0.8588E+03
      5.874  0.7189E+02  0.7247E+02  0.8643E+03  0.8636E+03
      5.940  0.4823E+02  0.4925E+02  0.8675E+03  0.8669E+03
      6.006  0.7634E+02  0.7739E+02  0.8725E+03  0.8720E+03
      6.072  0.7692E+02  0.7420E+02  0.8776E+03  0.8769E+03
      6.138  0.6232E+02  0.6471E+02  0.8817E+03  0.8811E+03
      6.204  0.6256E+02  0.6079E+02  0.8858E+03  0.8851E+03
      6.270  0.6126E+02  0.6207E+02  0.8899E+03  0.8892E+03
      6.336  0.6119E+02  0.5506E+02  0.8939E+03  0.8929E+03
      6.401  0.6826E+02  0.6039E+02  0.8984E+03  0.8969E+03
      6.467  0.7345E+02  0.6784E+02  0.9033E+03  0.9013E+03
      6.533  0.6409E+02  0.7393E+02  0.9075E+03  0.9062E+03
      6.599  0.7723E+02  0.7303E+02  0.9126E+03  0.9110E+03
      6.665  0.7627E+02  0.7684E+02  0.9176E+03  0.9161E+03
      6.731  0.6698E+02  0.7266E+02  0.9221E+03  0.9209E+03
      6.797  0.7425E+02  0.7859E+02  0.9270E+03  0.9261E+03
      6.863  0.8416E+02  0.8181E+02  0.9325E+03  0.9315E+03
      6.929  0.8051E+02  0.7825E+02  0.9378E+03  0.9367E+03
      6.995  0.8575E+02  0.8864E+02  0.9435E+03  0.9425E+03
      7.061  0.9383E+02  0.8813E+02  0.9497E+03  0.9483E+03
      7.127  0.7410E+02  0.8276E+02  0.9546E+03  0.9538E+03
      7.193  0.9271E+02  0.9540E+02  0.9607E+03  0.9601E+03
      7.259  0.8444E+02  0.7893E+02  0.9663E+03  0.9653E+03
      7.325  0.8506E+02  0.8801E+02  0.9719E+03  0.9711E+03
      7.391  0.9726E+02  0.9128E+02  0.9783E+03  0.9771E+03
      7.456  0.9932E+02  0.1036E+03  0.9849E+03  0.9840E+03
      7.522  0.1080E+03  0.1118E+03  0.9920E+03  0.9913E+03
      7.588  0.1058E+03  0.9586E+02  0.9990E+03  0.9977E+03
      7.654  0.1041E+03  0.1103E+03  0.1006E+04  0.1005E+04
      7.720  0.9245E+02  0.9357E+02  0.1012E+04  0.1011E+04
      7.786  0.8174E+02  0.8419E+02  0.1017E+04  0.1017E+04
      7.852  0.1092E+03  0.1125E+03  0.1025E+04  0.1024E+04
      7.918  0.9279E+02  0.8737E+02  0.1031E+04  0.1030E+04
      7.984  0.1251E+03  0.1231E+03  0.1039E+04  0.1038E+04
      8.050  0.8706E+02  0.9262E+02  0.1045E+04  0.1044E+04
      8.116  0.1088E+03  0.1110E+03  0.1052E+04  0.1051E+04
      8.182  0.1134E+03  0.1137E+03  0.1059E+04  0.1059E+04
      8.248  0.1110E+03  0.1084E+03  0.1067E+04  0.1066E+04
      8.314  0.1142E+03  0.1161E+03  0.1074E+04  0.1074E+04
      8.380  0.1166E+03  0.1131E+03  0.1082E+04  0.1081E+04
      8.446  0.1196E+03  0.1216E+03  0.1090E+04  0.1089E+04
      8.511  0.8812E+02  0.8980E+02  0.1096E+04  0.1095E+04
      8.577  0.6362E+01  0.1234E+02  0.1096E+04  0.1096E+04
      8.643  0.0000E+00  0.0000E+00  0.1096E+04  0.1096E+04
      8.709  0.0000E+00  0.0000E+00  0.1096E+04  0.1096E+04
      8.775  0.0000E+00  0.0000E+00  0.1096E+04  0.1096E+04
      8.841  0.0000E+00  0.0000E+00  0.1096E+04  0.1096E+04
      8.907  0.0000E+00  0.0000E+00  0.1096E+04  0.1096E+04
      8.973  0.0000E+00  0.0000E+00  0.1096E+04  0.1096E+04
      9.039  0.0000E+00  0.0000E+00  0.1096E+04  0.1096E+04
      9.105  0.0000E+00  0.0000E+00  0.1096E+04  0.1096E+04
      9.171  0.0000E+00  0.0000E+00  0.1096E+04  0.1096E+04
      9.237  0.0000E+00  0.0000E+00  0.1096E+04  0.1096E+04
      9.303  0.0000E+00  0.0000E+00  0.1096E+04  0.1096E+04
      9.369  0.0000E+00  0.0000E+00  0.1096E+04  0.1096E+04
      9.435  0.0000E+00  0.0000E+00  0.1096E+04  0.1096E+04
