Si and Ge interface calculation         
           1
    17.174332    0.000000    0.000000
     0.000000   17.174330    0.000000
     0.000000    0.000000   13.860999
   Si   Ge
   120   108
Direct configuration=     1
   0.99640435  0.97483069  0.00000000
   0.94640434  0.62483060  0.19590940
   0.89640427  0.27483046  0.39181888
   0.09640440  0.67483074  0.00000000
   0.04640434  0.32483065  0.19590940
   0.99640423  0.97483051  0.39181888
   0.19640441  0.37483066  0.00000000
   0.14640434  0.02483060  0.19590940
   0.09640426  0.67483044  0.39181888
   0.29640439  0.07483066  0.00000000
   0.24640430  0.72483063  0.19590940
   0.19640423  0.37483042  0.39181888
   0.39640445  0.77483070  0.00000000
   0.34640437  0.42483059  0.19590940
   0.29640430  0.07483046  0.39181888
   0.49640438  0.47483069  0.00000000
   0.44640431  0.12483060  0.19590940
   0.39640424  0.77483046  0.39181888
   0.59640437  0.17483065  0.00000000
   0.54640430  0.82483059  0.19590940
   0.49640426  0.47483045  0.39181888
   0.69640452  0.87483078  0.00000000
   0.64640445  0.52483064  0.19590940
   0.59640437  0.17483054  0.39181888
   0.79640442  0.57483071  0.00000000
   0.74640435  0.22483061  0.19590940
   0.69640428  0.87483048  0.39181888
   0.89640450  0.27483070  0.00000000
   0.84640443  0.92483062  0.19590940
   0.79640436  0.57483047  0.39181888
   0.99640441  0.22483067  0.09795474
   0.94640428  0.87483054  0.29386413
   0.89640427  0.52483046  0.48977351
   0.09640437  0.92483062  0.09795474
   0.04640429  0.57483053  0.29386413
   0.99640423  0.22483039  0.48977351
   0.19640441  0.62483066  0.09795474
   0.14640434  0.27483055  0.29386413
   0.09640426  0.92483050  0.48977351
   0.29640442  0.32483062  0.09795474
   0.24640434  0.97483051  0.29386413
   0.19640426  0.62483048  0.48977351
   0.39640441  0.02483064  0.09795474
   0.34640431  0.67483056  0.29386413
   0.29640424  0.32483047  0.48977351
   0.49640450  0.72483069  0.09795474
   0.44640443  0.37483057  0.29386413
   0.39640436  0.02483052  0.48977351
   0.59640437  0.42483059  0.09795474
   0.54640430  0.07483050  0.29386413
   0.49640426  0.72483045  0.48977351
   0.69640452  0.12483066  0.09795474
   0.64640439  0.77483058  0.29386413
   0.59640437  0.42483050  0.48977351
   0.79640448  0.82483071  0.09795474
   0.74640441  0.47483057  0.29386413
   0.69640434  0.12483048  0.48977351
   0.89640445  0.52483064  0.09795474
   0.84640437  0.17483054  0.29386413
   0.79640430  0.82483047  0.48977351
   0.99640441  0.47483069  0.00000000
   0.94640434  0.12483060  0.19590940
   0.89640427  0.77483046  0.39181888
   0.09640438  0.17483066  0.00000000
   0.04640431  0.82483059  0.19590940
   0.99640423  0.47483045  0.39181888
   0.19640441  0.87483066  0.00000000
   0.14640433  0.52483058  0.19590940
   0.09640426  0.17483044  0.39181888
   0.29640442  0.57483065  0.00000000
   0.24640432  0.22483060  0.19590940
   0.19640425  0.87483048  0.39181888
   0.39640445  0.27483067  0.00000000
   0.34640437  0.92483062  0.19590940
   0.29640430  0.57483047  0.39181888
   0.49640441  0.97483063  0.00000000
   0.44640434  0.62483054  0.19590940
   0.39640424  0.27483040  0.39181888
   0.59640437  0.67483068  0.00000000
   0.54640430  0.32483059  0.19590940
   0.49640423  0.97483045  0.39181888
   0.69640440  0.37483063  0.00000000
   0.64640433  0.02483056  0.19590940
   0.59640425  0.67483044  0.39181888
   0.79640442  0.07483064  0.00000000
   0.74640435  0.72483051  0.19590940
   0.69640428  0.37483042  0.39181888
   0.89640450  0.77483070  0.00000000
   0.84640443  0.42483062  0.19590940
   0.79640436  0.07483048  0.39181888
   0.99640435  0.72483075  0.09795474
   0.94640428  0.37483060  0.29386413
   0.89640427  0.02483054  0.48977351
   0.09640439  0.42483068  0.09795474
   0.04640431  0.07483057  0.29386413
   0.99640423  0.72483051  0.48977351
   0.19640441  0.12483066  0.09795474
   0.14640434  0.77483058  0.29386413
   0.09640427  0.42483050  0.48977351
   0.29640439  0.82483071  0.09795474
   0.24640432  0.47483057  0.29386413
   0.19640425  0.12483048  0.48977351
   0.39640441  0.52483076  0.09795474
   0.34640434  0.17483065  0.29386413
   0.29640427  0.82483059  0.48977351
   0.49640441  0.22483064  0.09795474
   0.44640434  0.87483054  0.29386413
   0.39640424  0.52483046  0.48977351
   0.59640443  0.92483068  0.09795474
   0.54640436  0.57483059  0.29386413
   0.49640429  0.22483051  0.48977351
   0.69640446  0.62483072  0.09795474
   0.64640439  0.27483058  0.29386413
   0.59640431  0.92483056  0.48977351
   0.79640436  0.32483062  0.09795474
   0.74640429  0.97483051  0.29386413
   0.69640422  0.62483048  0.48977351
   0.89640439  0.02483063  0.09795474
   0.84640431  0.67483056  0.29386413
   0.79640424  0.32483041  0.48977351
   0.99430549  0.66666657  0.48977351
   0.82763886  0.66666657  0.69386411
   0.66097212  0.66666657  0.89795476
   0.99430549  0.33333328  0.48977351
   0.82763886  0.33333328  0.69386411
   0.66097212  0.33333328  0.89795476
   0.99430549  0.00000000  0.48977351
   0.82763886  0.00000000  0.69386411
   0.66097212  0.00000000  0.89795476
   0.32763880  0.66666657  0.48977351
   0.16097215  0.66666657  0.69386411
   0.99430543  0.66666657  0.89795476
   0.32763880  0.33333328  0.48977351
   0.16097215  0.33333328  0.69386411
   0.99430543  0.33333328  0.89795476
   0.32763880  0.00000000  0.48977351
   0.16097215  0.00000000  0.69386411
   0.99430543  0.00000000  0.89795476
   0.66097212  0.66666657  0.48977351
   0.49430543  0.66666657  0.69386411
   0.32763875  0.66666657  0.89795476
   0.66097212  0.33333328  0.48977351
   0.49430543  0.33333328  0.69386411
   0.32763875  0.33333328  0.89795476
   0.66097212  0.00000000  0.48977351
   0.49430543  0.00000000  0.69386411
   0.32763875  0.00000000  0.89795476
   0.07763884  0.91666657  0.59181881
   0.91097212  0.91666657  0.79590952
   0.74430549  0.91666657  0.00000000
   0.07763884  0.58333331  0.59181881
   0.91097212  0.58333331  0.79590952
   0.74430549  0.58333331  0.00000000
   0.07763884  0.24999995  0.59181881
   0.91097212  0.24999995  0.79590952
   0.74430549  0.24999995  0.00000000
   0.41097209  0.91666657  0.59181881
   0.24430542  0.91666657  0.79590952
   0.07763872  0.91666657  0.00000000
   0.41097209  0.58333331  0.59181881
   0.24430542  0.58333331  0.79590952
   0.07763872  0.58333331  0.00000000
   0.41097209  0.24999995  0.59181881
   0.24430542  0.24999995  0.79590952
   0.07763872  0.24999995  0.00000000
   0.74430549  0.91666657  0.59181881
   0.57763875  0.91666657  0.79590952
   0.41097206  0.91666657  0.00000000
   0.74430549  0.58333331  0.59181881
   0.57763875  0.58333331  0.79590952
   0.41097206  0.58333331  0.00000000
   0.74430549  0.24999995  0.59181881
   0.57763875  0.24999995  0.79590952
   0.41097206  0.24999995  0.00000000
   0.16097216  0.83333319  0.48977351
   0.99430549  0.83333319  0.69386411
   0.82763880  0.83333319  0.89795476
   0.16097216  0.49999991  0.48977351
   0.99430549  0.49999991  0.69386411
   0.82763880  0.49999991  0.89795476
   0.16097216  0.16666664  0.48977351
   0.99430549  0.16666664  0.69386411
   0.82763880  0.16666664  0.89795476
   0.49430543  0.83333319  0.48977351
   0.32763875  0.83333319  0.69386411
   0.16097207  0.83333319  0.89795476
   0.49430543  0.49999991  0.48977351
   0.32763875  0.49999991  0.69386411
   0.16097207  0.49999991  0.89795476
   0.49430543  0.16666664  0.48977351
   0.32763875  0.16666664  0.69386411
   0.16097207  0.16666664  0.89795476
   0.82763880  0.83333319  0.48977351
   0.66097212  0.83333319  0.69386411
   0.49430543  0.83333319  0.89795476
   0.82763880  0.49999991  0.48977351
   0.66097212  0.49999991  0.69386411
   0.49430543  0.49999991  0.89795476
   0.82763880  0.16666664  0.48977351
   0.66097212  0.16666664  0.69386411
   0.49430543  0.16666664  0.89795476
   0.24430546  0.74999988  0.59181881
   0.07763878  0.74999988  0.79590952
   0.91097212  0.74999988  0.00000000
   0.24430546  0.41666663  0.59181881
   0.07763878  0.41666663  0.79590952
   0.91097212  0.41666663  0.00000000
   0.24430546  0.08333333  0.59181881
   0.07763878  0.08333333  0.79590952
   0.91097212  0.08333333  0.00000000
   0.57763886  0.74999988  0.59181881
   0.41097215  0.74999988  0.79590952
   0.24430545  0.74999988  0.00000000
   0.57763886  0.41666663  0.59181881
   0.41097215  0.41666663  0.79590952
   0.24430545  0.41666663  0.00000000
   0.57763886  0.08333333  0.59181881
   0.41097215  0.08333333  0.79590952
   0.24430545  0.08333333  0.00000000
   0.91097218  0.74999988  0.59181881
   0.74430549  0.74999988  0.79590952
   0.57763875  0.74999988  0.00000000
   0.91097218  0.41666663  0.59181881
   0.74430549  0.41666663  0.79590952
   0.57763875  0.41666663  0.00000000
   0.91097218  0.08333333  0.59181881
   0.74430549  0.08333333  0.79590952
   0.57763875  0.08333333  0.00000000
