 vasp.6.4.3 19Mar24 (build Oct 22 2024 11:23:12) complex                        
  
 executed on             LinuxIFC date 2025.04.30  08:18:25
 running   16 mpi-ranks, on    1 nodes
 distrk:  each k-point on   16 cores,    1 groups
 distr:  one band on NCORE=  16 cores,    1 groups


--------------------------------------------------------------------------------------------------------


 INCAR:
   SYSTEM = Si011 and Ge011 interface calculation
   ISTART = 0
   ICHARG = 2
   LWAVE = .FALSE.
   LREAL = AUTO
   ENCUT = 700
   ENAUG = 900
   ADDGRID = .TRUE.
   LMAXMIX = 6
   LASPH = .TRUE.
   LMIXTAU = .TRUE.
   NCORE = 16
   NELM = 100
   NBANDS = 346
   EDIFF = 1d-7
   AMIX = 0.6
   ISMEAR = 0
   SIGMA = 0.01
   NELECT = 576
   ISPIN = 2
   NUPDOWN = 1
   LVTOT = .FALSE.
   LVHAR = .TRUE.

 POTCAR:    PAW_PBE Si 05Jan2001                  
 POTCAR:    PAW_PBE Ge 05Jan2001                  
 -----------------------------------------------------------------------------
|                                                                             |
|           W    W    AA    RRRRR   N    N  II  N    N   GGGG   !!!           |
|           W    W   A  A   R    R  NN   N  II  NN   N  G    G  !!!           |
|           W    W  A    A  R    R  N N  N  II  N N  N  G       !!!           |
|           W WW W  AAAAAA  RRRRR   N  N N  II  N  N N  G  GGG   !            |
|           WW  WW  A    A  R   R   N   NN  II  N   NN  G    G                |
|           W    W  A    A  R    R  N    N  II  N    N   GGGG   !!!           |
|                                                                             |
|     You use a magnetic or noncollinear calculation, but did not specify     |
|     the initial magnetic moment with the MAGMOM tag. Note that a            |
|     default of 6.944e-3 will be used for all atoms. This ferromagnetic      |
|     setup may break the symmetry of the crystal, in particular it may       |
|     rule out finding an antiferromagnetic solution. Thence, we              |
|     recommend setting the initial magnetic moment manually or verifying     |
|     carefully that this magnetic setup is desired.                          |
|                                                                             |
 -----------------------------------------------------------------------------

 -----------------------------------------------------------------------------
|                                                                             |
|           W    W    AA    RRRRR   N    N  II  N    N   GGGG   !!!           |
|           W    W   A  A   R    R  NN   N  II  NN   N  G    G  !!!           |
|           W    W  A    A  R    R  N N  N  II  N N  N  G       !!!           |
|           W WW W  AAAAAA  RRRRR   N  N N  II  N  N N  G  GGG   !            |
|           WW  WW  A    A  R   R   N   NN  II  N   NN  G    G                |
|           W    W  A    A  R    R  N    N  II  N    N   GGGG   !!!           |
|                                                                             |
|     For optimal performance we recommend to set                             |
|       NCORE = 2 up to number-of-cores-per-socket                            |
|     NCORE specifies how many cores store one orbital (NPAR=cpu/NCORE).      |
|     This setting can greatly improve the performance of VASP for DFT.       |
|     The default, NCORE=1 might be grossly inefficient on modern             |
|     multi-core architectures or massively parallel machines. Do your        |
|     own testing! More info at https://www.vasp.at/wiki/index.php/NCORE      |
|     Unfortunately you need to use the default for GW and RPA                |
|     calculations (for HF NCORE is supported but not extensively tested      |
|     yet).                                                                   |
|                                                                             |
 -----------------------------------------------------------------------------

 POTCAR:    PAW_PBE Si 05Jan2001                  
   VRHFIN =Si: s2p2                                                                                 
   LEXCH  = PE                                                                                      
   EATOM  =   103.0669 eV,    7.5752 Ry                                                             
                                                                                                    
   TITEL  = PAW_PBE Si 05Jan2001                                                                    
   LULTRA =        F    use ultrasoft PP ?                                                          
   IUNSCR =        1    unscreen: 0-lin 1-nonlin 2-no                                               
   RPACOR =    1.500    partial core radius                                                         
   POMASS =   28.085; ZVAL   =    4.000    mass and valenz                                          
   RCORE  =    1.900    outmost cutoff radius                                                       
   RWIGS  =    2.480; RWIGS  =    1.312    wigner-seitz radius (au A)                               
   ENMAX  =  245.345; ENMIN  =  184.009 eV                                                          
   ICORE  =        2    local potential                                                             
   LCOR   =        T    correct aug charges                                                         
   LPAW   =        T    paw PP                                                                      
   EAUG   =  322.069                                                                                
   DEXC   =    0.000                                                                                
   RMAX   =    1.950    core radius for proj-oper                                                   
   RAUG   =    1.300    factor for augmentation sphere                                              
   RDEP   =    1.993    radius for radial grids                                                     
   RDEPT  =    1.837    core radius for aug-charge                                                  
                                                                                                    
   Atomic configuration                                                                             
    6 entries                                                                                       
     n  l   j            E        occ.                                                              
     1  0  0.50     -1785.8828   2.0000                                                             
     2  0  0.50      -139.4969   2.0000                                                             
     2  1  1.50       -95.5546   6.0000                                                             
     3  0  0.50       -10.8127   2.0000                                                             
     3  1  0.50        -4.0811   2.0000                                                             
     3  2  1.50        -4.0817   0.0000                                                             
   Description                                                                                      
     l       E           TYP  RCUT    TYP  RCUT                                                     
     0    -10.8127223     23  1.900                                                                 
     0     -7.6451159     23  1.900                                                                 
     1     -4.0811372     23  1.900                                                                 
     1      2.4879257     23  1.900                                                                 
     2     -4.0817478      7  1.900                                                                 
  local pseudopotential read in
  partial core-charges read in
  partial kinetic energy density read in
  atomic valenz-charges read in
  non local Contribution for L=           0  read in
    real space projection operators read in
  non local Contribution for L=           0  read in
    real space projection operators read in
  non local Contribution for L=           1  read in
    real space projection operators read in
  non local Contribution for L=           1  read in
    real space projection operators read in
    PAW grid and wavefunctions read in
 
   number of l-projection  operators is LMAX  =           4
   number of lm-projection operators is LMMAX =           8
 
 POTCAR:    PAW_PBE Ge 05Jan2001                  
   VRHFIN =Ge: s2p2                                                                                 
   LEXCH  = PE                                                                                      
   EATOM  =   104.9960 eV,    7.7170 Ry                                                             
                                                                                                    
   TITEL  = PAW_PBE Ge 05Jan2001                                                                    
   LULTRA =        F    use ultrasoft PP ?                                                          
   IUNSCR =        1    unscreen: 0-lin 1-nonlin 2-no                                               
   RPACOR =    2.170    partial core radius                                                         
   POMASS =   72.610; ZVAL   =    4.000    mass and valenz                                          
   RCORE  =    2.300    outmost cutoff radius                                                       
   RWIGS  =    2.300; RWIGS  =    1.217    wigner-seitz radius (au A)                               
   ENMAX  =  173.807; ENMIN  =  130.355 eV                                                          
   ICORE  =        3    local potential                                                             
   LCOR   =        T    correct aug charges                                                         
   LPAW   =        T    paw PP                                                                      
   EAUG   =  385.843                                                                                
   DEXC   =    0.000                                                                                
   RMAX   =    2.342    core radius for proj-oper                                                   
   RAUG   =    1.300    factor for augmentation sphere                                              
   RDEP   =    2.318    radius for radial grids                                                     
   RDEPT  =    2.103    core radius for aug-charge                                                  
                                                                                                    
   Atomic configuration                                                                             
   10 entries                                                                                       
     n  l   j            E        occ.                                                              
     1  0  0.50    -10959.8463   2.0000                                                             
     2  0  0.50     -1371.6056   2.0000                                                             
     2  1  1.50     -1198.4791   6.0000                                                             
     3  0  0.50      -168.4733   2.0000                                                             
     3  1  1.50      -115.6019   6.0000                                                             
     3  2  2.50       -29.3106  10.0000                                                             
     4  0  0.50       -11.7309   2.0000                                                             
     4  1  0.50        -3.8952   2.0000                                                             
     4  2  1.50        -4.0817   0.0000                                                             
     4  3  2.50        -4.0817   0.0000                                                             
   Description                                                                                      
     l       E           TYP  RCUT    TYP  RCUT                                                     
     0    -11.7309493     23  2.300                                                                 
     0     -7.4578696     23  2.300                                                                 
     1     -3.8952261     23  2.300                                                                 
     1      6.1178114     23  2.300                                                                 
     2     -4.0817478     23  2.300                                                                 
     3     -1.3605826      7  2.300                                                                 
  local pseudopotential read in
  partial core-charges read in
  partial kinetic energy density read in
  atomic valenz-charges read in
  non local Contribution for L=           0  read in
    real space projection operators read in
  non local Contribution for L=           0  read in
    real space projection operators read in
  non local Contribution for L=           1  read in
    real space projection operators read in
  non local Contribution for L=           1  read in
    real space projection operators read in
  non local Contribution for L=           2  read in
    real space projection operators read in
    PAW grid and wavefunctions read in
 
   number of l-projection  operators is LMAX  =           5
   number of lm-projection operators is LMMAX =          13
 
 Optimization of the real space projectors (new method)

 maximal supplied QI-value         = 19.84
 optimisation between [QCUT,QGAM] = [ 13.49, 26.99] = [ 50.98,203.92] Ry 
 Optimized for a Real-space Cutoff    1.07 Angstroem

   l    n(q)    QCUT    max X(q) W(low)/X(q) W(high)/X(q)  e(spline) 
   0      9    13.493   159.560    0.22E-03    0.15E-03    0.72E-07
   0      9    13.493   115.863    0.21E-03    0.15E-03    0.71E-07
   1      8    13.493    88.339    0.15E-03    0.11E-03    0.13E-06
   1      8    13.493    48.592    0.15E-03    0.10E-03    0.13E-06
 Optimization of the real space projectors (new method)

 maximal supplied QI-value         = 16.25
 optimisation between [QCUT,QGAM] = [ 13.49, 26.98] = [ 50.95,203.80] Ry 
 Optimized for a Real-space Cutoff    1.25 Angstroem

   l    n(q)    QCUT    max X(q) W(low)/X(q) W(high)/X(q)  e(spline) 
   0     10    13.489    65.336    0.91E-04    0.11E-03    0.34E-06
   0     10    13.489    52.220    0.89E-04    0.11E-03    0.34E-06
   1     10    13.489    36.409    0.22E-03    0.27E-03    0.14E-06
   1     10    13.489    21.334    0.21E-03    0.27E-03    0.14E-06
   2      9    13.489     4.673    0.11E-03    0.12E-03    0.19E-06
  PAW_PBE Si 05Jan2001                  :
 energy of atom  1       EATOM= -103.0669
 kinetic energy error for atom=    0.0003 (will be added to EATOM!!)
  PAW_PBE Ge 05Jan2001                  :
 energy of atom  2       EATOM= -104.9960
 kinetic energy error for atom=    0.0001 (will be added to EATOM!!)
 
 
 POSCAR: fcc Si+fcc Ge
  positions in direct lattice
  No initial velocities read in


 exchange-correlation table for PE
   RHO(1)=    0.500       N(1)  =     2000
   RHO(2)=  100.500       N(2)  =     4000
 


--------------------------------------------------------------------------------------------------------


 ion  position               nearest neighbor table
   1  0.000  0.000  0.000-  49 2.37  38 2.37  55 2.37  96 2.53 114 2.61
   2  0.000  0.750  0.080-  39 2.37  50 2.37  55 2.37  56 2.37
   3  0.000  0.500  0.161-  56 2.37  51 2.37  40 2.37  57 2.37
   4  0.000  0.250  0.241-  52 2.37  41 2.37  57 2.37  58 2.37
   5  0.438  0.991  0.493-  12 2.37 103 2.37  80 2.43  66 2.43  79 2.71
   6  0.000  0.750  0.402-  54 2.37  59 2.37  60 2.37  91 2.53 109 2.61
   7  0.355  0.075  0.909-  20 2.37 114 2.37 137 2.43  61 2.59
   8  0.333  0.083  0.080-  45 2.37  62 2.37  38 2.37  61 2.37
   9  0.333  0.833  0.161-  62 2.37  63 2.37  39 2.37  46 2.37
  10  0.333  0.583  0.241-  64 2.37  40 2.37  63 2.37  47 2.37
  11  0.333  0.333  0.322-  65 2.37  41 2.37  64 2.37  48 2.37
  12  0.355  0.825  0.493-   5 2.37 109 2.37 116 2.43  66 2.59
  13  0.021  0.408  0.909- 126 2.37  67 2.37 131 2.43  37 2.49  90 2.53
  14  0.667  0.417  0.080-  51 2.37  44 2.37 132 2.37  68 2.37
  15  0.667  0.167  0.161-  68 2.37  45 2.37  52 2.37  69 2.37
  16  0.667  0.917  0.241-  46 2.37  53 2.37  69 2.37  70 2.37
  17  0.667  0.667  0.322-  47 2.37  54 2.37  70 2.37  71 2.37
  18  0.021  0.158  0.493- 121 2.37  72 2.37 110 2.43  42 2.49  85 2.53
  19  0.688  0.741  0.909- 120 2.37 144 2.37 143 2.43  78 2.43
  20  0.438  0.241  0.909-   7 2.37 108 2.37 101 2.43  61 2.43  84 2.71
  21  0.000  0.000  0.161-  38 2.37  69 2.37  58 2.37  39 2.37
  22  0.000  0.750  0.241-  70 2.37  59 2.37  39 2.37  40 2.37
  23  0.000  0.500  0.322-  71 2.37  60 2.37  40 2.37  41 2.37
  24  0.688  0.491  0.493- 115 2.37 139 2.37 122 2.43  73 2.43
  25  0.355  0.575  0.909- 120 2.37  67 2.37 119 2.43  43 2.59
  26  0.333  0.583  0.080-  63 2.37  44 2.37  56 2.37  43 2.37
  27  0.333  0.333  0.161-  44 2.37  45 2.37  57 2.37  64 2.37
  28  0.333  0.083  0.241-  46 2.37  58 2.37  45 2.37  65 2.37
  29  0.333  0.833  0.322-  47 2.37  59 2.37  46 2.37  66 2.37
  30  0.355  0.325  0.493- 115 2.37  72 2.37 134 2.43  48 2.59
  31  0.667  0.167  0.000-  61 2.37  68 2.37  49 2.37 108 2.43
  32  0.667  0.917  0.080-  69 2.37  62 2.37  49 2.37  50 2.37
  33  0.667  0.667  0.161-  50 2.37  63 2.37  70 2.37  51 2.37
  34  0.667  0.417  0.241-  64 2.37  51 2.37  71 2.37  52 2.37
  35  0.667  0.167  0.322-  65 2.37  52 2.37 127 2.37  53 2.37
  36  0.667  0.917  0.402-  66 2.37  53 2.37  54 2.37 103 2.43
  37  0.083  0.333  0.000-  84 2.37 138 2.37  90 2.37  13 2.49
  38  0.083  0.083  0.080-  21 2.37   8 2.37   1 2.37 138 2.37
  39  0.083  0.833  0.161-   2 2.37   9 2.37  22 2.37  21 2.37
  40  0.083  0.583  0.241-  10 2.37   3 2.37  23 2.37  22 2.37
  41  0.083  0.333  0.322-  11 2.37   4 2.37  85 2.37  23 2.37
  42  0.083  0.083  0.402-  79 2.37 133 2.37  85 2.37  18 2.49
  43  0.417  0.667  0.000- 102 2.37  78 2.37  26 2.37 120 2.43  25 2.59
  44  0.417  0.417  0.080-  27 2.37  26 2.37  14 2.37  84 2.37
  45  0.417  0.167  0.161-   8 2.37  27 2.37  15 2.37  28 2.37
  46  0.417  0.917  0.241-  28 2.37  16 2.37   9 2.37  29 2.37
  47  0.417  0.667  0.322-  29 2.37  17 2.37  10 2.37  97 2.37
  48  0.417  0.417  0.402-  97 2.37  73 2.37  11 2.37 115 2.43  30 2.59
  49  0.750  0.000  0.000-   1 2.37  32 2.37  31 2.37 144 2.53
  50  0.750  0.750  0.080-  33 2.37   2 2.37  78 2.37  32 2.37
  51  0.750  0.500  0.161-  14 2.37   3 2.37  34 2.37  33 2.37
  52  0.750  0.250  0.241-   4 2.37  15 2.37  35 2.37  34 2.37
  53  0.750  0.000  0.322- 133 2.37  36 2.37  16 2.37  35 2.37
  54  0.750  0.750  0.402-   6 2.37  17 2.37  36 2.37 139 2.53
  55  0.083  0.833  0.000- 102 2.37   2 2.37   1 2.37  96 2.49
  56  0.083  0.583  0.080-   3 2.37  26 2.37  90 2.37   2 2.37
  57  0.083  0.333  0.161- 138 2.37  27 2.37   4 2.37   3 2.37
  58  0.083  0.083  0.241-  28 2.37  21 2.37 133 2.37   4 2.37
  59  0.083  0.833  0.322-  29 2.37  22 2.37   6 2.37 133 2.37
  60  0.083  0.583  0.402-  97 2.37  23 2.37   6 2.37  91 2.49
  61  0.417  0.167  0.000-  84 2.37  31 2.37   8 2.37  20 2.43   7 2.59
  62  0.417  0.917  0.080-   9 2.37   8 2.37  32 2.37 102 2.37
  63  0.417  0.667  0.161-  26 2.37   9 2.37  33 2.37  10 2.37
  64  0.417  0.417  0.241-  10 2.37  34 2.37  27 2.37  11 2.37
  65  0.417  0.167  0.322-  11 2.37  35 2.37  28 2.37  79 2.37
  66  0.417  0.917  0.402-  79 2.37  36 2.37  29 2.37   5 2.43  12 2.59
  67  0.105  0.575  0.909-  25 2.37  13 2.37  95 2.43  90 2.61
  68  0.750  0.250  0.080-  15 2.37 138 2.37  31 2.37  14 2.37
  69  0.750  0.000  0.161-  32 2.37  21 2.37  16 2.37  15 2.37
  70  0.750  0.750  0.241-  22 2.37  17 2.37  33 2.37  16 2.37
  71  0.750  0.500  0.322-  23 2.37  34 2.37  73 2.37  17 2.37
  72  0.105  0.325  0.493-  30 2.37  18 2.37  74 2.43  85 2.61
  73  0.667  0.417  0.402-  48 2.37  71 2.37 127 2.37  24 2.43
  74  0.021  0.408  0.576- 122 2.37 128 2.37  72 2.43 111 2.43
  75  0.021  0.658  0.660- 123 2.37 129 2.37 128 2.43 112 2.43
  76  0.021  0.908  0.743- 124 2.37 130 2.37 113 2.43 129 2.43
  77  0.021  0.158  0.826- 125 2.37 131 2.37 130 2.43 114 2.43
  78  0.667  0.667  0.000-  43 2.37  50 2.37 132 2.37  19 2.43
  79  0.333  0.083  0.402-  66 2.37  42 2.37  65 2.37   5 2.71
  80  0.355  0.075  0.576- 134 2.37 110 2.37 117 2.43   5 2.43
  81  0.355  0.325  0.660- 135 2.37 111 2.37 134 2.43 118 2.43
  82  0.355  0.575  0.743- 136 2.37 112 2.37 119 2.43 135 2.43
  83  0.355  0.825  0.826- 137 2.37 113 2.37 136 2.43 120 2.43
  84  0.333  0.333  0.000-  61 2.37  37 2.37  44 2.37  20 2.71
  85  0.000  0.250  0.402- 127 2.37  41 2.37  42 2.37  18 2.53  72 2.61
  86  0.688  0.741  0.576- 116 2.37 140 2.37 139 2.43 123 2.43
  87  0.688  0.991  0.660- 117 2.37 141 2.37 140 2.43 124 2.43
  88  0.688  0.241  0.743- 118 2.37 142 2.37 125 2.43 141 2.43
  89  0.688  0.491  0.826- 119 2.37 143 2.37 142 2.43 126 2.43
  90  0.000  0.500  0.000- 132 2.37  56 2.37  37 2.37  13 2.53  67 2.61
  91  0.021  0.658  0.493- 139 2.37 109 2.37 128 2.43  60 2.49   6 2.53
  92  0.021  0.908  0.576- 140 2.37 110 2.37 129 2.43 109 2.43
  93  0.021  0.158  0.660- 141 2.37 111 2.37 130 2.43 110 2.43
  94  0.021  0.408  0.743- 142 2.37 112 2.37 131 2.43 111 2.43
  95  0.021  0.658  0.826- 143 2.37 113 2.37 112 2.43  67 2.43
  96  0.021  0.908  0.909- 144 2.37 114 2.37 113 2.43  55 2.49   1 2.53
  97  0.333  0.583  0.402-  48 2.37  60 2.37  47 2.37 115 2.71
  98  0.355  0.575  0.576- 116 2.37 128 2.37 115 2.43 135 2.43
  99  0.355  0.825  0.660- 117 2.37 129 2.37 116 2.43 136 2.43
 100  0.355  0.075  0.743- 118 2.37 130 2.37 137 2.43 117 2.43
 101  0.355  0.325  0.826- 119 2.37 131 2.37 118 2.43  20 2.43
 102  0.333  0.833  0.000-  43 2.37  55 2.37  62 2.37 120 2.71
 103  0.688  0.991  0.493-   5 2.37 121 2.37 140 2.43  36 2.43
 104  0.688  0.241  0.576- 134 2.37 122 2.37 121 2.43 141 2.43
 105  0.688  0.491  0.660- 135 2.37 123 2.37 122 2.43 142 2.43
 106  0.688  0.741  0.743- 136 2.37 124 2.37 143 2.43 123 2.43
 107  0.688  0.991  0.826- 137 2.37 125 2.37 124 2.43 144 2.43
 108  0.688  0.241  0.909-  20 2.37 126 2.37 125 2.43  31 2.43
 109  0.105  0.825  0.493-  12 2.37  91 2.37  92 2.43   6 2.61
 110  0.105  0.075  0.576-  80 2.37  92 2.37  18 2.43  93 2.43
 111  0.105  0.325  0.660-  81 2.37  93 2.37  74 2.43  94 2.43
 112  0.105  0.575  0.743-  82 2.37  94 2.37  95 2.43  75 2.43
 113  0.105  0.825  0.826-  83 2.37  95 2.37  76 2.43  96 2.43
 114  0.105  0.075  0.909-   7 2.37  96 2.37  77 2.43   1 2.61
 115  0.438  0.491  0.493-  30 2.37  24 2.37  98 2.43  48 2.43  97 2.71
 116  0.438  0.741  0.576-  98 2.37  86 2.37  12 2.43  99 2.43
 117  0.438  0.991  0.660-  99 2.37  87 2.37  80 2.43 100 2.43
 118  0.438  0.241  0.743- 100 2.37  88 2.37 101 2.43  81 2.43
 119  0.438  0.491  0.826- 101 2.37  89 2.37  82 2.43  25 2.43
 120  0.438  0.741  0.909-  25 2.37  19 2.37  83 2.43  43 2.43 102 2.71
 121  0.771  0.158  0.493-  18 2.37 103 2.37 104 2.43 127 2.53
 122  0.771  0.408  0.576-  74 2.37 104 2.37  24 2.43 105 2.43
 123  0.771  0.658  0.660-  75 2.37 105 2.37  86 2.43 106 2.43
 124  0.771  0.908  0.743-  76 2.37 106 2.37 107 2.43  87 2.43
 125  0.771  0.158  0.826-  77 2.37 107 2.37  88 2.43 108 2.43
 126  0.771  0.408  0.909-  13 2.37 108 2.37  89 2.43 132 2.53
 127  0.750  0.250  0.402-  85 2.37  35 2.37  73 2.37 121 2.53
 128  0.105  0.575  0.576-  98 2.37  74 2.37  91 2.43  75 2.43
 129  0.105  0.825  0.660-  99 2.37  75 2.37  92 2.43  76 2.43
 130  0.105  0.075  0.743- 100 2.37  76 2.37  77 2.43  93 2.43
 131  0.105  0.325  0.826- 101 2.37  77 2.37  94 2.43  13 2.43
 132  0.750  0.500  0.000-  90 2.37  14 2.37  78 2.37 126 2.53
 133  0.000  0.000  0.322-  53 2.37  42 2.37  58 2.37  59 2.37
 134  0.438  0.241  0.576-  80 2.37 104 2.37  81 2.43  30 2.43
 135  0.438  0.491  0.660-  81 2.37 105 2.37  98 2.43  82 2.43
 136  0.438  0.741  0.743-  82 2.37 106 2.37  83 2.43  99 2.43
 137  0.438  0.991  0.826-  83 2.37 107 2.37 100 2.43   7 2.43
 138  0.000  0.250  0.080-  57 2.37  68 2.37  37 2.37  38 2.37
 139  0.771  0.658  0.493-  91 2.37  24 2.37  86 2.43  54 2.53
 140  0.771  0.908  0.576-  92 2.37  86 2.37  87 2.43 103 2.43
 141  0.771  0.158  0.660-  93 2.37  87 2.37  88 2.43 104 2.43
 142  0.771  0.408  0.743-  94 2.37  88 2.37  89 2.43 105 2.43
 143  0.771  0.658  0.826-  95 2.37  89 2.37 106 2.43  19 2.43
 144  0.771  0.908  0.909-  96 2.37  19 2.37 107 2.43  49 2.53
 
  LATTYP: Found a simple orthorhombic cell.
 ALAT       =     9.4916384250
 B/A-ratio  =     1.4142135624
 C/A-ratio  =     2.5383314005
  
  Lattice vectors:
  
 A1 = (   9.4916384250,   0.0000000000,   0.0000000000)
 A2 = (   0.0000000000,  13.4232037900,   0.0000000000)
 A3 = (   0.0000000000,   0.0000000000,  24.0929238560)


Analysis of symmetry for initial positions (statically):
=====================================================================
 Subroutine PRICEL returns:
 Original cell was already a primitive cell.
 

 Routine SETGRP: Setting up the symmetry group for a 
 simple orthorhombic supercell.


 Subroutine GETGRP returns: Found  1 space group operations
 (whereof  1 operations were pure point group operations)
 out of a pool of  8 trial point group operations.


The static configuration has the point symmetry C_1 .


Analysis of symmetry for dynamics (positions and initial velocities):
=====================================================================
 Subroutine PRICEL returns:
 Original cell was already a primitive cell.
 

 Routine SETGRP: Setting up the symmetry group for a 
 simple orthorhombic supercell.


 Subroutine GETGRP returns: Found  1 space group operations
 (whereof  1 operations were pure point group operations)
 out of a pool of  8 trial point group operations.


The dynamic configuration has the point symmetry C_1 .


Analysis of structural, dynamic, and magnetic symmetry:
=====================================================================
 Subroutine PRICEL returns:
 Original cell was already a primitive cell.
 

 Routine SETGRP: Setting up the symmetry group for a 
 simple orthorhombic supercell.


 Subroutine GETGRP returns: Found  1 space group operations
 (whereof  1 operations were pure point group operations)
 out of a pool of  8 trial point group operations.


The overall configuration has the point symmetry C_1 .


 Subroutine INISYM returns: Found  1 space group operations
 (whereof  1 operations are pure point group operations),
 and found     1 'primitive' translations


----------------------------------------------------------------------------------------

                                     Primitive cell                                     

  volume of cell :    3069.6360

  direct lattice vectors                    reciprocal lattice vectors
     9.491638425  0.000000000  0.000000000     0.105355889  0.000000000  0.000000000
     0.000000000 13.423203790  0.000000000     0.000000000  0.074497863  0.000000000
     0.000000000  0.000000000 24.092923856     0.000000000  0.000000000  0.041505963

  length of vectors
     9.491638425 13.423203790 24.092923856     0.105355889  0.074497863  0.041505963

  position of ions in fractional coordinates (direct lattice)
     0.000000000  0.000000000  0.000000000
     0.000000000  0.750000000  0.080416665
     0.000000000  0.500000000  0.160833329
     0.000000000  0.250000000  0.241249994
     0.437943262  0.991228070  0.493396442
     0.000000000  0.750000000  0.402083324
     0.354609929  0.074561404  0.908686882
     0.333333333  0.083333333  0.080416665
     0.333333333  0.833333333  0.160833329
     0.333333333  0.583333333  0.241249994
     0.333333333  0.333333333  0.321666659
     0.354609929  0.824561404  0.493396442
     0.021276596  0.407894737  0.908686882
     0.666666667  0.416666667  0.080416665
     0.666666667  0.166666667  0.160833329
     0.666666667  0.916666667  0.241249994
     0.666666667  0.666666667  0.321666659
     0.021276596  0.157894737  0.493396442
     0.687943262  0.741228070  0.908686882
     0.437943262  0.241228070  0.908686882
     0.000000000  0.000000000  0.160833329
     0.000000000  0.750000000  0.241249994
     0.000000000  0.500000000  0.321666659
     0.687943262  0.491228070  0.493396442
     0.354609929  0.574561404  0.908686882
     0.333333333  0.583333333  0.080416665
     0.333333333  0.333333333  0.160833329
     0.333333333  0.083333333  0.241249994
     0.333333333  0.833333333  0.321666659
     0.354609929  0.324561404  0.493396442
     0.666666667  0.166666667  0.000000000
     0.666666667  0.916666667  0.080416665
     0.666666667  0.666666667  0.160833329
     0.666666667  0.416666667  0.241249994
     0.666666667  0.166666667  0.321666659
     0.666666667  0.916666667  0.402083324
     0.083333333  0.333333333  0.000000000
     0.083333333  0.083333333  0.080416665
     0.083333333  0.833333333  0.160833329
     0.083333333  0.583333333  0.241249994
     0.083333333  0.333333333  0.321666659
     0.083333333  0.083333333  0.402083324
     0.416666667  0.666666667  0.000000000
     0.416666667  0.416666667  0.080416665
     0.416666667  0.166666667  0.160833329
     0.416666667  0.916666667  0.241249994
     0.416666667  0.666666667  0.321666659
     0.416666667  0.416666667  0.402083324
     0.750000000  0.000000000  0.000000000
     0.750000000  0.750000000  0.080416665
     0.750000000  0.500000000  0.160833329
     0.750000000  0.250000000  0.241249994
     0.750000000  0.000000000  0.321666659
     0.750000000  0.750000000  0.402083324
     0.083333333  0.833333333  0.000000000
     0.083333333  0.583333333  0.080416665
     0.083333333  0.333333333  0.160833329
     0.083333333  0.083333333  0.241249994
     0.083333333  0.833333333  0.321666659
     0.083333333  0.583333333  0.402083324
     0.416666667  0.166666667  0.000000000
     0.416666667  0.916666667  0.080416665
     0.416666667  0.666666667  0.160833329
     0.416666667  0.416666667  0.241249994
     0.416666667  0.166666667  0.321666659
     0.416666667  0.916666667  0.402083324
     0.104609929  0.574561404  0.908686882
     0.750000000  0.250000000  0.080416665
     0.750000000  0.000000000  0.160833329
     0.750000000  0.750000000  0.241249994
     0.750000000  0.500000000  0.321666659
     0.104609929  0.324561404  0.493396442
     0.666666667  0.416666667  0.402083324
     0.021276596  0.407894737  0.576454530
     0.021276596  0.657894737  0.659512618
     0.021276596  0.907894737  0.742570706
     0.021276596  0.157894737  0.825628794
     0.666666667  0.666666667  0.000000000
     0.333333333  0.083333333  0.402083324
     0.354609929  0.074561404  0.576454530
     0.354609929  0.324561404  0.659512618
     0.354609929  0.574561404  0.742570706
     0.354609929  0.824561404  0.825628794
     0.333333333  0.333333333  0.000000000
     0.000000000  0.250000000  0.402083324
     0.687943262  0.741228070  0.576454530
     0.687943262  0.991228070  0.659512618
     0.687943262  0.241228070  0.742570706
     0.687943262  0.491228070  0.825628794
     0.000000000  0.500000000  0.000000000
     0.021276596  0.657894737  0.493396442
     0.021276596  0.907894737  0.576454530
     0.021276596  0.157894737  0.659512618
     0.021276596  0.407894737  0.742570706
     0.021276596  0.657894737  0.825628794
     0.021276596  0.907894737  0.908686882
     0.333333333  0.583333333  0.402083324
     0.354609929  0.574561404  0.576454530
     0.354609929  0.824561404  0.659512618
     0.354609929  0.074561404  0.742570706
     0.354609929  0.324561404  0.825628794
     0.333333333  0.833333333  0.000000000
     0.687943262  0.991228070  0.493396442
     0.687943262  0.241228070  0.576454530
     0.687943262  0.491228070  0.659512618
     0.687943262  0.741228070  0.742570706
     0.687943262  0.991228070  0.825628794
     0.687943262  0.241228070  0.908686882
     0.104609929  0.824561404  0.493396442
     0.104609929  0.074561404  0.576454530
     0.104609929  0.324561404  0.659512618
     0.104609929  0.574561404  0.742570706
     0.104609929  0.824561404  0.825628794
     0.104609929  0.074561404  0.908686882
     0.437943262  0.491228070  0.493396442
     0.437943262  0.741228070  0.576454530
     0.437943262  0.991228070  0.659512618
     0.437943262  0.241228070  0.742570706
     0.437943262  0.491228070  0.825628794
     0.437943262  0.741228070  0.908686882
     0.771276596  0.157894737  0.493396442
     0.771276596  0.407894737  0.576454530
     0.771276596  0.657894737  0.659512618
     0.771276596  0.907894737  0.742570706
     0.771276596  0.157894737  0.825628794
     0.771276596  0.407894737  0.908686882
     0.750000000  0.250000000  0.402083324
     0.104609929  0.574561404  0.576454530
     0.104609929  0.824561404  0.659512618
     0.104609929  0.074561404  0.742570706
     0.104609929  0.324561404  0.825628794
     0.750000000  0.500000000  0.000000000
     0.000000000  0.000000000  0.321666659
     0.437943262  0.241228070  0.576454530
     0.437943262  0.491228070  0.659512618
     0.437943262  0.741228070  0.742570706
     0.437943262  0.991228070  0.825628794
     0.000000000  0.250000000  0.080416665
     0.771276596  0.657894737  0.493396442
     0.771276596  0.907894737  0.576454530
     0.771276596  0.157894737  0.659512618
     0.771276596  0.407894737  0.742570706
     0.771276596  0.657894737  0.825628794
     0.771276596  0.907894737  0.908686882

  ion indices of the primitive-cell ions
   primitive index   ion index
                 1           1
                 2           2
                 3           3
                 4           4
                 5           5
                 6           6
                 7           7
                 8           8
                 9           9
                10          10
                11          11
                12          12
                13          13
                14          14
                15          15
                16          16
                17          17
                18          18
                19          19
                20          20
                21          21
                22          22
                23          23
                24          24
                25          25
                26          26
                27          27
                28          28
                29          29
                30          30
                31          31
                32          32
                33          33
                34          34
                35          35
                36          36
                37          37
                38          38
                39          39
                40          40
                41          41
                42          42
                43          43
                44          44
                45          45
                46          46
                47          47
                48          48
                49          49
                50          50
                51          51
                52          52
                53          53
                54          54
                55          55
                56          56
                57          57
                58          58
                59          59
                60          60
                61          61
                62          62
                63          63
                64          64
                65          65
                66          66
                67          67
                68          68
                69          69
                70          70
                71          71
                72          72
                73          73
                74          74
                75          75
                76          76
                77          77
                78          78
                79          79
                80          80
                81          81
                82          82
                83          83
                84          84
                85          85
                86          86
                87          87
                88          88
                89          89
                90          90
                91          91
                92          92
                93          93
                94          94
                95          95
                96          96
                97          97
                98          98
                99          99
               100         100
               101         101
               102         102
               103         103
               104         104
               105         105
               106         106
               107         107
               108         108
               109         109
               110         110
               111         111
               112         112
               113         113
               114         114
               115         115
               116         116
               117         117
               118         118
               119         119
               120         120
               121         121
               122         122
               123         123
               124         124
               125         125
               126         126
               127         127
               128         128
               129         129
               130         130
               131         131
               132         132
               133         133
               134         134
               135         135
               136         136
               137         137
               138         138
               139         139
               140         140
               141         141
               142         142
               143         143
               144         144

----------------------------------------------------------------------------------------

 
 
 KPOINTS: Automatic KPOINTS generated             

Automatic generation of k-mesh.
 Grid dimensions read from file:
 generate k-points for:    3    2    1

 Generating k-lattice:

  Cartesian coordinates                     Fractional coordinates (reciprocal lattice)
     0.035118630  0.000000000  0.000000000     0.333333333  0.000000000  0.000000000
     0.000000000  0.037248932  0.000000000     0.000000000  0.500000000  0.000000000
     0.000000000  0.000000000  0.041505963     0.000000000  0.000000000  1.000000000

  Length of vectors
     0.035118630  0.037248932  0.041505963

  Shift w.r.t. Gamma in fractional coordinates (k-lattice)
     0.000000000  0.000000000  0.000000000

 
 Subroutine IBZKPT returns following result:
 ===========================================
 
 Found      4 irreducible k-points:
 
 Following reciprocal coordinates:
            Coordinates               Weight
  0.000000  0.000000  0.000000      1.000000
  0.333333  0.000000  0.000000      2.000000
  0.000000  0.500000  0.000000      1.000000
  0.333333  0.500000  0.000000      2.000000
 
 Following cartesian coordinates:
            Coordinates               Weight
  0.000000  0.000000  0.000000      1.000000
  0.035119  0.000000  0.000000      2.000000
  0.000000  0.037249  0.000000      1.000000
  0.035119  0.037249  0.000000      2.000000
 


--------------------------------------------------------------------------------------------------------




 Dimension of arrays:
   k-points           NKPTS =      4   k-points in BZ     NKDIM =      4   number of bands    NBANDS=    346
   number of dos      NEDOS =    301   number of ions     NIONS =    144
   non local maximal  LDIM  =      5   non local SUM 2l+1 LMDIM =     13
   total plane-waves  NPLWV = 921600
   max r-space proj   IRMAX =   2483   max aug-charges    IRDMAX= 130725
   dimension x,y,z NGX =    64 NGY =   90 NGZ =  160
   dimension x,y,z NGXF=   128 NGYF=  180 NGZF=  320
   support grid    NGXF=   256 NGYF=  360 NGZF=  640
   ions per type =              72  72
   NGX,Y,Z   is equivalent  to a cutoff of  11.21, 11.15, 11.04 a.u.
   NGXF,Y,Z  is equivalent  to a cutoff of  22.42, 22.29, 22.08 a.u.

 SYSTEM =  Si011 and Ge011 interface calculation   
 POSCAR =  fcc Si+fcc Ge                           

 Startparameter for this run:
   NWRITE =      2    write-flag & timer
   PREC   = normal    normal or accurate (medium, high low for compatibility)
   ISTART =      0    job   : 0-new  1-cont  2-samecut
   ICHARG =      2    charge: 1-file 2-atom 10-const
   ISPIN  =      2    spin polarized calculation?
   LNONCOLLINEAR =      F non collinear calculations
   LSORBIT =      F    spin-orbit coupling
   INIWAV =      1    electr: 0-lowe 1-rand  2-diag
   LASPH  =      T    aspherical Exc in radial PAW
 Electronic Relaxation 1
   ENCUT  =  700.0 eV  51.45 Ry    7.17 a.u.  20.48 28.96 51.98*2*pi/ulx,y,z
   ENINI  =  700.0     initial cutoff
   ENAUG  =  900.0 eV  augmentation charge cutoff
   NELM   =    100;   NELMIN=  2; NELMDL= -5     # of ELM steps 
   EDIFF  = 0.1E-06   stopping-criterion for ELM
   LREAL  =      T    real-space projection
   NLSPLINE    = F    spline interpolate recip. space projectors
   LCOMPAT=      F    compatible to vasp.4.4
   GGA_COMPAT  = T    GGA compatible to vasp.4.4-vasp.4.6
   LMAXPAW     = -100 max onsite density
   LMAXMIX     =    6 max onsite mixed and CHGCAR
   VOSKOWN=      0    Vosko Wilk Nusair interpolation
   ROPT   =   -0.00050  -0.00050
 Ionic relaxation
   EDIFFG = 0.1E-05   stopping-criterion for IOM
   NSW    =      0    number of steps for IOM
   NBLOCK =      1;   KBLOCK =      1    inner block; outer block 
   IBRION =     -1    ionic relax: 0-MD 1-quasi-New 2-CG
   NFREE  =      0    steps in history (QN), initial steepest desc. (CG)
   ISIF   =      2    stress and relaxation
   IWAVPR =     10    prediction:  0-non 1-charg 2-wave 3-comb
   ISYM   =      2    0-nonsym 1-usesym 2-fastsym
   LCORR  =      T    Harris-Foulkes like correction to forces

   POTIM  = 0.5000    time-step for ionic-motion
   TEIN   =    0.0    initial temperature
   TEBEG  =    0.0;   TEEND  =   0.0 temperature during run
   SMASS  =  -3.00    Nose mass-parameter (am)
   estimated Nose-frequenzy (Omega)   =  0.10E-29 period in steps = 0.13E+47 mass=  -0.206E-26a.u.
   SCALEE = 1.0000    scale energy and forces
   NPACO  =    256;   APACO  = 10.0  distance and # of slots for P.C.
   PSTRESS=    0.0 pullay stress

  Mass of Ions in am
   POMASS =  28.09 72.61
  Ionic Valenz
   ZVAL   =   4.00  4.00
  Atomic Wigner-Seitz radii
   RWIGS  =  -1.00 -1.00
  virtual crystal weights 
   VCA    =   1.00  1.00
   NELECT =     576.0000    total number of electrons
   NUPDOWN=       1.0000    fix difference up-down

 DOS related values:
   EMIN   =  10.00;   EMAX   =-10.00  energy-range for DOS
   EFERMI =   0.00;   METHOD = LEGACY      
   ISMEAR =     0;   SIGMA  =   0.01  broadening in eV -4-tet -1-fermi 0-gaus

 Electronic relaxation 2 (details)
   IALGO  =     38    algorithm
   LDIAG  =      T    sub-space diagonalisation (order eigenvalues)
   LSUBROT=      F    optimize rotation matrix (better conditioning)
   TURBO    =      0    0=normal 1=particle mesh
   IRESTART =      0    0=no restart 2=restart with 2 vectors
   NREBOOT  =      0    no. of reboots
   NMIN     =      0    reboot dimension
   EREF     =   0.00    reference energy to select bands
   IMIX   =      4    mixing-type and parameters
     AMIX     =   0.60;   BMIX     =  1.00
     AMIX_MAG =   2.40;   BMIX_MAG =  1.00
     AMIN     =   0.10
     WC   =   100.;   INIMIX=   1;  MIXPRE=   1;  MAXMIX= -45

 Intra band minimization:
   WEIMIN = 0.0000     energy-eigenvalue tresh-hold
   EBREAK =  0.72E-10  absolut break condition
   DEPER  =   0.30     relativ break condition  

   TIME   =   0.40     timestep for ELM

  volume/ion in A,a.u.               =      21.32       143.85
  Fermi-wavevector in a.u.,A,eV,Ry     =   0.937246  1.771137 11.951754  0.878429
  Thomas-Fermi vector in A             =   2.064337
 
 Write flags
   LWAVE        =      F    write WAVECAR
   LDOWNSAMPLE  =      F    k-point downsampling of WAVECAR
   LCHARG       =      T    write CHGCAR
   LVTOT        =      F    write LOCPOT, total local potential
   LVHAR        =      T    write LOCPOT, Hartree potential only
   WRT_POTENTIAL=  hartree ionic  ! write potential to hdf5 file
   LELF         =      F    write electronic localiz. function (ELF)
   LORBIT       =      0    0 simple, 1 ext, 2 COOP (PROOUT), +10 PAW based schemes


 Dipole corrections
   LMONO      =      F    monopole corrections only (constant potential shift)
   LDIPOL     =      F    correct potential (dipole corrections)
   IDIPOL     =      0    1-x, 2-y, 3-z, 4-all directions 
   EPSILON    =  1.0000000 bulk dielectric constant
   LVACPOTAV  =      F  vacuum potentials using an averaging scheme for the charge density
   VACPOTFLAT =  0.1000000 required flatness to determine vacuum potential
 Exchange correlation treatment:
   GGA     = PE    functional components
   XC_C    = 1    coefficients multiplying the functional components
   LIBXC   =     F    Libxc                    
   VOSKOWN =     0    Vosko Wilk Nusair interpolation
   LHFCALC =     F    Hartree Fock is set to
   LHFONE  =     F    Hartree Fock one center treatment
   AEXX    =    0.0000 exact exchange contribution

 Parameters of functionals:
   PE:
     No parameter
 
 Van der Waals corrections
   IVDW    =     0    specifies the selected vdW correction

 Linear response parameters
   LEPSILON=     F    determine dielectric tensor
   LRPA    =     F    only Hartree local field effects (RPA)
   LNABLA  =     F    use nabla operator in PAW spheres
   LVEL    =     F    velocity operator in full k-point grid
   CSHIFT  =0.1000    complex shift for real part using Kramers Kronig
   OMEGAMAX=  -1.0    maximum frequency
   DEG_THRESHOLD= 0.2000000E-02 threshold for treating states as degnerate
   RTIME   =   -0.100 relaxation time in fs
  (WPLASMAI=    0.000 imaginary part of plasma frequency in eV, 0.658/RTIME)
   DFIELD  = 0.0000000 0.0000000 0.0000000 field for delta impulse in time
 
  Optional k-point grid parameters
   LKPOINTS_OPT  =     F    use optional k-point grid
   KPOINTS_OPT_MODE=     1    mode for optional k-point grid
 
 Orbital magnetization related:
   ORBITALMAG=     F  switch on orbital magnetization
   LCHIMAG   =     F  perturbation theory with respect to B field
   DQ        =  0.001000  dq finite difference perturbation B field
   LLRAUG    =     F  two centre corrections for induced B field
   LBONE     =     F  B-component reconstruction in AE one-centre
   LVGVCALC  =     T  calculate vGv susceptibility
   LVGVAPPL  =     F  apply vGv susceptibility instead of pGv for G=0

 Random number generation:
   RANDOM_GENERATOR = DEFAULT
   PCG_SEED         = not used


--------------------------------------------------------------------------------------------------------


 Static calculation
 charge density and potential will be updated during run
 spin polarized calculation
 Variant of blocked Davidson
 Davidson routine will perform the subspace rotation
 perform sub-space diagonalisation
    after iterative eigenvector-optimisation
 modified Broyden-mixing scheme, WC =      100.0
 initial mixing is a Kerker type mixing with AMIX =  0.6000 and BMIX =      1.0000
 Hartree-type preconditioning will be used
 using additional bands           58
 real space projection scheme for non local part
 use partial core corrections
 calculate Harris-corrections to forces 
   (improved forces if not selfconsistent)
 use gradient corrections 
 use of overlap-Matrix (Vanderbilt PP)
 Gauss-broadening in eV      SIGMA  =   0.01


--------------------------------------------------------------------------------------------------------


  energy-cutoff  :      700.00
  volume of cell :     3069.64
      direct lattice vectors                 reciprocal lattice vectors
     9.491638425  0.000000000  0.000000000     0.105355889  0.000000000  0.000000000
     0.000000000 13.423203790  0.000000000     0.000000000  0.074497863  0.000000000
     0.000000000  0.000000000 24.092923856     0.000000000  0.000000000  0.041505963

  length of vectors
     9.491638425 13.423203790 24.092923856     0.105355889  0.074497863  0.041505963


 
 k-points in units of 2pi/SCALE and weight: Automatic KPOINTS generated             
   0.00000000  0.00000000  0.00000000       0.167
   0.03511863  0.00000000  0.00000000       0.333
   0.00000000  0.03724893  0.00000000       0.167
   0.03511863  0.03724893  0.00000000       0.333
 
 k-points in reciprocal lattice and weights: Automatic KPOINTS generated             
   0.00000000  0.00000000  0.00000000       0.167
   0.33333333  0.00000000  0.00000000       0.333
   0.00000000  0.50000000  0.00000000       0.167
   0.33333333  0.50000000  0.00000000       0.333
 
 position of ions in fractional coordinates (direct lattice) 
   0.00000000  0.00000000  0.00000000
   0.00000000  0.75000000  0.08041667
   0.00000000  0.50000000  0.16083333
   0.00000000  0.25000000  0.24124999
   0.43794326  0.99122807  0.49339644
   0.00000000  0.75000000  0.40208332
   0.35460993  0.07456140  0.90868688
   0.33333333  0.08333333  0.08041667
   0.33333333  0.83333333  0.16083333
   0.33333333  0.58333333  0.24124999
   0.33333333  0.33333333  0.32166666
   0.35460993  0.82456140  0.49339644
   0.02127660  0.40789474  0.90868688
   0.66666667  0.41666667  0.08041667
   0.66666667  0.16666667  0.16083333
   0.66666667  0.91666667  0.24124999
   0.66666667  0.66666667  0.32166666
   0.02127660  0.15789474  0.49339644
   0.68794326  0.74122807  0.90868688
   0.43794326  0.24122807  0.90868688
   0.00000000  0.00000000  0.16083333
   0.00000000  0.75000000  0.24124999
   0.00000000  0.50000000  0.32166666
   0.68794326  0.49122807  0.49339644
   0.35460993  0.57456140  0.90868688
   0.33333333  0.58333333  0.08041667
   0.33333333  0.33333333  0.16083333
   0.33333333  0.08333333  0.24124999
   0.33333333  0.83333333  0.32166666
   0.35460993  0.32456140  0.49339644
   0.66666667  0.16666667  0.00000000
   0.66666667  0.91666667  0.08041667
   0.66666667  0.66666667  0.16083333
   0.66666667  0.41666667  0.24124999
   0.66666667  0.16666667  0.32166666
   0.66666667  0.91666667  0.40208332
   0.08333333  0.33333333  0.00000000
   0.08333333  0.08333333  0.08041667
   0.08333333  0.83333333  0.16083333
   0.08333333  0.58333333  0.24124999
   0.08333333  0.33333333  0.32166666
   0.08333333  0.08333333  0.40208332
   0.41666667  0.66666667  0.00000000
   0.41666667  0.41666667  0.08041667
   0.41666667  0.16666667  0.16083333
   0.41666667  0.91666667  0.24124999
   0.41666667  0.66666667  0.32166666
   0.41666667  0.41666667  0.40208332
   0.75000000  0.00000000  0.00000000
   0.75000000  0.75000000  0.08041667
   0.75000000  0.50000000  0.16083333
   0.75000000  0.25000000  0.24124999
   0.75000000  0.00000000  0.32166666
   0.75000000  0.75000000  0.40208332
   0.08333333  0.83333333  0.00000000
   0.08333333  0.58333333  0.08041667
   0.08333333  0.33333333  0.16083333
   0.08333333  0.08333333  0.24124999
   0.08333333  0.83333333  0.32166666
   0.08333333  0.58333333  0.40208332
   0.41666667  0.16666667  0.00000000
   0.41666667  0.91666667  0.08041667
   0.41666667  0.66666667  0.16083333
   0.41666667  0.41666667  0.24124999
   0.41666667  0.16666667  0.32166666
   0.41666667  0.91666667  0.40208332
   0.10460993  0.57456140  0.90868688
   0.75000000  0.25000000  0.08041667
   0.75000000  0.00000000  0.16083333
   0.75000000  0.75000000  0.24124999
   0.75000000  0.50000000  0.32166666
   0.10460993  0.32456140  0.49339644
   0.66666667  0.41666667  0.40208332
   0.02127660  0.40789474  0.57645453
   0.02127660  0.65789474  0.65951262
   0.02127660  0.90789474  0.74257071
   0.02127660  0.15789474  0.82562879
   0.66666667  0.66666667  0.00000000
   0.33333333  0.08333333  0.40208332
   0.35460993  0.07456140  0.57645453
   0.35460993  0.32456140  0.65951262
   0.35460993  0.57456140  0.74257071
   0.35460993  0.82456140  0.82562879
   0.33333333  0.33333333  0.00000000
   0.00000000  0.25000000  0.40208332
   0.68794326  0.74122807  0.57645453
   0.68794326  0.99122807  0.65951262
   0.68794326  0.24122807  0.74257071
   0.68794326  0.49122807  0.82562879
   0.00000000  0.50000000  0.00000000
   0.02127660  0.65789474  0.49339644
   0.02127660  0.90789474  0.57645453
   0.02127660  0.15789474  0.65951262
   0.02127660  0.40789474  0.74257071
   0.02127660  0.65789474  0.82562879
   0.02127660  0.90789474  0.90868688
   0.33333333  0.58333333  0.40208332
   0.35460993  0.57456140  0.57645453
   0.35460993  0.82456140  0.65951262
   0.35460993  0.07456140  0.74257071
   0.35460993  0.32456140  0.82562879
   0.33333333  0.83333333  0.00000000
   0.68794326  0.99122807  0.49339644
   0.68794326  0.24122807  0.57645453
   0.68794326  0.49122807  0.65951262
   0.68794326  0.74122807  0.74257071
   0.68794326  0.99122807  0.82562879
   0.68794326  0.24122807  0.90868688
   0.10460993  0.82456140  0.49339644
   0.10460993  0.07456140  0.57645453
   0.10460993  0.32456140  0.65951262
   0.10460993  0.57456140  0.74257071
   0.10460993  0.82456140  0.82562879
   0.10460993  0.07456140  0.90868688
   0.43794326  0.49122807  0.49339644
   0.43794326  0.74122807  0.57645453
   0.43794326  0.99122807  0.65951262
   0.43794326  0.24122807  0.74257071
   0.43794326  0.49122807  0.82562879
   0.43794326  0.74122807  0.90868688
   0.77127660  0.15789474  0.49339644
   0.77127660  0.40789474  0.57645453
   0.77127660  0.65789474  0.65951262
   0.77127660  0.90789474  0.74257071
   0.77127660  0.15789474  0.82562879
   0.77127660  0.40789474  0.90868688
   0.75000000  0.25000000  0.40208332
   0.10460993  0.57456140  0.57645453
   0.10460993  0.82456140  0.65951262
   0.10460993  0.07456140  0.74257071
   0.10460993  0.32456140  0.82562879
   0.75000000  0.50000000  0.00000000
   0.00000000  0.00000000  0.32166666
   0.43794326  0.24122807  0.57645453
   0.43794326  0.49122807  0.65951262
   0.43794326  0.74122807  0.74257071
   0.43794326  0.99122807  0.82562879
   0.00000000  0.25000000  0.08041667
   0.77127660  0.65789474  0.49339644
   0.77127660  0.90789474  0.57645453
   0.77127660  0.15789474  0.65951262
   0.77127660  0.40789474  0.74257071
   0.77127660  0.65789474  0.82562879
   0.77127660  0.90789474  0.90868688
 
 position of ions in cartesian coordinates  (Angst):
   0.00000000  0.00000000  0.00000000
   0.00000000 10.06740284  1.93747259
   0.00000000  6.71160190  3.87494515
   0.00000000  3.35580095  5.81241774
   4.15679909 13.30545639 11.88736291
   0.00000000 10.06740284  9.68736291
   3.36582923  1.00085292 21.89292386
   3.16387947  1.11860031  1.93747259
   3.16387947 11.18600315  3.87494515
   3.16387947  7.83020221  5.81241774
   3.16387947  4.47440126  7.74989032
   3.36582923 11.06825576 11.88736291
   0.20194976  5.47525418 21.89292386
   6.32775895  5.59300158  1.93747259
   6.32775895  2.23720064  3.87494515
   6.32775895 12.30460348  5.81241774
   6.32775895  8.94880253  7.74989032
   0.20194976  2.11945323 11.88736291
   6.52970870  9.94965544 21.89292386
   4.15679909  3.23805354 21.89292386
   0.00000000  0.00000000  3.87494515
   0.00000000 10.06740284  5.81241774
   0.00000000  6.71160190  7.74989032
   6.52970870  6.59385449 11.88736291
   3.36582923  7.71245482 21.89292386
   3.16387947  7.83020221  1.93747259
   3.16387947  4.47440126  3.87494515
   3.16387947  1.11860031  5.81241774
   3.16387947 11.18600315  7.74989032
   3.36582923  4.35665387 11.88736291
   6.32775895  2.23720064  0.00000000
   6.32775895 12.30460348  1.93747259
   6.32775895  8.94880253  3.87494515
   6.32775895  5.59300158  5.81241774
   6.32775895  2.23720064  7.74989032
   6.32775895 12.30460348  9.68736291
   0.79096987  4.47440126  0.00000000
   0.79096987  1.11860031  1.93747259
   0.79096987 11.18600315  3.87494515
   0.79096987  7.83020221  5.81241774
   0.79096987  4.47440126  7.74989032
   0.79096987  1.11860031  9.68736291
   3.95484935  8.94880253  0.00000000
   3.95484935  5.59300158  1.93747259
   3.95484935  2.23720064  3.87494515
   3.95484935 12.30460348  5.81241774
   3.95484935  8.94880253  7.74989032
   3.95484935  5.59300158  9.68736291
   7.11872882  0.00000000  0.00000000
   7.11872882 10.06740284  1.93747259
   7.11872882  6.71160190  3.87494515
   7.11872882  3.35580095  5.81241774
   7.11872882  0.00000000  7.74989032
   7.11872882 10.06740284  9.68736291
   0.79096987 11.18600315  0.00000000
   0.79096987  7.83020221  1.93747259
   0.79096987  4.47440126  3.87494515
   0.79096987  1.11860031  5.81241774
   0.79096987 11.18600315  7.74989032
   0.79096987  7.83020221  9.68736291
   3.95484935  2.23720064  0.00000000
   3.95484935 12.30460348  1.93747259
   3.95484935  8.94880253  3.87494515
   3.95484935  5.59300158  5.81241774
   3.95484935  2.23720064  7.74989032
   3.95484935 12.30460348  9.68736291
   0.99291962  7.71245482 21.89292386
   7.11872882  3.35580095  1.93747259
   7.11872882  0.00000000  3.87494515
   7.11872882 10.06740284  5.81241774
   7.11872882  6.71160190  7.74989032
   0.99291962  4.35665387 11.88736291
   6.32775895  5.59300158  9.68736291
   0.20194976  5.47525418 13.88847510
   0.20194976  8.83105513 15.88958729
   0.20194976 12.18685607 17.89069948
   0.20194976  2.11945323 19.89181167
   6.32775895  8.94880253  0.00000000
   3.16387947  1.11860031  9.68736291
   3.36582923  1.00085292 13.88847510
   3.36582923  4.35665387 15.88958729
   3.36582923  7.71245482 17.89069948
   3.36582923 11.06825576 19.89181167
   3.16387947  4.47440126  0.00000000
   0.00000000  3.35580095  9.68736291
   6.52970870  9.94965544 13.88847510
   6.52970870 13.30545639 15.88958729
   6.52970870  3.23805354 17.89069948
   6.52970870  6.59385449 19.89181167
   0.00000000  6.71160190  0.00000000
   0.20194976  8.83105513 11.88736291
   0.20194976 12.18685607 13.88847510
   0.20194976  2.11945323 15.88958729
   0.20194976  5.47525418 17.89069948
   0.20194976  8.83105513 19.89181167
   0.20194976 12.18685607 21.89292386
   3.16387947  7.83020221  9.68736291
   3.36582923  7.71245482 13.88847510
   3.36582923 11.06825576 15.88958729
   3.36582923  1.00085292 17.89069948
   3.36582923  4.35665387 19.89181167
   3.16387947 11.18600315  0.00000000
   6.52970870 13.30545639 11.88736291
   6.52970870  3.23805354 13.88847510
   6.52970870  6.59385449 15.88958729
   6.52970870  9.94965544 17.89069948
   6.52970870 13.30545639 19.89181167
   6.52970870  3.23805354 21.89292386
   0.99291962 11.06825576 11.88736291
   0.99291962  1.00085292 13.88847510
   0.99291962  4.35665387 15.88958729
   0.99291962  7.71245482 17.89069948
   0.99291962 11.06825576 19.89181167
   0.99291962  1.00085292 21.89292386
   4.15679909  6.59385449 11.88736291
   4.15679909  9.94965544 13.88847510
   4.15679909 13.30545639 15.88958729
   4.15679909  3.23805354 17.89069948
   4.15679909  6.59385449 19.89181167
   4.15679909  9.94965544 21.89292386
   7.32067857  2.11945323 11.88736291
   7.32067857  5.47525418 13.88847510
   7.32067857  8.83105513 15.88958729
   7.32067857 12.18685607 17.89069948
   7.32067857  2.11945323 19.89181167
   7.32067857  5.47525418 21.89292386
   7.11872882  3.35580095  9.68736291
   0.99291962  7.71245482 13.88847510
   0.99291962 11.06825576 15.88958729
   0.99291962  1.00085292 17.89069948
   0.99291962  4.35665387 19.89181167
   7.11872882  6.71160190  0.00000000
   0.00000000  0.00000000  7.74989032
   4.15679909  3.23805354 13.88847510
   4.15679909  6.59385449 15.88958729
   4.15679909  9.94965544 17.89069948
   4.15679909 13.30545639 19.89181167
   0.00000000  3.35580095  1.93747259
   7.32067857  8.83105513 11.88736291
   7.32067857 12.18685607 13.88847510
   7.32067857  2.11945323 15.88958729
   7.32067857  5.47525418 17.89069948
   7.32067857  8.83105513 19.89181167
   7.32067857 12.18685607 21.89292386
 


--------------------------------------------------------------------------------------------------------


 k-point     1 :   0.0000 0.0000 0.0000  plane waves:  129107
 k-point     2 :   0.3333 0.0000 0.0000  plane waves:  129083
 k-point     3 :   0.0000 0.5000 0.0000  plane waves:  129106
 k-point     4 :   0.3333 0.5000 0.0000  plane waves:  129070

 maximum and minimum number of plane-waves per node :      8102     8035

 maximum number of plane-waves:    129107
 maximum index in each direction: 
   IXMAX=   20   IYMAX=   28   IZMAX=   51
   IXMIN=  -20   IYMIN=  -29   IZMIN=  -51


 real space projection operators:
  total allocation   :      24084.91 KBytes
  max/ min on nodes  :       1579.69       1406.13


 parallel 3D FFT for wavefunctions:
    minimum data exchange during FFTs selected (reduces bandwidth)
 parallel 3D FFT for charge:
    minimum data exchange during FFTs selected (reduces bandwidth)


 total amount of memory used by VASP MPI-rank0   511343. kBytes
=======================================================================

   base      :      30000. kBytes
   nonlr-proj:       7938. kBytes
   fftplans  :      69092. kBytes
   grid      :      42335. kBytes
   one-center:        146. kBytes
   wavefun   :     361832. kBytes
 
     INWAV:  cpu time      0.0001: real time      0.0004
 Broyden mixing: mesh for mixing (old mesh)
   NGX = 41   NGY = 57   NGZ =103
  (NGX  =128   NGY  =180   NGZ  =320)
  gives a total of 240711 points

 initial charge density was supplied:
 charge density of overlapping atoms calculated
 number of electron     576.0000000 magnetization       1.0000000
 keeping initial charge density in first step


--------------------------------------------------------------------------------------------------------


 Maximum index for non-local projection operator          217
 Maximum index for augmentation-charges         8101 (set IRDMAX)


--------------------------------------------------------------------------------------------------------


 First call to EWALD:  gamma=   0.122
 Maximum number of real-space cells 4x 3x 2
 Maximum number of reciprocal cells 2x 3x 4

    FEWALD:  cpu time      0.0063: real time      0.0063


--------------------------------------- Ionic step        1  -------------------------------------------




--------------------------------------- Iteration      1(   1)  ---------------------------------------


    POTLOK:  cpu time      0.8462: real time      0.8540
    SETDIJ:  cpu time      4.3414: real time      4.3647
     EDDAV:  cpu time     61.3528: real time     62.3462
       DOS:  cpu time      0.0016: real time      0.0016
    --------------------------------------------
      LOOP:  cpu time     66.5420: real time     67.5665

 eigenvalue-minimisations  :  5536
 total energy-change (2. order) : 0.2455601E+04  (-0.2581235E+05)
 number of electron     576.0000000 magnetization       1.0000000
 augmentation part      576.0000000 magnetization       1.0000000

 Free energy of the ion-electron system (eV)
  ---------------------------------------------------
  alpha Z        PSCENC =       759.26891756
  Ewald energy   TEWEN  =    -15876.23916325
  -Hartree energ DENC   =     -1044.44674892
  -exchange      EXHF   =         0.00000000
  -V(xc)+E(xc)   XCENC  =     -1208.76463011
  PAW double counting   =     12691.36703575   -10381.54560829
  entropy T*S    EENTRO =        -0.00224970
  eigenvalues    EBANDS =      2535.46056870
  atomic energy  EATOM  =     14980.50241411
  Solvation  Ediel_sol  =         0.00000000
  ---------------------------------------------------
  free energy    TOTEN  =      2455.60053584 eV

  energy without entropy =     2455.60278554  energy(sigma->0) =     2455.60166069


--------------------------------------------------------------------------------------------------------




--------------------------------------- Iteration      1(   2)  ---------------------------------------


     EDDAV:  cpu time     69.0955: real time     69.7363
       DOS:  cpu time      0.0014: real time      0.0015
    --------------------------------------------
      LOOP:  cpu time     69.0969: real time     69.7378

 eigenvalue-minimisations  :  6472
 total energy-change (2. order) :-0.2873574E+04  (-0.2768770E+04)
 number of electron     576.0000000 magnetization       1.0000000
 augmentation part      576.0000000 magnetization       1.0000000

 Free energy of the ion-electron system (eV)
  ---------------------------------------------------
  alpha Z        PSCENC =       759.26891756
  Ewald energy   TEWEN  =    -15876.23916325
  -Hartree energ DENC   =     -1044.44674892
  -exchange      EXHF   =         0.00000000
  -V(xc)+E(xc)   XCENC  =     -1208.76463011
  PAW double counting   =     12691.36703575   -10381.54560829
  entropy T*S    EENTRO =        -0.00191131
  eigenvalues    EBANDS =      -338.11411086
  atomic energy  EATOM  =     14980.50241411
  Solvation  Ediel_sol  =         0.00000000
  ---------------------------------------------------
  free energy    TOTEN  =      -417.97380533 eV

  energy without entropy =     -417.97189402  energy(sigma->0) =     -417.97284968


--------------------------------------------------------------------------------------------------------




--------------------------------------- Iteration      1(   3)  ---------------------------------------


     EDDAV:  cpu time     71.9993: real time     72.6919
       DOS:  cpu time      0.0038: real time      0.0038
    --------------------------------------------
      LOOP:  cpu time     72.0030: real time     72.6958

 eigenvalue-minimisations  :  6776
 total energy-change (2. order) :-0.2720895E+03  (-0.2654446E+03)
 number of electron     576.0000000 magnetization       1.0000000
 augmentation part      576.0000000 magnetization       1.0000000

 Free energy of the ion-electron system (eV)
  ---------------------------------------------------
  alpha Z        PSCENC =       759.26891756
  Ewald energy   TEWEN  =    -15876.23916325
  -Hartree energ DENC   =     -1044.44674892
  -exchange      EXHF   =         0.00000000
  -V(xc)+E(xc)   XCENC  =     -1208.76463011
  PAW double counting   =     12691.36703575   -10381.54560829
  entropy T*S    EENTRO =        -0.00200780
  eigenvalues    EBANDS =      -610.20348144
  atomic energy  EATOM  =     14980.50241411
  Solvation  Ediel_sol  =         0.00000000
  ---------------------------------------------------
  free energy    TOTEN  =      -690.06327240 eV

  energy without entropy =     -690.06126460  energy(sigma->0) =     -690.06226850


--------------------------------------------------------------------------------------------------------




--------------------------------------- Iteration      1(   4)  ---------------------------------------


     EDDAV:  cpu time     69.6503: real time     70.3132
       DOS:  cpu time      0.0013: real time      0.0013
    --------------------------------------------
      LOOP:  cpu time     69.6516: real time     70.3144

 eigenvalue-minimisations  :  6512
 total energy-change (2. order) :-0.9205707E+01  (-0.9095909E+01)
 number of electron     576.0000000 magnetization       1.0000000
 augmentation part      576.0000000 magnetization       1.0000000

 Free energy of the ion-electron system (eV)
  ---------------------------------------------------
  alpha Z        PSCENC =       759.26891756
  Ewald energy   TEWEN  =    -15876.23916325
  -Hartree energ DENC   =     -1044.44674892
  -exchange      EXHF   =         0.00000000
  -V(xc)+E(xc)   XCENC  =     -1208.76463011
  PAW double counting   =     12691.36703575   -10381.54560829
  entropy T*S    EENTRO =        -0.00090643
  eigenvalues    EBANDS =      -619.41028964
  atomic energy  EATOM  =     14980.50241411
  Solvation  Ediel_sol  =         0.00000000
  ---------------------------------------------------
  free energy    TOTEN  =      -699.26897923 eV

  energy without entropy =     -699.26807280  energy(sigma->0) =     -699.26852602


--------------------------------------------------------------------------------------------------------




--------------------------------------- Iteration      1(   5)  ---------------------------------------


     EDDAV:  cpu time     77.1715: real time     77.8882
       DOS:  cpu time      0.0012: real time      0.0012
    CHARGE:  cpu time      3.2986: real time      3.3264
    MIXING:  cpu time      0.0227: real time      0.0229
    --------------------------------------------
      LOOP:  cpu time     80.4941: real time     81.2387

 eigenvalue-minimisations  :  7392
 total energy-change (2. order) :-0.3489950E+00  (-0.3479026E+00)
 number of electron     575.9999996 magnetization       1.0000000
 augmentation part      -64.0845936 magnetization      -0.0912553

 Broyden mixing:
  rms(total) = 0.33750E+01    rms(broyden)= 0.33750E+01
  rms(prec ) = 0.34740E+01
  weight for this iteration     100.00

 Free energy of the ion-electron system (eV)
  ---------------------------------------------------
  alpha Z        PSCENC =       759.26891756
  Ewald energy   TEWEN  =    -15876.23916325
  -Hartree energ DENC   =     -1044.44674892
  -exchange      EXHF   =         0.00000000
  -V(xc)+E(xc)   XCENC  =     -1208.76463011
  PAW double counting   =     12691.36703575   -10381.54560829
  entropy T*S    EENTRO =        -0.00084929
  eigenvalues    EBANDS =      -619.75934182
  atomic energy  EATOM  =     14980.50241411
  Solvation  Ediel_sol  =         0.00000000
  ---------------------------------------------------
  free energy    TOTEN  =      -699.61797427 eV

  energy without entropy =     -699.61712498  energy(sigma->0) =     -699.61754962


--------------------------------------------------------------------------------------------------------




--------------------------------------- Iteration      1(   6)  ---------------------------------------


    POTLOK:  cpu time      0.8446: real time      0.8518
    SETDIJ:  cpu time      4.3560: real time      4.3790
     EDDAV:  cpu time     69.5435: real time     70.1485
       DOS:  cpu time      0.0038: real time      0.0038
    CHARGE:  cpu time      3.2211: real time      3.2461
    MIXING:  cpu time      0.0214: real time      0.1301
    --------------------------------------------
      LOOP:  cpu time     77.9904: real time     78.7593

 eigenvalue-minimisations  :  6504
 total energy-change (2. order) : 0.9656134E+01  (-0.1297275E+01)
 number of electron     575.9999996 magnetization       1.0000000
 augmentation part      -63.4125652 magnetization      -0.0853030

 Broyden mixing:
  rms(total) = 0.15570E+01    rms(broyden)= 0.15570E+01
  rms(prec ) = 0.15910E+01
  weight for this iteration     100.00

 eigenvalues of (default mixing * dielectric matrix)
  average eigenvalue GAMMA=   1.7725
  1.7725

 Free energy of the ion-electron system (eV)
  ---------------------------------------------------
  alpha Z        PSCENC =       759.26891756
  Ewald energy   TEWEN  =    -15876.23916325
  -Hartree energ DENC   =     -1192.55263029
  -exchange      EXHF   =         0.00000000
  -V(xc)+E(xc)   XCENC  =     -1185.25783673
  PAW double counting   =     26361.04034634   -24062.89684887
  entropy T*S    EENTRO =        -0.00114177
  eigenvalues    EBANDS =      -473.82589731
  atomic energy  EATOM  =     14980.50241411
  Solvation  Ediel_sol  =         0.00000000
  ---------------------------------------------------
  free energy    TOTEN  =      -689.96184022 eV

  energy without entropy =     -689.96069845  energy(sigma->0) =     -689.96126933


--------------------------------------------------------------------------------------------------------




--------------------------------------- Iteration      1(   7)  ---------------------------------------


    POTLOK:  cpu time      0.8444: real time      0.8521
    SETDIJ:  cpu time      4.3622: real time      4.3850
     EDDAV:  cpu time     69.1556: real time     69.7669
       DOS:  cpu time      0.0038: real time      0.0038
    CHARGE:  cpu time      3.2348: real time      3.2605
    MIXING:  cpu time      0.0216: real time      0.0798
    --------------------------------------------
      LOOP:  cpu time     77.6225: real time     78.3482

 eigenvalue-minimisations  :  6480
 total energy-change (2. order) : 0.7019747E+00  (-0.7868318E+00)
 number of electron     575.9999996 magnetization       1.0000000
 augmentation part      -63.2183451 magnetization      -0.0709401

 Broyden mixing:
  rms(total) = 0.38615E+00    rms(broyden)= 0.38615E+00
  rms(prec ) = 0.41259E+00
  weight for this iteration     100.00

 eigenvalues of (default mixing * dielectric matrix)
  average eigenvalue GAMMA=   1.2701
  1.8650  0.6752

 Free energy of the ion-electron system (eV)
  ---------------------------------------------------
  alpha Z        PSCENC =       759.26891756
  Ewald energy   TEWEN  =    -15876.23916325
  -Hartree energ DENC   =     -1294.63426905
  -exchange      EXHF   =         0.00000000
  -V(xc)+E(xc)   XCENC  =     -1166.12245712
  PAW double counting   =     42787.71483517   -40498.41466312
  entropy T*S    EENTRO =        -0.00144640
  eigenvalues    EBANDS =      -381.33403345
  atomic energy  EATOM  =     14980.50241411
  Solvation  Ediel_sol  =         0.00000000
  ---------------------------------------------------
  free energy    TOTEN  =      -689.25986557 eV

  energy without entropy =     -689.25841917  energy(sigma->0) =     -689.25914237


--------------------------------------------------------------------------------------------------------




--------------------------------------- Iteration      1(   8)  ---------------------------------------


    POTLOK:  cpu time      0.8433: real time      0.8520
    SETDIJ:  cpu time      4.3619: real time      4.3848
     EDDAV:  cpu time     69.9712: real time     70.6064
       DOS:  cpu time      0.0041: real time      0.0041
    CHARGE:  cpu time      3.2562: real time      3.2826
    MIXING:  cpu time      0.0221: real time      0.0223
    --------------------------------------------
      LOOP:  cpu time     78.4588: real time     79.1521

 eigenvalue-minimisations  :  6536
 total energy-change (2. order) : 0.3132294E-02  (-0.1193001E+00)
 number of electron     575.9999996 magnetization       1.0000000
 augmentation part      -63.0436018 magnetization      -0.0778795

 Broyden mixing:
  rms(total) = 0.14512E+00    rms(broyden)= 0.14512E+00
  rms(prec ) = 0.15049E+00
  weight for this iteration     100.00

 eigenvalues of (default mixing * dielectric matrix)
  average eigenvalue GAMMA=   1.2422
  1.8694  1.1553  0.7020

 Free energy of the ion-electron system (eV)
  ---------------------------------------------------
  alpha Z        PSCENC =       759.26891756
  Ewald energy   TEWEN  =    -15876.23916325
  -Hartree energ DENC   =     -1297.11007922
  -exchange      EXHF   =         0.00000000
  -V(xc)+E(xc)   XCENC  =     -1165.57329634
  PAW double counting   =     45237.95941029   -42949.04897478
  entropy T*S    EENTRO =        -0.00116487
  eigenvalues    EBANDS =      -379.01479677
  atomic energy  EATOM  =     14980.50241411
  Solvation  Ediel_sol  =         0.00000000
  ---------------------------------------------------
  free energy    TOTEN  =      -689.25673328 eV

  energy without entropy =     -689.25556841  energy(sigma->0) =     -689.25615084


--------------------------------------------------------------------------------------------------------




--------------------------------------- Iteration      1(   9)  ---------------------------------------


    POTLOK:  cpu time      0.8437: real time      0.8518
    SETDIJ:  cpu time      4.3621: real time      4.3853
     EDDAV:  cpu time     68.3323: real time     68.9732
       DOS:  cpu time      0.0028: real time      0.0029
    CHARGE:  cpu time      3.2481: real time      3.2747
    MIXING:  cpu time      0.0230: real time      0.0232
    --------------------------------------------
      LOOP:  cpu time     76.8122: real time     77.5111

 eigenvalue-minimisations  :  6336
 total energy-change (2. order) : 0.1146292E-01  (-0.2229704E-01)
 number of electron     575.9999996 magnetization       1.0000000
 augmentation part      -63.0790651 magnetization      -0.0827835

 Broyden mixing:
  rms(total) = 0.83253E-01    rms(broyden)= 0.83253E-01
  rms(prec ) = 0.86710E-01
  weight for this iteration     100.00

 eigenvalues of (default mixing * dielectric matrix)
  average eigenvalue GAMMA=   1.1815
  1.8193  1.5201  0.8431  0.5435

 Free energy of the ion-electron system (eV)
  ---------------------------------------------------
  alpha Z        PSCENC =       759.26891756
  Ewald energy   TEWEN  =    -15876.23916325
  -Hartree energ DENC   =     -1289.48089667
  -exchange      EXHF   =         0.00000000
  -V(xc)+E(xc)   XCENC  =     -1166.31757402
  PAW double counting   =     45936.58454959   -43647.42721273
  entropy T*S    EENTRO =        -0.00137391
  eigenvalues    EBANDS =      -386.13493103
  atomic energy  EATOM  =     14980.50241411
  Solvation  Ediel_sol  =         0.00000000
  ---------------------------------------------------
  free energy    TOTEN  =      -689.24527036 eV

  energy without entropy =     -689.24389644  energy(sigma->0) =     -689.24458340


--------------------------------------------------------------------------------------------------------




--------------------------------------- Iteration      1(  10)  ---------------------------------------


    POTLOK:  cpu time      0.8440: real time      0.8517
    SETDIJ:  cpu time      4.3643: real time      4.3892
     EDDAV:  cpu time     68.2722: real time     68.9092
       DOS:  cpu time      0.0014: real time      0.0014
    CHARGE:  cpu time      3.2654: real time      3.2913
    MIXING:  cpu time      0.0241: real time      0.0243
    --------------------------------------------
      LOOP:  cpu time     76.7714: real time     77.4671

 eigenvalue-minimisations  :  6360
 total energy-change (2. order) :-0.3456779E-02  (-0.7390184E-02)
 number of electron     575.9999996 magnetization       1.0000000
 augmentation part      -63.0830211 magnetization      -0.0808776

 Broyden mixing:
  rms(total) = 0.43619E-01    rms(broyden)= 0.43619E-01
  rms(prec ) = 0.45299E-01
  weight for this iteration     100.00

 eigenvalues of (default mixing * dielectric matrix)
  average eigenvalue GAMMA=   1.1378
  1.7561  1.7561  1.0577  0.6198  0.4995

 Free energy of the ion-electron system (eV)
  ---------------------------------------------------
  alpha Z        PSCENC =       759.26891756
  Ewald energy   TEWEN  =    -15876.23916325
  -Hartree energ DENC   =     -1286.97205624
  -exchange      EXHF   =         0.00000000
  -V(xc)+E(xc)   XCENC  =     -1166.57246494
  PAW double counting   =     46187.69625642   -43898.45259634
  entropy T*S    EENTRO =        -0.00123435
  eigenvalues    EBANDS =      -388.47880009
  atomic energy  EATOM  =     14980.50241411
  Solvation  Ediel_sol  =         0.00000000
  ---------------------------------------------------
  free energy    TOTEN  =      -689.24872714 eV

  energy without entropy =     -689.24749278  energy(sigma->0) =     -689.24810996


--------------------------------------------------------------------------------------------------------




--------------------------------------- Iteration      1(  11)  ---------------------------------------


    POTLOK:  cpu time      0.8459: real time      0.8538
[...]
   -.177E+02 0.126E+01 -.659E+01   0.168E+02 -.118E+01 0.609E+01   0.705E+00 -.440E+00 0.341E-01   -.873E-04 -.305E-05 -.230E-03
   -.414E-01 0.212E+01 0.214E+01   -.965E-01 -.208E+01 -.225E+01   0.325E+00 -.358E+00 0.413E-01   -.423E-04 -.114E-04 -.246E-03
   -.173E+01 0.215E+01 0.422E+00   0.155E+01 -.199E+01 -.355E+00   0.350E+00 -.450E+00 -.951E-01   0.503E-05 -.112E-05 -.212E-03
   -.173E+01 0.215E+01 -.422E+00   0.155E+01 -.199E+01 0.355E+00   0.347E+00 -.456E+00 0.796E-01   0.216E-04 0.427E-04 -.148E-03
   -.466E-01 0.219E+01 -.220E+01   -.965E-01 -.208E+01 0.225E+01   0.349E+00 -.424E+00 0.413E-02   0.241E-04 0.533E-04 0.498E-05
   -.177E+02 0.126E+01 0.659E+01   0.168E+02 -.118E+01 -.609E+01   0.696E+00 -.427E+00 -.217E-01   -.758E-05 -.348E-04 0.142E-03
   0.389E+01 -.231E+02 0.751E+00   -.295E+01 0.233E+02 -.105E+01   -.744E+00 0.258E+00 -.100E+01   0.741E-05 0.189E-04 -.240E-03
   0.888E+00 0.308E+00 0.646E+00   -.124E+01 0.237E+00 -.163E+01   -.945E-01 -.743E-01 0.540E+00   0.308E-04 -.279E-05 -.244E-03
   0.145E+01 -.223E+01 0.412E+00   -.142E+01 0.216E+01 -.424E+00   -.225E+00 0.270E+00 -.735E-01   0.547E-05 -.295E-04 -.184E-03
   0.146E+01 -.223E+01 -.412E+00   -.142E+01 0.216E+01 0.424E+00   -.264E+00 0.296E+00 0.830E-01   -.513E-04 0.131E-04 -.173E-03
   0.108E+01 0.115E-01 -.115E+01   -.124E+01 0.237E+00 0.163E+01   -.112E+00 -.548E-01 -.528E+00   -.582E-04 0.774E-04 -.802E-04
   0.390E+01 -.231E+02 -.748E+00   -.295E+01 0.233E+02 0.105E+01   -.743E+00 0.272E+00 0.989E+00   -.630E-04 0.532E-04 0.117E-03
   0.651E+01 -.198E+02 -.170E+02   -.595E+01 0.196E+02 0.186E+02   -.808E+00 0.196E+01 0.271E+00   0.107E-04 -.344E-04 -.298E-03
   0.965E+00 -.104E+01 0.430E+01   -.911E+00 0.713E+00 -.409E+01   -.249E+00 0.802E+00 -.508E+00   0.133E-04 0.529E-04 -.251E-03
   0.148E+01 -.225E+01 0.117E+00   -.145E+01 0.212E+01 -.163E+00   -.247E+00 0.515E+00 0.541E-01   0.130E-04 -.608E-05 -.220E-03
   0.149E+01 -.225E+01 -.109E+00   -.145E+01 0.212E+01 0.163E+00   -.262E+00 0.496E+00 -.691E-01   0.224E-04 -.607E-04 -.135E-03
   0.985E+00 -.103E+01 -.430E+01   -.911E+00 0.713E+00 0.409E+01   -.260E+00 0.821E+00 0.515E+00   0.840E-04 -.115E-03 -.101E-03
   0.651E+01 -.198E+02 0.170E+02   -.595E+01 0.196E+02 -.186E+02   -.811E+00 0.197E+01 -.257E+00   0.995E-04 0.168E-03 -.655E-04
   0.161E+02 -.108E+01 -.398E+01   -.152E+02 0.116E+01 0.393E+01   -.947E+00 0.564E+00 -.301E+00   -.520E-04 -.146E-05 -.240E-03
   0.236E-01 -.217E+01 0.220E+01   0.134E+00 0.208E+01 -.237E+01   -.531E+00 0.563E+00 -.274E+00   -.373E-04 -.194E-04 -.233E-03
   0.175E+01 -.215E+01 0.376E+00   -.155E+01 0.198E+01 -.349E+00   -.419E+00 0.464E+00 0.687E-02   -.929E-06 0.187E-04 -.192E-03
   0.175E+01 -.216E+01 -.375E+00   -.155E+01 0.198E+01 0.349E+00   -.416E+00 0.488E+00 0.137E-01   0.187E-05 0.142E-04 -.116E-03
   0.188E+00 -.240E+01 -.257E+01   0.134E+00 0.208E+01 0.237E+01   -.512E+00 0.542E+00 0.250E+00   -.150E-04 -.234E-04 0.309E-04
   0.161E+02 -.108E+01 0.398E+01   -.152E+02 0.116E+01 -.393E+01   -.961E+00 0.582E+00 0.292E+00   0.371E-04 -.834E-04 0.150E-03
   0.153E+02 0.964E+00 -.194E+02   -.153E+02 -.114E+01 0.191E+02   -.538E+00 -.512E+00 0.784E+00   -.436E-04 -.261E-04 -.782E-04
   0.108E+01 0.113E-01 0.115E+01   -.124E+01 0.237E+00 -.163E+01   -.984E-01 -.581E-01 0.524E+00   0.201E-05 0.315E-04 -.218E-03
   0.145E+01 -.223E+01 0.413E+00   -.142E+01 0.216E+01 -.424E+00   -.223E+00 0.273E+00 -.729E-01   0.904E-05 0.102E-04 -.181E-03
   0.145E+01 -.224E+01 -.407E+00   -.142E+01 0.216E+01 0.424E+00   -.262E+00 0.304E+00 0.760E-01   -.701E-05 -.140E-04 -.108E-03
   0.885E+00 0.308E+00 -.641E+00   -.124E+01 0.237E+00 0.163E+01   -.104E+00 -.702E-01 -.549E+00   -.512E-04 -.705E-04 0.279E-04
   0.153E+02 0.962E+00 0.194E+02   -.153E+02 -.114E+01 -.191E+02   -.552E+00 -.508E+00 -.775E+00   0.631E-04 -.893E-04 0.208E-03
   0.122E+00 0.121E+01 -.178E+02   -.410E+00 -.171E+01 0.173E+02   0.339E-01 0.380E+00 0.556E+00   0.215E-04 0.434E-04 0.722E-04
   0.100E+01 -.105E+01 0.430E+01   -.911E+00 0.713E+00 -.409E+01   -.284E+00 0.831E+00 -.516E+00   0.988E-05 -.260E-04 -.259E-03
   0.149E+01 -.224E+01 0.119E+00   -.145E+01 0.212E+01 -.163E+00   -.256E+00 0.509E+00 0.493E-01   0.152E-04 -.121E-04 -.239E-03
   0.149E+01 -.224E+01 -.111E+00   -.145E+01 0.212E+01 0.163E+00   -.264E+00 0.483E+00 -.685E-01   0.156E-04 0.683E-04 -.201E-03
   0.966E+00 -.105E+01 -.428E+01   -.911E+00 0.713E+00 0.409E+01   -.238E+00 0.810E+00 0.488E+00   0.353E-04 0.645E-04 -.330E-04
   0.119E+00 0.122E+01 0.178E+02   -.410E+00 -.171E+01 -.173E+02   0.389E-01 0.372E+00 -.586E+00   -.161E-04 0.179E-04 0.165E-03
   0.152E+02 -.150E+01 -.420E+01   -.152E+02 0.116E+01 0.393E+01   -.930E+00 0.625E+00 -.435E+00   -.211E-04 0.308E-04 -.229E-03
   0.188E+00 -.240E+01 0.257E+01   0.134E+00 0.208E+01 -.237E+01   -.535E+00 0.540E+00 -.247E+00   -.506E-04 -.366E-05 -.232E-03
   0.175E+01 -.215E+01 0.380E+00   -.155E+01 0.198E+01 -.349E+00   -.421E+00 0.466E+00 0.409E-02   -.147E-04 -.189E-04 -.184E-03
   0.175E+01 -.215E+01 -.375E+00   -.155E+01 0.198E+01 0.349E+00   -.419E+00 0.484E+00 0.154E-01   0.304E-04 -.285E-04 -.114E-03
   0.242E-01 -.218E+01 -.219E+01   0.134E+00 0.208E+01 0.237E+01   -.508E+00 0.566E+00 0.273E+00   0.580E-04 0.104E-04 -.534E-04
   0.152E+02 -.151E+01 0.420E+01   -.152E+02 0.116E+01 -.393E+01   -.943E+00 0.644E+00 0.427E+00   0.395E-04 0.870E-04 0.805E-04
 -----------------------------------------------------------------------------------------------
   0.211E+01 0.337E+01 0.264E-01   0.101E-12 0.355E-14 -.639E-13   -.211E+01 -.351E+01 -.337E-01   -.636E-04 0.155E-04 0.329E-03
 
 
 POSITION                                       TOTAL-FORCE (eV/Angst)
 -----------------------------------------------------------------------------------
      0.00000      0.00000      0.00000         0.272273      1.461806      1.557310
      0.00000     10.06740      1.93747        -0.232799     -0.141255     -0.016871
      0.00000      6.71160      3.87495        -0.019062      0.007501      0.007241
      0.00000      3.35580      5.81242        -0.015977      0.007791     -0.015950
      4.15680     13.30546     11.88736        -0.780335      1.216762      1.443478
      0.00000     10.06740      9.68736         0.275201      1.466544     -1.556723
      3.36583      1.00085     21.89292         0.174335      0.654000      1.250454
      3.16388      1.11860      1.93747         0.012187     -0.215304     -0.021570
      3.16388     11.18600      3.87495        -0.015478     -0.110887     -0.100035
      3.16388      7.83020      5.81242        -0.012593     -0.109596      0.093158
      3.16388      4.47440      7.74989         0.001749     -0.204700      0.027014
      3.36583     11.06826     11.88736         0.175108      0.671414     -1.257126
      0.20195      5.47525     21.89292         0.742178     -1.317523     -1.067832
      6.32776      5.59300      1.93747        -0.231790     -0.387626      0.378528
      6.32776      2.23720      3.87495        -0.066743     -0.054490     -0.012380
      6.32776     12.30460      5.81242        -0.065942     -0.052808     -0.000197
      6.32776      8.94880      7.74989        -0.040590     -0.103485      0.069215
      0.20195      2.11945     11.88736         0.742539     -1.308845      1.065926
      6.52971      9.94966     21.89292         0.129120     -0.016703      0.107028
      4.15680      3.23805     21.89292        -0.778300      1.207652     -1.434138
      0.00000      0.00000      3.87495        -0.023443      0.014029      0.010539
      0.00000     10.06740      5.81242        -0.025505      0.010995     -0.015906
      0.00000      6.71160      7.74989        -0.232754     -0.140478      0.016612
      6.52971      6.59385     11.88736         0.128621     -0.014182     -0.101199
      3.36583      7.71245     21.89292        -0.646882     -0.003615      1.354670
      3.16388      7.83020      1.93747         0.005776     -0.206840     -0.012197
      3.16388      4.47440      3.87495        -0.012238     -0.104384     -0.095198
      3.16388      1.11860      5.81242        -0.011292     -0.109620      0.087724
      3.16388     11.18600      7.74989         0.011950     -0.213121      0.026216
      3.36583      4.35665     11.88736        -0.654046      0.004970     -1.352789
      6.32776      2.23720      0.00000         0.076130     -0.365351      0.146556
      6.32776     12.30460      1.93747        -0.040699     -0.104729     -0.064361
      6.32776      8.94880      3.87495        -0.056549     -0.044161     -0.003682
      6.32776      5.59300      5.81242        -0.062285     -0.045751     -0.000344
      6.32776      2.23720      7.74989        -0.231476     -0.387636     -0.370500
      6.32776     12.30460      9.68736         0.078057     -0.365414     -0.140462
      0.79097      4.47440      0.00000         0.307778      0.159446     -1.465914
      0.79097      1.11860      1.93747         0.245672     -0.407518     -0.103480
      0.79097     11.18600      3.87495         0.063830      0.128076     -0.129464
      0.79097      7.83020      5.81242         0.066549      0.132860      0.121349
      0.79097      4.47440      7.74989         0.287640      0.420457     -0.411281
      0.79097      1.11860      9.68736         0.304322      0.163059      1.471283
      3.95485      8.94880      0.00000        -0.672584     -2.078704      1.595319
      3.95485      5.59300      1.93747         0.425886      0.302555      0.464889
      3.95485      2.23720      3.87495         0.035877      0.000189     -0.007920
      3.95485     12.30460      5.81242         0.030264     -0.003157     -0.002157
      3.95485      8.94880      7.74989         0.432439      0.318271     -0.440101
      3.95485      5.59300      9.68736        -0.663886     -2.079260     -1.591993
      7.11873      0.00000      0.00000         0.162829     -0.075146     -0.377339
      7.11873     10.06740      1.93747         0.277772      0.326240      0.391472
      7.11873      6.71160      3.87495         0.058617      0.045155     -0.015651
      7.11873      3.35580      5.81242         0.055041      0.049021      0.006365
      7.11873      0.00000      7.74989        -0.484508      0.061341      0.066678
      7.11873     10.06740      9.68736         0.162593     -0.076626      0.379206
      0.79097     11.18600      0.00000         0.000026      0.372195     -0.468784
      0.79097      7.83020      1.93747         0.286897      0.420431      0.414878
      0.79097      4.47440      3.87495         0.251961      0.411318      0.330865
      0.79097      1.11860      5.81242         0.253791      0.406192     -0.339944
      0.79097     11.18600      7.74989         0.244663     -0.408871      0.112158
      0.79097      7.83020      9.68736        -0.001914      0.369073      0.475360
      3.95485      2.23720      0.00000        -0.013124     -1.905779      1.229055
      3.95485     12.30460      1.93747         0.428411      0.318385      0.447749
      3.95485      8.94880      3.87495         0.034280     -0.002158     -0.001075
      3.95485      5.59300      5.81242         0.033526     -0.002607     -0.007568
      3.95485      2.23720      7.74989         0.431273      0.297618     -0.453569
      3.95485     12.30460      9.68736        -0.016296     -1.914247     -1.233914
      0.99292      7.71245     21.89292         0.205417     -0.557199      0.732481
      7.11873      3.35580      1.93747        -0.483876      0.062083     -0.067787
      7.11873      0.00000      3.87495         0.060019      0.051648     -0.013589
      7.11873     10.06740      5.81242         0.062573      0.050275      0.008074
      7.11873      6.71160      7.74989         0.278436      0.326277     -0.388485
      0.99292      4.35665     11.88736         0.208297     -0.541835     -0.732609
      6.32776      5.59300      9.68736         0.179941      0.409102      0.218456
      0.20195      5.47525     13.88848         0.183558     -0.555652     -0.410286
      0.20195      8.83106     15.88959         0.225105     -0.393753      0.001970
      0.20195     12.18686     17.89070         0.223920     -0.366583      0.016414
      0.20195      2.11945     19.89181         0.019121     -0.331080     -0.021734
      6.32776      8.94880      0.00000         0.202389      0.411016     -0.226911
      3.16388      1.11860      9.68736         0.083709     -0.057843      1.196871
      3.36583      1.00085     13.88848         0.337730     -0.507285     -0.526684
      3.36583      4.35665     15.88959         0.221092     -0.251198     -0.105416
      3.36583      7.71245     17.89070         0.189877     -0.223132      0.109976
      3.36583     11.06826     19.89181         0.145122     -0.242402      0.027301
      3.16388      4.47440      0.00000         0.066486     -0.051953     -1.195290
      0.00000      3.35580      9.68736         0.987721      1.813347     -1.189737
      6.52971      9.94966     13.88848         0.190339     -0.306228     -0.052326
      6.52971     13.30546     15.88959         0.171957     -0.283906     -0.019482
      6.52971      3.23805     17.89070         0.169304     -0.292546      0.009902
      6.52971      6.59385     19.89181         0.201374     -0.321034      0.071751
      0.00000      6.71160      0.00000         0.998674      1.811756      1.200848
      0.20195      8.83106     11.88736         0.566320     -2.113567      1.202275
      0.20195     12.18686     13.88848        -0.005146     -0.332079      0.027272
      0.20195      2.11945     15.88959         0.224647     -0.397831      0.008871
      0.20195      5.47525     17.89070         0.224358     -0.386384      0.000425
      0.20195      8.83106     19.89181         0.203729     -0.553685      0.416442
      0.20195     12.18686     21.89292         0.556016     -2.108166     -1.210826
      3.16388      7.83020      9.68736        -0.011312     -0.009154      0.861474
      3.36583      7.71245     13.88848         0.155027     -0.247504     -0.043199
      3.36583     11.06826     15.88959         0.225976     -0.250249     -0.104890
      3.36583      1.00085     17.89070         0.191975     -0.215719      0.108218
      3.36583      4.35665     19.89181         0.329363     -0.503623      0.508834
      3.16388     11.18600      0.00000        -0.026785     -0.005333     -0.868778
      6.52971     13.30546     11.88736        -0.194061     -0.351152     -0.470596
      6.52971      3.23805     13.88848         0.186681     -0.313903     -0.069510
      6.52971      6.59385     15.88959         0.168086     -0.282761     -0.028292
      6.52971      9.94966     17.89070         0.164497     -0.287845      0.013044
      6.52971     13.30546     19.89181         0.206313     -0.312047      0.057313
      6.52971      3.23805     21.89292        -0.202159     -0.338475      0.482939
      0.99292     11.06826     11.88736         0.198379      0.499947     -1.302046
      0.99292      1.00085     13.88848        -0.444068      0.471147     -0.447595
      0.99292      4.35665     15.88959        -0.196458      0.202246     -0.086064
      0.99292      7.71245     17.89070        -0.229151      0.228882      0.095106
      0.99292     11.06826     19.89181        -0.265911      0.194430     -0.043153
      0.99292      1.00085     21.89292         0.207944      0.518261      1.293748
      4.15680      6.59385     11.88736        -0.244763      1.731046      1.852026
      4.15680      9.94966     13.88848        -0.195718      0.479631     -0.298010
      4.15680     13.30546     15.88959        -0.216553      0.385553      0.007670
      4.15680      3.23805     17.89070        -0.227753      0.363102     -0.015475
      4.15680      6.59385     19.89181        -0.186500      0.501284      0.300214
      4.15680      9.94966     21.89292        -0.248667      1.735514     -1.837903
      7.32068      2.11945     11.88736        -0.116337      0.638005     -0.348653
      7.32068      5.47525     13.88848        -0.372965      0.472836     -0.450933
      7.32068      8.83106     15.88959        -0.219325      0.295342      0.033197
      7.32068     12.18686     17.89070        -0.215047      0.317715     -0.012606
      7.32068      2.11945     19.89181        -0.190148      0.228597      0.050057
      7.32068      5.47525     21.89292        -0.127606      0.657127      0.343081
      7.11873      3.35580      9.68736        -0.507821     -0.688010      0.513801
      0.99292      7.71245     13.88848        -0.256933      0.191006      0.037678
      0.99292     11.06826     15.88959        -0.193107      0.198782     -0.084541
      0.99292      1.00085     17.89070        -0.237056      0.227853      0.093001
      0.99292      4.35665     19.89181        -0.456896      0.475455      0.443832
      7.11873      6.71160      0.00000        -0.519219     -0.685513     -0.504248
      0.00000      0.00000      7.74989        -0.253525     -0.120640     -0.022760
      4.15680      3.23805     13.88848        -0.195579      0.498576     -0.305191
      4.15680      6.59385     15.88959        -0.217043      0.388990      0.004807
      4.15680      9.94966     17.89070        -0.229776      0.361903     -0.016425
      4.15680     13.30546     19.89181        -0.182872      0.475969      0.301577
      0.00000      3.35580      1.93747        -0.251475     -0.120882     -0.013282
      7.32068      8.83106     11.88736        -0.942694      0.277647     -0.704309
      7.32068     12.18686     13.88848        -0.212173      0.223941     -0.045388
      7.32068      2.11945     15.88959        -0.218946      0.300970      0.035366
      7.32068      5.47525     17.89070        -0.217769      0.320599     -0.010690
      7.32068      8.83106     19.89181        -0.349457      0.473556      0.453161
      7.32068     12.18686     21.89292        -0.956893      0.293969      0.697548
 -----------------------------------------------------------------------------------
    total drift:                               -0.004965     -0.137029     -0.006884


--------------------------------------------------------------------------------------------------------



  FREE ENERGIE OF THE ION-ELECTRON SYSTEM (eV)
  ---------------------------------------------------
  free  energy   TOTEN  =      -689.25139151 eV

  energy  without entropy=     -689.25014368  energy(sigma->0) =     -689.25076760
 


--------------------------------------------------------------------------------------------------------


    POTLOK:  cpu time      5.1938: real time      5.2230


--------------------------------------------------------------------------------------------------------


     LOOP+:  cpu time   1678.1191: real time   1694.8231
    4ORBIT:  cpu time      0.0000: real time      0.0000

 total amount of memory used by VASP MPI-rank0   511343. kBytes
=======================================================================

   base      :      30000. kBytes
   nonlr-proj:       7938. kBytes
   fftplans  :      69092. kBytes
   grid      :      42335. kBytes
   one-center:        146. kBytes
   wavefun   :     361832. kBytes
 
  
  
 General timing and accounting informations for this job:
 ========================================================
  
                  Total CPU time used (sec):     1744.699
                            User time (sec):     1667.304
                          System time (sec):       77.395
                         Elapsed time (sec):     1768.165
  
                   Maximum memory used (kb):      779436.
                   Average memory used (kb):          N/A
  
                          Minor page faults:       353929
                          Major page faults:         1613
                 Voluntary context switches:         3893
