       N       E                     dE             d eps       ncg     rms          rms(c)
DAV:   1     0.119296058125E+04    0.11930E+04   -0.93158E+04  9280   0.178E+03
DAV:   2     0.131396299475E+03   -0.10616E+04   -0.10246E+04 11224   0.249E+02
DAV:   3     0.266070473567E+02   -0.10479E+03   -0.10119E+03 12216   0.695E+01
DAV:   4     0.213300417636E+02   -0.52770E+01   -0.51508E+01 12008   0.175E+01
DAV:   5     0.211100630880E+02   -0.21998E+00   -0.21811E+00 12328   0.359E+00    0.455E+01
DAV:   6     0.800144720117E+02    0.58904E+02   -0.28668E+02 10960   0.410E+01    0.274E+01
DAV:   7     0.781405698832E+02   -0.18739E+01   -0.96711E+01 10608   0.226E+01    0.148E+01
DAV:   8     0.781444052362E+02    0.38354E-02   -0.11342E+01 11292   0.759E+00    0.414E+00
DAV:   9     0.782774123311E+02    0.13301E+00   -0.12998E+00 10928   0.301E+00    0.137E+00
DAV:  10     0.782716510902E+02   -0.57612E-02   -0.16685E-01 10892   0.108E+00    0.112E+00
DAV:  11     0.782662442552E+02   -0.54068E-02   -0.17359E-02 11192   0.381E-01    0.647E-01
DAV:  12     0.782667656783E+02    0.52142E-03   -0.47827E-03 11272   0.178E-01    0.332E-01
DAV:  13     0.782663163365E+02   -0.44934E-03   -0.19983E-03 10720   0.126E-01    0.115E-01
DAV:  14     0.782662387145E+02   -0.77622E-04   -0.44311E-04 11408   0.563E-02    0.525E-02
DAV:  15     0.782662284542E+02   -0.10260E-04   -0.35657E-05 10900   0.200E-02    0.271E-02
DAV:  16     0.782662307030E+02    0.22488E-05   -0.12216E-05 10892   0.994E-03    0.107E-02
DAV:  17     0.782662304198E+02   -0.28317E-06   -0.52497E-06 10688   0.718E-03    0.705E-03
DAV:  18     0.782662303581E+02   -0.61706E-07   -0.80017E-07 10484   0.317E-03
   1 F= 0.78266230E+02 E0= 0.78266803E+02  d E =-.114500E-02  mag=     1.0000
