 120 120   0   0
  0.2091485E+02  0.9177115E-09  0.1297840E-08  0.2107214E-08  0.5000000E-15
  1.000000000000000E-004
  CAR 
 Si and Ge interface calculation         
      9.53158848     -9.60316309  301      6.83601189      1.00000000
     -9.603  0.0000E+00  0.0000E+00  0.0000E+00  0.0000E+00
     -9.539  0.0000E+00  0.0000E+00  0.0000E+00  0.0000E+00
     -9.476  0.0000E+00  0.0000E+00  0.0000E+00  0.0000E+00
     -9.412  0.0000E+00  0.0000E+00  0.0000E+00  0.0000E+00
     -9.348  0.0000E+00  0.0000E+00  0.0000E+00  0.0000E+00
     -9.284  0.0000E+00  0.0000E+00  0.0000E+00  0.0000E+00
     -9.220  0.0000E+00  0.0000E+00  0.0000E+00  0.0000E+00
     -9.157  0.0000E+00  0.0000E+00  0.0000E+00  0.0000E+00
     -9.093  0.0000E+00  0.0000E+00  0.0000E+00  0.0000E+00
     -9.029  0.0000E+00  0.0000E+00  0.0000E+00  0.0000E+00
     -8.965  0.0000E+00  0.0000E+00  0.0000E+00  0.0000E+00
     -8.902  0.0000E+00  0.0000E+00  0.0000E+00  0.0000E+00
     -8.838  0.0000E+00  0.0000E+00  0.0000E+00  0.0000E+00
     -8.774  0.2472E-07  0.1094E-12  0.1577E-08  0.6976E-14
     -8.710  0.1174E+02  0.5571E+01  0.7489E+00  0.3554E+00
     -8.646  0.3064E+02  0.2300E+02  0.2703E+01  0.1822E+01
     -8.583  0.1557E+02  0.2158E+02  0.3697E+01  0.3198E+01
     -8.519  0.4757E+01  0.1257E+02  0.4000E+01  0.4000E+01
     -8.455  0.0000E+00  0.0000E+00  0.4000E+01  0.4000E+01
     -8.391  0.0000E+00  0.0000E+00  0.4000E+01  0.4000E+01
     -8.328  0.0000E+00  0.0000E+00  0.4000E+01  0.4000E+01
     -8.264  0.0000E+00  0.0000E+00  0.4000E+01  0.4000E+01
     -8.200  0.4068E-02  0.2713E-03  0.4000E+01  0.4000E+01
     -8.136  0.1295E+02  0.1021E+02  0.4827E+01  0.4652E+01
     -8.072  0.3400E+01  0.5595E+01  0.5043E+01  0.5008E+01
     -8.009  0.3055E+02  0.3046E+02  0.6992E+01  0.6951E+01
     -7.945  0.2430E-06  0.7610E+00  0.7000E+01  0.7000E+01
     -7.881  0.7272E+01  0.5826E+01  0.7464E+01  0.7372E+01
     -7.817  0.8405E+01  0.9844E+01  0.8000E+01  0.8000E+01
     -7.753  0.0000E+00  0.0000E+00  0.8000E+01  0.8000E+01
     -7.690  0.0000E+00  0.0000E+00  0.8000E+01  0.8000E+01
     -7.626  0.0000E+00  0.0000E+00  0.8000E+01  0.8000E+01
     -7.562  0.0000E+00  0.0000E+00  0.8000E+01  0.8000E+01
     -7.498  0.0000E+00  0.0000E+00  0.8000E+01  0.8000E+01
     -7.435  0.0000E+00  0.0000E+00  0.8000E+01  0.8000E+01
     -7.371  0.0000E+00  0.0000E+00  0.8000E+01  0.8000E+01
     -7.307  0.0000E+00  0.0000E+00  0.8000E+01  0.8000E+01
     -7.243  0.0000E+00  0.0000E+00  0.8000E+01  0.8000E+01
     -7.179  0.0000E+00  0.0000E+00  0.8000E+01  0.8000E+01
     -7.116  0.6382E-14  0.0000E+00  0.8000E+01  0.8000E+01
     -7.052  0.8841E+01  0.1261E+01  0.8564E+01  0.8080E+01
     -6.988  0.1206E+02  0.1802E+02  0.9333E+01  0.9230E+01
     -6.924  0.1621E+02  0.1560E+02  0.1037E+02  0.1022E+02
     -6.861  0.2327E+02  0.1703E+02  0.1185E+02  0.1131E+02
     -6.797  0.1423E+02  0.2021E+02  0.1276E+02  0.1260E+02
     -6.733  0.2296E+02  0.2283E+02  0.1422E+02  0.1406E+02
     -6.669  0.1083E+02  0.1206E+02  0.1492E+02  0.1483E+02
     -6.605  0.1323E+01  0.2741E+01  0.1500E+02  0.1500E+02
     -6.542  0.0000E+00  0.0000E+00  0.1500E+02  0.1500E+02
     -6.478  0.6132E+01  0.9747E+00  0.1539E+02  0.1506E+02
     -6.414  0.3035E+02  0.3492E+02  0.1733E+02  0.1729E+02
     -6.350  0.1045E+02  0.1102E+02  0.1800E+02  0.1799E+02
     -6.286  0.2907E+02  0.1744E+02  0.1985E+02  0.1910E+02
     -6.223  0.2258E+02  0.3077E+02  0.2130E+02  0.2107E+02
     -6.159  0.1641E+02  0.1161E+02  0.2235E+02  0.2181E+02
     -6.095  0.1549E+02  0.2392E+02  0.2333E+02  0.2333E+02
     -6.031  0.0000E+00  0.0000E+00  0.2333E+02  0.2333E+02
     -5.968  0.0000E+00  0.0000E+00  0.2333E+02  0.2333E+02
     -5.904  0.3764E+00  0.4378E-01  0.2336E+02  0.2334E+02
     -5.840  0.1008E+02  0.1041E+02  0.2400E+02  0.2400E+02
     -5.776  0.0000E+00  0.0000E+00  0.2400E+02  0.2400E+02
     -5.712  0.0000E+00  0.0000E+00  0.2400E+02  0.2400E+02
     -5.649  0.1709E+01  0.4348E+00  0.2411E+02  0.2403E+02
     -5.585  0.1225E+02  0.1067E+02  0.2489E+02  0.2471E+02
     -5.521  0.8987E+01  0.9816E+01  0.2546E+02  0.2533E+02
     -5.457  0.9098E+01  0.1044E+02  0.2604E+02  0.2600E+02
     -5.394  0.1978E+02  0.1749E+02  0.2731E+02  0.2712E+02
     -5.330  0.3083E+02  0.2780E+02  0.2927E+02  0.2889E+02
     -5.266  0.2037E+02  0.2245E+02  0.3057E+02  0.3032E+02
     -5.202  0.2142E+02  0.2155E+02  0.3194E+02  0.3170E+02
     -5.138  0.1796E+02  0.1564E+02  0.3308E+02  0.3269E+02
     -5.075  0.3961E+01  0.1001E+02  0.3334E+02  0.3333E+02
     -5.011  0.2977E+02  0.2437E+02  0.3524E+02  0.3489E+02
     -4.947  0.6797E+01  0.7785E+01  0.3567E+02  0.3538E+02
     -4.883  0.4165E+02  0.4384E+02  0.3833E+02  0.3818E+02
     -4.819  0.1519E+02  0.8370E+01  0.3929E+02  0.3872E+02
     -4.756  0.2518E+02  0.3145E+02  0.4090E+02  0.4073E+02
     -4.692  0.2402E+02  0.2527E+02  0.4243E+02  0.4234E+02
     -4.628  0.3640E+01  0.5111E+01  0.4267E+02  0.4267E+02
     -4.564  0.3079E+01  0.7390E+00  0.4286E+02  0.4271E+02
     -4.501  0.3268E+02  0.2803E+02  0.4495E+02  0.4450E+02
     -4.437  0.3207E+02  0.3788E+02  0.4699E+02  0.4692E+02
     -4.373  0.1148E+02  0.1180E+02  0.4773E+02  0.4768E+02
     -4.309  0.4230E+01  0.5079E+01  0.4800E+02  0.4800E+02
     -4.245  0.1153E+02  0.1059E+02  0.4874E+02  0.4868E+02
     -4.182  0.3872E+02  0.3628E+02  0.5121E+02  0.5099E+02
     -4.118  0.1244E+02  0.1581E+02  0.5200E+02  0.5200E+02
     -4.054  0.2024E+02  0.1645E+02  0.5329E+02  0.5305E+02
     -3.990  0.2426E+02  0.2190E+02  0.5484E+02  0.5445E+02
     -3.927  0.3387E+02  0.3961E+02  0.5700E+02  0.5697E+02
     -3.863  0.7735E+01  0.3796E+01  0.5749E+02  0.5721E+02
     -3.799  0.4360E+02  0.4597E+02  0.6027E+02  0.6015E+02
     -3.735  0.2635E+02  0.2561E+02  0.6196E+02  0.6178E+02
     -3.671  0.2001E+02  0.1738E+02  0.6323E+02  0.6289E+02
     -3.608  0.1202E+02  0.1742E+02  0.6400E+02  0.6400E+02
     -3.544  0.1931E+02  0.1453E+02  0.6523E+02  0.6493E+02
     -3.480  0.4427E+02  0.4277E+02  0.6806E+02  0.6765E+02
     -3.416  0.2003E+02  0.2632E+02  0.6933E+02  0.6933E+02
     -3.352  0.2154E+02  0.1578E+02  0.7071E+02  0.7034E+02
     -3.289  0.5379E+02  0.5579E+02  0.7414E+02  0.7390E+02
     -3.225  0.1888E+02  0.2252E+02  0.7534E+02  0.7533E+02
     -3.161  0.1570E+02  0.1567E+02  0.7634E+02  0.7633E+02
     -3.097  0.4715E+02  0.4701E+02  0.7935E+02  0.7933E+02
     -3.034  0.5727E+02  0.5494E+02  0.8300E+02  0.8284E+02
     -2.970  0.2615E+02  0.2749E+02  0.8467E+02  0.8460E+02
     -2.906  0.3121E+02  0.3190E+02  0.8667E+02  0.8663E+02
     -2.842  0.1990E+02  0.1733E+02  0.8794E+02  0.8774E+02
     -2.778  0.4169E+02  0.3280E+02  0.9060E+02  0.8983E+02
     -2.715  0.2589E+02  0.3473E+02  0.9225E+02  0.9205E+02
     -2.651  0.3183E+02  0.3186E+02  0.9428E+02  0.9409E+02
     -2.587  0.6035E+02  0.5910E+02  0.9813E+02  0.9786E+02
     -2.523  0.1364E+02  0.1401E+02  0.9900E+02  0.9875E+02
     -2.460  0.4285E+02  0.4199E+02  0.1017E+03  0.1014E+03
     -2.396  0.2779E+02  0.2848E+02  0.1035E+03  0.1032E+03
     -2.332  0.2287E+02  0.2239E+02  0.1050E+03  0.1047E+03
     -2.268  0.1585E+02  0.1532E+02  0.1060E+03  0.1057E+03
     -2.204  0.4394E+02  0.4371E+02  0.1088E+03  0.1084E+03
     -2.141  0.4507E+02  0.4694E+02  0.1117E+03  0.1114E+03
     -2.077  0.4187E+02  0.4481E+02  0.1143E+03  0.1143E+03
     -2.013  0.2745E+02  0.2407E+02  0.1161E+03  0.1158E+03
     -1.949  0.4047E+02  0.3987E+02  0.1187E+03  0.1184E+03
     -1.885  0.1738E+02  0.1721E+02  0.1198E+03  0.1195E+03
     -1.822  0.3409E+02  0.3270E+02  0.1220E+03  0.1216E+03
     -1.758  0.2535E+02  0.2533E+02  0.1236E+03  0.1232E+03
     -1.694  0.2765E+02  0.3381E+02  0.1253E+03  0.1253E+03
     -1.630  0.4987E+02  0.4120E+02  0.1285E+03  0.1280E+03
     -1.567  0.2834E+02  0.3342E+02  0.1303E+03  0.1301E+03
     -1.503  0.3638E+02  0.3551E+02  0.1326E+03  0.1324E+03
     -1.439  0.2657E+02  0.3036E+02  0.1343E+03  0.1343E+03
     -1.375  0.3774E+02  0.2759E+02  0.1367E+03  0.1361E+03
     -1.311  0.2801E+02  0.3647E+02  0.1385E+03  0.1384E+03
     -1.248  0.1880E+02  0.2005E+02  0.1397E+03  0.1397E+03
     -1.184  0.6168E+02  0.6264E+02  0.1437E+03  0.1437E+03
     -1.120  0.2284E+02  0.1596E+02  0.1451E+03  0.1447E+03
     -1.056  0.3752E+02  0.3837E+02  0.1475E+03  0.1471E+03
     -0.993  0.1714E+02  0.1932E+02  0.1486E+03  0.1484E+03
     -0.929  0.4038E+02  0.3672E+02  0.1512E+03  0.1507E+03
     -0.865  0.3394E+02  0.3455E+02  0.1534E+03  0.1529E+03
     -0.801  0.4121E+02  0.4503E+02  0.1560E+03  0.1558E+03
     -0.737  0.2133E+02  0.2429E+02  0.1573E+03  0.1573E+03
     -0.674  0.4171E+02  0.3644E+02  0.1600E+03  0.1597E+03
     -0.610  0.3743E+02  0.3852E+02  0.1624E+03  0.1621E+03
     -0.546  0.1888E+02  0.2030E+02  0.1636E+03  0.1634E+03
     -0.482  0.1459E+02  0.1306E+02  0.1645E+03  0.1642E+03
     -0.418  0.4124E+02  0.3721E+02  0.1672E+03  0.1666E+03
     -0.355  0.2883E+02  0.3183E+02  0.1690E+03  0.1686E+03
     -0.291  0.4175E+02  0.4015E+02  0.1717E+03  0.1712E+03
     -0.227  0.1563E+02  0.2287E+02  0.1727E+03  0.1727E+03
     -0.163  0.2556E+02  0.1720E+02  0.1743E+03  0.1738E+03
     -0.100  0.3915E+02  0.4290E+02  0.1768E+03  0.1765E+03
     -0.036  0.3520E+02  0.3917E+02  0.1790E+03  0.1790E+03
      0.028  0.2933E+02  0.2667E+02  0.1809E+03  0.1807E+03
      0.092  0.6179E+02  0.6016E+02  0.1849E+03  0.1845E+03
      0.156  0.3774E+02  0.3971E+02  0.1873E+03  0.1871E+03
      0.219  0.1725E+02  0.1616E+02  0.1884E+03  0.1881E+03
      0.283  0.4987E+02  0.4837E+02  0.1916E+03  0.1912E+03
      0.347  0.3297E+02  0.3336E+02  0.1937E+03  0.1933E+03
      0.411  0.4200E+02  0.4704E+02  0.1963E+03  0.1963E+03
      0.474  0.4036E+02  0.3598E+02  0.1989E+03  0.1986E+03
      0.538  0.2947E+02  0.2627E+02  0.2008E+03  0.2003E+03
      0.602  0.3166E+02  0.3248E+02  0.2028E+03  0.2024E+03
      0.666  0.4229E+02  0.4580E+02  0.2055E+03  0.2053E+03
      0.730  0.2903E+02  0.3209E+02  0.2074E+03  0.2073E+03
      0.793  0.3775E+02  0.3151E+02  0.2098E+03  0.2093E+03
      0.857  0.4022E+02  0.4629E+02  0.2123E+03  0.2123E+03
      0.921  0.3438E+02  0.2505E+02  0.2145E+03  0.2139E+03
      0.985  0.5204E+02  0.5252E+02  0.2179E+03  0.2172E+03
      1.049  0.2119E+02  0.2822E+02  0.2192E+03  0.2190E+03
      1.112  0.3946E+02  0.3763E+02  0.2217E+03  0.2214E+03
      1.176  0.4026E+02  0.3480E+02  0.2243E+03  0.2237E+03
      1.240  0.3139E+02  0.3838E+02  0.2263E+03  0.2261E+03
      1.304  0.2611E+02  0.2081E+02  0.2280E+03  0.2274E+03
      1.367  0.2787E+02  0.3060E+02  0.2297E+03  0.2294E+03
      1.431  0.4501E+02  0.4218E+02  0.2326E+03  0.2321E+03
      1.495  0.5221E+02  0.5830E+02  0.2359E+03  0.2358E+03
      1.559  0.2192E+02  0.1873E+02  0.2373E+03  0.2370E+03
      1.623  0.3635E+02  0.3717E+02  0.2397E+03  0.2394E+03
      1.686  0.6507E+02  0.6273E+02  0.2438E+03  0.2434E+03
      1.750  0.4054E+02  0.3847E+02  0.2464E+03  0.2458E+03
      1.814  0.3094E+02  0.3886E+02  0.2484E+03  0.2483E+03
      1.878  0.3306E+02  0.2400E+02  0.2505E+03  0.2498E+03
      1.941  0.4153E+02  0.4833E+02  0.2531E+03  0.2529E+03
      2.005  0.3141E+02  0.2590E+02  0.2551E+03  0.2546E+03
      2.069  0.5539E+02  0.5418E+02  0.2587E+03  0.2580E+03
      2.133  0.2627E+02  0.3612E+02  0.2603E+03  0.2603E+03
      2.197  0.3839E+02  0.2779E+02  0.2628E+03  0.2621E+03
      2.260  0.4230E+02  0.4734E+02  0.2655E+03  0.2651E+03
      2.324  0.3772E+02  0.4035E+02  0.2679E+03  0.2677E+03
      2.388  0.4026E+02  0.4068E+02  0.2705E+03  0.2703E+03
      2.452  0.4842E+02  0.4567E+02  0.2735E+03  0.2732E+03
      2.516  0.5949E+02  0.5867E+02  0.2773E+03  0.2770E+03
      2.579  0.9663E+01  0.1358E+02  0.2780E+03  0.2778E+03
      2.643  0.6134E+02  0.5183E+02  0.2819E+03  0.2811E+03
      2.707  0.1215E+02  0.1980E+02  0.2826E+03  0.2824E+03
      2.771  0.5447E+02  0.5133E+02  0.2861E+03  0.2857E+03
      2.834  0.4546E+02  0.4272E+02  0.2890E+03  0.2884E+03
      2.898  0.3966E+02  0.4333E+02  0.2916E+03  0.2912E+03
      2.962  0.3517E+02  0.3625E+02  0.2938E+03  0.2935E+03
      3.026  0.6091E+02  0.5487E+02  0.2977E+03  0.2970E+03
      3.090  0.7205E+02  0.7277E+02  0.3023E+03  0.3016E+03
      3.153  0.3608E+02  0.4356E+02  0.3046E+03  0.3044E+03
      3.217  0.5103E+02  0.4802E+02  0.3078E+03  0.3075E+03
      3.281  0.5563E+02  0.5631E+02  0.3114E+03  0.3110E+03
      3.345  0.4625E+02  0.5136E+02  0.3143E+03  0.3143E+03
      3.408  0.2276E+02  0.1783E+02  0.3158E+03  0.3155E+03
      3.472  0.8589E+02  0.8687E+02  0.3213E+03  0.3210E+03
      3.536  0.4431E+02  0.4631E+02  0.3241E+03  0.3240E+03
      3.600  0.6068E+02  0.6037E+02  0.3280E+03  0.3278E+03
      3.664  0.4536E+02  0.3734E+02  0.3309E+03  0.3302E+03
      3.727  0.7857E+02  0.7713E+02  0.3359E+03  0.3351E+03
      3.791  0.5559E+02  0.6359E+02  0.3394E+03  0.3392E+03
      3.855  0.5433E+02  0.5508E+02  0.3429E+03  0.3427E+03
      3.919  0.7819E+02  0.7651E+02  0.3479E+03  0.3476E+03
      3.983  0.5828E+02  0.5865E+02  0.3516E+03  0.3513E+03
      4.046  0.6518E+02  0.6356E+02  0.3558E+03  0.3554E+03
      4.110  0.3758E+02  0.3701E+02  0.3581E+03  0.3577E+03
      4.174  0.6686E+02  0.7034E+02  0.3624E+03  0.3622E+03
      4.238  0.6500E+02  0.5404E+02  0.3666E+03  0.3657E+03
      4.301  0.5682E+02  0.6270E+02  0.3702E+03  0.3697E+03
      4.365  0.6228E+02  0.6637E+02  0.3742E+03  0.3739E+03
      4.429  0.6882E+02  0.6658E+02  0.3786E+03  0.3782E+03
      4.493  0.4552E+02  0.4691E+02  0.3815E+03  0.3812E+03
      4.557  0.5869E+02  0.5445E+02  0.3852E+03  0.3846E+03
      4.620  0.5955E+02  0.6748E+02  0.3890E+03  0.3889E+03
      4.684  0.3675E+02  0.2776E+02  0.3914E+03  0.3907E+03
      4.748  0.6290E+02  0.6827E+02  0.3954E+03  0.3951E+03
      4.812  0.4704E+02  0.4474E+02  0.3984E+03  0.3979E+03
      4.875  0.4664E+02  0.4492E+02  0.4013E+03  0.4008E+03
      4.939  0.7127E+02  0.7565E+02  0.4059E+03  0.4056E+03
      5.003  0.3122E+02  0.3259E+02  0.4079E+03  0.4077E+03
      5.067  0.5064E+02  0.4439E+02  0.4111E+03  0.4105E+03
      5.131  0.4107E+02  0.4452E+02  0.4137E+03  0.4134E+03
      5.194  0.5100E+02  0.5614E+02  0.4170E+03  0.4169E+03
      5.258  0.2875E+02  0.2384E+02  0.4188E+03  0.4185E+03
      5.322  0.6146E+02  0.6528E+02  0.4227E+03  0.4226E+03
      5.386  0.4672E+02  0.4121E+02  0.4257E+03  0.4253E+03
      5.450  0.2013E+02  0.2398E+02  0.4270E+03  0.4268E+03
      5.513  0.6089E+02  0.5800E+02  0.4309E+03  0.4305E+03
      5.577  0.9529E+01  0.1071E+02  0.4315E+03  0.4312E+03
      5.641  0.4502E+02  0.4772E+02  0.4344E+03  0.4342E+03
      5.705  0.4622E+02  0.4564E+02  0.4373E+03  0.4371E+03
      5.768  0.3260E+02  0.3446E+02  0.4394E+03  0.4393E+03
      5.832  0.2783E+02  0.2275E+02  0.4412E+03  0.4408E+03
      5.896  0.5138E+02  0.4749E+02  0.4445E+03  0.4438E+03
      5.960  0.3967E+02  0.4565E+02  0.4470E+03  0.4467E+03
      6.024  0.2592E+02  0.2829E+02  0.4487E+03  0.4485E+03
      6.087  0.4881E+02  0.3162E+02  0.4518E+03  0.4505E+03
      6.151  0.2452E+02  0.4292E+02  0.4533E+03  0.4533E+03
      6.215  0.3137E+02  0.3209E+02  0.4553E+03  0.4553E+03
      6.279  0.3415E+02  0.3153E+02  0.4575E+03  0.4573E+03
      6.342  0.2853E+02  0.2935E+02  0.4593E+03  0.4592E+03
      6.406  0.3897E+02  0.3663E+02  0.4618E+03  0.4616E+03
      6.470  0.5473E+02  0.4954E+02  0.4653E+03  0.4647E+03
      6.534  0.3949E+02  0.3776E+02  0.4678E+03  0.4671E+03
      6.598  0.4799E+02  0.4590E+02  0.4709E+03  0.4701E+03
      6.661  0.2808E+02  0.3149E+02  0.4727E+03  0.4721E+03
      6.725  0.4681E+02  0.4855E+02  0.4757E+03  0.4752E+03
      6.789  0.3118E+02  0.2787E+02  0.4777E+03  0.4769E+03
      6.853  0.5554E+02  0.4171E+02  0.4812E+03  0.4796E+03
      6.917  0.3857E+02  0.4396E+02  0.4837E+03  0.4824E+03
      6.980  0.4682E+02  0.6338E+02  0.4867E+03  0.4865E+03
      7.044  0.3152E+02  0.2169E+02  0.4887E+03  0.4878E+03
      7.108  0.4282E+02  0.4894E+02  0.4914E+03  0.4910E+03
      7.172  0.4316E+02  0.3558E+02  0.4942E+03  0.4932E+03
      7.235  0.4047E+02  0.4947E+02  0.4967E+03  0.4964E+03
      7.299  0.4602E+02  0.5003E+02  0.4997E+03  0.4996E+03
      7.363  0.5086E+02  0.4287E+02  0.5029E+03  0.5023E+03
      7.427  0.5349E+02  0.6049E+02  0.5063E+03  0.5062E+03
      7.491  0.3354E+02  0.1429E+02  0.5085E+03  0.5071E+03
      7.554  0.4589E+02  0.5790E+02  0.5114E+03  0.5108E+03
      7.618  0.6906E+02  0.7130E+02  0.5158E+03  0.5153E+03
      7.682  0.4001E+02  0.4354E+02  0.5184E+03  0.5181E+03
      7.746  0.5408E+02  0.4700E+02  0.5218E+03  0.5211E+03
      7.809  0.4619E+02  0.5047E+02  0.5248E+03  0.5243E+03
      7.873  0.9314E+02  0.9056E+02  0.5307E+03  0.5301E+03
      7.937  0.5205E+02  0.4621E+02  0.5340E+03  0.5331E+03
      8.001  0.4604E+02  0.5609E+02  0.5370E+03  0.5366E+03
      8.065  0.5953E+02  0.5274E+02  0.5408E+03  0.5400E+03
      8.128  0.7076E+02  0.6628E+02  0.5453E+03  0.5442E+03
      8.192  0.4623E+02  0.5289E+02  0.5482E+03  0.5476E+03
      8.256  0.5764E+02  0.5365E+02  0.5519E+03  0.5510E+03
      8.320  0.4158E+02  0.4284E+02  0.5546E+03  0.5538E+03
      8.384  0.8915E+02  0.9144E+02  0.5602E+03  0.5596E+03
      8.447  0.5660E+02  0.5940E+02  0.5639E+03  0.5634E+03
      8.511  0.6591E+02  0.6115E+02  0.5681E+03  0.5673E+03
      8.575  0.5639E+02  0.5417E+02  0.5717E+03  0.5707E+03
      8.639  0.3820E+02  0.4290E+02  0.5741E+03  0.5735E+03
      8.702  0.2987E+02  0.3943E+02  0.5760E+03  0.5760E+03
      8.766  0.0000E+00  0.0000E+00  0.5760E+03  0.5760E+03
      8.830  0.0000E+00  0.0000E+00  0.5760E+03  0.5760E+03
      8.894  0.0000E+00  0.0000E+00  0.5760E+03  0.5760E+03
      8.958  0.0000E+00  0.0000E+00  0.5760E+03  0.5760E+03
      9.021  0.0000E+00  0.0000E+00  0.5760E+03  0.5760E+03
      9.085  0.0000E+00  0.0000E+00  0.5760E+03  0.5760E+03
      9.149  0.0000E+00  0.0000E+00  0.5760E+03  0.5760E+03
      9.213  0.0000E+00  0.0000E+00  0.5760E+03  0.5760E+03
      9.276  0.0000E+00  0.0000E+00  0.5760E+03  0.5760E+03
      9.340  0.0000E+00  0.0000E+00  0.5760E+03  0.5760E+03
      9.404  0.0000E+00  0.0000E+00  0.5760E+03  0.5760E+03
      9.468  0.0000E+00  0.0000E+00  0.5760E+03  0.5760E+03
      9.532  0.0000E+00  0.0000E+00  0.5760E+03  0.5760E+03
