Si and Ge interface calculation         
           1
     9.177114    0.000000    0.000000
     0.000000   12.978401    0.000000
     0.000000    0.000000   21.072140
   Sn   Si
    48    72
Direct configuration=     1
   0.98202050  0.98202050  0.00000000
   0.73202050  0.73202050  0.10887734
   0.48202044  0.48202044  0.21775474
   0.23202044  0.23202044  0.32663205
   0.98202038  0.98202038  0.43550938
   0.73202038  0.73202038  0.54438680
   0.98202050  0.48202050  0.00000000
   0.73202050  0.23202048  0.10887734
   0.48202044  0.98202044  0.21775474
   0.23202044  0.73202038  0.32663205
   0.98202038  0.48202038  0.43550938
   0.73202038  0.23202032  0.54438680
   0.48202047  0.98202050  0.00000000
   0.23202047  0.73202050  0.10887734
   0.98202044  0.48202044  0.21775472
   0.73202038  0.23202044  0.32663205
   0.48202038  0.98202038  0.43550938
   0.23202032  0.73202038  0.54438680
   0.48202047  0.48202050  0.00000000
   0.23202047  0.23202048  0.10887734
   0.98202044  0.98202044  0.21775472
   0.73202038  0.73202038  0.32663205
   0.48202038  0.48202038  0.43550938
   0.23202032  0.23202032  0.54438680
   0.73202044  0.35702050  0.00000000
   0.48202044  0.10702047  0.10887735
   0.23202038  0.85702038  0.21775474
   0.98202032  0.60702038  0.32663208
   0.73202032  0.35702032  0.43550944
   0.48202032  0.10702032  0.54438680
   0.73202044  0.85702044  0.00000000
   0.48202044  0.60702044  0.10887735
   0.23202038  0.35702038  0.21775474
   0.98202032  0.10702033  0.32663208
   0.73202032  0.85702038  0.43550944
   0.48202032  0.60702026  0.54438680
   0.23202048  0.35702050  0.00000000
   0.98202050  0.10702047  0.10887735
   0.73202038  0.85702038  0.21775474
   0.48202032  0.60702038  0.32663208
   0.23202038  0.35702032  0.43550938
   0.98202038  0.10702032  0.54438680
   0.23202048  0.85702044  0.00000000
   0.98202050  0.60702044  0.10887735
   0.73202038  0.35702038  0.21775474
   0.48202032  0.10702033  0.32663208
   0.23202038  0.85702038  0.43550938
   0.98202038  0.60702026  0.54438680
   0.00000000  0.02148272  0.54438680
   0.99999994  0.27148279  0.63550943
   0.99999994  0.52148282  0.72663200
   0.99999988  0.77148294  0.81775463
   0.99999988  0.02148306  0.90887725
   0.99999988  0.27148306  0.99999988
   0.33333337  0.35481608  0.54438680
   0.33333328  0.60481614  0.63550943
   0.33333328  0.85481614  0.72663200
   0.33333322  0.10481632  0.81775463
   0.33333313  0.35481620  0.90887725
   0.33333328  0.60481656  0.99999988
   0.66666669  0.68814939  0.54438680
   0.66666663  0.93814945  0.63550943
   0.66666663  0.18814945  0.72663200
   0.66666663  0.43814969  0.81775463
   0.66666663  0.68814969  0.90887725
   0.66666657  0.93814981  0.99999988
   0.00000002  0.52148277  0.54438680
   0.00000000  0.77148282  0.63550943
   0.99999994  0.02148282  0.72663200
   0.99999988  0.27148294  0.81775463
   0.99999976  0.52148294  0.90887725
   0.99999982  0.77148318  0.00000000
   0.33333337  0.85481614  0.54438680
   0.33333331  0.10481620  0.63550943
   0.33333328  0.35481620  0.72663200
   0.33333331  0.60481632  0.81775463
   0.33333328  0.85481644  0.90887725
   0.33333322  0.10481668  0.00000000
   0.66666675  0.18814939  0.54438680
   0.66666663  0.43814948  0.63550943
   0.66666663  0.68814951  0.72663200
   0.66666657  0.93814957  0.81775463
   0.66666657  0.18814957  0.90887725
   0.66666657  0.43814993  0.00000000
   0.08333333  0.35481602  0.54438680
   0.08333328  0.60481614  0.63550943
   0.08333331  0.85481620  0.72663200
   0.08333322  0.10481620  0.81775463
   0.08333319  0.35481644  0.90887725
   0.08333322  0.60481656  0.99999988
   0.41666669  0.68814939  0.54438680
   0.41666660  0.93814939  0.63550943
   0.41666666  0.18814945  0.72663200
   0.41666654  0.43814957  0.81775463
   0.41666645  0.68814969  0.90887725
   0.41666648  0.93814981  0.99999988
   0.75000006  0.02148273  0.54438680
   0.75000006  0.27148279  0.63550943
   0.75000000  0.52148288  0.72663200
   0.74999988  0.77148294  0.81775463
   0.75000000  0.02148318  0.90887725
   0.74999988  0.27148318  0.00000000
   0.08333334  0.85481608  0.54438680
   0.08333325  0.10481620  0.63550943
   0.08333334  0.35481632  0.72663200
   0.08333325  0.60481632  0.81775463
   0.08333322  0.85481656  0.90887725
   0.08333313  0.10481644  0.00000000
   0.41666672  0.18814939  0.54438680
   0.41666666  0.43814948  0.63550943
   0.41666663  0.68814957  0.72663200
   0.41666660  0.93814957  0.81775463
   0.41666660  0.18814981  0.90887725
   0.41666651  0.43814981  0.99999988
   0.75000000  0.52148271  0.54438680
   0.75000000  0.77148277  0.63550943
   0.75000006  0.02148294  0.72663200
   0.74999994  0.27148294  0.81775463
   0.74999994  0.52148306  0.90887725
   0.74999988  0.77148306  0.99999988
