<?xml version="1.0" encoding="ISO-8859-1"?>
<modeling>
 <generator>
  <i name="program" type="string">vasp </i>
  <i name="version" type="string">6.4.3  </i>
  <i name="subversion" type="string">19Mar24 (build Oct 22 2024 11:23:12) complex                          parallel </i>
  <i name="platform" type="string">LinuxIFC </i>
  <i name="date" type="string">2025 06 04 </i>
  <i name="time" type="string">03:17:03 </i>
 </generator>
 <incar>
  <i type="string" name="SYSTEM">Si and Ge interface calculation</i>
  <i type="int" name="ISTART">     0</i>
  <i type="logical" name="ADDGRID"> T  </i>
  <i type="int" name="ISPIN">     2</i>
  <i name="AMIX">      0.60000000</i>
  <i type="int" name="ICHARG">     2</i>
  <i type="int" name="NELM">   100</i>
  <i name="EDIFF">      0.00000010</i>
  <i name="ENCUT">    700.00000000</i>
  <i name="ENAUG">    900.00000000</i>
  <i type="int" name="NBANDS">   173</i>
  <i name="NUPDOWN">      1.00000000</i>
  <i name="NELECT">    288.00000000</i>
  <i type="string" name="LREAL">AUTO</i>
  <i type="int" name="ISMEAR">     0</i>
  <i name="SIGMA">      0.01000000</i>
  <i type="int" name="LMAXMIX">     6</i>
  <i type="logical" name="LWAVE"> F  </i>
  <i type="logical" name="LVTOT"> F  </i>
  <i type="logical" name="LVHAR"> T  </i>
  <i type="logical" name="LASPH"> T  </i>
  <i type="logical" name="LMIXTAU"> T  </i>
 </incar>
 <primitive_cell>
  <structure name="primitive_cell" >
   <crystal>
    <varray name="basis" >
     <v>      -4.00066972       0.00000000       0.00000000 </v>
     <v>       0.00000000       0.00000000      13.26432228 </v>
     <v>       0.00000000      16.00267601       0.00000000 </v>
    </varray>
    <i name="volume">    849.20076626 </i>
    <varray name="rec_basis" >
     <v>      -0.24995815       0.00000000       0.00000000 </v>
     <v>       0.00000000       0.00000000       0.07539021 </v>
     <v>       0.00000000       0.06248955       0.00000000 </v>
    </varray>
   </crystal>
   <varray name="positions" >
    <v>       0.98291655       0.00000000       0.99572915 </v>
    <v>       0.48291669       0.21327135       0.87072915 </v>
    <v>       0.98291684       0.42654276       0.74572921 </v>
    <v>       0.98291657       0.00000000       0.24572913 </v>
    <v>       0.48291669       0.21327135       0.12072913 </v>
    <v>       0.98291684       0.42654276       0.99572915 </v>
    <v>       0.98291652       0.00000000       0.49572909 </v>
    <v>       0.48291669       0.21327135       0.37072912 </v>
    <v>       0.98291660       0.42654276       0.24572916 </v>
    <v>       0.98291652       0.00000000       0.74572915 </v>
    <v>       0.48291675       0.21327135       0.62072915 </v>
    <v>       0.98291660       0.42654276       0.49572912 </v>
    <v>       0.98291660       0.10663567       0.12072916 </v>
    <v>       0.48291669       0.31990707       0.99572915 </v>
    <v>       0.98291660       0.53317845       0.87072915 </v>
    <v>       0.98291660       0.10663567       0.37072912 </v>
    <v>       0.48291693       0.31990707       0.24572912 </v>
    <v>       0.98291660       0.53317845       0.12072913 </v>
    <v>       0.98291684       0.10663567       0.62072909 </v>
    <v>       0.48291693       0.31990707       0.49572909 </v>
    <v>       0.98291660       0.53317845       0.37072909 </v>
    <v>       0.98291684       0.10663567       0.87072909 </v>
    <v>       0.48291693       0.31990707       0.74572909 </v>
    <v>       0.98291660       0.53317845       0.62072915 </v>
    <v>       0.22880061       0.64595544       0.22659838 </v>
    <v>       0.72880034       0.69420898       0.83770943 </v>
    <v>       0.22880038       0.74246252       0.44882053 </v>
    <v>       0.72880011       0.79071599       0.05993152 </v>
    <v>       0.22879966       0.83896941       0.67104244 </v>
    <v>       0.72879963       0.88722289       0.28215349 </v>
    <v>       0.72880011       0.64595544       0.97659844 </v>
    <v>       0.22880038       0.69420898       0.58770943 </v>
    <v>       0.72880011       0.74246246       0.19882059 </v>
    <v>       0.22879990       0.79071599       0.80993146 </v>
    <v>       0.72879987       0.83896941       0.42104244 </v>
    <v>       0.22879990       0.88722295       0.03215337 </v>
   </varray>
  </structure>
  <varray name="primitive_index" >
   <v type="int" >        1 </v>
   <v type="int" >        2 </v>
   <v type="int" >       27 </v>
   <v type="int" >       28 </v>
   <v type="int" >       29 </v>
   <v type="int" >        6 </v>
   <v type="int" >        7 </v>
   <v type="int" >        8 </v>
   <v type="int" >       33 </v>
   <v type="int" >       34 </v>
   <v type="int" >       35 </v>
   <v type="int" >       12 </v>
   <v type="int" >       13 </v>
   <v type="int" >       14 </v>
   <v type="int" >       39 </v>
   <v type="int" >       40 </v>
   <v type="int" >       41 </v>
   <v type="int" >       18 </v>
   <v type="int" >       19 </v>
   <v type="int" >       20 </v>
   <v type="int" >       45 </v>
   <v type="int" >       46 </v>
   <v type="int" >       47 </v>
   <v type="int" >       24 </v>
   <v type="int" >       67 </v>
   <v type="int" >       68 </v>
   <v type="int" >       51 </v>
   <v type="int" >       52 </v>
   <v type="int" >       71 </v>
   <v type="int" >       72 </v>
   <v type="int" >       55 </v>
   <v type="int" >       62 </v>
   <v type="int" >       63 </v>
   <v type="int" >       58 </v>
   <v type="int" >       59 </v>
   <v type="int" >       66 </v>
  </varray>
 </primitive_cell>
 <kpoints>
  <generation param="Gamma">
   <v type="int" name="divisions">       4        2        2 </v>
   <v name="usershift">      0.00000000       0.00000000       0.00000000 </v>
   <v name="genvec1">      0.25000000       0.00000000       0.00000000 </v>
   <v name="genvec2">      0.00000000       0.50000000       0.00000000 </v>
   <v name="genvec3">      0.00000000       0.00000000       0.50000000 </v>
   <v name="shift">      0.00000000       0.00000000       0.00000000 </v>
  </generation>
  <varray name="kpointlist" >
   <v>       0.00000000       0.00000000       0.00000000 </v>
   <v>       0.25000000       0.00000000       0.00000000 </v>
   <v>       0.50000000       0.00000000       0.00000000 </v>
   <v>       0.00000000       0.50000000       0.00000000 </v>
   <v>       0.25000000       0.50000000       0.00000000 </v>
   <v>       0.50000000       0.50000000       0.00000000 </v>
   <v>       0.00000000       0.00000000       0.50000000 </v>
   <v>       0.25000000       0.00000000       0.50000000 </v>
   <v>       0.50000000       0.00000000       0.50000000 </v>
   <v>       0.00000000       0.50000000       0.50000000 </v>
   <v>       0.25000000       0.50000000       0.50000000 </v>
   <v>       0.50000000       0.50000000       0.50000000 </v>
  </varray>
  <varray name="weights" >
   <v>       0.06250000 </v>
   <v>       0.12500000 </v>
   <v>       0.06250000 </v>
   <v>       0.06250000 </v>
   <v>       0.12500000 </v>
   <v>       0.06250000 </v>
   <v>       0.06250000 </v>
   <v>       0.12500000 </v>
   <v>       0.06250000 </v>
   <v>       0.06250000 </v>
   <v>       0.12500000 </v>
   <v>       0.06250000 </v>
  </varray>
 </kpoints>
 <parameters>
  <separator name="general" >
   <i type="string" name="SYSTEM">Si and Ge interface calculation</i>
   <i type="logical" name="LCOMPAT"> F  </i>
  </separator>
  <separator name="electronic" >
   <i type="string" name="PREC">normal</i>
   <i name="ENMAX">    700.00000000</i>
   <i name="ENAUG">    900.00000000</i>
   <i name="EDIFF">      0.00000010</i>
   <i type="int" name="IALGO">    38</i>
   <i type="int" name="IWAVPR">    10</i>
   <i type="int" name="NBANDS">   176</i>
   <i type="int" name="NBANDSLOW">    -1</i>
   <i type="int" name="NBANDSHIGH">    -1</i>
   <i name="NELECT">    288.00000000</i>
   <i type="int" name="TURBO">     0</i>
   <i type="int" name="IRESTART">     0</i>
   <i type="int" name="NREBOOT">     0</i>
   <i type="int" name="NMIN">     0</i>
   <i name="EREF">      0.00000000</i>
   <separator name="electronic smearing" >
    <i type="int" name="ISMEAR">     0</i>
    <i name="SIGMA">      0.01000000</i>
    <i name="KSPACING">      0.50000000</i>
    <i type="logical" name="KGAMMA"> T  </i>
    <i type="logical" name="KBLOWUP"> T  </i>
   </separator>
   <separator name="electronic projectors" >
    <i type="logical" name="LREAL"> T  </i>
    <v name="ROPT">     -0.00050000     -0.00050000</v>
    <i type="int" name="LMAXPAW">  -100</i>
    <i type="int" name="LMAXMIX">     6</i>
    <i type="logical" name="NLSPLINE"> F  </i>
   </separator>
   <separator name="electronic startup" >
    <i type="int" name="ISTART">     0</i>
    <i type="int" name="ICHARG">     2</i>
    <i type="int" name="INIWAV">     1</i>
   </separator>
   <separator name="electronic spin" >
    <i type="int" name="ISPIN">     2</i>
    <i type="logical" name="LNONCOLLINEAR"> F  </i>
    <v name="MAGMOM">      0.01388889      0.01388889      0.01388889      0.01388889      0.01388889      0.01388889      0.01388889      0.01388889      0.01388889      0.01388889      0.01388889      0.01388889      0.01388889      0.01388889      0.01388889      0.01388889      0.01388889      0.01388889      0.01388889      0.01388889
      0.01388889      0.01388889      0.01388889      0.01388889      0.01388889      0.01388889      0.01388889      0.01388889      0.01388889      0.01388889      0.01388889      0.01388889      0.01388889      0.01388889      0.01388889      0.01388889      0.01388889      0.01388889      0.01388889      0.01388889
      0.01388889      0.01388889      0.01388889      0.01388889      0.01388889      0.01388889      0.01388889      0.01388889      0.01388889      0.01388889      0.01388889      0.01388889      0.01388889      0.01388889      0.01388889      0.01388889      0.01388889      0.01388889      0.01388889      0.01388889
      0.01388889      0.01388889      0.01388889      0.01388889      0.01388889      0.01388889      0.01388889      0.01388889      0.01388889      0.01388889      0.01388889      0.01388889</v>
    <i name="NUPDOWN">      1.00000000</i>
    <i type="logical" name="LSORBIT"> F  </i>
    <v name="SAXIS">      0.00000000      0.00000000      1.00000000</v>
    <i type="logical" name="LSPIRAL"> F  </i>
    <v name="QSPIRAL">      0.00000000      0.00000000      0.00000000</v>
    <i type="logical" name="LZEROZ"> F  </i>
   </separator>
   <separator name="electronic exchange-correlation" >
    <i type="logical" name="LASPH"> T  </i>
   </separator>
   <separator name="electronic convergence" >
    <i type="int" name="NELM">   100</i>
    <i type="int" name="NELMDL">    -5</i>
    <i type="int" name="NELMIN">     2</i>
    <i name="ENINI">    700.00000000</i>
    <separator name="electronic convergence detail" >
     <i type="logical" name="LDIAG"> T  </i>
     <i type="logical" name="LSUBROT"> F  </i>
     <i name="WEIMIN">      0.00000000</i>
     <i name="EBREAK">      0.00000000</i>
     <i name="DEPER">      0.30000000</i>
     <i type="int" name="NRMM">     4</i>
     <i name="TIME">      0.40000000</i>
    </separator>
   </separator>
   <separator name="electronic mixer" >
    <i name="AMIX">      0.60000000</i>
    <i name="BMIX">      1.00000000</i>
    <i name="AMIN">      0.10000000</i>
    <i name="AMIX_MAG">      2.40000000</i>
    <i name="BMIX_MAG">      1.00000000</i>
    <separator name="electronic mixer details" >
     <i type="int" name="IMIX">     4</i>
     <i type="logical" name="MIXFIRST"> F  </i>
     <i type="int" name="MAXMIX">   -45</i>
     <i name="WC">    100.00000000</i>
     <i type="int" name="INIMIX">     1</i>
     <i type="int" name="MIXPRE">     1</i>
     <i type="int" name="MREMOVE">     5</i>
    </separator>
   </separator>
   <separator name="electronic dipolcorrection" >
    <i type="logical" name="LDIPOL"> F  </i>
    <i type="logical" name="LMONO"> F  </i>
    <i type="int" name="IDIPOL">     0</i>
    <i name="EPSILON">      1.00000000</i>
    <v name="DIPOL">   -100.00000000   -100.00000000   -100.00000000</v>
    <i name="EFIELD">      0.00000000</i>
    <i type="logical" name="LVACPOTAV"> F  </i>
   </separator>
  </separator>
  <separator name="grids" >
   <i type="int" name="NGX">    54</i>
   <i type="int" name="NGY">   108</i>
   <i type="int" name="NGZ">    90</i>
   <i type="int" name="NGXF">   108</i>
   <i type="int" name="NGYF">   216</i>
   <i type="int" name="NGZF">   180</i>
   <i type="logical" name="ADDGRID"> T  </i>
  </separator>
  <separator name="ionic" >
   <i type="int" name="NSW">     0</i>
   <i type="int" name="IBRION">    -1</i>
   <i type="int" name="MDALGO">     0</i>
   <i type="int" name="ISIF">     2</i>
   <i name="PSTRESS">      0.00000000</i>
   <i name="EDIFFG">      0.00000100</i>
   <i type="int" name="NFREE">     0</i>
   <i name="POTIM">      0.50000000</i>
   <i name="SMASS">     -3.00000000</i>
   <i name="SCALEE">      1.00000000</i>
  </separator>
  <separator name="ionic md" >
   <i name="TEBEG">      0.00010000</i>
   <i name="TEEND">      0.00010000</i>
   <i type="int" name="NBLOCK">     1</i>
   <i type="int" name="KBLOCK">     1</i>
   <i type="int" name="NPACO">   256</i>
   <i name="APACO">     10.00000000</i>
  </separator>
  <separator name="symmetry" >
   <i type="int" name="ISYM">     2</i>
   <i name="SYMPREC">      0.00001000</i>
  </separator>
  <separator name="dos" >
   <i type="int" name="LORBIT">     0</i>
   <v name="RWIGS">     -1.00000000     -1.00000000</v>
   <i type="int" name="NEDOS">   301</i>
   <i name="EMIN">     10.00000000</i>
   <i name="EMAX">    -10.00000000</i>
   <i name="EFERMI">      0.00000000</i>
  </separator>
  <separator name="writing" >
   <i type="int" name="NWRITE">     2</i>
   <i type="logical" name="LWAVE"> F  </i>
   <i type="logical" name="LDOWNSAMPLE"> F  </i>
   <i type="logical" name="LCHARG"> T  </i>
   <i type="logical" name="LPARD"> F  </i>
   <i type="logical" name="LVTOT"> F  </i>
   <i type="logical" name="LVHAR"> T  </i>
   <i type="logical" name="LELF"> F  </i>
   <i type="logical" name="LOPTICS"> F  </i>
   <v name="STM">      0.00000000      0.00000000      0.00000000      0.00000000      0.00000000      0.00000000      0.00000000</v>
  </separator>
  <separator name="performance" >
   <i type="int" name="NPAR">     4</i>
   <i type="int" name="NSIM">     4</i>
   <i type="int" name="NBLK">    -1</i>
   <i type="logical" name="LPLANE"> T  </i>
   <i type="logical" name="LSCALAPACK"> T  </i>
   <i type="logical" name="LSCAAWARE"> F  </i>
   <i type="logical" name="LSCALU"> F  </i>
   <i type="logical" name="LASYNC"> F  </i>
   <i type="logical" name="LORBITALREAL"> F  </i>
  </separator>
  <separator name="miscellaneous" >
   <i type="int" name="IDIOT">     3</i>
   <i type="int" name="PHON_NSTRUCT">    -1</i>
   <i type="logical" name="LMUSIC"> F  </i>
   <v name="POMASS">     72.61000000     28.08500000</v>
   <v name="DARWINR">      0.00000000      0.00000000</v>
   <v name="DARWINV">      1.00000000      1.00000000</v>
   <i type="logical" name="LCORR"> T  </i>
  </separator>
  <i type="logical" name="GGA_COMPAT"> T  </i>
  <i type="logical" name="LBERRY"> F  </i>
  <i type="int" name="ICORELEVEL">     0</i>
  <i type="logical" name="LDAU"> F  </i>
  <i type="int" name="I_CONSTRAINED_M">     0</i>
  <separator name="electronic exchange-correlation" >
   <i type="string" name="GGA    ">PE</i>
   <i type="string" name="XC_C">1</i>
   <i type="int" name="VOSKOWN">     0</i>
   <i type="logical" name="LHFCALC"> F  </i>
   <i type="string" name="PRECFOCK"></i>
   <i type="logical" name="LSYMGRAD"> F  </i>
   <i type="logical" name="LHFONE"> F  </i>
   <i type="logical" name="LRHFCALC"> F  </i>
   <i type="logical" name="LTHOMAS"> F  </i>
   <i type="logical" name="LMODELHF"> F  </i>
   <i type="logical" name="LFOCKACE"> F  </i>
   <i name="ENCUT4O">     -1.00000000</i>
   <i type="int" name="EXXOEP">     0</i>
   <i type="int" name="FOURORBIT">     0</i>
   <i name="AEXX">      0.00000000</i>
   <i name="HFALPHA">      0.00000000</i>
   <i name="MCALPHA">      0.00000000</i>
   <i name="ALDAX">      1.00000000</i>
   <i name="AGGAX">      1.00000000</i>
   <i name="AMGGAX">      1.00000000</i>
   <i name="ALDAC">      1.00000000</i>
   <i name="AGGAC">      1.00000000</i>
   <i name="AMGGAC">      1.00000000</i>
   <i type="int" name="NKREDX">     1</i>
   <i type="int" name="NKREDY">     1</i>
   <i type="int" name="NKREDZ">     1</i>
   <i type="logical" name="SHIFTRED"> F  </i>
   <i type="logical" name="ODDONLY"> F  </i>
   <i type="logical" name="EVENONLY"> F  </i>
   <i type="int" name="LMAXFOCK">     0</i>
   <i type="int" name="NMAXFOCKAE">     0</i>
   <i type="logical" name="LFOCKAEDFT"> F  </i>
   <i name="HFSCREEN">      0.00000000</i>
   <i name="HFSCREENC">      0.00000000</i>
   <i type="int" name="NBANDSGWLOW">     0</i>
  </separator>
  <separator name="vdW DFT" >
   <i type="logical" name="LUSE_VDW"> F  </i>
   <i type="int" name="IVDW_NL">    -1</i>
   <i type="logical" name="LSPIN_VDW"> F  </i>
   <i name="ZAB_VDW">     -0.84910000</i>
   <i name="GAMMA_VDW">      1.39626340</i>
   <i name="ALPHA_VDW">      0.00000000</i>
   <i name="PARAM1">      0.12340000</i>
   <i name="PARAM2">      1.00000000</i>
   <i name="BPARAM">      6.30000000</i>
   <i name="CPARAM">      0.00930000</i>
  </separator>
  <separator name="model GW" >
   <i type="int" name="MODEL_GW">     0</i>
   <i name="MODEL_EPS0">     14.15334356</i>
   <i name="MODEL_ALPHA">      1.00000000</i>
  </separator>
  <separator name="linear response parameters" >
   <i type="logical" name="LEPSILON"> F  </i>
   <i type="logical" name="LRPA"> F  </i>
   <i type="logical" name="LNABLA"> F  </i>
   <i type="logical" name="LVEL"> F  </i>
   <i name="CSHIFT">      0.10000000</i>
   <i name="OMEGAMAX">     -1.00000000</i>
   <i name="DEG_THRESHOLD">      0.00200000</i>
   <i name="RTIME">     -0.10000000</i>
   <i name="WPLASMAI">      0.00000000</i>
   <v name="DFIELD">      0.00000000      0.00000000      0.00000000</v>
   <v name="WPLASMA">      0.00000000      0.00000000      0.00000000      0.00000000      0.00000000      0.00000000      0.00000000      0.00000000      0.00000000</v>
  </separator>
  <separator name="orbital magnetization" >
   <i type="logical" name="NUCIND"> F  </i>
   <v name="MAGPOS">      0.00000000      0.00000000      0.00000000</v>
   <i type="logical" name="LNICSALL"> T  </i>
   <i type="logical" name="ORBITALMAG"> F  </i>
   <i type="logical" name="LMAGBLOCH"> F  </i>
   <i type="logical" name="LCHIMAG"> F  </i>
   <i type="logical" name="LGAUGE"> T  </i>
   <i type="int" name="MAGATOM">     0</i>
   <v name="MAGDIPOL">      0.00000000      0.00000000      0.00000000</v>
   <v name="AVECCONST">      0.00000000      0.00000000      0.00000000</v>
  </separator>
  <separator name="response functions" >
   <i type="logical" name="LALL_IN_ONE"> F  </i>
   <i type="int" name="IALL_IN_ONE">    -1</i>
   <i type="int" name="NBANDS_WAVE">    -1</i>
   <i type="logical" name="LFINITE_TEMPERATURE"> F  </i>
   <i type="logical" name="LADDER"> F  </i>
   <i type="logical" name="LRPAFORCE"> F  </i>
   <i type="logical" name="LFXC"> F  </i>
   <i type="logical" name="LHARTREE"> T  </i>
   <i type="int" name="IBSE">     0</i>
   <v type="int" name="KPOINT">    -1     0     0     0</v>
   <i type="logical" name="LTCTC"> F  </i>
   <i type="logical" name="LTCTE"> F  </i>
   <i type="logical" name="LTETE"> F  </i>
   <i type="logical" name="LTRIPLET"> F  </i>
   <i type="logical" name="LFXCEPS"> F  </i>
   <i type="logical" name="LFXHEG"> F  </i>
   <i type="int" name="NATURALO">     2</i>
   <i type="logical" name="LHOLEGF"> F  </i>
   <i type="logical" name="L2ORDER"> F  </i>
   <i type="logical" name="LDMP1"> F  </i>
   <i type="logical" name="LMP2LT"> F  </i>
   <i type="logical" name="LSMP2LT"> F  </i>
   <i type="logical" name="LGWLF"> F  </i>
   <i name="ENCUTGW">     -1.60000002</i>
   <i name="ENCUTGWSOFT">     -1.60000002</i>
   <i name="ENCUTLF">     -1.00000000</i>
   <i type="logical" name="ESF_SPLINES"> F  </i>
   <i name="ESF_CONV">      0.01000000</i>
   <i type="int" name="ESF_NINTER">    15</i>
   <i type="int" name="LMAXMP2">    -1</i>
   <i name="SCISSOR">      0.00000000</i>
   <i type="int" name="NOMEGA">     0</i>
   <i type="int" name="NOMEGAR">     0</i>
   <i type="int" name="NBANDSGW">    -1</i>
   <i type="int" name="NBANDSO">    -1</i>
   <i type="int" name="NBANDSV">    -1</i>
   <i type="int" name="NELMGW">     1</i>
   <i type="int" name="NELMHF">     1</i>
   <i type="int" name="DIM">     3</i>
   <i type="int" name="IESPILON">     4</i>
   <i type="int" name="ANTIRES">     0</i>
   <i name="OMEGAMAX">    -30.00000000</i>
   <i name="OMEGAMIN">    -30.00000000</i>
   <i name="OMEGATL">   -200.00000000</i>
   <i type="int" name="OMEGAGRID">     0</i>
   <i name="CSHIFT">     -0.10000000</i>
   <i type="logical" name="LSELFENERGY"> F  </i>
   <i type="logical" name="LSPECTRAL"> F  </i>
   <i type="logical" name="LSPECTRALGW"> F  </i>
   <i type="logical" name="LSINGLES"> F  </i>
   <i type="logical" name="LFERMIGW"> F  </i>
   <i type="logical" name="ODDONLYGW"> F  </i>
   <i type="logical" name="EVENONLYGW"> F  </i>
   <i type="int" name="NKREDLFX">     1</i>
   <i type="int" name="NKREDLFY">     1</i>
   <i type="int" name="NKREDLFZ">     1</i>
   <i type="int" name="MAXMEM">  2800</i>
   <i type="int" name="TELESCOPE">     0</i>
   <i type="int" name="NTAUPAR">    -1</i>
   <i type="int" name="NOMEGAPAR">    -1</i>
   <i name="DAMP_NEWTON">      0.80000001</i>
   <i name="LAMBDA">      1.00000000</i>
  </separator>
  <separator name="External order field" >
   <i name="OFIELD_KAPPA">      0.00000000</i>
   <v name="OFIELD_K">      0.00000000      0.00000000      0.00000000</v>
   <i name="OFIELD_Q6_NEAR">      0.00000000</i>
   <i name="OFIELD_Q6_FAR">      0.00000000</i>
   <i name="OFIELD_A">      0.00000000</i>
  </separator>
  <separator name="optional k-points parameters" >
   <i type="int" name="KPOINTS_OPT_MODE">     1</i>
   <i type="logical" name="LKPOINTS_OPT"> F  </i>
  </separator>
 </parameters>
 <atominfo>
  <atoms>      72 </atoms>
  <types>       2 </types>
  <array name="atoms" >
   <dimension dim="1">ion</dimension>
   <field type="string">element</field>
   <field type="int">atomtype</field>
   <set>
    <rc><c>Ge</c><c>   1</c></rc>
    <rc><c>Ge</c><c>   1</c></rc>
    <rc><c>Ge</c><c>   1</c></rc>
    <rc><c>Ge</c><c>   1</c></rc>
    <rc><c>Ge</c><c>   1</c></rc>
    <rc><c>Ge</c><c>   1</c></rc>
    <rc><c>Ge</c><c>   1</c></rc>
    <rc><c>Ge</c><c>   1</c></rc>
    <rc><c>Ge</c><c>   1</c></rc>
    <rc><c>Ge</c><c>   1</c></rc>
    <rc><c>Ge</c><c>   1</c></rc>
    <rc><c>Ge</c><c>   1</c></rc>
    <rc><c>Ge</c><c>   1</c></rc>
    <rc><c>Ge</c><c>   1</c></rc>
    <rc><c>Ge</c><c>   1</c></rc>
    <rc><c>Ge</c><c>   1</c></rc>
    <rc><c>Ge</c><c>   1</c></rc>
    <rc><c>Ge</c><c>   1</c></rc>
    <rc><c>Ge</c><c>   1</c></rc>
    <rc><c>Ge</c><c>   1</c></rc>
    <rc><c>Ge</c><c>   1</c></rc>
    <rc><c>Ge</c><c>   1</c></rc>
    <rc><c>Ge</c><c>   1</c></rc>
    <rc><c>Ge</c><c>   1</c></rc>
    <rc><c>Ge</c><c>   1</c></rc>
    <rc><c>Ge</c><c>   1</c></rc>
    <rc><c>Ge</c><c>   1</c></rc>
    <rc><c>Ge</c><c>   1</c></rc>
    <rc><c>Ge</c><c>   1</c></rc>
    <rc><c>Ge</c><c>   1</c></rc>
    <rc><c>Ge</c><c>   1</c></rc>
    <rc><c>Ge</c><c>   1</c></rc>
    <rc><c>Ge</c><c>   1</c></rc>
    <rc><c>Ge</c><c>   1</c></rc>
    <rc><c>Ge</c><c>   1</c></rc>
    <rc><c>Ge</c><c>   1</c></rc>
    <rc><c>Ge</c><c>   1</c></rc>
    <rc><c>Ge</c><c>   1</c></rc>
    <rc><c>Ge</c><c>   1</c></rc>
    <rc><c>Ge</c><c>   1</c></rc>
    <rc><c>Ge</c><c>   1</c></rc>
    <rc><c>Ge</c><c>   1</c></rc>
    <rc><c>Ge</c><c>   1</c></rc>
    <rc><c>Ge</c><c>   1</c></rc>
    <rc><c>Ge</c><c>   1</c></rc>
    <rc><c>Ge</c><c>   1</c></rc>
    <rc><c>Ge</c><c>   1</c></rc>
    <rc><c>Ge</c><c>   1</c></rc>
    <rc><c>Si</c><c>   2</c></rc>
    <rc><c>Si</c><c>   2</c></rc>
    <rc><c>Si</c><c>   2</c></rc>
    <rc><c>Si</c><c>   2</c></rc>
    <rc><c>Si</c><c>   2</c></rc>
    <rc><c>Si</c><c>   2</c></rc>
    <rc><c>Si</c><c>   2</c></rc>
    <rc><c>Si</c><c>   2</c></rc>
    <rc><c>Si</c><c>   2</c></rc>
    <rc><c>Si</c><c>   2</c></rc>
    <rc><c>Si</c><c>   2</c></rc>
    <rc><c>Si</c><c>   2</c></rc>
    <rc><c>Si</c><c>   2</c></rc>
    <rc><c>Si</c><c>   2</c></rc>
    <rc><c>Si</c><c>   2</c></rc>
    <rc><c>Si</c><c>   2</c></rc>
    <rc><c>Si</c><c>   2</c></rc>
    <rc><c>Si</c><c>   2</c></rc>
    <rc><c>Si</c><c>   2</c></rc>
    <rc><c>Si</c><c>   2</c></rc>
    <rc><c>Si</c><c>   2</c></rc>
    <rc><c>Si</c><c>   2</c></rc>
    <rc><c>Si</c><c>   2</c></rc>
    <rc><c>Si</c><c>   2</c></rc>
   </set>
  </array>
  <array name="atomtypes" >
   <dimension dim="1">type</dimension>
   <field type="int">atomspertype</field>
   <field type="string">element</field>
   <field>mass</field>
   <field>valence</field>
   <field type="string">pseudopotential</field>
   <set>
    <rc><c>  48</c><c>Ge</c><c>     72.61000000</c><c>      4.00000000</c><c>  PAW_PBE Ge 05Jan2001                  </c></rc>
    <rc><c>  24</c><c>Si</c><c>     28.08500000</c><c>      4.00000000</c><c>  PAW_PBE Si 05Jan2001                  </c></rc>
   </set>
  </array>
 </atominfo>
 <structure name="initialpos" >
  <crystal>
   <varray name="basis" >
    <v>       8.00133800       0.00000000       0.00000000 </v>
    <v>       0.00000000      16.00267601       0.00000000 </v>
    <v>       0.00000000       0.00000000      13.26432228 </v>
   </varray>
   <i name="volume">   1698.40122681 </i>
   <varray name="rec_basis" >
    <v>       0.12497910       0.00000000       0.00000000 </v>
    <v>       0.00000000       0.06248955       0.00000000 </v>
    <v>       0.00000000       0.00000000       0.07539021 </v>
   </varray>
  </crystal>
  <varray name="positions" >
   <v>       0.00854173       0.99572915       0.00000000 </v>
   <v>       0.25854170       0.87072915       0.21327135 </v>
   <v>       0.50854170       0.74572915       0.42654276 </v>
   <v>       0.50854170       0.24572912       0.00000000 </v>
   <v>       0.75854164       0.12072913       0.21327135 </v>
   <v>       0.00854158       0.99572915       0.42654276 </v>
   <v>       0.00854174       0.49572909       0.00000000 </v>
   <v>       0.25854170       0.37072912       0.21327135 </v>
   <v>       0.50854170       0.24572912       0.42654276 </v>
   <v>       0.50854170       0.74572909       0.00000000 </v>
   <v>       0.75854164       0.62072909       0.21327135 </v>
   <v>       0.00854170       0.49572912       0.42654276 </v>
   <v>       0.00854170       0.12072916       0.10663567 </v>
   <v>       0.25854170       0.99572915       0.31990707 </v>
   <v>       0.50854170       0.87072915       0.53317845 </v>
   <v>       0.50854176       0.37072912       0.10663567 </v>
   <v>       0.75854170       0.24572915       0.31990707 </v>
   <v>       0.00854170       0.12072913       0.53317845 </v>
   <v>       0.00854158       0.62072909       0.10663567 </v>
   <v>       0.25854158       0.49572909       0.31990707 </v>
   <v>       0.50854158       0.37072906       0.53317845 </v>
   <v>       0.50854170       0.87072915       0.10663567 </v>
   <v>       0.75854170       0.74572915       0.31990707 </v>
   <v>       0.00854170       0.62072915       0.53317845 </v>
   <v>       0.50854170       0.99572915       0.00000000 </v>
   <v>       0.75854164       0.87072915       0.21327135 </v>
   <v>       0.00854158       0.74572921       0.42654276 </v>
   <v>       0.00854172       0.24572913       0.00000000 </v>
   <v>       0.25854170       0.12072913       0.21327135 </v>
   <v>       0.50854170       0.99572915       0.42654276 </v>
   <v>       0.50854170       0.49572915       0.00000000 </v>
   <v>       0.75854170       0.37072915       0.21327135 </v>
   <v>       0.00854170       0.24572916       0.42654276 </v>
   <v>       0.00854174       0.74572915       0.00000000 </v>
   <v>       0.25854167       0.62072915       0.21327135 </v>
   <v>       0.50854170       0.49572915       0.42654276 </v>
   <v>       0.50854170       0.12072913       0.10663567 </v>
   <v>       0.75854170       0.99572915       0.31990707 </v>
   <v>       0.00854170       0.87072915       0.53317845 </v>
   <v>       0.00854170       0.37072912       0.10663567 </v>
   <v>       0.25854158       0.24572912       0.31990707 </v>
   <v>       0.50854170       0.12072911       0.53317845 </v>
   <v>       0.50854170       0.62072909       0.10663567 </v>
   <v>       0.75854164       0.49572912       0.31990707 </v>
   <v>       0.00854170       0.37072909       0.53317845 </v>
   <v>       0.00854158       0.87072909       0.10663567 </v>
   <v>       0.25854158       0.74572909       0.31990707 </v>
   <v>       0.50854158       0.62072909       0.53317845 </v>
   <v>       0.38559988       0.22659838       0.64595544 </v>
   <v>       0.63559997       0.83770943       0.69420898 </v>
   <v>       0.88559997       0.44882053       0.74246252 </v>
   <v>       0.13559997       0.05993152       0.79071599 </v>
   <v>       0.38560006       0.67104256       0.83896953 </v>
   <v>       0.63560021       0.28215325       0.88722289 </v>
   <v>       0.13559997       0.97659844       0.64595544 </v>
   <v>       0.38559994       0.58770943       0.69420898 </v>
   <v>       0.63559997       0.19882059       0.74246246 </v>
   <v>       0.88560021       0.80993146       0.79071599 </v>
   <v>       0.13560009       0.42104244       0.83896941 </v>
   <v>       0.38560030       0.03215337       0.88722295 </v>
   <v>       0.63559997       0.97659844       0.64595544 </v>
   <v>       0.88559997       0.58770943       0.69420898 </v>
   <v>       0.13559997       0.19882059       0.74246246 </v>
   <v>       0.38560006       0.80993146       0.79071599 </v>
   <v>       0.63560009       0.42104244       0.83896941 </v>
   <v>       0.88560021       0.03215337       0.88722295 </v>
   <v>       0.88559985       0.22659838       0.64595544 </v>
   <v>       0.13559985       0.83770943       0.69420898 </v>
   <v>       0.38559994       0.44882053       0.74246252 </v>
   <v>       0.63559997       0.05993152       0.79071599 </v>
   <v>       0.88560033       0.67104244       0.83896941 </v>
   <v>       0.13560021       0.28215349       0.88722289 </v>
  </varray>
 </structure>
 <calculation>
  <scstep>
   <time name="dav">   13.52   13.63</time>
   <time name="total">   14.71   14.83</time>
   <energy>
    <i name="alphaZ">    423.17631592 </i>
    <i name="ewald">  -7549.10181534 </i>
    <i name="hartreedc">   -664.20501295 </i>
    <i name="XCdc">   -591.88781702 </i>
    <i name="pawpsdc">   6345.93939393 </i>
    <i name="pawaedc">  -5228.29706555 </i>
    <i name="eentropy">     -0.00054473 </i>
    <i name="bandstr">   1023.97044667 </i>
    <i name="atom">   7513.40264132 </i>
    <i name="e_fr_energy">   1272.99654225 </i>
    <i name="e_wo_entrp">   1272.99708698 </i>
    <i name="e_0_energy">   1272.99681462 </i>
   </energy>
  </scstep>
  <scstep>
   <time name="dav">   15.14   15.27</time>
   <time name="total">   15.15   15.28</time>
   <energy>
    <i name="e_fr_energy">   -169.27616279 </i>
    <i name="e_wo_entrp">   -169.27523707 </i>
    <i name="e_0_energy">   -169.27569993 </i>
   </energy>
  </scstep>
  <scstep>
   <time name="dav">   15.76   15.89</time>
   <time name="total">   15.76   15.89</time>
   <energy>
    <i name="e_fr_energy">   -308.90507990 </i>
    <i name="e_wo_entrp">   -308.90407136 </i>
    <i name="e_0_energy">   -308.90457563 </i>
   </energy>
  </scstep>
  <scstep>
   <time name="dav">   15.35   15.48</time>
   <time name="total">   15.35   15.48</time>
   <energy>
    <i name="e_fr_energy">   -314.18463071 </i>
    <i name="e_wo_entrp">   -314.18266813 </i>
    <i name="e_0_energy">   -314.18364942 </i>
   </energy>
  </scstep>
  <scstep>
   <time name="dav">   16.72   16.86</time>
   <time name="total">   17.52   17.66</time>
   <energy>
    <i name="e_fr_energy">   -314.37939484 </i>
    <i name="e_wo_entrp">   -314.37747857 </i>
    <i name="e_0_energy">   -314.37843670 </i>
   </energy>
  </scstep>
  <scstep>
   <time name="dav">   15.34   15.47</time>
   <time name="total">   17.27   17.41</time>
   <energy>
    <i name="e_fr_energy">   -308.96755531 </i>
    <i name="e_wo_entrp">   -308.96595997 </i>
    <i name="e_0_energy">   -308.96675764 </i>
   </energy>
  </scstep>
  <scstep>
   <time name="dav">   15.93   16.06</time>
   <time name="total">   17.85   17.99</time>
   <energy>
    <i name="e_fr_energy">   -309.23779913 </i>
    <i name="e_wo_entrp">   -309.23526981 </i>
    <i name="e_0_energy">   -309.23653447 </i>
   </energy>
  </scstep>
  <scstep>
   <time name="dav">   15.81   15.94</time>
   <time name="total">   17.73   17.87</time>
   <energy>
    <i name="e_fr_energy">   -308.20519836 </i>
    <i name="e_wo_entrp">   -308.20267390 </i>
    <i name="e_0_energy">   -308.20393613 </i>
   </energy>
  </scstep>
  <scstep>
   <time name="dav">   15.22   15.34</time>
   <time name="total">   17.13   17.27</time>
   <energy>
    <i name="e_fr_energy">   -308.10143653 </i>
    <i name="e_wo_entrp">   -308.09987588 </i>
    <i name="e_0_energy">   -308.10065621 </i>
   </energy>
  </scstep>
  <scstep>
   <time name="dav">   14.98   15.10</time>
   <time name="total">   16.91   17.05</time>
   <energy>
    <i name="e_fr_energy">   -308.08980011 </i>
    <i name="e_wo_entrp">   -308.08811801 </i>
    <i name="e_0_energy">   -308.08895906 </i>
   </energy>
  </scstep>
  <scstep>
   <time name="dav">   15.17   15.29</time>
   <time name="total">   17.08   17.21</time>
   <energy>
    <i name="e_fr_energy">   -308.08616570 </i>
    <i name="e_wo_entrp">   -308.08480665 </i>
    <i name="e_0_energy">   -308.08548617 </i>
   </energy>
  </scstep>
  <scstep>
   <time name="dav">   15.14   15.26</time>
   <time name="total">   17.04   17.17</time>
   <energy>
    <i name="e_fr_energy">   -308.08623886 </i>
    <i name="e_wo_entrp">   -308.08472424 </i>
    <i name="e_0_energy">   -308.08548155 </i>
   </energy>
  </scstep>
  <scstep>
   <time name="dav">   15.12   15.24</time>
   <time name="total">   17.02   17.16</time>
   <energy>
    <i name="e_fr_energy">   -308.08609334 </i>
    <i name="e_wo_entrp">   -308.08469750 </i>
    <i name="e_0_energy">   -308.08539542 </i>
   </energy>
  </scstep>
  <scstep>
   <time name="dav">   15.14   15.27</time>
   <time name="total">   17.06   17.20</time>
   <energy>
    <i name="e_fr_energy">   -308.08609776 </i>
    <i name="e_wo_entrp">   -308.08468526 </i>
    <i name="e_0_energy">   -308.08539151 </i>
   </energy>
  </scstep>
  <scstep>
   <time name="dav">   14.82   14.95</time>
   <time name="total">   16.74   16.87</time>
   <energy>
    <i name="e_fr_energy">   -308.08613388 </i>
    <i name="e_wo_entrp">   -308.08475634 </i>
    <i name="e_0_energy">   -308.08544511 </i>
   </energy>
  </scstep>
  <scstep>
   <time name="dav">   15.30   15.42</time>
   <time name="total">   17.22   17.36</time>
   <energy>
    <i name="e_fr_energy">   -308.08614742 </i>
    <i name="e_wo_entrp">   -308.08476605 </i>
    <i name="e_0_energy">   -308.08545674 </i>
   </energy>
  </scstep>
  <scstep>
   <time name="dav">   14.92   15.05</time>
   <time name="total">   16.86   17.00</time>
   <energy>
    <i name="e_fr_energy">   -308.08615355 </i>
    <i name="e_wo_entrp">   -308.08477622 </i>
    <i name="e_0_energy">   -308.08546489 </i>
   </energy>
  </scstep>
  <scstep>
   <time name="dav">   15.52   15.65</time>
   <time name="total">   17.44   17.58</time>
   <energy>
    <i name="e_fr_energy">   -308.08615685 </i>
    <i name="e_wo_entrp">   -308.08478304 </i>
    <i name="e_0_energy">   -308.08546994 </i>
   </energy>
  </scstep>
  <scstep>
   <time name="dav">   15.46   15.59</time>
   <time name="total">   17.41   17.55</time>
   <energy>
    <i name="e_fr_energy">   -308.08615845 </i>
    <i name="e_wo_entrp">   -308.08478601 </i>
    <i name="e_0_energy">   -308.08547223 </i>
   </energy>
  </scstep>
  <scstep>
   <time name="dav">   14.15   14.26</time>
   <time name="total">   16.07   16.20</time>
   <energy>
    <i name="e_fr_energy">   -308.08615928 </i>
    <i name="e_wo_entrp">   -308.08478839 </i>
    <i name="e_0_energy">   -308.08547384 </i>
   </energy>
  </scstep>
  <scstep>
   <time name="dav">   12.35   12.45</time>
   <time name="total">   14.28   14.39</time>
   <energy>
    <i name="e_fr_energy">   -308.08615975 </i>
    <i name="e_wo_entrp">   -308.08479002 </i>
    <i name="e_0_energy">   -308.08547489 </i>
   </energy>
  </scstep>
  <scstep>
   <time name="dav">    9.65    9.73</time>
   <time name="total">   10.79   10.87</time>
   <energy>
    <i name="alphaZ">    423.17631592 </i>
    <i name="ewald">  -7549.10181534 </i>
    <i name="hartreedc">   -765.59011529 </i>
    <i name="XCdc">   -574.37210060 </i>
    <i name="pawpsdc">  18859.00798602 </i>
    <i name="pawaedc"> -17751.00774503 </i>
    <i name="eentropy">     -0.00136927 </i>
    <i name="bandstr">   -463.59995758 </i>
    <i name="atom">   7513.40264132 </i>
    <i name="e_fr_energy">   -308.08615985 </i>
    <i name="e_wo_entrp">   -308.08479057 </i>
    <i name="e_0_energy">   -308.08547521 </i>
   </energy>
  </scstep>
  <structure>
   <crystal>
    <varray name="basis" >
     <v>       8.00133800       0.00000000       0.00000000 </v>
     <v>       0.00000000      16.00267601       0.00000000 </v>
     <v>       0.00000000       0.00000000      13.26432228 </v>
    </varray>
    <i name="volume">   1698.40122681 </i>
    <varray name="rec_basis" >
     <v>       0.12497910       0.00000000       0.00000000 </v>
     <v>       0.00000000       0.06248955       0.00000000 </v>
     <v>       0.00000000       0.00000000       0.07539021 </v>
    </varray>
   </crystal>
   <varray name="positions" >
    <v>       0.00854173       0.99572915       0.00000000 </v>
    <v>       0.25854170       0.87072915       0.21327135 </v>
    <v>       0.50854170       0.74572915       0.42654276 </v>
    <v>       0.50854170       0.24572912       0.00000000 </v>
    <v>       0.75854164       0.12072913       0.21327135 </v>
    <v>       0.00854158       0.99572915       0.42654276 </v>
    <v>       0.00854174       0.49572909       0.00000000 </v>
    <v>       0.25854170       0.37072912       0.21327135 </v>
    <v>       0.50854170       0.24572912       0.42654276 </v>
    <v>       0.50854170       0.74572909       0.00000000 </v>
    <v>       0.75854164       0.62072909       0.21327135 </v>
    <v>       0.00854170       0.49572912       0.42654276 </v>
    <v>       0.00854170       0.12072916       0.10663567 </v>
    <v>       0.25854170       0.99572915       0.31990707 </v>
    <v>       0.50854170       0.87072915       0.53317845 </v>
    <v>       0.50854176       0.37072912       0.10663567 </v>
    <v>       0.75854170       0.24572915       0.31990707 </v>
    <v>       0.00854170       0.12072913       0.53317845 </v>
    <v>       0.00854158       0.62072909       0.10663567 </v>
    <v>       0.25854158       0.49572909       0.31990707 </v>
    <v>       0.50854158       0.37072906       0.53317845 </v>
    <v>       0.50854170       0.87072915       0.10663567 </v>
    <v>       0.75854170       0.74572915       0.31990707 </v>
    <v>       0.00854170       0.62072915       0.53317845 </v>
    <v>       0.50854170       0.99572915       0.00000000 </v>
    <v>       0.75854164       0.87072915       0.21327135 </v>
    <v>       0.00854158       0.74572921       0.42654276 </v>
    <v>       0.00854172       0.24572913       0.00000000 </v>
    <v>       0.25854170       0.12072913       0.21327135 </v>
    <v>       0.50854170       0.99572915       0.42654276 </v>
    <v>       0.50854170       0.49572915       0.00000000 </v>
    <v>       0.75854170       0.37072915       0.21327135 </v>
    <v>       0.00854170       0.24572916       0.42654276 </v>
    <v>       0.00854174       0.74572915       0.00000000 </v>
    <v>       0.25854167       0.62072915       0.21327135 </v>
    <v>       0.50854170       0.49572915       0.42654276 </v>
    <v>       0.50854170       0.12072913       0.10663567 </v>
    <v>       0.75854170       0.99572915       0.31990707 </v>
    <v>       0.00854170       0.87072915       0.53317845 </v>
    <v>       0.00854170       0.37072912       0.10663567 </v>
    <v>       0.25854158       0.24572912       0.31990707 </v>
    <v>       0.50854170       0.12072911       0.53317845 </v>
    <v>       0.50854170       0.62072909       0.10663567 </v>
    <v>       0.75854164       0.49572912       0.31990707 </v>
    <v>       0.00854170       0.37072909       0.53317845 </v>
    <v>       0.00854158       0.87072909       0.10663567 </v>
    <v>       0.25854158       0.74572909       0.31990707 </v>
    <v>       0.50854158       0.62072909       0.53317845 </v>
    <v>       0.38559988       0.22659838       0.64595544 </v>
    <v>       0.63559997       0.83770943       0.69420898 </v>
    <v>       0.88559997       0.44882053       0.74246252 </v>
    <v>       0.13559997       0.05993152       0.79071599 </v>
    <v>       0.38560006       0.67104256       0.83896953 </v>
    <v>       0.63560021       0.28215325       0.88722289 </v>
    <v>       0.13559997       0.97659844       0.64595544 </v>
    <v>       0.38559994       0.58770943       0.69420898 </v>
    <v>       0.63559997       0.19882059       0.74246246 </v>
    <v>       0.88560021       0.80993146       0.79071599 </v>
    <v>       0.13560009       0.42104244       0.83896941 </v>
    <v>       0.38560030       0.03215337       0.88722295 </v>
    <v>       0.63559997       0.97659844       0.64595544 </v>
    <v>       0.88559997       0.58770943       0.69420898 </v>
    <v>       0.13559997       0.19882059       0.74246246 </v>
    <v>       0.38560006       0.80993146       0.79071599 </v>
    <v>       0.63560009       0.42104244       0.83896941 </v>
    <v>       0.88560021       0.03215337       0.88722295 </v>
    <v>       0.88559985       0.22659838       0.64595544 </v>
    <v>       0.13559985       0.83770943       0.69420898 </v>
    <v>       0.38559994       0.44882053       0.74246252 </v>
    <v>       0.63559997       0.05993152       0.79071599 </v>
    <v>       0.88560033       0.67104244       0.83896941 </v>
    <v>       0.13560021       0.28215349       0.88722289 </v>
   </varray>
  </structure>
  <varray name="forces" >
   <v>       5.55437988      -3.57003404       8.29070741 </v>
   <v>      -0.11266233      -0.02031090       0.09950732 </v>
   <v>      -0.12391345      -0.00226207       0.12240138 </v>
   <v>      -5.56973303      -2.78203562       7.63237682 </v>
   <v>       0.02027561       0.06687072       0.11596477 </v>
   <v>      -0.14901006       0.16184244      -0.23530261 </v>
   <v>       0.05992829      -0.37703803      -1.18695898 </v>
   <v>       0.10906660      -0.00895881       0.10685503 </v>
   <v>       0.32344506       0.00467737      -0.35522188 </v>
   <v>       0.08944067      -0.57323987      -1.25168008 </v>
   <v>      -0.09892598      -0.13563209       0.09604445 </v>
   <v>      -0.27635932       0.15590135       0.00013383 </v>
   <v>       0.07428519       0.05023755      -0.15723204 </v>
   <v>      -0.02292380       0.03522073      -0.27598778 </v>
   <v>      -0.64349511      -0.46430029       0.01409395 </v>
   <v>      -0.21671455       0.07574615       0.13416995 </v>
   <v>      -0.00611576       0.08066171      -0.16802272 </v>
   <v>      -0.07526721      -0.24799485       0.66532013 </v>
   <v>       0.22906599       0.15769998       0.00679165 </v>
   <v>       0.01612712      -0.05438020      -0.11246178 </v>
   <v>       0.11087914      -0.29762598       1.66778110 </v>
   <v>      -0.09596481       0.12304065       0.03563780 </v>
   <v>       0.05849983      -0.09905366      -0.16742516 </v>
   <v>       0.28578324      -0.29391939       0.76911279 </v>
   <v>       5.55437988      -3.57003404       8.29070741 </v>
   <v>      -0.11266233      -0.02031090       0.09950732 </v>
   <v>      -0.12391345      -0.00226207       0.12240138 </v>
   <v>      -5.56973303      -2.78203562       7.63237682 </v>
   <v>       0.02027561       0.06687072       0.11596477 </v>
   <v>      -0.14901006       0.16184244      -0.23530261 </v>
   <v>       0.05992829      -0.37703803      -1.18695898 </v>
   <v>       0.10906660      -0.00895881       0.10685503 </v>
   <v>       0.32344506       0.00467737      -0.35522188 </v>
   <v>       0.08944067      -0.57323987      -1.25168008 </v>
   <v>      -0.09892598      -0.13563209       0.09604445 </v>
   <v>      -0.27635932       0.15590135       0.00013383 </v>
   <v>       0.07428519       0.05023755      -0.15723204 </v>
   <v>      -0.02292380       0.03522073      -0.27598778 </v>
   <v>      -0.64349511      -0.46430029       0.01409395 </v>
   <v>      -0.21671455       0.07574615       0.13416995 </v>
   <v>      -0.00611576       0.08066171      -0.16802272 </v>
   <v>      -0.07526721      -0.24799485       0.66532013 </v>
   <v>       0.22906599       0.15769998       0.00679165 </v>
   <v>       0.01612712      -0.05438020      -0.11246178 </v>
   <v>       0.11087914      -0.29762598       1.66778110 </v>
   <v>      -0.09596481       0.12304065       0.03563780 </v>
   <v>       0.05849983      -0.09905366      -0.16742516 </v>
   <v>       0.28578324      -0.29391939       0.76911279 </v>
   <v>      -0.05725663      -0.03594888       0.01382939 </v>
   <v>       0.04518883      -0.28955859       0.65093157 </v>
   <v>       0.27717641      -0.59128828      -0.42025597 </v>
   <v>      -0.04197880      -0.13010153       0.52176354 </v>
   <v>      -0.11019631       0.25923434       0.60637695 </v>
   <v>       5.61802814       2.51276638      -7.85324293 </v>
   <v>       0.45017954       1.00414446       0.44505016 </v>
   <v>      -0.22698479       0.35204094      -0.31766039 </v>
   <v>       0.17066695       0.50469109      -0.19462754 </v>
   <v>       0.25181408       0.30614010      -0.41615202 </v>
   <v>      -0.21349632       0.92735889       0.28556485 </v>
   <v>      -5.70323231       3.19540821      -9.16818296 </v>
   <v>       0.45017954       1.00414446       0.44505016 </v>
   <v>      -0.22698479       0.35204094      -0.31766039 </v>
   <v>       0.17066695       0.50469109      -0.19462754 </v>
   <v>       0.25181408       0.30614010      -0.41615202 </v>
   <v>      -0.21349632       0.92735889       0.28556485 </v>
   <v>      -5.70323231       3.19540821      -9.16818296 </v>
   <v>      -0.05725663      -0.03594888       0.01382939 </v>
   <v>       0.04518883      -0.28955859       0.65093157 </v>
   <v>       0.27717641      -0.59128828      -0.42025597 </v>
   <v>      -0.04197880      -0.13010153       0.52176354 </v>
   <v>      -0.11019631       0.25923434       0.60637695 </v>
   <v>       5.61802814       2.51276638      -7.85324293 </v>
  </varray>
  <varray name="stress" >
   <v>      13.17778565       4.65387822       4.37273543 </v>
   <v>       4.65387557      36.70359502     -16.46467661 </v>
   <v>       4.37273343     -16.46466397      75.19540738 </v>
  </varray>
  <energy>
   <i name="e_fr_energy">   -308.08615985 </i>
   <i name="e_wo_entrp">   -308.08479057 </i>
   <i name="e_0_energy">   -308.08547521 </i>
  </energy>
  <time name="totalsc">  387.01  390.26</time>
  <eigenvalues>
   <array>
    <dimension dim="1">band</dimension>
    <dimension dim="2">kpoint</dimension>
    <dimension dim="3">spin</dimension>
    <field>eigene</field>
    <field>occ</field>
    <set>
     <set comment="spin 1">
      <set comment="kpoint 1">
       <r>   -8.8603    1.0000 </r>
       <r>   -8.4019    1.0000 </r>
       <r>   -8.3350    1.0000 </r>
       <r>   -8.1252    1.0000 </r>
       <r>   -7.8367    1.0000 </r>
       <r>   -7.7394    1.0000 </r>
       <r>   -7.7335    1.0000 </r>
       <r>   -7.4329    1.0000 </r>
       <r>   -7.4289    1.0000 </r>
       <r>   -7.3403    1.0000 </r>
       <r>   -7.2756    1.0000 </r>
       <r>   -7.0896    1.0000 </r>
       <r>   -7.0567    1.0000 </r>
       <r>   -7.0309    1.0000 </r>
       <r>   -6.9158    1.0000 </r>
       <r>   -6.7687    1.0000 </r>
       <r>   -6.7393    1.0000 </r>
       <r>   -6.5531    1.0000 </r>
       <r>   -6.5450    1.0000 </r>
       <r>   -6.5380    1.0000 </r>
       <r>   -6.5141    1.0000 </r>
       <r>   -6.0752    1.0000 </r>
       <r>   -5.9853    1.0000 </r>
       <r>   -5.9342    1.0000 </r>
       <r>   -5.7838    1.0000 </r>
       <r>   -5.6938    1.0000 </r>
       <r>   -5.6431    1.0000 </r>
       <r>   -5.5225    1.0000 </r>
       <r>   -5.3577    1.0000 </r>
       <r>   -5.2676    1.0000 </r>
       <r>   -5.2257    1.0000 </r>
       <r>   -5.2183    1.0000 </r>
       <r>   -5.1309    1.0000 </r>
       <r>   -5.1032    1.0000 </r>
       <r>   -5.0954    1.0000 </r>
       <r>   -5.0272    1.0000 </r>
       <r>   -4.8181    1.0000 </r>
       <r>   -4.7984    1.0000 </r>
       <r>   -4.7673    1.0000 </r>
       <r>   -4.5979    1.0000 </r>
       <r>   -4.4350    1.0000 </r>
       <r>   -4.1693    1.0000 </r>
       <r>   -4.1525    1.0000 </r>
       <r>   -3.7253    1.0000 </r>
       <r>   -3.6691    1.0000 </r>
       <r>   -3.6518    1.0000 </r>
       <r>   -3.4603    1.0000 </r>
       <r>   -3.4431    1.0000 </r>
       <r>   -3.3606    1.0000 </r>
       <r>   -3.2904    1.0000 </r>
       <r>   -3.2270    1.0000 </r>
       <r>   -3.0884    1.0000 </r>
       <r>   -3.0131    1.0000 </r>
       <r>   -2.9267    1.0000 </r>
       <r>   -2.9014    1.0000 </r>
       <r>   -2.8230    1.0000 </r>
       <r>   -2.7764    1.0000 </r>
       <r>   -2.7211    1.0000 </r>
       <r>   -2.7073    1.0000 </r>
       <r>   -2.5669    1.0000 </r>
       <r>   -2.4755    1.0000 </r>
       <r>   -2.1314    1.0000 </r>
       <r>   -2.0972    1.0000 </r>
       <r>   -1.6431    1.0000 </r>
       <r>   -1.4950    1.0000 </r>
       <r>   -1.3716    1.0000 </r>
       <r>   -1.2382    1.0000 </r>
       <r>   -1.0143    1.0000 </r>
       <r>   -0.8679    1.0000 </r>
       <r>   -0.5976    1.0000 </r>
       <r>   -0.5150    1.0000 </r>
       <r>   -0.5028    1.0000 </r>
       <r>   -0.3354    1.0000 </r>
       <r>   -0.2377    1.0000 </r>
       <r>   -0.1814    1.0000 </r>
       <r>   -0.1221    1.0000 </r>
       <r>   -0.1038    1.0000 </r>
       <r>   -0.0526    1.0000 </r>
       <r>   -0.0295    1.0000 </r>
       <r>   -0.0049    1.0000 </r>
       <r>    0.0321    1.0000 </r>
       <r>    0.0786    1.0000 </r>
       <r>    0.1573    1.0000 </r>
       <r>    0.1971    1.0000 </r>
       <r>    0.2644    1.0000 </r>
       <r>    0.2645    1.0000 </r>
       <r>    0.3088    1.0000 </r>
       <r>    0.3876    1.0000 </r>
       <r>    0.3957    1.0000 </r>
       <r>    0.4646    1.0000 </r>
       <r>    0.5244    1.0000 </r>
       <r>    0.6239    1.0000 </r>
       <r>    0.6797    1.0000 </r>
       <r>    0.7831    1.0000 </r>
       <r>    0.8350    1.0000 </r>
       <r>    0.8979    1.0000 </r>
       <r>    0.9344    1.0000 </r>
       <r>    0.9874    1.0000 </r>
       <r>    1.0607    1.0000 </r>
       <r>    1.1696    1.0000 </r>
       <r>    1.1967    1.0000 </r>
       <r>    1.2238    1.0000 </r>
       <r>    1.2249    1.0000 </r>
       <r>    1.3088    1.0000 </r>
       <r>    1.3918    1.0000 </r>
       <r>    1.4154    1.0000 </r>
       <r>    1.4562    1.0000 </r>
       <r>    1.4791    1.0000 </r>
       <r>    1.4862    1.0000 </r>
       <r>    1.5381    1.0000 </r>
       <r>    1.6240    1.0000 </r>
       <r>    1.7009    1.0000 </r>
       <r>    1.7148    1.0000 </r>
       <r>    1.7631    1.0000 </r>
       <r>    1.7768    1.0000 </r>
       <r>    2.0050    1.0000 </r>
       <r>    2.0130    1.0000 </r>
       <r>    2.0147    1.0000 </r>
       <r>    2.0690    1.0000 </r>
       <r>    2.0956    1.0000 </r>
       <r>    2.1744    1.0000 </r>
       <r>    2.1869    1.0000 </r>
       <r>    2.2434    1.0000 </r>
       <r>    2.2698    1.0000 </r>
       <r>    2.2938    1.0000 </r>
       <r>    2.3485    1.0000 </r>
       <r>    2.3491    1.0000 </r>
       <r>    2.4061    1.0000 </r>
       <r>    2.4362    1.0000 </r>
       <r>    2.5138    1.0000 </r>
       <r>    2.5873    1.0000 </r>
       <r>    2.7174    1.0000 </r>
       <r>    2.7798    1.0000 </r>
       <r>    2.8493    1.0000 </r>
       <r>    2.9107    1.0000 </r>
       <r>    2.9436    1.0000 </r>
       <r>    3.1417    1.0000 </r>
       <r>    3.2063    1.0000 </r>
       <r>    3.2724    1.0000 </r>
       <r>    3.3830    1.0000 </r>
       <r>    3.4290    1.0000 </r>
       <r>    3.4551    1.0000 </r>
       <r>    3.5204    1.0000 </r>
       <r>    3.5767    1.0000 </r>
       <r>    3.6162    0.9499 </r>
       <r>    3.7593    0.0000 </r>
       <r>    3.8629    0.0000 </r>
       <r>    3.8700    0.0000 </r>
       <r>    3.9599    0.0000 </r>
       <r>    4.0439    0.0000 </r>
       <r>    4.1331    0.0000 </r>
       <r>    4.1620    0.0000 </r>
       <r>    4.2942    0.0000 </r>
       <r>    4.3017    0.0000 </r>
       <r>    4.3946    0.0000 </r>
       <r>    4.4222    0.0000 </r>
       <r>    4.4606    0.0000 </r>
       <r>    4.5037    0.0000 </r>
       <r>    4.6244    0.0000 </r>
       <r>    4.6605    0.0000 </r>
       <r>    4.6736    0.0000 </r>
       <r>    4.7481    0.0000 </r>
       <r>    4.8122    0.0000 </r>
       <r>    4.8752    0.0000 </r>
       <r>    4.9330    0.0000 </r>
       <r>    4.9672    0.0000 </r>
       <r>    5.0338    0.0000 </r>
       <r>    5.0450    0.0000 </r>
       <r>    5.0875    0.0000 </r>
       <r>    5.1756    0.0000 </r>
       <r>    5.2721    0.0000 </r>
       <r>    5.2923    0.0000 </r>
       <r>    5.3810    0.0000 </r>
       <r>    5.4252    0.0000 </r>
       <r>    5.4336    0.0000 </r>
       <r>    5.4682    0.0000 </r>
      </set>
      <set comment="kpoint 2">
       <r>   -8.7481    1.0000 </r>
       <r>   -8.2957    1.0000 </r>
       <r>   -8.2209    1.0000 </r>
       <r>   -8.0259    1.0000 </r>
       <r>   -7.9867    1.0000 </r>
       <r>   -7.7464    1.0000 </r>
       <r>   -7.6519    1.0000 </r>
       <r>   -7.6367    1.0000 </r>
       <r>   -7.4647    1.0000 </r>
       <r>   -7.3302    1.0000 </r>
       <r>   -7.3250    1.0000 </r>
       <r>   -7.2374    1.0000 </r>
       <r>   -7.1404    1.0000 </r>
       <r>   -6.9630    1.0000 </r>
       <r>   -6.9609    1.0000 </r>
       <r>   -6.9043    1.0000 </r>
       <r>   -6.8165    1.0000 </r>
       <r>   -6.6976    1.0000 </r>
       <r>   -6.6097    1.0000 </r>
       <r>   -6.4518    1.0000 </r>
       <r>   -6.3877    1.0000 </r>
       <r>   -6.0156    1.0000 </r>
       <r>   -6.0036    1.0000 </r>
       <r>   -5.9586    1.0000 </r>
       <r>   -5.9173    1.0000 </r>
       <r>   -5.8651    1.0000 </r>
       <r>   -5.7552    1.0000 </r>
       <r>   -5.6274    1.0000 </r>
       <r>   -5.5896    1.0000 </r>
       <r>   -5.4884    1.0000 </r>
       <r>   -5.3244    1.0000 </r>
       <r>   -5.2593    1.0000 </r>
       <r>   -5.1964    1.0000 </r>
       <r>   -5.0804    1.0000 </r>
       <r>   -4.9439    1.0000 </r>
       <r>   -4.7385    1.0000 </r>
       <r>   -4.6964    1.0000 </r>
       <r>   -4.6831    1.0000 </r>
       <r>   -4.5393    1.0000 </r>
       <r>   -4.3156    1.0000 </r>
       <r>   -4.2106    1.0000 </r>
       <r>   -4.1080    1.0000 </r>
       <r>   -4.0887    1.0000 </r>
       <r>   -3.9544    1.0000 </r>
       <r>   -3.7545    1.0000 </r>
       <r>   -3.4744    1.0000 </r>
       <r>   -3.4721    1.0000 </r>
       <r>   -3.3303    1.0000 </r>
       <r>   -3.1717    1.0000 </r>
       <r>   -3.1656    1.0000 </r>
       <r>   -3.1109    1.0000 </r>
       <r>   -2.9947    1.0000 </r>
       <r>   -2.9908    1.0000 </r>
       <r>   -2.8581    1.0000 </r>
       <r>   -2.8468    1.0000 </r>
       <r>   -2.7780    1.0000 </r>
       <r>   -2.5375    1.0000 </r>
       <r>   -2.4715    1.0000 </r>
       <r>   -2.4534    1.0000 </r>
       <r>   -2.2430    1.0000 </r>
       <r>   -2.2182    1.0000 </r>
       <r>   -2.1577    1.0000 </r>
       <r>   -1.9560    1.0000 </r>
       <r>   -1.5260    1.0000 </r>
       <r>   -1.4770    1.0000 </r>
       <r>   -1.4331    1.0000 </r>
       <r>   -1.2442    1.0000 </r>
       <r>   -0.9589    1.0000 </r>
       <r>   -0.9560    1.0000 </r>
       <r>   -0.6267    1.0000 </r>
       <r>   -0.6126    1.0000 </r>
       <r>   -0.5446    1.0000 </r>
       <r>   -0.3747    1.0000 </r>
       <r>   -0.3441    1.0000 </r>
       <r>   -0.2436    1.0000 </r>
       <r>   -0.2380    1.0000 </r>
       <r>   -0.1734    1.0000 </r>
       <r>   -0.1471    1.0000 </r>
       <r>   -0.1026    1.0000 </r>
       <r>   -0.0783    1.0000 </r>
       <r>   -0.0096    1.0000 </r>
       <r>    0.0286    1.0000 </r>
       <r>    0.0990    1.0000 </r>
       <r>    0.1367    1.0000 </r>
       <r>    0.1788    1.0000 </r>
       <r>    0.3014    1.0000 </r>
       <r>    0.3712    1.0000 </r>
       <r>    0.4052    1.0000 </r>
       <r>    0.4287    1.0000 </r>
       <r>    0.5102    1.0000 </r>
       <r>    0.5617    1.0000 </r>
       <r>    0.5653    1.0000 </r>
       <r>    0.6660    1.0000 </r>
       <r>    0.6699    1.0000 </r>
       <r>    0.7356    1.0000 </r>
       <r>    0.7463    1.0000 </r>
       <r>    0.8217    1.0000 </r>
       <r>    0.8413    1.0000 </r>
       <r>    0.8967    1.0000 </r>
       <r>    0.9643    1.0000 </r>
       <r>    1.0209    1.0000 </r>
       <r>    1.0579    1.0000 </r>
       <r>    1.1004    1.0000 </r>
       <r>    1.1164    1.0000 </r>
       <r>    1.2033    1.0000 </r>
       <r>    1.2378    1.0000 </r>
       <r>    1.2584    1.0000 </r>
       <r>    1.3091    1.0000 </r>
       <r>    1.3330    1.0000 </r>
       <r>    1.3530    1.0000 </r>
       <r>    1.3699    1.0000 </r>
       <r>    1.5021    1.0000 </r>
       <r>    1.5426    1.0000 </r>
       <r>    1.5769    1.0000 </r>
       <r>    1.5815    1.0000 </r>
       <r>    1.6251    1.0000 </r>
       <r>    1.7231    1.0000 </r>
       <r>    1.7467    1.0000 </r>
       <r>    1.8013    1.0000 </r>
       <r>    1.8446    1.0000 </r>
       <r>    1.9771    1.0000 </r>
       <r>    1.9944    1.0000 </r>
       <r>    2.1181    1.0000 </r>
       <r>    2.1909    1.0000 </r>
       <r>    2.2447    1.0000 </r>
       <r>    2.2471    1.0000 </r>
       <r>    2.4147    1.0000 </r>
       <r>    2.4239    1.0000 </r>
       <r>    2.4755    1.0000 </r>
       <r>    2.5787    1.0000 </r>
       <r>    2.5976    1.0000 </r>
       <r>    2.6530    1.0000 </r>
       <r>    2.8088    1.0000 </r>
       <r>    2.9019    1.0000 </r>
       <r>    2.9327    1.0000 </r>
       <r>    3.0266    1.0000 </r>
       <r>    3.0266    1.0000 </r>
       <r>    3.1146    1.0000 </r>
       <r>    3.2466    1.0000 </r>
       <r>    3.3264    1.0000 </r>
       <r>    3.3343    1.0000 </r>
       <r>    3.3468    1.0000 </r>
       <r>    3.4145    1.0000 </r>
       <r>    3.5603    1.0000 </r>
       <r>    3.6034    0.9997 </r>
       <r>    3.6810    0.0000 </r>
       <r>    3.8552    0.0000 </r>
       <r>    3.9449    0.0000 </r>
       <r>    4.0528    0.0000 </r>
       <r>    4.0876    0.0000 </r>
       <r>    4.1282    0.0000 </r>
       <r>    4.2313    0.0000 </r>
       <r>    4.3572    0.0000 </r>
       <r>    4.3954    0.0000 </r>
       <r>    4.4352    0.0000 </r>
       <r>    4.4917    0.0000 </r>
       <r>    4.5292    0.0000 </r>
       <r>    4.5486    0.0000 </r>
       <r>    4.6672    0.0000 </r>
       <r>    4.7916    0.0000 </r>
       <r>    4.7962    0.0000 </r>
       <r>    4.9168    0.0000 </r>
       <r>    4.9492    0.0000 </r>
       <r>    5.0392    0.0000 </r>
       <r>    5.0691    0.0000 </r>
       <r>    5.1366    0.0000 </r>
       <r>    5.1679    0.0000 </r>
       <r>    5.2480    0.0000 </r>
       <r>    5.3272    0.0000 </r>
       <r>    5.4111    0.0000 </r>
       <r>    5.5034    0.0000 </r>
       <r>    5.5404    0.0000 </r>
       <r>    5.6061    0.0000 </r>
       <r>    5.6397    0.0000 </r>
       <r>    5.7271    0.0000 </r>
       <r>    5.8003    0.0000 </r>
      </set>
      <set comment="kpoint 3">
       <r>   -8.4287    1.0000 </r>
       <r>   -8.4287    1.0000 </r>
       <r>   -8.0076    1.0000 </r>
       <r>   -8.0076    1.0000 </r>
       <r>   -7.8960    1.0000 </r>
       <r>   -7.8960    1.0000 </r>
       <r>   -7.7407    1.0000 </r>
       <r>   -7.7407    1.0000 </r>
       <r>   -7.5003    1.0000 </r>
       <r>   -7.5003    1.0000 </r>
       <r>   -7.3460    1.0000 </r>
       <r>   -7.3460    1.0000 </r>
       <r>   -7.0474    1.0000 </r>
       <r>   -7.0474    1.0000 </r>
       <r>   -6.9547    1.0000 </r>
       <r>   -6.9547    1.0000 </r>
       <r>   -6.6121    1.0000 </r>
       <r>   -6.6121    1.0000 </r>
       <r>   -6.5432    1.0000 </r>
       <r>   -6.5432    1.0000 </r>
       <r>   -6.5203    1.0000 </r>
       <r>   -6.5203    1.0000 </r>
       <r>   -6.1738    1.0000 </r>
       <r>   -6.1738    1.0000 </r>
       <r>   -5.9123    1.0000 </r>
       <r>   -5.9123    1.0000 </r>
       <r>   -5.6631    1.0000 </r>
       <r>   -5.6631    1.0000 </r>
       <r>   -5.4389    1.0000 </r>
       <r>   -5.4389    1.0000 </r>
       <r>   -5.2999    1.0000 </r>
       <r>   -5.2999    1.0000 </r>
       <r>   -5.1755    1.0000 </r>
       <r>   -5.1755    1.0000 </r>
       <r>   -4.9048    1.0000 </r>
       <r>   -4.9048    1.0000 </r>
       <r>   -4.5736    1.0000 </r>
       <r>   -4.5736    1.0000 </r>
       <r>   -4.4671    1.0000 </r>
       <r>   -4.4671    1.0000 </r>
       <r>   -3.9684    1.0000 </r>
       <r>   -3.9684    1.0000 </r>
       <r>   -3.6752    1.0000 </r>
       <r>   -3.6752    1.0000 </r>
       <r>   -3.5886    1.0000 </r>
       <r>   -3.5886    1.0000 </r>
       <r>   -3.4725    1.0000 </r>
       <r>   -3.4725    1.0000 </r>
       <r>   -3.1117    1.0000 </r>
       <r>   -3.1117    1.0000 </r>
       <r>   -2.9623    1.0000 </r>
       <r>   -2.9623    1.0000 </r>
       <r>   -2.8871    1.0000 </r>
       <r>   -2.8871    1.0000 </r>
       <r>   -2.5867    1.0000 </r>
       <r>   -2.5867    1.0000 </r>
       <r>   -2.5200    1.0000 </r>
       <r>   -2.5200    1.0000 </r>
       <r>   -1.8735    1.0000 </r>
       <r>   -1.8735    1.0000 </r>
       <r>   -1.7954    1.0000 </r>
       <r>   -1.7954    1.0000 </r>
       <r>   -1.5410    1.0000 </r>
       <r>   -1.5410    1.0000 </r>
       <r>   -1.3367    1.0000 </r>
       <r>   -1.3367    1.0000 </r>
       <r>   -1.2097    1.0000 </r>
       <r>   -1.2097    1.0000 </r>
       <r>   -1.0230    1.0000 </r>
       <r>   -1.0230    1.0000 </r>
       <r>   -0.7464    1.0000 </r>
       <r>   -0.7464    1.0000 </r>
       <r>   -0.4779    1.0000 </r>
       <r>   -0.4779    1.0000 </r>
       <r>   -0.3851    1.0000 </r>
       <r>   -0.3851    1.0000 </r>
       <r>   -0.3027    1.0000 </r>
       <r>   -0.3027    1.0000 </r>
       <r>   -0.1754    1.0000 </r>
       <r>   -0.1754    1.0000 </r>
       <r>   -0.1006    1.0000 </r>
       <r>   -0.1006    1.0000 </r>
       <r>    0.0396    1.0000 </r>
       <r>    0.0396    1.0000 </r>
       <r>    0.1313    1.0000 </r>
       <r>    0.1313    1.0000 </r>
       <r>    0.1958    1.0000 </r>
       <r>    0.1958    1.0000 </r>
       <r>    0.2809    1.0000 </r>
       <r>    0.2809    1.0000 </r>
       <r>    0.3570    1.0000 </r>
       <r>    0.3570    1.0000 </r>
       <r>    0.5737    1.0000 </r>
       <r>    0.5737    1.0000 </r>
       <r>    0.6456    1.0000 </r>
       <r>    0.6456    1.0000 </r>
       <r>    0.7333    1.0000 </r>
       <r>    0.7333    1.0000 </r>
       <r>    0.7840    1.0000 </r>
       <r>    0.7840    1.0000 </r>
       <r>    0.9639    1.0000 </r>
       <r>    0.9639    1.0000 </r>
       <r>    1.0451    1.0000 </r>
       <r>    1.0451    1.0000 </r>
       <r>    1.1580    1.0000 </r>
       <r>    1.1580    1.0000 </r>
       <r>    1.2220    1.0000 </r>
       <r>    1.2220    1.0000 </r>
       <r>    1.3350    1.0000 </r>
       <r>    1.3350    1.0000 </r>
       <r>    1.3561    1.0000 </r>
       <r>    1.3561    1.0000 </r>
       <r>    1.3894    1.0000 </r>
       <r>    1.3894    1.0000 </r>
       <r>    1.6311    1.0000 </r>
       <r>    1.6311    1.0000 </r>
       <r>    1.6498    1.0000 </r>
       <r>    1.6498    1.0000 </r>
       <r>    1.7824    1.0000 </r>
       <r>    1.7824    1.0000 </r>
       <r>    1.9252    1.0000 </r>
       <r>    1.9252    1.0000 </r>
       <r>    2.0712    1.0000 </r>
       <r>    2.0712    1.0000 </r>
       <r>    2.1857    1.0000 </r>
       <r>    2.1857    1.0000 </r>
       <r>    2.3684    1.0000 </r>
       <r>    2.3684    1.0000 </r>
       <r>    2.5650    1.0000 </r>
       <r>    2.5650    1.0000 </r>
       <r>    2.6476    1.0000 </r>
       <r>    2.6476    1.0000 </r>
       <r>    2.7314    1.0000 </r>
       <r>    2.7314    1.0000 </r>
       <r>    2.9514    1.0000 </r>
       <r>    2.9514    1.0000 </r>
       <r>    3.0609    1.0000 </r>
       <r>    3.0609    1.0000 </r>
       <r>    3.1684    1.0000 </r>
       <r>    3.1684    1.0000 </r>
       <r>    3.3612    1.0000 </r>
       <r>    3.3612    1.0000 </r>
       <r>    3.4670    1.0000 </r>
       <r>    3.4670    1.0000 </r>
       <r>    3.6479    0.0023 </r>
       <r>    3.6479    0.0023 </r>
       <r>    3.7997    0.0000 </r>
       <r>    3.7997    0.0000 </r>
       <r>    3.9201    0.0000 </r>
       <r>    3.9201    0.0000 </r>
       <r>    4.0921    0.0000 </r>
       <r>    4.0921    0.0000 </r>
       <r>    4.2947    0.0000 </r>
       <r>    4.2947    0.0000 </r>
       <r>    4.4353    0.0000 </r>
       <r>    4.4353    0.0000 </r>
       <r>    4.5755    0.0000 </r>
       <r>    4.5755    0.0000 </r>
       <r>    4.6993    0.0000 </r>
       <r>    4.6993    0.0000 </r>
       <r>    4.7728    0.0000 </r>
       <r>    4.7728    0.0000 </r>
       <r>    4.9947    0.0000 </r>
       <r>    4.9947    0.0000 </r>
       <r>    5.1948    0.0000 </r>
       <r>    5.1948    0.0000 </r>
       <r>    5.3954    0.0000 </r>
       <r>    5.3954    0.0000 </r>
       <r>    5.4367    0.0000 </r>
       <r>    5.4367    0.0000 </r>
       <r>    5.5883    0.0000 </r>
       <r>    5.5883    0.0000 </r>
       <r>    5.6896    0.0000 </r>
       <r>    5.6896    0.0000 </r>
       <r>    5.9775    0.0000 </r>
       <r>    5.9931    0.0000 </r>
      </set>
      <set comment="kpoint 4">
       <r>   -8.8093    1.0000 </r>
       <r>   -8.6239    1.0000 </r>
       <r>   -8.1854    1.0000 </r>
       <r>   -7.9562    1.0000 </r>
       <r>   -7.8488    1.0000 </r>
       <r>   -7.7248    1.0000 </r>
       <r>   -7.7224    1.0000 </r>
       <r>   -7.6130    1.0000 </r>
       <r>   -7.4208    1.0000 </r>
       <r>   -7.4069    1.0000 </r>
       <r>   -7.3030    1.0000 </r>
       <r>   -7.2013    1.0000 </r>
       <r>   -6.9673    1.0000 </r>
       <r>   -6.9531    1.0000 </r>
       <r>   -6.9442    1.0000 </r>
       <r>   -6.8703    1.0000 </r>
       <r>   -6.6780    1.0000 </r>
       <r>   -6.6283    1.0000 </r>
       <r>   -6.5562    1.0000 </r>
       <r>   -6.3488    1.0000 </r>
       <r>   -6.0711    1.0000 </r>
       <r>   -6.0685    1.0000 </r>
       <r>   -5.9781    1.0000 </r>
       <r>   -5.9166    1.0000 </r>
       <r>   -5.8931    1.0000 </r>
       <r>   -5.8183    1.0000 </r>
       <r>   -5.7866    1.0000 </r>
       <r>   -5.6658    1.0000 </r>
       <r>   -5.6454    1.0000 </r>
       <r>   -5.5699    1.0000 </r>
       <r>   -5.3352    1.0000 </r>
       <r>   -5.1779    1.0000 </r>
       <r>   -5.1046    1.0000 </r>
       <r>   -4.9561    1.0000 </r>
       <r>   -4.9488    1.0000 </r>
       <r>   -4.8052    1.0000 </r>
       <r>   -4.7731    1.0000 </r>
       <r>   -4.6572    1.0000 </r>
       <r>   -4.5582    1.0000 </r>
       <r>   -4.3024    1.0000 </r>
       <r>   -4.2655    1.0000 </r>
       <r>   -4.2411    1.0000 </r>
       <r>   -4.1526    1.0000 </r>
       <r>   -4.0727    1.0000 </r>
       <r>   -3.7260    1.0000 </r>
       <r>   -3.7074    1.0000 </r>
       <r>   -3.5899    1.0000 </r>
       <r>   -3.5031    1.0000 </r>
       <r>   -3.4652    1.0000 </r>
       <r>   -3.4121    1.0000 </r>
       <r>   -3.3567    1.0000 </r>
       <r>   -3.3537    1.0000 </r>
       <r>   -2.9438    1.0000 </r>
       <r>   -2.8868    1.0000 </r>
       <r>   -2.7576    1.0000 </r>
       <r>   -2.7075    1.0000 </r>
       <r>   -2.6545    1.0000 </r>
       <r>   -2.6545    1.0000 </r>
       <r>   -2.5958    1.0000 </r>
       <r>   -2.4992    1.0000 </r>
       <r>   -2.2532    1.0000 </r>
       <r>   -2.1718    1.0000 </r>
       <r>   -2.0769    1.0000 </r>
       <r>   -1.9913    1.0000 </r>
       <r>   -1.5416    1.0000 </r>
       <r>   -1.4448    1.0000 </r>
       <r>   -1.1922    1.0000 </r>
       <r>   -1.1579    1.0000 </r>
       <r>   -0.8002    1.0000 </r>
       <r>   -0.7390    1.0000 </r>
       <r>   -0.5197    1.0000 </r>
       <r>   -0.3513    1.0000 </r>
       <r>   -0.3377    1.0000 </r>
       <r>   -0.2711    1.0000 </r>
       <r>   -0.2151    1.0000 </r>
       <r>   -0.1489    1.0000 </r>
       <r>   -0.1327    1.0000 </r>
       <r>   -0.0259    1.0000 </r>
       <r>    0.0250    1.0000 </r>
       <r>    0.0798    1.0000 </r>
       <r>    0.1757    1.0000 </r>
       <r>    0.2189    1.0000 </r>
       <r>    0.2474    1.0000 </r>
       <r>    0.2640    1.0000 </r>
       <r>    0.3168    1.0000 </r>
       <r>    0.3686    1.0000 </r>
       <r>    0.3953    1.0000 </r>
       <r>    0.4881    1.0000 </r>
       <r>    0.4915    1.0000 </r>
       <r>    0.5512    1.0000 </r>
       <r>    0.6339    1.0000 </r>
       <r>    0.6640    1.0000 </r>
       <r>    0.6643    1.0000 </r>
       <r>    0.8037    1.0000 </r>
       <r>    0.8234    1.0000 </r>
       <r>    0.9333    1.0000 </r>
       <r>    0.9677    1.0000 </r>
       <r>    1.0116    1.0000 </r>
       <r>    1.0397    1.0000 </r>
       <r>    1.1128    1.0000 </r>
       <r>    1.1134    1.0000 </r>
       <r>    1.1584    1.0000 </r>
       <r>    1.1830    1.0000 </r>
       <r>    1.1880    1.0000 </r>
       <r>    1.3175    1.0000 </r>
       <r>    1.3870    1.0000 </r>
       <r>    1.3972    1.0000 </r>
       <r>    1.4809    1.0000 </r>
       <r>    1.4873    1.0000 </r>
       <r>    1.5665    1.0000 </r>
       <r>    1.6273    1.0000 </r>
       <r>    1.6295    1.0000 </r>
       <r>    1.6894    1.0000 </r>
       <r>    1.7181    1.0000 </r>
       <r>    1.7677    1.0000 </r>
       <r>    1.8445    1.0000 </r>
       <r>    1.8661    1.0000 </r>
       <r>    1.8932    1.0000 </r>
       <r>    1.8935    1.0000 </r>
       <r>    1.9663    1.0000 </r>
       <r>    1.9999    1.0000 </r>
       <r>    2.0505    1.0000 </r>
       <r>    2.0910    1.0000 </r>
       <r>    2.1782    1.0000 </r>
       <r>    2.1979    1.0000 </r>
       <r>    2.2966    1.0000 </r>
       <r>    2.4130    1.0000 </r>
       <r>    2.4343    1.0000 </r>
       <r>    2.4723    1.0000 </r>
       <r>    2.5554    1.0000 </r>
       <r>    2.6651    1.0000 </r>
       <r>    2.7085    1.0000 </r>
       <r>    2.7447    1.0000 </r>
       <r>    2.8875    1.0000 </r>
       <r>    2.8934    1.0000 </r>
       <r>    2.9994    1.0000 </r>
       <r>    3.1508    1.0000 </r>
       <r>    3.1539    1.0000 </r>
       <r>    3.2566    1.0000 </r>
       <r>    3.3690    1.0000 </r>
       <r>    3.4407    1.0000 </r>
       <r>    3.4932    1.0000 </r>
       <r>    3.5646    1.0000 </r>
       <r>    3.6478    0.0025 </r>
       <r>    3.6488    0.0015 </r>
       <r>    3.7613    0.0000 </r>
       <r>    3.8031    0.0000 </r>
       <r>    3.8702    0.0000 </r>
       <r>    4.1153    0.0000 </r>
       <r>    4.1389    0.0000 </r>
       <r>    4.1886    0.0000 </r>
       <r>    4.2174    0.0000 </r>
       <r>    4.2312    0.0000 </r>
       <r>    4.3566    0.0000 </r>
       <r>    4.4511    0.0000 </r>
       <r>    4.4800    0.0000 </r>
       <r>    4.5591    0.0000 </r>
       <r>    4.6046    0.0000 </r>
       <r>    4.6267    0.0000 </r>
       <r>    4.6746    0.0000 </r>
       <r>    4.8416    0.0000 </r>
       <r>    4.8596    0.0000 </r>
       <r>    4.8774    0.0000 </r>
       <r>    4.9594    0.0000 </r>
       <r>    4.9598    0.0000 </r>
       <r>    5.0360    0.0000 </r>
       <r>    5.0820    0.0000 </r>
       <r>    5.1904    0.0000 </r>
       <r>    5.2671    0.0000 </r>
       <r>    5.2698    0.0000 </r>
       <r>    5.3103    0.0000 </r>
       <r>    5.3997    0.0000 </r>
       <r>    5.4243    0.0000 </r>
       <r>    5.4697    0.0000 </r>
       <r>    5.4948    0.0000 </r>
       <r>    5.5359    0.0000 </r>
      </set>
      <set comment="kpoint 5">
       <r>   -8.6987    1.0000 </r>
       <r>   -8.5079    1.0000 </r>
       <r>   -8.0937    1.0000 </r>
       <r>   -7.9607    1.0000 </r>
       <r>   -7.8637    1.0000 </r>
       <r>   -7.7484    1.0000 </r>
       <r>   -7.7060    1.0000 </r>
       <r>   -7.6053    1.0000 </r>
       <r>   -7.5052    1.0000 </r>
       <r>   -7.4955    1.0000 </r>
       <r>   -7.3099    1.0000 </r>
       <r>   -7.3018    1.0000 </r>
       <r>   -7.1054    1.0000 </r>
       <r>   -7.0973    1.0000 </r>
       <r>   -6.8691    1.0000 </r>
       <r>   -6.8429    1.0000 </r>
       <r>   -6.6460    1.0000 </r>
       <r>   -6.5768    1.0000 </r>
       <r>   -6.5726    1.0000 </r>
       <r>   -6.5102    1.0000 </r>
       <r>   -6.4623    1.0000 </r>
       <r>   -6.2229    1.0000 </r>
       <r>   -5.9938    1.0000 </r>
       <r>   -5.9744    1.0000 </r>
       <r>   -5.9230    1.0000 </r>
       <r>   -5.9021    1.0000 </r>
       <r>   -5.7281    1.0000 </r>
       <r>   -5.6798    1.0000 </r>
       <r>   -5.6130    1.0000 </r>
       <r>   -5.5457    1.0000 </r>
       <r>   -5.2779    1.0000 </r>
       <r>   -5.1058    1.0000 </r>
       <r>   -5.0995    1.0000 </r>
       <r>   -4.9577    1.0000 </r>
       <r>   -4.8851    1.0000 </r>
       <r>   -4.8735    1.0000 </r>
       <r>   -4.7681    1.0000 </r>
       <r>   -4.6164    1.0000 </r>
       <r>   -4.5690    1.0000 </r>
       <r>   -4.3644    1.0000 </r>
       <r>   -4.2115    1.0000 </r>
       <r>   -4.0976    1.0000 </r>
       <r>   -4.0033    1.0000 </r>
       <r>   -3.7251    1.0000 </r>
       <r>   -3.7226    1.0000 </r>
       <r>   -3.6023    1.0000 </r>
       <r>   -3.5133    1.0000 </r>
       <r>   -3.4873    1.0000 </r>
       <r>   -3.3533    1.0000 </r>
       <r>   -3.3107    1.0000 </r>
       <r>   -3.3049    1.0000 </r>
       <r>   -3.0352    1.0000 </r>
       <r>   -2.8711    1.0000 </r>
       <r>   -2.7876    1.0000 </r>
       <r>   -2.6667    1.0000 </r>
       <r>   -2.6203    1.0000 </r>
       <r>   -2.5287    1.0000 </r>
       <r>   -2.3815    1.0000 </r>
       <r>   -2.2919    1.0000 </r>
       <r>   -2.2847    1.0000 </r>
       <r>   -2.2394    1.0000 </r>
       <r>   -2.1420    1.0000 </r>
       <r>   -2.0626    1.0000 </r>
       <r>   -1.9236    1.0000 </r>
       <r>   -1.5808    1.0000 </r>
       <r>   -1.3095    1.0000 </r>
       <r>   -1.2153    1.0000 </r>
       <r>   -1.1206    1.0000 </r>
       <r>   -0.8017    1.0000 </r>
       <r>   -0.7334    1.0000 </r>
       <r>   -0.5453    1.0000 </r>
       <r>   -0.4907    1.0000 </r>
       <r>   -0.3608    1.0000 </r>
       <r>   -0.3028    1.0000 </r>
       <r>   -0.2711    1.0000 </r>
       <r>   -0.1981    1.0000 </r>
       <r>   -0.1099    1.0000 </r>
       <r>   -0.0953    1.0000 </r>
       <r>   -0.0275    1.0000 </r>
       <r>    0.0039    1.0000 </r>
       <r>    0.0926    1.0000 </r>
       <r>    0.1559    1.0000 </r>
       <r>    0.2120    1.0000 </r>
       <r>    0.2748    1.0000 </r>
       <r>    0.2903    1.0000 </r>
       <r>    0.3271    1.0000 </r>
       <r>    0.3746    1.0000 </r>
       <r>    0.3911    1.0000 </r>
       <r>    0.4568    1.0000 </r>
       <r>    0.4742    1.0000 </r>
       <r>    0.5259    1.0000 </r>
       <r>    0.5864    1.0000 </r>
       <r>    0.6106    1.0000 </r>
       <r>    0.6823    1.0000 </r>
       <r>    0.6865    1.0000 </r>
       <r>    0.7833    1.0000 </r>
       <r>    0.8272    1.0000 </r>
       <r>    0.8705    1.0000 </r>
       <r>    0.9241    1.0000 </r>
       <r>    0.9305    1.0000 </r>
       <r>    1.0058    1.0000 </r>
       <r>    1.0169    1.0000 </r>
       <r>    1.0360    1.0000 </r>
       <r>    1.0637    1.0000 </r>
       <r>    1.1488    1.0000 </r>
       <r>    1.2107    1.0000 </r>
       <r>    1.2721    1.0000 </r>
       <r>    1.3391    1.0000 </r>
       <r>    1.3397    1.0000 </r>
       <r>    1.3889    1.0000 </r>
       <r>    1.4368    1.0000 </r>
       <r>    1.4507    1.0000 </r>
       <r>    1.5318    1.0000 </r>
       <r>    1.5582    1.0000 </r>
       <r>    1.5786    1.0000 </r>
       <r>    1.6350    1.0000 </r>
       <r>    1.6784    1.0000 </r>
       <r>    1.7141    1.0000 </r>
       <r>    1.7377    1.0000 </r>
       <r>    1.7905    1.0000 </r>
       <r>    1.8210    1.0000 </r>
       <r>    1.8554    1.0000 </r>
       <r>    1.9447    1.0000 </r>
       <r>    2.0111    1.0000 </r>
       <r>    2.1415    1.0000 </r>
       <r>    2.1861    1.0000 </r>
       <r>    2.2350    1.0000 </r>
       <r>    2.3305    1.0000 </r>
       <r>    2.3742    1.0000 </r>
       <r>    2.4951    1.0000 </r>
       <r>    2.5971    1.0000 </r>
       <r>    2.6543    1.0000 </r>
       <r>    2.6567    1.0000 </r>
       <r>    2.9038    1.0000 </r>
       <r>    2.9474    1.0000 </r>
       <r>    3.0182    1.0000 </r>
       <r>    3.0711    1.0000 </r>
       <r>    3.1046    1.0000 </r>
       <r>    3.1937    1.0000 </r>
       <r>    3.3300    1.0000 </r>
       <r>    3.4245    1.0000 </r>
       <r>    3.5177    1.0000 </r>
       <r>    3.5994    1.0000 </r>
       <r>    3.6174    0.9307 </r>
       <r>    3.6545    0.0001 </r>
       <r>    3.7445    0.0000 </r>
       <r>    3.7791    0.0000 </r>
       <r>    3.9825    0.0000 </r>
       <r>    3.9888    0.0000 </r>
       <r>    4.2067    0.0000 </r>
       <r>    4.2488    0.0000 </r>
       <r>    4.2711    0.0000 </r>
       <r>    4.3118    0.0000 </r>
       <r>    4.4722    0.0000 </r>
       <r>    4.4975    0.0000 </r>
       <r>    4.5505    0.0000 </r>
       <r>    4.6720    0.0000 </r>
       <r>    4.7564    0.0000 </r>
       <r>    4.7895    0.0000 </r>
       <r>    4.8340    0.0000 </r>
       <r>    4.8668    0.0000 </r>
       <r>    4.9634    0.0000 </r>
       <r>    5.0020    0.0000 </r>
       <r>    5.0822    0.0000 </r>
       <r>    5.2299    0.0000 </r>
       <r>    5.2743    0.0000 </r>
       <r>    5.3235    0.0000 </r>
       <r>    5.4089    0.0000 </r>
       <r>    5.4849    0.0000 </r>
       <r>    5.5824    0.0000 </r>
       <r>    5.6020    0.0000 </r>
       <r>    5.6151    0.0000 </r>
       <r>    5.7060    0.0000 </r>
       <r>    5.7348    0.0000 </r>
       <r>    5.7673    0.0000 </r>
[...]
       <r>    -9.6051     0.0000     0.0000 </r>
       <r>    -9.5504     0.0000     0.0000 </r>
       <r>    -9.4958     0.0000     0.0000 </r>
       <r>    -9.4412     0.0000     0.0000 </r>
       <r>    -9.3866     0.0000     0.0000 </r>
       <r>    -9.3320     0.0000     0.0000 </r>
       <r>    -9.2774     0.0000     0.0000 </r>
       <r>    -9.2228     0.0000     0.0000 </r>
       <r>    -9.1682     0.0000     0.0000 </r>
       <r>    -9.1135     0.0000     0.0000 </r>
       <r>    -9.0589     0.0000     0.0000 </r>
       <r>    -9.0043     0.0000     0.0000 </r>
       <r>    -8.9497     0.0000     0.0000 </r>
       <r>    -8.8951     0.0000     0.0000 </r>
       <r>    -8.8405     2.1751     0.1188 </r>
       <r>    -8.7859     4.6357     0.3720 </r>
       <r>    -8.7313     6.2865     0.7153 </r>
       <r>    -8.6766     9.4935     1.2337 </r>
       <r>    -8.6220     4.8923     1.5009 </r>
       <r>    -8.5674     4.5611     1.7500 </r>
       <r>    -8.5128     0.1719     1.7594 </r>
       <r>    -8.4582    11.2640     2.3745 </r>
       <r>    -8.4036     4.9255     2.6435 </r>
       <r>    -8.3490    17.9369     3.6231 </r>
       <r>    -8.2944    10.3410     4.1879 </r>
       <r>    -8.2398     8.5129     4.6528 </r>
       <r>    -8.1851     6.9537     5.0325 </r>
       <r>    -8.1305    15.6289     5.8861 </r>
       <r>    -8.0759    15.2170     6.7171 </r>
       <r>    -8.0213     3.6012     6.9138 </r>
       <r>    -7.9667    17.3594     7.8618 </r>
       <r>    -7.9121    19.6846     8.9368 </r>
       <r>    -7.8575    10.1013     9.4885 </r>
       <r>    -7.8029    20.8099    10.6250 </r>
       <r>    -7.7482     7.5497    11.0373 </r>
       <r>    -7.6936    40.5765    13.2533 </r>
       <r>    -7.6390    14.6459    14.0531 </r>
       <r>    -7.5844    19.7804    15.1334 </r>
       <r>    -7.5298    13.8012    15.8871 </r>
       <r>    -7.4752    17.8647    16.8627 </r>
       <r>    -7.4206    19.1116    17.9065 </r>
       <r>    -7.3660    13.7598    18.6580 </r>
       <r>    -7.3113    20.8162    19.7948 </r>
       <r>    -7.2567    33.8954    21.6459 </r>
       <r>    -7.2021    13.7173    22.3950 </r>
       <r>    -7.1475    19.8364    23.4783 </r>
       <r>    -7.0929    15.9475    24.3493 </r>
       <r>    -7.0383    16.8341    25.2686 </r>
       <r>    -6.9837    27.0124    26.7438 </r>
       <r>    -6.9291    42.8988    29.0866 </r>
       <r>    -6.8744    21.4010    30.2554 </r>
       <r>    -6.8198    17.9343    31.2348 </r>
       <r>    -6.7652    12.1118    31.8963 </r>
       <r>    -6.7106    24.8811    33.2551 </r>
       <r>    -6.6560    16.3936    34.1504 </r>
       <r>    -6.6014    25.0239    35.5170 </r>
       <r>    -6.5468    29.9853    37.1546 </r>
       <r>    -6.4922    53.7716    40.0912 </r>
       <r>    -6.4375    14.0869    40.8605 </r>
       <r>    -6.3829    11.8986    41.5103 </r>
       <r>    -6.3283    15.7582    42.3709 </r>
       <r>    -6.2737     9.9930    42.9166 </r>
       <r>    -6.2191     6.6826    43.2816 </r>
       <r>    -6.1645    11.8194    43.9271 </r>
       <r>    -6.1099    24.2021    45.2488 </r>
       <r>    -6.0553    18.9012    46.2810 </r>
       <r>    -6.0007    10.6542    46.8629 </r>
       <r>    -5.9460    38.5273    48.9670 </r>
       <r>    -5.8914    37.4410    51.0117 </r>
       <r>    -5.8368    24.8903    52.3710 </r>
       <r>    -5.7822    14.3983    53.1574 </r>
       <r>    -5.7276    18.4620    54.1656 </r>
       <r>    -5.6730    19.0234    55.2045 </r>
       <r>    -5.6184    18.8869    56.2360 </r>
       <r>    -5.5638    17.4431    57.1886 </r>
       <r>    -5.5091    20.9855    58.3347 </r>
       <r>    -5.4545     9.8907    58.8748 </r>
       <r>    -5.3999     8.2431    59.3250 </r>
       <r>    -5.3453     9.2600    59.8308 </r>
       <r>    -5.2907    14.9150    60.6453 </r>
       <r>    -5.2361    17.7102    61.6125 </r>
       <r>    -5.1815    21.8751    62.8072 </r>
       <r>    -5.1269    17.3397    63.7541 </r>
       <r>    -5.0722    28.2192    65.2952 </r>
       <r>    -5.0176     9.5988    65.8195 </r>
       <r>    -4.9630     3.7736    66.0256 </r>
       <r>    -4.9084    24.2736    67.3512 </r>
       <r>    -4.8538    26.6043    68.8041 </r>
       <r>    -4.7992    12.4521    69.4842 </r>
       <r>    -4.7446    22.8480    70.7320 </r>
       <r>    -4.6900    24.6389    72.0775 </r>
       <r>    -4.6353    18.0629    73.0640 </r>
       <r>    -4.5807    24.9188    74.4249 </r>
       <r>    -4.5261    30.3949    76.0848 </r>
       <r>    -4.4715     9.9250    76.6268 </r>
       <r>    -4.4169    22.3230    77.8459 </r>
       <r>    -4.3623     3.4676    78.0353 </r>
       <r>    -4.3077    19.4061    79.0951 </r>
       <r>    -4.2531    19.8988    80.1819 </r>
       <r>    -4.1985    22.5947    81.4158 </r>
       <r>    -4.1438     8.3562    81.8721 </r>
       <r>    -4.0892    25.0663    83.2411 </r>
       <r>    -4.0346    25.0401    84.6086 </r>
       <r>    -3.9800    23.0764    85.8688 </r>
       <r>    -3.9254    13.9511    86.6307 </r>
       <r>    -3.8708     7.2361    87.0259 </r>
       <r>    -3.8162    11.9500    87.6785 </r>
       <r>    -3.7616     7.4210    88.0838 </r>
       <r>    -3.7069    31.7574    89.8181 </r>
       <r>    -3.6523    17.4319    90.7701 </r>
       <r>    -3.5977    14.3714    91.5550 </r>
       <r>    -3.5431    26.1562    92.9834 </r>
       <r>    -3.4885    16.7592    93.8987 </r>
       <r>    -3.4339    42.9846    96.2462 </r>
       <r>    -3.3793    18.4757    97.2552 </r>
       <r>    -3.3247    26.1209    98.6817 </r>
       <r>    -3.2700    24.3826   100.0133 </r>
       <r>    -3.2154    12.6120   100.7021 </r>
       <r>    -3.1608    11.5097   101.3306 </r>
       <r>    -3.1062     9.5343   101.8513 </r>
       <r>    -3.0516    21.4683   103.0238 </r>
       <r>    -2.9970    17.1762   103.9618 </r>
       <r>    -2.9424    25.1351   105.3345 </r>
       <r>    -2.8878    19.6711   106.4088 </r>
       <r>    -2.8331    26.4088   107.8510 </r>
       <r>    -2.7785    17.5842   108.8113 </r>
       <r>    -2.7239    17.6848   109.7771 </r>
       <r>    -2.6693    15.6021   110.6292 </r>
       <r>    -2.6147    12.5660   111.3155 </r>
       <r>    -2.5601    20.0241   112.4091 </r>
       <r>    -2.5055    29.2021   114.0039 </r>
       <r>    -2.4509    14.1395   114.7760 </r>
       <r>    -2.3963    16.7465   115.6906 </r>
       <r>    -2.3416    22.7826   116.9348 </r>
       <r>    -2.2870    15.1403   117.7617 </r>
       <r>    -2.2324    16.8570   118.6823 </r>
       <r>    -2.1778    19.8865   119.7683 </r>
       <r>    -2.1232    15.3795   120.6082 </r>
       <r>    -2.0686     7.6696   121.0271 </r>
       <r>    -2.0140    10.6726   121.6099 </r>
       <r>    -1.9594    18.2273   122.6054 </r>
       <r>    -1.9047    13.1434   123.3232 </r>
       <r>    -1.8501     9.7091   123.8534 </r>
       <r>    -1.7955     5.8095   124.1707 </r>
       <r>    -1.7409    27.5057   125.6728 </r>
       <r>    -1.6863    11.2561   126.2876 </r>
       <r>    -1.6317     8.4014   126.7464 </r>
       <r>    -1.5771    15.0402   127.5678 </r>
       <r>    -1.5225    18.0986   128.5562 </r>
       <r>    -1.4678    18.5094   129.5670 </r>
       <r>    -1.4132    11.8273   130.2129 </r>
       <r>    -1.3586    14.1062   130.9833 </r>
       <r>    -1.3040    10.3423   131.5481 </r>
       <r>    -1.2494    17.8923   132.5252 </r>
       <r>    -1.1948    17.5058   133.4813 </r>
       <r>    -1.1402    14.4781   134.2719 </r>
       <r>    -1.0856    11.2031   134.8838 </r>
       <r>    -1.0309    10.9383   135.4811 </r>
       <r>    -0.9763    13.9095   136.2408 </r>
       <r>    -0.9217    12.9761   136.9494 </r>
       <r>    -0.8671    19.3307   138.0051 </r>
       <r>    -0.8125     9.0471   138.4992 </r>
       <r>    -0.7579    12.4434   139.1788 </r>
       <r>    -0.7033    17.6222   140.1412 </r>
       <r>    -0.6487    10.2979   140.7036 </r>
       <r>    -0.5940    13.7890   141.4566 </r>
       <r>    -0.5394    23.1122   142.7188 </r>
       <r>    -0.4848    21.6834   143.9030 </r>
       <r>    -0.4302    23.9861   145.2129 </r>
       <r>    -0.3756    10.0773   145.7633 </r>
       <r>    -0.3210    45.0931   148.2259 </r>
       <r>    -0.2664    20.6053   149.3512 </r>
       <r>    -0.2118    35.6043   151.2957 </r>
       <r>    -0.1572    32.0484   153.0459 </r>
       <r>    -0.1025    35.2810   154.9727 </r>
       <r>    -0.0479    50.6183   157.7371 </r>
       <r>     0.0067    38.1024   159.8180 </r>
       <r>     0.0613    42.1194   162.1182 </r>
       <r>     0.1159    32.7613   163.9074 </r>
       <r>     0.1705    33.7381   165.7499 </r>
       <r>     0.2251    43.1587   168.1069 </r>
       <r>     0.2797    47.7924   170.7169 </r>
       <r>     0.3344    49.5631   173.4237 </r>
       <r>     0.3890    38.0521   175.5018 </r>
       <r>     0.4436    51.0875   178.2918 </r>
       <r>     0.4982    35.5854   180.2352 </r>
       <r>     0.5528    38.7988   182.3541 </r>
       <r>     0.6074    44.2620   184.7713 </r>
       <r>     0.6620    32.7512   186.5599 </r>
       <r>     0.7166    53.6200   189.4883 </r>
       <r>     0.7713    31.6787   191.2183 </r>
       <r>     0.8259    40.3751   193.4233 </r>
       <r>     0.8805    39.5370   195.5825 </r>
       <r>     0.9351    39.2724   197.7273 </r>
       <r>     0.9897    41.5313   199.9954 </r>
       <r>     1.0443    49.8687   202.7188 </r>
       <r>     1.0989    38.2153   204.8059 </r>
       <r>     1.1535    49.5706   207.5131 </r>
       <r>     1.2082    40.5827   209.7295 </r>
       <r>     1.2628    46.6744   212.2785 </r>
       <r>     1.3174    37.5831   214.3310 </r>
       <r>     1.3720    46.8728   216.8909 </r>
       <r>     1.4266    57.7514   220.0448 </r>
       <r>     1.4812    44.7519   222.4888 </r>
       <r>     1.5358    26.5484   223.9387 </r>
       <r>     1.5904    40.6952   226.1612 </r>
       <r>     1.6450    44.6405   228.5991 </r>
       <r>     1.6997    46.8483   231.1576 </r>
       <r>     1.7543    38.9237   233.2833 </r>
       <r>     1.8089    38.5537   235.3888 </r>
       <r>     1.8635    35.7287   237.3401 </r>
       <r>     1.9181    32.0971   239.0930 </r>
       <r>     1.9727    32.2946   240.8567 </r>
       <r>     2.0273    20.8790   241.9970 </r>
       <r>     2.0819    39.7843   244.1697 </r>
       <r>     2.1366    31.8669   245.9100 </r>
       <r>     2.1912    25.8122   247.3197 </r>
       <r>     2.2458    33.2370   249.1348 </r>
       <r>     2.3004    46.9471   251.6987 </r>
       <r>     2.3550    26.8490   253.1650 </r>
       <r>     2.4096    33.8099   255.0114 </r>
       <r>     2.4642    34.5058   256.8959 </r>
       <r>     2.5188    28.1035   258.4307 </r>
       <r>     2.5735    13.4733   259.1665 </r>
       <r>     2.6281    23.9863   260.4765 </r>
       <r>     2.6827    44.0720   262.8833 </r>
       <r>     2.7373    19.6008   263.9538 </r>
       <r>     2.7919    16.6466   264.8629 </r>
       <r>     2.8465    29.8813   266.4947 </r>
       <r>     2.9011    15.3220   267.3315 </r>
       <r>     2.9557    36.1034   269.3032 </r>
       <r>     3.0104    24.9144   270.6639 </r>
       <r>     3.0650    34.4260   272.5439 </r>
       <r>     3.1196    27.2113   274.0300 </r>
       <r>     3.1742    29.8206   275.6586 </r>
       <r>     3.2288    23.5464   276.9445 </r>
       <r>     3.2834    20.1487   278.0449 </r>
       <r>     3.3380    23.4118   279.3235 </r>
       <r>     3.3926    35.7841   281.2777 </r>
       <r>     3.4472    22.4275   282.5025 </r>
       <r>     3.5019    37.0803   284.5276 </r>
       <r>     3.5565    22.6469   285.7644 </r>
       <r>     3.6111    27.1565   287.2475 </r>
       <r>     3.6657    37.2042   289.2793 </r>
       <r>     3.7203    22.9457   290.5324 </r>
       <r>     3.7749    28.4239   292.0847 </r>
       <r>     3.8295    27.5047   293.5868 </r>
       <r>     3.8841    10.3820   294.1538 </r>
       <r>     3.9388    29.2558   295.7515 </r>
       <r>     3.9934    17.8080   296.7240 </r>
       <r>     4.0480    26.4697   298.1696 </r>
       <r>     4.1026    17.4526   299.1227 </r>
       <r>     4.1572    24.7589   300.4749 </r>
       <r>     4.2118    22.6919   301.7141 </r>
       <r>     4.2664    35.4574   303.6506 </r>
       <r>     4.3210    29.6456   305.2696 </r>
       <r>     4.3757    37.9461   307.3419 </r>
       <r>     4.4303    22.1040   308.5491 </r>
       <r>     4.4849    32.0400   310.2988 </r>
       <r>     4.5395    29.3778   311.9032 </r>
       <r>     4.5941    27.0841   313.3824 </r>
       <r>     4.6487    31.3452   315.0942 </r>
       <r>     4.7033    36.0872   317.0650 </r>
       <r>     4.7579    22.2231   318.2786 </r>
       <r>     4.8126    30.8048   319.9610 </r>
       <r>     4.8672    33.6430   321.7983 </r>
       <r>     4.9218    22.4281   323.0231 </r>
       <r>     4.9764    34.4738   324.9059 </r>
       <r>     5.0310    35.5675   326.8483 </r>
       <r>     5.0856    33.9221   328.7009 </r>
       <r>     5.1402    23.7449   329.9976 </r>
       <r>     5.1948    29.5291   331.6103 </r>
       <r>     5.2494    24.2094   332.9324 </r>
       <r>     5.3041    39.1433   335.0701 </r>
       <r>     5.3587    28.8947   336.6481 </r>
       <r>     5.4133    28.7355   338.2174 </r>
       <r>     5.4679    42.1158   340.5175 </r>
       <r>     5.5225    29.7969   342.1447 </r>
       <r>     5.5771    19.6596   343.2184 </r>
       <r>     5.6317    34.6062   345.1083 </r>
       <r>     5.6863    17.9476   346.0885 </r>
       <r>     5.7410    33.3300   347.9087 </r>
       <r>     5.7956    17.7881   348.8801 </r>
       <r>     5.8502    19.4558   349.9427 </r>
       <r>     5.9048    15.1729   350.7713 </r>
       <r>     5.9594     8.7651   351.2500 </r>
       <r>     6.0140     8.8483   351.7332 </r>
       <r>     6.0686     4.8849   352.0000 </r>
       <r>     6.1232     0.0000   352.0000 </r>
       <r>     6.1779     0.0000   352.0000 </r>
       <r>     6.2325     0.0000   352.0000 </r>
       <r>     6.2871     0.0000   352.0000 </r>
       <r>     6.3417     0.0000   352.0000 </r>
       <r>     6.3963     0.0000   352.0000 </r>
       <r>     6.4509     0.0000   352.0000 </r>
       <r>     6.5055     0.0000   352.0000 </r>
       <r>     6.5601     0.0000   352.0000 </r>
       <r>     6.6148     0.0000   352.0000 </r>
       <r>     6.6694     0.0000   352.0000 </r>
       <r>     6.7240     0.0000   352.0000 </r>
       <r>     6.7786     0.0000   352.0000 </r>
      </set>
     </set>
    </array>
   </total>
  </dos>
 </calculation>
 <structure name="finalpos" >
  <crystal>
   <varray name="basis" >
    <v>       8.00133800       0.00000000       0.00000000 </v>
    <v>       0.00000000      16.00267601       0.00000000 </v>
    <v>       0.00000000       0.00000000      13.26432228 </v>
   </varray>
   <i name="volume">   1698.40122681 </i>
   <varray name="rec_basis" >
    <v>       0.12497910       0.00000000       0.00000000 </v>
    <v>       0.00000000       0.06248955       0.00000000 </v>
    <v>       0.00000000       0.00000000       0.07539021 </v>
   </varray>
  </crystal>
  <varray name="positions" >
   <v>       0.00854173       0.99572915       0.00000000 </v>
   <v>       0.25854170       0.87072915       0.21327135 </v>
   <v>       0.50854170       0.74572915       0.42654276 </v>
   <v>       0.50854170       0.24572912       0.00000000 </v>
   <v>       0.75854164       0.12072913       0.21327135 </v>
   <v>       0.00854158       0.99572915       0.42654276 </v>
   <v>       0.00854174       0.49572909       0.00000000 </v>
   <v>       0.25854170       0.37072912       0.21327135 </v>
   <v>       0.50854170       0.24572912       0.42654276 </v>
   <v>       0.50854170       0.74572909       0.00000000 </v>
   <v>       0.75854164       0.62072909       0.21327135 </v>
   <v>       0.00854170       0.49572912       0.42654276 </v>
   <v>       0.00854170       0.12072916       0.10663567 </v>
   <v>       0.25854170       0.99572915       0.31990707 </v>
   <v>       0.50854170       0.87072915       0.53317845 </v>
   <v>       0.50854176       0.37072912       0.10663567 </v>
   <v>       0.75854170       0.24572915       0.31990707 </v>
   <v>       0.00854170       0.12072913       0.53317845 </v>
   <v>       0.00854158       0.62072909       0.10663567 </v>
   <v>       0.25854158       0.49572909       0.31990707 </v>
   <v>       0.50854158       0.37072906       0.53317845 </v>
   <v>       0.50854170       0.87072915       0.10663567 </v>
   <v>       0.75854170       0.74572915       0.31990707 </v>
   <v>       0.00854170       0.62072915       0.53317845 </v>
   <v>       0.50854170       0.99572915       0.00000000 </v>
   <v>       0.75854164       0.87072915       0.21327135 </v>
   <v>       0.00854158       0.74572921       0.42654276 </v>
   <v>       0.00854172       0.24572913       0.00000000 </v>
   <v>       0.25854170       0.12072913       0.21327135 </v>
   <v>       0.50854170       0.99572915       0.42654276 </v>
   <v>       0.50854170       0.49572915       0.00000000 </v>
   <v>       0.75854170       0.37072915       0.21327135 </v>
   <v>       0.00854170       0.24572916       0.42654276 </v>
   <v>       0.00854174       0.74572915       0.00000000 </v>
   <v>       0.25854167       0.62072915       0.21327135 </v>
   <v>       0.50854170       0.49572915       0.42654276 </v>
   <v>       0.50854170       0.12072913       0.10663567 </v>
   <v>       0.75854170       0.99572915       0.31990707 </v>
   <v>       0.00854170       0.87072915       0.53317845 </v>
   <v>       0.00854170       0.37072912       0.10663567 </v>
   <v>       0.25854158       0.24572912       0.31990707 </v>
   <v>       0.50854170       0.12072911       0.53317845 </v>
   <v>       0.50854170       0.62072909       0.10663567 </v>
   <v>       0.75854164       0.49572912       0.31990707 </v>
   <v>       0.00854170       0.37072909       0.53317845 </v>
   <v>       0.00854158       0.87072909       0.10663567 </v>
   <v>       0.25854158       0.74572909       0.31990707 </v>
   <v>       0.50854158       0.62072909       0.53317845 </v>
   <v>       0.38559988       0.22659838       0.64595544 </v>
   <v>       0.63559997       0.83770943       0.69420898 </v>
   <v>       0.88559997       0.44882053       0.74246252 </v>
   <v>       0.13559997       0.05993152       0.79071599 </v>
   <v>       0.38560006       0.67104256       0.83896953 </v>
   <v>       0.63560021       0.28215325       0.88722289 </v>
   <v>       0.13559997       0.97659844       0.64595544 </v>
   <v>       0.38559994       0.58770943       0.69420898 </v>
   <v>       0.63559997       0.19882059       0.74246246 </v>
   <v>       0.88560021       0.80993146       0.79071599 </v>
   <v>       0.13560009       0.42104244       0.83896941 </v>
   <v>       0.38560030       0.03215337       0.88722295 </v>
   <v>       0.63559997       0.97659844       0.64595544 </v>
   <v>       0.88559997       0.58770943       0.69420898 </v>
   <v>       0.13559997       0.19882059       0.74246246 </v>
   <v>       0.38560006       0.80993146       0.79071599 </v>
   <v>       0.63560009       0.42104244       0.83896941 </v>
   <v>       0.88560021       0.03215337       0.88722295 </v>
   <v>       0.88559985       0.22659838       0.64595544 </v>
   <v>       0.13559985       0.83770943       0.69420898 </v>
   <v>       0.38559994       0.44882053       0.74246252 </v>
   <v>       0.63559997       0.05993152       0.79071599 </v>
   <v>       0.88560033       0.67104244       0.83896941 </v>
   <v>       0.13560021       0.28215349       0.88722289 </v>
  </varray>
 </structure>
</modeling>
