 228 228   0   0
  0.2256881E+02  0.1697340E-08  0.1697340E-08  0.1786100E-08  0.5000000E-15
  1.000000000000000E-004
  CAR 
 Si and Ge interface calculation         
      7.15461337     -8.86549667  301      4.30467237      1.00000000
     -8.865  0.0000E+00  0.0000E+00  0.0000E+00  0.0000E+00
     -8.812  0.0000E+00  0.0000E+00  0.0000E+00  0.0000E+00
     -8.759  0.0000E+00  0.0000E+00  0.0000E+00  0.0000E+00
     -8.705  0.0000E+00  0.0000E+00  0.0000E+00  0.0000E+00
     -8.652  0.0000E+00  0.0000E+00  0.0000E+00  0.0000E+00
     -8.598  0.0000E+00  0.0000E+00  0.0000E+00  0.0000E+00
     -8.545  0.0000E+00  0.0000E+00  0.0000E+00  0.0000E+00
     -8.492  0.0000E+00  0.0000E+00  0.0000E+00  0.0000E+00
     -8.438  0.0000E+00  0.0000E+00  0.0000E+00  0.0000E+00
     -8.385  0.0000E+00  0.0000E+00  0.0000E+00  0.0000E+00
     -8.331  0.0000E+00  0.0000E+00  0.0000E+00  0.0000E+00
     -8.278  0.0000E+00  0.0000E+00  0.0000E+00  0.0000E+00
     -8.225  0.0000E+00  0.0000E+00  0.0000E+00  0.0000E+00
     -8.171  0.3611E-05  0.6496E-06  0.1928E-06  0.3469E-07
     -8.118  0.9030E+01  0.8756E+01  0.4822E+00  0.4676E+00
     -8.064  0.3332E+00  0.6071E+00  0.5000E+00  0.5000E+00
     -8.011  0.3596E+02  0.3481E+02  0.2420E+01  0.2359E+01
     -7.958  0.6224E+01  0.6741E+01  0.2753E+01  0.2719E+01
     -7.904  0.1791E+02  0.1737E+02  0.3709E+01  0.3647E+01
     -7.851  0.1481E+02  0.1598E+02  0.4500E+01  0.4500E+01
     -7.797  0.1012E-07  0.4818E-03  0.4500E+01  0.4500E+01
     -7.744  0.8628E+01  0.7249E+01  0.4961E+01  0.4887E+01
     -7.691  0.1627E+02  0.1685E+02  0.5830E+01  0.5787E+01
     -7.637  0.3563E+02  0.3256E+02  0.7732E+01  0.7526E+01
     -7.584  0.7884E+02  0.8052E+02  0.1194E+02  0.1183E+02
     -7.530  0.2987E+02  0.3167E+02  0.1354E+02  0.1352E+02
     -7.477  0.8920E+01  0.9154E+01  0.1401E+02  0.1401E+02
     -7.424  0.1731E+02  0.1676E+02  0.1494E+02  0.1490E+02
     -7.370  0.7035E+01  0.7018E+01  0.1531E+02  0.1528E+02
     -7.317  0.1823E+02  0.1857E+02  0.1629E+02  0.1627E+02
     -7.263  0.5985E+02  0.5957E+02  0.1948E+02  0.1945E+02
     -7.210  0.3322E+02  0.3116E+02  0.2126E+02  0.2111E+02
     -7.157  0.7994E+02  0.8004E+02  0.2553E+02  0.2539E+02
     -7.103  0.5333E+02  0.5363E+02  0.2837E+02  0.2825E+02
     -7.050  0.5641E+02  0.5308E+02  0.3139E+02  0.3108E+02
     -6.996  0.3445E+02  0.3976E+02  0.3323E+02  0.3321E+02
     -6.943  0.9811E+01  0.1003E+02  0.3375E+02  0.3374E+02
     -6.890  0.6043E+02  0.5608E+02  0.3698E+02  0.3674E+02
     -6.836  0.6658E+02  0.6404E+02  0.4053E+02  0.4016E+02
     -6.783  0.6877E+02  0.7407E+02  0.4421E+02  0.4411E+02
     -6.729  0.3152E+02  0.3100E+02  0.4589E+02  0.4577E+02
     -6.676  0.8195E+02  0.7981E+02  0.5026E+02  0.5003E+02
     -6.623  0.4436E+02  0.4753E+02  0.5263E+02  0.5257E+02
     -6.569  0.5149E+02  0.4846E+02  0.5538E+02  0.5516E+02
     -6.516  0.6219E+02  0.6186E+02  0.5870E+02  0.5846E+02
     -6.462  0.8381E+02  0.7893E+02  0.6318E+02  0.6268E+02
     -6.409  0.8804E+02  0.9348E+02  0.6788E+02  0.6767E+02
     -6.356  0.8508E+02  0.8689E+02  0.7242E+02  0.7231E+02
     -6.302  0.1005E+03  0.9937E+02  0.7779E+02  0.7761E+02
     -6.249  0.8273E+02  0.8361E+02  0.8221E+02  0.8208E+02
     -6.195  0.8187E+02  0.7949E+02  0.8658E+02  0.8632E+02
     -6.142  0.7067E+02  0.7262E+02  0.9036E+02  0.9020E+02
     -6.089  0.3887E+02  0.4015E+02  0.9243E+02  0.9234E+02
     -6.035  0.6849E+02  0.6590E+02  0.9609E+02  0.9586E+02
     -5.982  0.9034E+02  0.8790E+02  0.1009E+03  0.1006E+03
     -5.928  0.6529E+02  0.6884E+02  0.1044E+03  0.1042E+03
     -5.875  0.4932E+02  0.4920E+02  0.1070E+03  0.1069E+03
     -5.822  0.6952E+02  0.6821E+02  0.1107E+03  0.1105E+03
     -5.768  0.7965E+02  0.7980E+02  0.1150E+03  0.1148E+03
     -5.715  0.8021E+02  0.7939E+02  0.1193E+03  0.1190E+03
     -5.661  0.9521E+02  0.9570E+02  0.1244E+03  0.1241E+03
     -5.608  0.4193E+02  0.4500E+02  0.1266E+03  0.1265E+03
     -5.555  0.9853E+02  0.9083E+02  0.1319E+03  0.1314E+03
     -5.501  0.1122E+03  0.1170E+03  0.1379E+03  0.1376E+03
     -5.448  0.8192E+02  0.8008E+02  0.1422E+03  0.1419E+03
     -5.394  0.4594E+02  0.4988E+02  0.1447E+03  0.1446E+03
     -5.341  0.5199E+02  0.5220E+02  0.1475E+03  0.1473E+03
     -5.288  0.8948E+02  0.8759E+02  0.1522E+03  0.1520E+03
     -5.234  0.8829E+02  0.8464E+02  0.1570E+03  0.1565E+03
     -5.181  0.9459E+02  0.9473E+02  0.1620E+03  0.1616E+03
     -5.127  0.5655E+02  0.5919E+02  0.1650E+03  0.1648E+03
     -5.074  0.6607E+02  0.6756E+02  0.1686E+03  0.1684E+03
     -5.021  0.6130E+02  0.5950E+02  0.1718E+03  0.1715E+03
     -4.967  0.6767E+02  0.6674E+02  0.1754E+03  0.1751E+03
     -4.914  0.8316E+02  0.8143E+02  0.1799E+03  0.1795E+03
     -4.860  0.6228E+02  0.6731E+02  0.1832E+03  0.1831E+03
     -4.807  0.4734E+02  0.4518E+02  0.1857E+03  0.1855E+03
     -4.754  0.5269E+02  0.5425E+02  0.1886E+03  0.1884E+03
     -4.700  0.5881E+02  0.5706E+02  0.1917E+03  0.1914E+03
     -4.647  0.6160E+02  0.6419E+02  0.1950E+03  0.1948E+03
     -4.593  0.4599E+02  0.4641E+02  0.1974E+03  0.1973E+03
     -4.540  0.6209E+02  0.6167E+02  0.2008E+03  0.2006E+03
     -4.487  0.6783E+02  0.6685E+02  0.2044E+03  0.2042E+03
     -4.433  0.6221E+02  0.6279E+02  0.2077E+03  0.2075E+03
     -4.380  0.6099E+02  0.5953E+02  0.2110E+03  0.2107E+03
     -4.326  0.5842E+02  0.5894E+02  0.2141E+03  0.2139E+03
     -4.273  0.1733E+02  0.2131E+02  0.2150E+03  0.2150E+03
     -4.220  0.3776E+02  0.3607E+02  0.2170E+03  0.2169E+03
     -4.166  0.5174E+02  0.5033E+02  0.2198E+03  0.2196E+03
     -4.113  0.3865E+02  0.3878E+02  0.2218E+03  0.2217E+03
     -4.059  0.2165E+02  0.2463E+02  0.2230E+03  0.2230E+03
     -4.006  0.4508E+02  0.3817E+02  0.2254E+03  0.2250E+03
     -3.953  0.6964E+02  0.6999E+02  0.2291E+03  0.2288E+03
     -3.899  0.2628E+02  0.3250E+02  0.2305E+03  0.2305E+03
     -3.846  0.3678E+02  0.3311E+02  0.2325E+03  0.2323E+03
     -3.792  0.3411E+02  0.3315E+02  0.2343E+03  0.2340E+03
     -3.739  0.4472E+02  0.4854E+02  0.2367E+03  0.2366E+03
     -3.686  0.1931E+02  0.1977E+02  0.2377E+03  0.2377E+03
     -3.632  0.3574E+02  0.3311E+02  0.2396E+03  0.2395E+03
     -3.579  0.4686E+02  0.4634E+02  0.2421E+03  0.2419E+03
     -3.525  0.1905E+02  0.2093E+02  0.2432E+03  0.2431E+03
     -3.472  0.7109E+02  0.6245E+02  0.2470E+03  0.2464E+03
     -3.419  0.1111E+03  0.1153E+03  0.2529E+03  0.2525E+03
     -3.365  0.9026E+02  0.8915E+02  0.2577E+03  0.2573E+03
     -3.312  0.5494E+02  0.5819E+02  0.2606E+03  0.2604E+03
     -3.258  0.9856E+02  0.9672E+02  0.2659E+03  0.2656E+03
     -3.205  0.6856E+02  0.6636E+02  0.2696E+03  0.2691E+03
     -3.152  0.9213E+02  0.9062E+02  0.2745E+03  0.2740E+03
     -3.098  0.7052E+02  0.7612E+02  0.2783E+03  0.2780E+03
     -3.045  0.8841E+02  0.8633E+02  0.2830E+03  0.2826E+03
     -2.991  0.7605E+02  0.7730E+02  0.2870E+03  0.2868E+03
     -2.938  0.6081E+02  0.6055E+02  0.2903E+03  0.2900E+03
     -2.885  0.8750E+02  0.8857E+02  0.2950E+03  0.2947E+03
     -2.831  0.5446E+02  0.5489E+02  0.2979E+03  0.2977E+03
     -2.778  0.7030E+02  0.6617E+02  0.3016E+03  0.3012E+03
     -2.724  0.8562E+02  0.8740E+02  0.3062E+03  0.3059E+03
     -2.671  0.6369E+02  0.6666E+02  0.3096E+03  0.3094E+03
     -2.618  0.7305E+02  0.7244E+02  0.3135E+03  0.3133E+03
     -2.564  0.5990E+02  0.6121E+02  0.3167E+03  0.3166E+03
     -2.511  0.5207E+02  0.4819E+02  0.3195E+03  0.3191E+03
     -2.457  0.7845E+02  0.8029E+02  0.3237E+03  0.3234E+03
     -2.404  0.6308E+02  0.6486E+02  0.3270E+03  0.3269E+03
     -2.351  0.7397E+02  0.7194E+02  0.3310E+03  0.3307E+03
     -2.297  0.1099E+03  0.1097E+03  0.3369E+03  0.3366E+03
     -2.244  0.7080E+02  0.6830E+02  0.3406E+03  0.3402E+03
     -2.190  0.9755E+02  0.9839E+02  0.3458E+03  0.3455E+03
     -2.137  0.5395E+02  0.5973E+02  0.3487E+03  0.3487E+03
     -2.084  0.5924E+02  0.5520E+02  0.3519E+03  0.3516E+03
     -2.030  0.5616E+02  0.5839E+02  0.3549E+03  0.3547E+03
     -1.977  0.5425E+02  0.5211E+02  0.3578E+03  0.3575E+03
     -1.923  0.7281E+02  0.7017E+02  0.3617E+03  0.3613E+03
     -1.870  0.9659E+02  0.9705E+02  0.3668E+03  0.3664E+03
     -1.817  0.3730E+02  0.4295E+02  0.3688E+03  0.3687E+03
     -1.763  0.3868E+02  0.3856E+02  0.3709E+03  0.3708E+03
     -1.710  0.3038E+02  0.3107E+02  0.3725E+03  0.3725E+03
     -1.656  0.8059E+02  0.7802E+02  0.3768E+03  0.3766E+03
     -1.603  0.3363E+02  0.3517E+02  0.3786E+03  0.3785E+03
     -1.550  0.5044E+02  0.4775E+02  0.3813E+03  0.3811E+03
     -1.496  0.3877E+02  0.4170E+02  0.3834E+03  0.3833E+03
     -1.443  0.3548E+02  0.3288E+02  0.3853E+03  0.3850E+03
     -1.389  0.3785E+02  0.3890E+02  0.3873E+03  0.3871E+03
     -1.336  0.2272E+02  0.2354E+02  0.3885E+03  0.3884E+03
     -1.283  0.4608E+02  0.4475E+02  0.3910E+03  0.3908E+03
     -1.229  0.3599E+02  0.3744E+02  0.3929E+03  0.3928E+03
     -1.176  0.9548E+02  0.9606E+02  0.3980E+03  0.3979E+03
     -1.122  0.4293E+02  0.4066E+02  0.4003E+03  0.4001E+03
     -1.069  0.3282E+02  0.3431E+02  0.4020E+03  0.4019E+03
     -1.016  0.4173E+02  0.4375E+02  0.4043E+03  0.4042E+03
     -0.962  0.2761E+02  0.2704E+02  0.4057E+03  0.4057E+03
     -0.909  0.6201E+02  0.5890E+02  0.4090E+03  0.4088E+03
     -0.855  0.2267E+02  0.2674E+02  0.4103E+03  0.4102E+03
     -0.802  0.4005E+02  0.3773E+02  0.4124E+03  0.4123E+03
     -0.749  0.2705E+02  0.2831E+02  0.4138E+03  0.4138E+03
     -0.695  0.2245E+02  0.2238E+02  0.4150E+03  0.4150E+03
     -0.642  0.5091E+02  0.5198E+02  0.4178E+03  0.4177E+03
     -0.588  0.2279E+02  0.2052E+02  0.4190E+03  0.4188E+03
     -0.535  0.1111E+02  0.1251E+02  0.4196E+03  0.4195E+03
     -0.482  0.3633E+02  0.3619E+02  0.4215E+03  0.4214E+03
     -0.428  0.2472E+02  0.2286E+02  0.4228E+03  0.4227E+03
     -0.375  0.4039E+02  0.3702E+02  0.4250E+03  0.4246E+03
     -0.321  0.2844E+02  0.3456E+02  0.4265E+03  0.4265E+03
     -0.268  0.3250E+02  0.2874E+02  0.4282E+03  0.4280E+03
     -0.215  0.4373E+02  0.4446E+02  0.4306E+03  0.4304E+03
     -0.161  0.6049E+02  0.5989E+02  0.4338E+03  0.4336E+03
     -0.108  0.3972E+02  0.4165E+02  0.4359E+03  0.4358E+03
     -0.054  0.3890E+02  0.3297E+02  0.4380E+03  0.4376E+03
     -0.001  0.7318E+02  0.7946E+02  0.4419E+03  0.4418E+03
      0.052  0.9045E+02  0.8509E+02  0.4467E+03  0.4464E+03
      0.106  0.1110E+03  0.1128E+03  0.4527E+03  0.4524E+03
      0.159  0.5778E+02  0.5861E+02  0.4557E+03  0.4555E+03
      0.213  0.1157E+03  0.1077E+03  0.4619E+03  0.4613E+03
      0.266  0.1441E+03  0.1474E+03  0.4696E+03  0.4691E+03
      0.319  0.1229E+03  0.1187E+03  0.4762E+03  0.4755E+03
      0.373  0.1055E+03  0.1108E+03  0.4818E+03  0.4814E+03
      0.426  0.1425E+03  0.1419E+03  0.4894E+03  0.4890E+03
      0.480  0.6442E+02  0.6768E+02  0.4929E+03  0.4926E+03
      0.533  0.1449E+03  0.1350E+03  0.5006E+03  0.4998E+03
      0.586  0.1558E+03  0.1581E+03  0.5089E+03  0.5082E+03
      0.640  0.1387E+03  0.1371E+03  0.5163E+03  0.5156E+03
      0.693  0.1398E+03  0.1426E+03  0.5238E+03  0.5232E+03
      0.747  0.1521E+03  0.1533E+03  0.5319E+03  0.5314E+03
      0.800  0.1136E+03  0.1147E+03  0.5380E+03  0.5375E+03
      0.853  0.1307E+03  0.1337E+03  0.5450E+03  0.5446E+03
      0.907  0.1526E+03  0.1465E+03  0.5531E+03  0.5524E+03
      0.960  0.1325E+03  0.1356E+03  0.5602E+03  0.5597E+03
      1.014  0.1152E+03  0.1148E+03  0.5663E+03  0.5658E+03
      1.067  0.9821E+02  0.9941E+02  0.5716E+03  0.5711E+03
      1.120  0.1343E+03  0.1346E+03  0.5788E+03  0.5783E+03
      1.174  0.1390E+03  0.1412E+03  0.5862E+03  0.5859E+03
      1.227  0.1436E+03  0.1456E+03  0.5938E+03  0.5936E+03
      1.281  0.1677E+03  0.1614E+03  0.6028E+03  0.6023E+03
      1.334  0.1611E+03  0.1672E+03  0.6114E+03  0.6112E+03
      1.387  0.1186E+03  0.1156E+03  0.6177E+03  0.6174E+03
      1.441  0.1175E+03  0.1178E+03  0.6240E+03  0.6236E+03
      1.494  0.1221E+03  0.1228E+03  0.6305E+03  0.6302E+03
      1.548  0.1588E+03  0.1569E+03  0.6390E+03  0.6386E+03
      1.601  0.1615E+03  0.1563E+03  0.6476E+03  0.6469E+03
      1.654  0.1630E+03  0.1688E+03  0.6564E+03  0.6559E+03
      1.708  0.1173E+03  0.1196E+03  0.6626E+03  0.6623E+03
      1.761  0.1191E+03  0.1165E+03  0.6690E+03  0.6685E+03
      1.815  0.1821E+03  0.1825E+03  0.6787E+03  0.6783E+03
      1.868  0.1082E+03  0.1061E+03  0.6845E+03  0.6840E+03
      1.921  0.1132E+03  0.1153E+03  0.6905E+03  0.6901E+03
      1.975  0.1317E+03  0.1307E+03  0.6976E+03  0.6971E+03
      2.028  0.1102E+03  0.1129E+03  0.7034E+03  0.7031E+03
      2.082  0.9041E+02  0.8920E+02  0.7083E+03  0.7079E+03
      2.135  0.1264E+03  0.1187E+03  0.7150E+03  0.7142E+03
      2.188  0.1932E+03  0.1970E+03  0.7253E+03  0.7247E+03
      2.242  0.1305E+03  0.1333E+03  0.7323E+03  0.7319E+03
      2.295  0.1324E+03  0.1303E+03  0.7394E+03  0.7388E+03
      2.349  0.1179E+03  0.1140E+03  0.7457E+03  0.7449E+03
      2.402  0.1370E+03  0.1399E+03  0.7530E+03  0.7524E+03
      2.455  0.1327E+03  0.1315E+03  0.7601E+03  0.7594E+03
      2.509  0.1123E+03  0.1130E+03  0.7661E+03  0.7654E+03
      2.562  0.1020E+03  0.1045E+03  0.7715E+03  0.7710E+03
      2.616  0.1595E+03  0.1586E+03  0.7800E+03  0.7795E+03
      2.669  0.9164E+02  0.9336E+02  0.7849E+03  0.7845E+03
      2.722  0.1252E+03  0.1221E+03  0.7916E+03  0.7910E+03
      2.776  0.1139E+03  0.1140E+03  0.7977E+03  0.7971E+03
      2.829  0.1183E+03  0.1157E+03  0.8040E+03  0.8033E+03
      2.883  0.1512E+03  0.1587E+03  0.8121E+03  0.8117E+03
      2.936  0.1291E+03  0.1278E+03  0.8190E+03  0.8186E+03
      2.989  0.1209E+03  0.1200E+03  0.8254E+03  0.8250E+03
      3.043  0.6688E+02  0.6702E+02  0.8290E+03  0.8285E+03
      3.096  0.1169E+03  0.1164E+03  0.8353E+03  0.8348E+03
      3.150  0.7250E+02  0.7323E+02  0.8391E+03  0.8387E+03
      3.203  0.7666E+02  0.7858E+02  0.8432E+03  0.8429E+03
      3.256  0.5131E+02  0.5092E+02  0.8460E+03  0.8456E+03
      3.310  0.9700E+02  0.9203E+02  0.8511E+03  0.8505E+03
      3.363  0.9003E+02  0.8846E+02  0.8560E+03  0.8552E+03
      3.417  0.1073E+03  0.1062E+03  0.8617E+03  0.8609E+03
      3.470  0.9075E+02  0.9277E+02  0.8665E+03  0.8659E+03
      3.523  0.5788E+02  0.6204E+02  0.8696E+03  0.8692E+03
      3.577  0.9156E+02  0.9331E+02  0.8745E+03  0.8741E+03
      3.630  0.4396E+02  0.4420E+02  0.8769E+03  0.8765E+03
      3.684  0.2970E+02  0.3379E+02  0.8784E+03  0.8783E+03
      3.737  0.8257E+02  0.7611E+02  0.8829E+03  0.8824E+03
      3.790  0.6104E+02  0.5526E+02  0.8861E+03  0.8853E+03
      3.844  0.6242E+02  0.7380E+02  0.8894E+03  0.8893E+03
      3.897  0.3032E+02  0.2285E+02  0.8911E+03  0.8905E+03
      3.951  0.4178E+02  0.3830E+02  0.8933E+03  0.8925E+03
      4.004  0.7658E+02  0.7891E+02  0.8974E+03  0.8967E+03
      4.057  0.3152E+02  0.3727E+02  0.8991E+03  0.8987E+03
      4.111  0.2594E+02  0.2258E+02  0.9005E+03  0.8999E+03
      4.164  0.3861E+02  0.4402E+02  0.9025E+03  0.9023E+03
      4.218  0.5473E+02  0.4412E+02  0.9054E+03  0.9046E+03
      4.271  0.8204E+02  0.7927E+02  0.9098E+03  0.9089E+03
      4.324  0.4226E+02  0.5607E+02  0.9121E+03  0.9119E+03
      4.378  0.8406E+02  0.6530E+02  0.9166E+03  0.9154E+03
      4.431  0.6117E+02  0.7284E+02  0.9198E+03  0.9193E+03
      4.485  0.4875E+02  0.5405E+02  0.9224E+03  0.9221E+03
      4.538  0.5853E+02  0.5312E+02  0.9256E+03  0.9250E+03
      4.591  0.8324E+02  0.8189E+02  0.9300E+03  0.9293E+03
      4.645  0.4875E+02  0.4760E+02  0.9326E+03  0.9319E+03
      4.698  0.6790E+02  0.7191E+02  0.9362E+03  0.9357E+03
      4.752  0.9508E+02  0.9000E+02  0.9413E+03  0.9405E+03
      4.805  0.5465E+02  0.5976E+02  0.9442E+03  0.9437E+03
      4.858  0.8295E+02  0.7900E+02  0.9487E+03  0.9479E+03
      4.912  0.9521E+02  0.9364E+02  0.9537E+03  0.9529E+03
      4.965  0.7649E+02  0.7840E+02  0.9578E+03  0.9571E+03
      5.019  0.8717E+02  0.8124E+02  0.9625E+03  0.9615E+03
      5.072  0.7397E+02  0.8119E+02  0.9664E+03  0.9658E+03
      5.125  0.1096E+03  0.1039E+03  0.9723E+03  0.9714E+03
      5.179  0.1098E+03  0.1088E+03  0.9782E+03  0.9772E+03
      5.232  0.7640E+02  0.8164E+02  0.9822E+03  0.9815E+03
      5.286  0.7735E+02  0.7124E+02  0.9864E+03  0.9853E+03
      5.339  0.7510E+02  0.8647E+02  0.9904E+03  0.9899E+03
      5.392  0.1024E+03  0.9774E+02  0.9958E+03  0.9952E+03
      5.446  0.6981E+02  0.7545E+02  0.9996E+03  0.9992E+03
      5.499  0.1386E+03  0.1346E+03  0.1007E+04  0.1006E+04
      5.553  0.9606E+02  0.9503E+02  0.1012E+04  0.1011E+04
      5.606  0.9736E+02  0.9927E+02  0.1017E+04  0.1017E+04
      5.659  0.1238E+03  0.1200E+03  0.1024E+04  0.1023E+04
      5.713  0.9815E+02  0.9853E+02  0.1029E+04  0.1028E+04
      5.766  0.8391E+02  0.8736E+02  0.1034E+04  0.1033E+04
      5.820  0.1219E+03  0.1194E+03  0.1040E+04  0.1039E+04
      5.873  0.1043E+03  0.1056E+03  0.1046E+04  0.1045E+04
      5.926  0.1275E+03  0.1238E+03  0.1053E+04  0.1052E+04
      5.980  0.1181E+03  0.1168E+03  0.1059E+04  0.1058E+04
      6.033  0.1082E+03  0.1128E+03  0.1065E+04  0.1064E+04
      6.087  0.1220E+03  0.1223E+03  0.1071E+04  0.1071E+04
      6.140  0.5805E+02  0.6367E+02  0.1074E+04  0.1074E+04
      6.193  0.1155E+03  0.1133E+03  0.1080E+04  0.1080E+04
      6.247  0.8759E+02  0.8540E+02  0.1085E+04  0.1085E+04
      6.300  0.7155E+02  0.7866E+02  0.1089E+04  0.1089E+04
      6.354  0.8510E+02  0.8250E+02  0.1093E+04  0.1093E+04
      6.407  0.4154E+02  0.4271E+02  0.1096E+04  0.1095E+04
      6.460  0.6581E+01  0.1112E+02  0.1096E+04  0.1096E+04
      6.514  0.0000E+00  0.0000E+00  0.1096E+04  0.1096E+04
      6.567  0.0000E+00  0.0000E+00  0.1096E+04  0.1096E+04
      6.621  0.0000E+00  0.0000E+00  0.1096E+04  0.1096E+04
      6.674  0.0000E+00  0.0000E+00  0.1096E+04  0.1096E+04
      6.727  0.0000E+00  0.0000E+00  0.1096E+04  0.1096E+04
      6.781  0.0000E+00  0.0000E+00  0.1096E+04  0.1096E+04
      6.834  0.0000E+00  0.0000E+00  0.1096E+04  0.1096E+04
      6.888  0.0000E+00  0.0000E+00  0.1096E+04  0.1096E+04
      6.941  0.0000E+00  0.0000E+00  0.1096E+04  0.1096E+04
      6.994  0.0000E+00  0.0000E+00  0.1096E+04  0.1096E+04
      7.048  0.0000E+00  0.0000E+00  0.1096E+04  0.1096E+04
      7.101  0.0000E+00  0.0000E+00  0.1096E+04  0.1096E+04
      7.155  0.0000E+00  0.0000E+00  0.1096E+04  0.1096E+04
