 120 120   0   0
  0.1187862E+02  0.1629300E-08  0.1629300E-08  0.7204129E-09  0.5000000E-15
  1.000000000000000E-004
  CAR 
 Si and Ge interface calculation         
      9.08538864    -14.30802116  301      5.34712654      1.00000000
    -14.308  0.0000E+00  0.0000E+00  0.0000E+00  0.0000E+00
    -14.230  0.0000E+00  0.0000E+00  0.0000E+00  0.0000E+00
    -14.152  0.0000E+00  0.0000E+00  0.0000E+00  0.0000E+00
    -14.074  0.0000E+00  0.0000E+00  0.0000E+00  0.0000E+00
    -13.996  0.0000E+00  0.0000E+00  0.0000E+00  0.0000E+00
    -13.918  0.0000E+00  0.0000E+00  0.0000E+00  0.0000E+00
    -13.840  0.0000E+00  0.0000E+00  0.0000E+00  0.0000E+00
    -13.762  0.0000E+00  0.0000E+00  0.0000E+00  0.0000E+00
    -13.684  0.0000E+00  0.0000E+00  0.0000E+00  0.0000E+00
    -13.606  0.0000E+00  0.0000E+00  0.0000E+00  0.0000E+00
    -13.528  0.0000E+00  0.0000E+00  0.0000E+00  0.0000E+00
    -13.450  0.0000E+00  0.0000E+00  0.0000E+00  0.0000E+00
    -13.372  0.0000E+00  0.0000E+00  0.0000E+00  0.0000E+00
    -13.294  0.8945E-12  0.3955E-15  0.6975E-13  0.3084E-16
    -13.216  0.5948E+01  0.4050E+01  0.4638E+00  0.3158E+00
    -13.138  0.1882E+02  0.1993E+02  0.1965E+01  0.1871E+01
    -13.060  0.1161E-09  0.5993E+00  0.2000E+01  0.2000E+01
    -12.982  0.1717E+02  0.1470E+02  0.3339E+01  0.3146E+01
    -12.904  0.1080E+02  0.1136E+02  0.4222E+01  0.4222E+01
    -12.826  0.2213E+02  0.2021E+02  0.5948E+01  0.5798E+01
    -12.748  0.3346E-01  0.1026E+01  0.6003E+01  0.6000E+01
    -12.670  0.1141E+02  0.1140E+02  0.6893E+01  0.6889E+01
    -12.593  0.8503E+01  0.8541E+01  0.7556E+01  0.7555E+01
    -12.515  0.8318E+01  0.5898E+01  0.8204E+01  0.8015E+01
    -12.437  0.2017E+02  0.2214E+02  0.9777E+01  0.9742E+01
    -12.359  0.1713E+02  0.1345E+02  0.1111E+02  0.1083E+02
    -12.281  0.1485E+02  0.1721E+02  0.1228E+02  0.1223E+02
    -12.203  0.4944E+01  0.5640E+01  0.1267E+02  0.1267E+02
    -12.125  0.6496E+01  0.5759E+01  0.1317E+02  0.1312E+02
    -12.047  0.1624E+02  0.1542E+02  0.1444E+02  0.1432E+02
    -11.969  0.1444E+02  0.1097E+02  0.1557E+02  0.1530E+02
    -11.891  0.2208E+02  0.2591E+02  0.1734E+02  0.1733E+02
    -11.813  0.1132E+02  0.1139E+02  0.1822E+02  0.1822E+02
    -11.735  0.5695E+01  0.5251E+01  0.1867E+02  0.1863E+02
    -11.657  0.2234E+02  0.1573E+02  0.2041E+02  0.1989E+02
    -11.579  0.9785E+01  0.1847E+02  0.2133E+02  0.2133E+02
    -11.501  0.5858E+01  0.5707E+01  0.2179E+02  0.2178E+02
    -11.423  0.2263E+02  0.2279E+02  0.2356E+02  0.2356E+02
    -11.345  0.2119E+01  0.2549E+00  0.2372E+02  0.2358E+02
    -11.267  0.1611E+02  0.1700E+02  0.2498E+02  0.2490E+02
    -11.189  0.8506E+01  0.6653E+01  0.2564E+02  0.2542E+02
    -11.111  0.1496E+02  0.1849E+02  0.2689E+02  0.2686E+02
    -11.033  0.1923E+00  0.6436E-02  0.2690E+02  0.2689E+02
    -10.955  0.8359E+01  0.8543E+01  0.2756E+02  0.2756E+02
    -10.877  0.5698E+01  0.5700E+01  0.2800E+02  0.2800E+02
    -10.799  0.0000E+00  0.0000E+00  0.2800E+02  0.2800E+02
    -10.721  0.3970E-05  0.1184E-07  0.2800E+02  0.2800E+02
    -10.643  0.6074E+01  0.3779E+01  0.2847E+02  0.2829E+02
    -10.565  0.1541E+02  0.1656E+02  0.2972E+02  0.2959E+02
    -10.487  0.2330E+02  0.2510E+02  0.3155E+02  0.3154E+02
    -10.409  0.8853E+01  0.4288E+01  0.3225E+02  0.3189E+02
    -10.331  0.1594E+02  0.2160E+02  0.3370E+02  0.3357E+02
    -10.253  0.1771E+02  0.1604E+02  0.3508E+02  0.3482E+02
    -10.175  0.1904E+02  0.1935E+02  0.3658E+02  0.3645E+02
    -10.097  0.1914E+02  0.1965E+02  0.3809E+02  0.3802E+02
    -10.019  0.1853E+02  0.1965E+02  0.3956E+02  0.3955E+02
     -9.941  0.1223E+00  0.8864E-02  0.3957E+02  0.3956E+02
     -9.863  0.1447E+02  0.1382E+02  0.4069E+02  0.4063E+02
     -9.785  0.1097E+02  0.1137E+02  0.4156E+02  0.4155E+02
     -9.707  0.1388E+02  0.1169E+02  0.4264E+02  0.4247E+02
     -9.629  0.4159E+01  0.5424E+01  0.4300E+02  0.4291E+02
     -9.551  0.8094E+01  0.6066E+01  0.4364E+02  0.4338E+02
     -9.473  0.1970E+02  0.2234E+02  0.4517E+02  0.4512E+02
     -9.395  0.1095E+02  0.9905E+01  0.4603E+02  0.4589E+02
     -9.317  0.1258E+02  0.1269E+02  0.4702E+02  0.4689E+02
     -9.239  0.2214E+02  0.2344E+02  0.4877E+02  0.4872E+02
     -9.161  0.9730E+01  0.5613E+01  0.4953E+02  0.4917E+02
     -9.083  0.1415E+02  0.1870E+02  0.5069E+02  0.5067E+02
     -9.006  0.1975E+02  0.1991E+02  0.5223E+02  0.5222E+02
     -8.928  0.2833E+02  0.2799E+02  0.5444E+02  0.5441E+02
     -8.850  0.5709E+01  0.5700E+01  0.5489E+02  0.5489E+02
     -8.772  0.2853E+02  0.2490E+02  0.5711E+02  0.5683E+02
     -8.694  0.2273E+02  0.1984E+02  0.5892E+02  0.5852E+02
     -8.616  0.9730E+01  0.1492E+02  0.5978E+02  0.5978E+02
     -8.538  0.2201E+02  0.1897E+02  0.6150E+02  0.6126E+02
     -8.460  0.9176E+01  0.1116E+02  0.6222E+02  0.6222E+02
     -8.382  0.1457E+02  0.1167E+02  0.6336E+02  0.6313E+02
     -8.304  0.1364E+02  0.1179E+02  0.6447E+02  0.6411E+02
     -8.226  0.1322E+02  0.1821E+02  0.6556E+02  0.6556E+02
     -8.148  0.1120E+02  0.9125E+01  0.6643E+02  0.6627E+02
     -8.070  0.9646E+01  0.9236E+01  0.6720E+02  0.6707E+02
     -7.992  0.2231E+02  0.2206E+02  0.6897E+02  0.6879E+02
     -7.914  0.1287E+02  0.1206E+02  0.6998E+02  0.6984E+02
     -7.836  0.1528E+02  0.1105E+02  0.7120E+02  0.7076E+02
     -7.758  0.2262E+02  0.2487E+02  0.7308E+02  0.7271E+02
     -7.680  0.2113E+02  0.2438E+02  0.7475E+02  0.7467E+02
     -7.602  0.1653E+02  0.1131E+02  0.7608E+02  0.7555E+02
     -7.524  0.1440E+02  0.1940E+02  0.7728E+02  0.7709E+02
     -7.446  0.2025E+02  0.2144E+02  0.7888E+02  0.7876E+02
     -7.368  0.1036E+02  0.5035E+01  0.7970E+02  0.7915E+02
     -7.290  0.6987E+01  0.1607E+02  0.8044E+02  0.8044E+02
     -7.212  0.9973E+01  0.8458E+01  0.8122E+02  0.8110E+02
     -7.134  0.1062E+02  0.1138E+02  0.8205E+02  0.8200E+02
     -7.056  0.9701E+01  0.8325E+01  0.8281E+02  0.8265E+02
     -6.978  0.5819E+00  0.2376E+01  0.8289E+02  0.8289E+02
     -6.900  0.6208E+01  0.5771E+01  0.8337E+02  0.8334E+02
     -6.822  0.1088E+02  0.1133E+02  0.8422E+02  0.8422E+02
     -6.744  0.7139E+01  0.6188E+01  0.8478E+02  0.8470E+02
     -6.666  0.1088E+02  0.9900E+01  0.8563E+02  0.8550E+02
     -6.588  0.9698E+01  0.1124E+02  0.8644E+02  0.8640E+02
     -6.510  0.1695E+02  0.1472E+02  0.8777E+02  0.8754E+02
     -6.432  0.1917E+02  0.2076E+02  0.8931E+02  0.8923E+02
     -6.354  0.1134E+02  0.9049E+01  0.9021E+02  0.8999E+02
     -6.276  0.1508E+02  0.1759E+02  0.9144E+02  0.9136E+02
     -6.198  0.1385E+02  0.1286E+02  0.9253E+02  0.9245E+02
     -6.120  0.1454E+01  0.2489E+01  0.9267E+02  0.9267E+02
     -6.042  0.2036E+02  0.1579E+02  0.9426E+02  0.9390E+02
     -5.964  0.9220E+01  0.1463E+02  0.9508E+02  0.9506E+02
     -5.886  0.1772E+02  0.1539E+02  0.9646E+02  0.9626E+02
     -5.808  0.1142E+02  0.1225E+02  0.9742E+02  0.9723E+02
     -5.730  0.1435E+02  0.1533E+02  0.9862E+02  0.9847E+02
     -5.652  0.2378E+02  0.2064E+02  0.1005E+03  0.1001E+03
     -5.574  0.1101E+02  0.1404E+02  0.1015E+03  0.1013E+03
     -5.497  0.1377E+02  0.1199E+02  0.1026E+03  0.1023E+03
     -5.419  0.2691E+02  0.2920E+02  0.1048E+03  0.1046E+03
     -5.341  0.2309E+02  0.2170E+02  0.1066E+03  0.1064E+03
     -5.263  0.1773E+02  0.1934E+02  0.1081E+03  0.1079E+03
     -5.185  0.1379E+02  0.1273E+02  0.1092E+03  0.1089E+03
     -5.107  0.2156E+02  0.2506E+02  0.1110E+03  0.1108E+03
     -5.029  0.2747E+02  0.2747E+02  0.1131E+03  0.1130E+03
     -4.951  0.2749E+02  0.2378E+02  0.1153E+03  0.1149E+03
     -4.873  0.2524E+02  0.2930E+02  0.1173E+03  0.1172E+03
     -4.795  0.3560E+02  0.3288E+02  0.1201E+03  0.1198E+03
     -4.717  0.2526E+02  0.2835E+02  0.1222E+03  0.1220E+03
     -4.639  0.2263E+02  0.2068E+02  0.1240E+03  0.1237E+03
     -4.561  0.3518E+02  0.3688E+02  0.1268E+03  0.1266E+03
     -4.483  0.2069E+02  0.2036E+02  0.1284E+03  0.1282E+03
     -4.405  0.2522E+02  0.2369E+02  0.1304E+03  0.1301E+03
     -4.327  0.2929E+02  0.2766E+02  0.1327E+03  0.1323E+03
     -4.249  0.2653E+02  0.2949E+02  0.1349E+03  0.1346E+03
     -4.171  0.2500E+02  0.2306E+02  0.1368E+03  0.1365E+03
     -4.093  0.1901E+02  0.2182E+02  0.1384E+03  0.1382E+03
     -4.015  0.3026E+02  0.2994E+02  0.1408E+03  0.1406E+03
     -3.937  0.2250E+02  0.2317E+02  0.1426E+03  0.1425E+03
     -3.859  0.1576E+02  0.1282E+02  0.1438E+03  0.1435E+03
     -3.781  0.4074E+02  0.4141E+02  0.1471E+03  0.1467E+03
     -3.703  0.2538E+02  0.2391E+02  0.1491E+03  0.1487E+03
     -3.625  0.2488E+02  0.2614E+02  0.1511E+03  0.1508E+03
     -3.547  0.2591E+02  0.2531E+02  0.1532E+03  0.1528E+03
     -3.469  0.3911E+02  0.4033E+02  0.1563E+03  0.1560E+03
     -3.391  0.3544E+02  0.3304E+02  0.1591E+03  0.1587E+03
     -3.313  0.2594E+02  0.2909E+02  0.1612E+03  0.1610E+03
     -3.235  0.1974E+02  0.1897E+02  0.1628E+03  0.1625E+03
     -3.157  0.2567E+02  0.2688E+02  0.1648E+03  0.1647E+03
     -3.079  0.2747E+02  0.2685E+02  0.1670E+03  0.1668E+03
     -3.001  0.1413E+02  0.1422E+02  0.1682E+03  0.1679E+03
     -2.923  0.2757E+02  0.2844E+02  0.1704E+03  0.1702E+03
     -2.845  0.2877E+02  0.2796E+02  0.1727E+03  0.1724E+03
     -2.767  0.2993E+02  0.3124E+02  0.1751E+03  0.1749E+03
     -2.689  0.2518E+02  0.2545E+02  0.1772E+03  0.1769E+03
     -2.611  0.3133E+02  0.3229E+02  0.1796E+03  0.1795E+03
     -2.533  0.3164E+02  0.3061E+02  0.1821E+03  0.1819E+03
     -2.455  0.2226E+02  0.2270E+02  0.1839E+03  0.1837E+03
     -2.377  0.1875E+02  0.1715E+02  0.1855E+03  0.1851E+03
     -2.299  0.3553E+02  0.3831E+02  0.1883E+03  0.1881E+03
     -2.221  0.2175E+02  0.2062E+02  0.1900E+03  0.1898E+03
     -2.143  0.3151E+02  0.3201E+02  0.1925E+03  0.1923E+03
     -2.065  0.2736E+02  0.2521E+02  0.1948E+03  0.1944E+03
     -1.987  0.2892E+02  0.2664E+02  0.1971E+03  0.1966E+03
     -1.910  0.3190E+02  0.3282E+02  0.1996E+03  0.1992E+03
     -1.832  0.2990E+02  0.3260E+02  0.2021E+03  0.2018E+03
     -1.754  0.2627E+02  0.2621E+02  0.2042E+03  0.2039E+03
     -1.676  0.3086E+02  0.3120E+02  0.2067E+03  0.2064E+03
     -1.598  0.3693E+02  0.3578E+02  0.2097E+03  0.2093E+03
     -1.520  0.3832E+02  0.3939E+02  0.2127E+03  0.2124E+03
     -1.442  0.3260E+02  0.3091E+02  0.2153E+03  0.2150E+03
     -1.364  0.3040E+02  0.3027E+02  0.2177E+03  0.2173E+03
     -1.286  0.2817E+02  0.2765E+02  0.2201E+03  0.2195E+03
     -1.208  0.4078E+02  0.4231E+02  0.2234E+03  0.2229E+03
     -1.130  0.3553E+02  0.3712E+02  0.2262E+03  0.2258E+03
     -1.052  0.2812E+02  0.2939E+02  0.2285E+03  0.2281E+03
     -0.974  0.3261E+02  0.3240E+02  0.2311E+03  0.2307E+03
     -0.896  0.4108E+02  0.4271E+02  0.2344E+03  0.2342E+03
     -0.818  0.3176E+02  0.3087E+02  0.2369E+03  0.2366E+03
     -0.740  0.3208E+02  0.3240E+02  0.2395E+03  0.2391E+03
     -0.662  0.3499E+02  0.3139E+02  0.2422E+03  0.2416E+03
     -0.584  0.3324E+02  0.3564E+02  0.2450E+03  0.2445E+03
     -0.506  0.4071E+02  0.4385E+02  0.2483E+03  0.2480E+03
     -0.428  0.3219E+02  0.2869E+02  0.2509E+03  0.2503E+03
     -0.350  0.2625E+02  0.2774E+02  0.2530E+03  0.2526E+03
     -0.272  0.3773E+02  0.3613E+02  0.2560E+03  0.2555E+03
     -0.194  0.3871E+02  0.4132E+02  0.2592E+03  0.2588E+03
     -0.116  0.3589E+02  0.3483E+02  0.2620E+03  0.2616E+03
     -0.038  0.3577E+02  0.3327E+02  0.2649E+03  0.2643E+03
      0.040  0.3224E+02  0.3580E+02  0.2676E+03  0.2672E+03
      0.118  0.3022E+02  0.3148E+02  0.2700E+03  0.2697E+03
      0.196  0.3217E+02  0.3162E+02  0.2726E+03  0.2723E+03
      0.274  0.4280E+02  0.4150E+02  0.2759E+03  0.2757E+03
      0.352  0.3348E+02  0.3353E+02  0.2786E+03  0.2783E+03
      0.430  0.3106E+02  0.2652E+02  0.2810E+03  0.2805E+03
      0.508  0.3630E+02  0.3776E+02  0.2840E+03  0.2836E+03
      0.586  0.4434E+02  0.4582E+02  0.2875E+03  0.2873E+03
      0.664  0.3984E+02  0.3730E+02  0.2906E+03  0.2902E+03
      0.742  0.4826E+02  0.4776E+02  0.2945E+03  0.2940E+03
      0.820  0.4285E+02  0.4116E+02  0.2979E+03  0.2974E+03
      0.898  0.3282E+02  0.3499E+02  0.3006E+03  0.3002E+03
      0.976  0.4420E+02  0.4286E+02  0.3041E+03  0.3036E+03
      1.054  0.3366E+02  0.3448E+02  0.3068E+03  0.3065E+03
      1.132  0.3757E+02  0.3727E+02  0.3099E+03  0.3094E+03
      1.210  0.3426E+02  0.3494E+02  0.3126E+03  0.3122E+03
      1.288  0.4458E+02  0.4210E+02  0.3162E+03  0.3156E+03
      1.366  0.4398E+02  0.4910E+02  0.3198E+03  0.3194E+03
      1.444  0.3677E+02  0.3661E+02  0.3227E+03  0.3223E+03
      1.522  0.3573E+02  0.3543E+02  0.3256E+03  0.3252E+03
      1.599  0.3526E+02  0.3550E+02  0.3284E+03  0.3280E+03
      1.677  0.4077E+02  0.3703E+02  0.3316E+03  0.3311E+03
      1.755  0.3726E+02  0.4120E+02  0.3346E+03  0.3343E+03
      1.833  0.3655E+02  0.3356E+02  0.3375E+03  0.3370E+03
      1.911  0.3173E+02  0.3614E+02  0.3401E+03  0.3398E+03
      1.989  0.3120E+02  0.3022E+02  0.3426E+03  0.3423E+03
      2.067  0.4097E+02  0.3918E+02  0.3458E+03  0.3453E+03
      2.145  0.3722E+02  0.4021E+02  0.3488E+03  0.3485E+03
      2.223  0.4471E+02  0.4155E+02  0.3523E+03  0.3519E+03
      2.301  0.4549E+02  0.4329E+02  0.3560E+03  0.3554E+03
      2.379  0.4450E+02  0.4573E+02  0.3596E+03  0.3590E+03
      2.457  0.4100E+02  0.4311E+02  0.3629E+03  0.3624E+03
      2.535  0.3106E+02  0.3211E+02  0.3654E+03  0.3650E+03
      2.613  0.4465E+02  0.4305E+02  0.3690E+03  0.3684E+03
      2.691  0.3802E+02  0.3664E+02  0.3720E+03  0.3714E+03
      2.769  0.4276E+02  0.4388E+02  0.3754E+03  0.3748E+03
      2.847  0.3731E+02  0.3614E+02  0.3783E+03  0.3777E+03
      2.925  0.3616E+02  0.3387E+02  0.3812E+03  0.3805E+03
      3.003  0.4422E+02  0.4641E+02  0.3848E+03  0.3841E+03
      3.081  0.3720E+02  0.3779E+02  0.3878E+03  0.3872E+03
      3.159  0.4421E+02  0.4493E+02  0.3914E+03  0.3907E+03
      3.237  0.3203E+02  0.3331E+02  0.3939E+03  0.3935E+03
      3.315  0.3924E+02  0.3498E+02  0.3970E+03  0.3963E+03
      3.393  0.4305E+02  0.4382E+02  0.4005E+03  0.3997E+03
      3.471  0.4120E+02  0.4450E+02  0.4038E+03  0.4033E+03
      3.549  0.4224E+02  0.4269E+02  0.4072E+03  0.4067E+03
      3.627  0.3797E+02  0.3687E+02  0.4102E+03  0.4096E+03
      3.705  0.4624E+02  0.4876E+02  0.4139E+03  0.4134E+03
      3.783  0.5169E+02  0.4813E+02  0.4180E+03  0.4173E+03
      3.861  0.3640E+02  0.3709E+02  0.4210E+03  0.4202E+03
      3.939  0.3242E+02  0.3411E+02  0.4236E+03  0.4229E+03
      4.017  0.3567E+02  0.3901E+02  0.4265E+03  0.4260E+03
      4.095  0.3941E+02  0.3671E+02  0.4296E+03  0.4289E+03
      4.173  0.3330E+02  0.3587E+02  0.4322E+03  0.4317E+03
      4.251  0.3834E+02  0.3501E+02  0.4353E+03  0.4345E+03
      4.329  0.4149E+02  0.4190E+02  0.4386E+03  0.4380E+03
      4.407  0.3338E+02  0.3427E+02  0.4413E+03  0.4407E+03
      4.485  0.4260E+02  0.3897E+02  0.4447E+03  0.4438E+03
      4.563  0.2968E+02  0.3543E+02  0.4471E+03  0.4467E+03
      4.641  0.5119E+02  0.4327E+02  0.4511E+03  0.4501E+03
      4.719  0.2804E+02  0.3366E+02  0.4534E+03  0.4529E+03
      4.797  0.3785E+02  0.3981E+02  0.4564E+03  0.4560E+03
      4.875  0.3937E+02  0.3967E+02  0.4596E+03  0.4591E+03
      4.953  0.4291E+02  0.3770E+02  0.4629E+03  0.4621E+03
      5.031  0.4287E+02  0.4400E+02  0.4664E+03  0.4656E+03
      5.109  0.3938E+02  0.3750E+02  0.4695E+03  0.4687E+03
      5.186  0.4613E+02  0.4252E+02  0.4732E+03  0.4721E+03
      5.264  0.4227E+02  0.4330E+02  0.4766E+03  0.4756E+03
      5.342  0.4037E+02  0.3991E+02  0.4798E+03  0.4788E+03
      5.420  0.3322E+02  0.3005E+02  0.4824E+03  0.4812E+03
      5.498  0.3830E+02  0.4221E+02  0.4855E+03  0.4846E+03
      5.576  0.4200E+02  0.3799E+02  0.4888E+03  0.4877E+03
      5.654  0.3721E+02  0.4319E+02  0.4918E+03  0.4911E+03
      5.732  0.4116E+02  0.3825E+02  0.4951E+03  0.4941E+03
      5.810  0.3513E+02  0.3456E+02  0.4979E+03  0.4969E+03
      5.888  0.3660E+02  0.3798E+02  0.5008E+03  0.4999E+03
      5.966  0.4458E+02  0.4082E+02  0.5043E+03  0.5032E+03
      6.044  0.3509E+02  0.3810E+02  0.5071E+03  0.5062E+03
      6.122  0.3441E+02  0.3806E+02  0.5099E+03  0.5092E+03
      6.200  0.2809E+02  0.2852E+02  0.5121E+03  0.5115E+03
      6.278  0.3875E+02  0.3497E+02  0.5151E+03  0.5143E+03
      6.356  0.3972E+02  0.4112E+02  0.5183E+03  0.5175E+03
      6.434  0.4017E+02  0.3834E+02  0.5215E+03  0.5207E+03
      6.512  0.3790E+02  0.3539E+02  0.5246E+03  0.5235E+03
      6.590  0.3235E+02  0.3885E+02  0.5272E+03  0.5267E+03
      6.668  0.4167E+02  0.3535E+02  0.5305E+03  0.5296E+03
      6.746  0.3286E+02  0.3337E+02  0.5331E+03  0.5322E+03
      6.824  0.3854E+02  0.3876E+02  0.5362E+03  0.5353E+03
      6.902  0.3527E+02  0.3904E+02  0.5390E+03  0.5386E+03
      6.980  0.3749E+02  0.3454E+02  0.5419E+03  0.5413E+03
      7.058  0.4582E+02  0.4360E+02  0.5455E+03  0.5448E+03
      7.136  0.3328E+02  0.3247E+02  0.5482E+03  0.5474E+03
      7.214  0.4416E+02  0.4064E+02  0.5517E+03  0.5507E+03
      7.292  0.3700E+02  0.4387E+02  0.5547E+03  0.5542E+03
      7.370  0.4241E+02  0.3967E+02  0.5581E+03  0.5573E+03
      7.448  0.3001E+02  0.3175E+02  0.5605E+03  0.5599E+03
      7.526  0.3808E+02  0.3659E+02  0.5636E+03  0.5628E+03
      7.604  0.4388E+02  0.4500E+02  0.5671E+03  0.5663E+03
      7.682  0.3394E+02  0.3364E+02  0.5698E+03  0.5691E+03
      7.760  0.2740E+02  0.2925E+02  0.5720E+03  0.5715E+03
      7.838  0.2392E+02  0.2655E+02  0.5740E+03  0.5736E+03
      7.916  0.1505E+02  0.1945E+02  0.5752E+03  0.5751E+03
      7.994  0.7272E+01  0.6992E+01  0.5758E+03  0.5757E+03
      8.072  0.2455E+01  0.4192E+01  0.5760E+03  0.5760E+03
      8.150  0.0000E+00  0.0000E+00  0.5760E+03  0.5760E+03
      8.228  0.0000E+00  0.0000E+00  0.5760E+03  0.5760E+03
      8.306  0.0000E+00  0.0000E+00  0.5760E+03  0.5760E+03
      8.384  0.0000E+00  0.0000E+00  0.5760E+03  0.5760E+03
      8.462  0.0000E+00  0.0000E+00  0.5760E+03  0.5760E+03
      8.540  0.0000E+00  0.0000E+00  0.5760E+03  0.5760E+03
      8.618  0.0000E+00  0.0000E+00  0.5760E+03  0.5760E+03
      8.695  0.0000E+00  0.0000E+00  0.5760E+03  0.5760E+03
      8.773  0.0000E+00  0.0000E+00  0.5760E+03  0.5760E+03
      8.851  0.0000E+00  0.0000E+00  0.5760E+03  0.5760E+03
      8.929  0.0000E+00  0.0000E+00  0.5760E+03  0.5760E+03
      9.007  0.0000E+00  0.0000E+00  0.5760E+03  0.5760E+03
      9.085  0.0000E+00  0.0000E+00  0.5760E+03  0.5760E+03
