       N       E                     dE             d eps       ncg     rms          rms(c)
DAV:   1     0.255825850871E+04    0.25583E+04   -0.24009E+05  5568   0.166E+03
DAV:   2    -0.338994004412E+03   -0.28973E+04   -0.27979E+04  6528   0.199E+02
DAV:   3    -0.629448505644E+03   -0.29045E+03   -0.28085E+03  7064   0.577E+01
DAV:   4    -0.641154718014E+03   -0.11706E+02   -0.11459E+02  6784   0.124E+01
DAV:   5    -0.641684254871E+03   -0.52954E+00   -0.52566E+00  7616   0.253E+00    0.334E+01
DAV:   6    -0.631046591517E+03    0.10638E+02   -0.52626E+01  8872   0.147E+01    0.162E+01
DAV:   7    -0.630230812132E+03    0.81578E+00   -0.50378E+01  8704   0.154E+01    0.117E+01
DAV:   8    -0.626550257262E+03    0.36806E+01   -0.15983E+01  7960   0.800E+00    0.227E+00
DAV:   9    -0.626930285446E+03   -0.38003E+00   -0.46172E+00  6568   0.302E+00    0.204E+00
DAV:  10    -0.626785366515E+03    0.14492E+00   -0.86215E-01  6736   0.177E+00    0.122E+00
DAV:  11    -0.626770814413E+03    0.14552E-01   -0.31162E-01  6592   0.850E-01    0.654E-01
DAV:  12    -0.626772799518E+03   -0.19851E-02   -0.10934E-01  6488   0.534E-01    0.370E-01
DAV:  13    -0.626772881632E+03   -0.82114E-04   -0.16894E-02  6352   0.180E-01    0.253E-01
DAV:  14    -0.626772725705E+03    0.15593E-03   -0.51851E-03  6736   0.104E-01    0.150E-01
DAV:  15    -0.626772983436E+03   -0.25773E-03   -0.17008E-03  6400   0.622E-02    0.115E-01
DAV:  16    -0.626773057390E+03   -0.73954E-04   -0.42493E-04  6544   0.300E-02    0.634E-02
DAV:  17    -0.626773065093E+03   -0.77036E-05   -0.13544E-04  7088   0.184E-02    0.419E-02
DAV:  18    -0.626773064318E+03    0.77518E-06   -0.40806E-05  6280   0.913E-03    0.342E-02
DAV:  19    -0.626773062062E+03    0.22567E-05   -0.96809E-06  6600   0.425E-03    0.204E-02
DAV:  20    -0.626773061393E+03    0.66853E-06   -0.41534E-06  6568   0.280E-03    0.122E-02
DAV:  21    -0.626773061627E+03   -0.23364E-06   -0.35016E-06  6592   0.264E-03    0.671E-03
DAV:  22    -0.626773062880E+03   -0.12531E-05   -0.25988E-06  6848   0.202E-03    0.374E-03
DAV:  23    -0.626773063464E+03   -0.58464E-06   -0.33075E-07  4576   0.985E-04    0.263E-03
DAV:  24    -0.626773064554E+03   -0.10899E-05   -0.71909E-07  5784   0.115E-03    0.296E-03
DAV:  25    -0.626773065216E+03   -0.66139E-06   -0.38063E-07  5064   0.863E-04    0.380E-03
DAV:  26    -0.626773064871E+03    0.34449E-06   -0.89933E-08  3328   0.554E-04    0.263E-03
DAV:  27    -0.626773064320E+03    0.55141E-06   -0.33492E-07  4768   0.752E-04    0.942E-04
DAV:  28    -0.626773064230E+03    0.89716E-07   -0.96063E-08  3264   0.423E-04
   1 F= -.62677306E+03 E0= -.62677131E+03  d E =-.350207E-02  mag=     1.0000
