  96  96   0   0
  0.2924478E+02  0.1131560E-08  0.1789154E-08  0.1386738E-08  0.5000000E-15
  1.000000000000000E-004
  CAR 
 Si and Ge interface calculation         
      5.98511793    -10.62933473  301      3.21734266      1.00000000
    -10.629  0.0000E+00  0.0000E+00  0.0000E+00  0.0000E+00
    -10.574  0.0000E+00  0.0000E+00  0.0000E+00  0.0000E+00
    -10.519  0.0000E+00  0.0000E+00  0.0000E+00  0.0000E+00
    -10.463  0.0000E+00  0.0000E+00  0.0000E+00  0.0000E+00
    -10.408  0.0000E+00  0.0000E+00  0.0000E+00  0.0000E+00
    -10.352  0.0000E+00  0.0000E+00  0.0000E+00  0.0000E+00
    -10.297  0.0000E+00  0.0000E+00  0.0000E+00  0.0000E+00
    -10.242  0.0000E+00  0.0000E+00  0.0000E+00  0.0000E+00
    -10.186  0.0000E+00  0.0000E+00  0.0000E+00  0.0000E+00
    -10.131  0.0000E+00  0.0000E+00  0.0000E+00  0.0000E+00
    -10.076  0.0000E+00  0.0000E+00  0.0000E+00  0.0000E+00
    -10.020  0.0000E+00  0.0000E+00  0.0000E+00  0.0000E+00
     -9.965  0.0000E+00  0.0000E+00  0.0000E+00  0.0000E+00
     -9.909  0.2242E-05  0.7256E-07  0.1241E-06  0.4018E-08
     -9.854  0.4455E+02  0.3521E+02  0.2467E+01  0.1950E+01
     -9.799  0.2768E+02  0.3702E+02  0.4000E+01  0.4000E+01
     -9.743  0.0000E+00  0.0000E+00  0.4000E+01  0.4000E+01
     -9.688  0.0000E+00  0.0000E+00  0.4000E+01  0.4000E+01
     -9.632  0.0000E+00  0.0000E+00  0.4000E+01  0.4000E+01
     -9.577  0.0000E+00  0.0000E+00  0.4000E+01  0.4000E+01
     -9.522  0.0000E+00  0.0000E+00  0.4000E+01  0.4000E+01
     -9.466  0.0000E+00  0.0000E+00  0.4000E+01  0.4000E+01
     -9.411  0.0000E+00  0.0000E+00  0.4000E+01  0.4000E+01
     -9.356  0.0000E+00  0.0000E+00  0.4000E+01  0.4000E+01
     -9.300  0.0000E+00  0.0000E+00  0.4000E+01  0.4000E+01
     -9.245  0.0000E+00  0.0000E+00  0.4000E+01  0.4000E+01
     -9.189  0.0000E+00  0.0000E+00  0.4000E+01  0.4000E+01
     -9.134  0.0000E+00  0.0000E+00  0.4000E+01  0.4000E+01
     -9.079  0.0000E+00  0.0000E+00  0.4000E+01  0.4000E+01
     -9.023  0.1633E-01  0.8522E-03  0.4001E+01  0.4000E+01
     -8.968  0.6224E+02  0.5290E+02  0.7448E+01  0.6930E+01
     -8.913  0.9971E+01  0.1932E+02  0.8000E+01  0.8000E+01
     -8.857  0.0000E+00  0.0000E+00  0.8000E+01  0.8000E+01
     -8.802  0.0000E+00  0.0000E+00  0.8000E+01  0.8000E+01
     -8.746  0.0000E+00  0.0000E+00  0.8000E+01  0.8000E+01
     -8.691  0.1554E-06  0.1093E-09  0.8000E+01  0.8000E+01
     -8.636  0.1309E+02  0.1045E+02  0.8725E+01  0.8578E+01
     -8.580  0.3227E+02  0.2463E+02  0.1051E+02  0.9942E+01
     -8.525  0.8817E+01  0.1910E+02  0.1100E+02  0.1100E+02
     -8.469  0.2252E+01  0.1800E+00  0.1112E+02  0.1101E+02
     -8.414  0.1580E+02  0.1788E+02  0.1200E+02  0.1200E+02
     -8.359  0.0000E+00  0.0000E+00  0.1200E+02  0.1200E+02
     -8.303  0.0000E+00  0.0000E+00  0.1200E+02  0.1200E+02
     -8.248  0.7768E-04  0.3155E-06  0.1200E+02  0.1200E+02
     -8.193  0.1507E+02  0.9788E+01  0.1283E+02  0.1254E+02
     -8.137  0.2985E+01  0.8269E+01  0.1300E+02  0.1300E+02
     -8.082  0.1192E+02  0.1041E+02  0.1366E+02  0.1358E+02
     -8.026  0.2188E+02  0.1867E+02  0.1487E+02  0.1461E+02
     -7.971  0.1277E+02  0.1275E+02  0.1558E+02  0.1532E+02
     -7.916  0.8006E+01  0.1235E+02  0.1602E+02  0.1600E+02
     -7.860  0.4379E+02  0.3526E+02  0.1845E+02  0.1795E+02
     -7.805  0.3953E+01  0.1288E+02  0.1867E+02  0.1867E+02
     -7.749  0.6013E+01  0.6018E+01  0.1900E+02  0.1900E+02
     -7.694  0.1806E+02  0.1772E+02  0.2000E+02  0.1998E+02
     -7.639  0.1750E+02  0.1429E+02  0.2097E+02  0.2077E+02
     -7.583  0.5556E+00  0.4102E+01  0.2100E+02  0.2100E+02
     -7.528  0.3148E+01  0.3239E+00  0.2117E+02  0.2102E+02
     -7.473  0.3280E+02  0.3294E+02  0.2299E+02  0.2284E+02
     -7.417  0.1635E+01  0.3143E+01  0.2308E+02  0.2302E+02
     -7.362  0.2916E+02  0.2094E+02  0.2470E+02  0.2418E+02
     -7.306  0.2841E+02  0.3175E+02  0.2627E+02  0.2593E+02
     -7.251  0.2523E+02  0.3125E+02  0.2767E+02  0.2767E+02
     -7.196  0.5483E+01  0.9481E+00  0.2797E+02  0.2772E+02
     -7.140  0.1860E+02  0.2315E+02  0.2900E+02  0.2900E+02
     -7.085  0.1850E+02  0.1540E+02  0.3002E+02  0.2985E+02
     -7.030  0.3707E+02  0.3804E+02  0.3208E+02  0.3196E+02
     -6.974  0.2845E+02  0.2843E+02  0.3365E+02  0.3353E+02
     -6.919  0.6062E+01  0.4774E+01  0.3399E+02  0.3380E+02
     -6.863  0.2603E+02  0.2612E+02  0.3543E+02  0.3525E+02
     -6.808  0.2526E+02  0.2310E+02  0.3683E+02  0.3652E+02
     -6.753  0.2709E+02  0.2599E+02  0.3833E+02  0.3796E+02
     -6.697  0.5850E+01  0.1001E+02  0.3865E+02  0.3852E+02
     -6.642  0.3351E+02  0.2681E+02  0.4051E+02  0.4000E+02
     -6.586  0.1560E+02  0.2361E+02  0.4137E+02  0.4131E+02
     -6.531  0.2172E+02  0.1799E+02  0.4258E+02  0.4231E+02
     -6.476  0.3673E+02  0.3457E+02  0.4461E+02  0.4422E+02
     -6.420  0.3466E+02  0.3565E+02  0.4653E+02  0.4620E+02
     -6.365  0.3572E+02  0.3502E+02  0.4851E+02  0.4814E+02
     -6.310  0.2246E+02  0.2802E+02  0.4975E+02  0.4969E+02
     -6.254  0.1260E+02  0.1173E+02  0.5045E+02  0.5034E+02
     -6.199  0.1905E+02  0.1225E+02  0.5151E+02  0.5102E+02
     -6.143  0.2918E+02  0.3301E+02  0.5312E+02  0.5284E+02
     -6.088  0.1885E+02  0.1929E+02  0.5417E+02  0.5391E+02
     -6.033  0.3476E+02  0.3082E+02  0.5609E+02  0.5562E+02
     -5.977  0.4813E+02  0.4646E+02  0.5876E+02  0.5819E+02
     -5.922  0.2539E+02  0.3309E+02  0.6016E+02  0.6002E+02
     -5.867  0.2265E+02  0.1839E+02  0.6142E+02  0.6104E+02
     -5.811  0.2739E+02  0.3005E+02  0.6293E+02  0.6271E+02
     -5.756  0.1820E+02  0.1557E+02  0.6394E+02  0.6357E+02
     -5.700  0.3916E+02  0.4189E+02  0.6611E+02  0.6589E+02
     -5.645  0.3536E+02  0.3336E+02  0.6807E+02  0.6774E+02
     -5.590  0.3754E+02  0.4118E+02  0.7015E+02  0.7002E+02
     -5.534  0.3760E+02  0.3657E+02  0.7223E+02  0.7204E+02
     -5.479  0.4657E+02  0.4529E+02  0.7481E+02  0.7455E+02
     -5.423  0.2845E+02  0.2910E+02  0.7639E+02  0.7616E+02
     -5.368  0.3712E+02  0.3633E+02  0.7844E+02  0.7817E+02
     -5.313  0.1698E+02  0.1897E+02  0.7938E+02  0.7922E+02
     -5.257  0.3139E+02  0.2569E+02  0.8112E+02  0.8065E+02
     -5.202  0.2161E+02  0.2737E+02  0.8232E+02  0.8216E+02
     -5.147  0.4222E+02  0.4271E+02  0.8466E+02  0.8453E+02
     -5.091  0.2740E+02  0.2959E+02  0.8617E+02  0.8617E+02
     -5.036  0.3292E+02  0.3062E+02  0.8800E+02  0.8786E+02
     -4.980  0.2887E+02  0.2626E+02  0.8959E+02  0.8932E+02
     -4.925  0.1855E+02  0.1903E+02  0.9062E+02  0.9037E+02
     -4.870  0.4502E+02  0.4493E+02  0.9312E+02  0.9286E+02
     -4.814  0.2109E+02  0.2201E+02  0.9428E+02  0.9408E+02
     -4.759  0.2407E+02  0.1990E+02  0.9562E+02  0.9518E+02
     -4.704  0.3588E+02  0.3907E+02  0.9760E+02  0.9734E+02
     -4.648  0.2843E+02  0.2958E+02  0.9918E+02  0.9898E+02
     -4.593  0.2909E+02  0.2713E+02  0.1008E+03  0.1005E+03
     -4.537  0.1889E+02  0.2430E+02  0.1018E+03  0.1018E+03
     -4.482  0.2288E+02  0.1675E+02  0.1031E+03  0.1028E+03
     -4.427  0.2893E+02  0.3369E+02  0.1047E+03  0.1046E+03
     -4.371  0.1898E+02  0.1311E+02  0.1058E+03  0.1054E+03
     -4.316  0.3504E+02  0.3547E+02  0.1077E+03  0.1073E+03
     -4.260  0.2447E+02  0.2288E+02  0.1091E+03  0.1086E+03
     -4.205  0.2362E+02  0.2946E+02  0.1104E+03  0.1102E+03
     -4.150  0.3263E+02  0.2886E+02  0.1122E+03  0.1118E+03
     -4.094  0.2639E+02  0.3186E+02  0.1136E+03  0.1136E+03
     -4.039  0.2260E+02  0.1892E+02  0.1149E+03  0.1146E+03
     -3.984  0.3205E+02  0.3400E+02  0.1167E+03  0.1165E+03
     -3.928  0.2495E+02  0.2532E+02  0.1180E+03  0.1179E+03
     -3.873  0.1340E+02  0.1371E+02  0.1188E+03  0.1187E+03
     -3.817  0.1980E+02  0.2112E+02  0.1199E+03  0.1198E+03
     -3.762  0.1524E+02  0.1095E+02  0.1207E+03  0.1204E+03
     -3.707  0.2925E+02  0.3232E+02  0.1223E+03  0.1222E+03
     -3.651  0.2518E+02  0.2091E+02  0.1237E+03  0.1234E+03
     -3.596  0.3608E+02  0.3934E+02  0.1257E+03  0.1256E+03
     -3.541  0.2452E+02  0.2307E+02  0.1271E+03  0.1268E+03
     -3.485  0.1982E+02  0.2036E+02  0.1282E+03  0.1280E+03
     -3.430  0.4046E+02  0.3767E+02  0.1304E+03  0.1301E+03
     -3.374  0.2369E+02  0.2635E+02  0.1317E+03  0.1315E+03
     -3.319  0.2885E+02  0.3267E+02  0.1333E+03  0.1333E+03
     -3.264  0.2599E+02  0.2198E+02  0.1348E+03  0.1345E+03
     -3.208  0.2502E+02  0.2687E+02  0.1362E+03  0.1360E+03
     -3.153  0.3268E+02  0.3101E+02  0.1380E+03  0.1378E+03
     -3.097  0.3107E+02  0.3143E+02  0.1397E+03  0.1395E+03
     -3.042  0.3957E+02  0.3852E+02  0.1419E+03  0.1416E+03
     -2.987  0.4829E+02  0.4925E+02  0.1446E+03  0.1444E+03
     -2.931  0.2253E+02  0.2044E+02  0.1458E+03  0.1455E+03
     -2.876  0.3173E+02  0.3259E+02  0.1476E+03  0.1473E+03
     -2.821  0.2212E+02  0.1823E+02  0.1488E+03  0.1483E+03
     -2.765  0.2784E+02  0.3557E+02  0.1503E+03  0.1503E+03
     -2.710  0.2933E+02  0.2774E+02  0.1520E+03  0.1518E+03
     -2.654  0.2042E+02  0.1941E+02  0.1531E+03  0.1529E+03
     -2.599  0.2469E+02  0.2665E+02  0.1545E+03  0.1544E+03
     -2.544  0.3118E+02  0.2551E+02  0.1562E+03  0.1558E+03
     -2.488  0.4363E+02  0.4637E+02  0.1586E+03  0.1583E+03
     -2.433  0.1663E+02  0.1680E+02  0.1595E+03  0.1593E+03
     -2.377  0.3228E+02  0.3282E+02  0.1613E+03  0.1611E+03
     -2.322  0.2710E+02  0.2880E+02  0.1628E+03  0.1627E+03
     -2.267  0.9994E+01  0.1168E+02  0.1634E+03  0.1633E+03
     -2.211  0.2460E+02  0.2335E+02  0.1647E+03  0.1646E+03
     -2.156  0.1899E+02  0.1603E+02  0.1658E+03  0.1655E+03
     -2.101  0.3371E+02  0.3556E+02  0.1676E+03  0.1675E+03
     -2.045  0.2848E+02  0.2806E+02  0.1692E+03  0.1690E+03
     -1.990  0.3474E+02  0.3537E+02  0.1711E+03  0.1710E+03
     -1.934  0.1252E+02  0.1517E+02  0.1718E+03  0.1718E+03
     -1.879  0.1042E+02  0.9242E+01  0.1724E+03  0.1723E+03
     -1.824  0.3767E+02  0.3845E+02  0.1745E+03  0.1745E+03
     -1.768  0.7855E+01  0.4964E+01  0.1749E+03  0.1747E+03
     -1.713  0.1578E+02  0.1697E+02  0.1758E+03  0.1757E+03
     -1.658  0.1680E+02  0.1780E+02  0.1767E+03  0.1767E+03
     -1.602  0.1080E+02  0.1189E+02  0.1773E+03  0.1773E+03
     -1.547  0.1596E+02  0.1334E+02  0.1782E+03  0.1781E+03
     -1.491  0.2250E+02  0.2328E+02  0.1795E+03  0.1794E+03
     -1.436  0.2468E+02  0.2611E+02  0.1808E+03  0.1808E+03
     -1.381  0.1141E+02  0.9827E+01  0.1815E+03  0.1814E+03
     -1.325  0.1692E+02  0.1678E+02  0.1824E+03  0.1823E+03
     -1.270  0.2461E+02  0.2500E+02  0.1838E+03  0.1837E+03
     -1.214  0.6834E+01  0.4542E+01  0.1841E+03  0.1839E+03
     -1.159  0.4557E+02  0.4948E+02  0.1867E+03  0.1867E+03
     -1.104  0.1361E+02  0.1064E+02  0.1874E+03  0.1872E+03
     -1.048  0.1969E+02  0.1965E+02  0.1885E+03  0.1883E+03
     -0.993  0.2372E+02  0.2569E+02  0.1898E+03  0.1898E+03
     -0.938  0.1811E+02  0.1467E+02  0.1908E+03  0.1906E+03
     -0.882  0.3495E+02  0.3635E+02  0.1928E+03  0.1926E+03
     -0.827  0.2051E+02  0.2161E+02  0.1939E+03  0.1938E+03
     -0.771  0.1265E+02  0.8704E+01  0.1946E+03  0.1943E+03
     -0.716  0.3469E+02  0.3767E+02  0.1965E+03  0.1963E+03
     -0.661  0.1550E+02  0.1556E+02  0.1974E+03  0.1972E+03
     -0.605  0.2042E+02  0.2286E+02  0.1985E+03  0.1985E+03
     -0.550  0.9476E+01  0.9524E+01  0.1990E+03  0.1990E+03
     -0.495  0.2746E+02  0.1832E+02  0.2006E+03  0.2000E+03
     -0.439  0.5793E+02  0.6161E+02  0.2038E+03  0.2034E+03
     -0.384  0.1443E+02  0.1942E+02  0.2046E+03  0.2045E+03
     -0.328  0.4222E+02  0.3584E+02  0.2069E+03  0.2065E+03
     -0.273  0.5259E+02  0.5344E+02  0.2098E+03  0.2094E+03
     -0.218  0.3810E+02  0.4242E+02  0.2119E+03  0.2118E+03
     -0.162  0.5205E+02  0.4632E+02  0.2148E+03  0.2144E+03
     -0.107  0.3205E+02  0.3639E+02  0.2166E+03  0.2164E+03
     -0.051  0.5332E+02  0.4866E+02  0.2195E+03  0.2191E+03
      0.004  0.4532E+02  0.4649E+02  0.2220E+03  0.2216E+03
      0.059  0.4911E+02  0.5041E+02  0.2248E+03  0.2244E+03
      0.115  0.4924E+02  0.4749E+02  0.2275E+03  0.2271E+03
      0.170  0.4504E+02  0.4609E+02  0.2300E+03  0.2296E+03
      0.225  0.4446E+02  0.4796E+02  0.2324E+03  0.2323E+03
      0.281  0.6441E+02  0.4959E+02  0.2360E+03  0.2350E+03
      0.336  0.5532E+02  0.6264E+02  0.2391E+03  0.2385E+03
      0.392  0.6624E+02  0.6919E+02  0.2427E+03  0.2423E+03
      0.447  0.5418E+02  0.5291E+02  0.2457E+03  0.2453E+03
      0.502  0.4901E+02  0.4646E+02  0.2485E+03  0.2478E+03
      0.558  0.5246E+02  0.5662E+02  0.2514E+03  0.2510E+03
      0.613  0.6029E+02  0.5942E+02  0.2547E+03  0.2543E+03
      0.668  0.5265E+02  0.5306E+02  0.2576E+03  0.2572E+03
      0.724  0.5649E+02  0.5593E+02  0.2607E+03  0.2603E+03
      0.779  0.6737E+02  0.6907E+02  0.2645E+03  0.2641E+03
      0.835  0.5818E+02  0.5469E+02  0.2677E+03  0.2671E+03
      0.890  0.6683E+02  0.6739E+02  0.2714E+03  0.2709E+03
      0.945  0.5509E+02  0.6109E+02  0.2745E+03  0.2743E+03
      1.001  0.6314E+02  0.6036E+02  0.2779E+03  0.2776E+03
      1.056  0.6454E+02  0.6216E+02  0.2815E+03  0.2810E+03
      1.112  0.5937E+02  0.6076E+02  0.2848E+03  0.2844E+03
      1.167  0.5892E+02  0.6161E+02  0.2881E+03  0.2878E+03
      1.222  0.6103E+02  0.5401E+02  0.2915E+03  0.2908E+03
      1.278  0.5202E+02  0.5827E+02  0.2943E+03  0.2940E+03
      1.333  0.6210E+02  0.6118E+02  0.2978E+03  0.2974E+03
      1.388  0.4996E+02  0.4603E+02  0.3005E+03  0.3000E+03
      1.444  0.6084E+02  0.5805E+02  0.3039E+03  0.3032E+03
      1.499  0.5568E+02  0.6158E+02  0.3070E+03  0.3066E+03
      1.555  0.2729E+02  0.3145E+02  0.3085E+03  0.3083E+03
      1.610  0.6260E+02  0.5641E+02  0.3120E+03  0.3115E+03
      1.665  0.5169E+02  0.4996E+02  0.3148E+03  0.3142E+03
      1.721  0.6342E+02  0.6345E+02  0.3183E+03  0.3178E+03
      1.776  0.4707E+02  0.5235E+02  0.3210E+03  0.3207E+03
      1.832  0.3636E+02  0.3329E+02  0.3230E+03  0.3225E+03
      1.887  0.4503E+02  0.4442E+02  0.3255E+03  0.3250E+03
      1.942  0.4232E+02  0.4029E+02  0.3278E+03  0.3272E+03
      1.998  0.4313E+02  0.4846E+02  0.3302E+03  0.3299E+03
      2.053  0.5351E+02  0.4738E+02  0.3332E+03  0.3325E+03
      2.108  0.5336E+02  0.5441E+02  0.3361E+03  0.3355E+03
      2.164  0.3750E+02  0.4177E+02  0.3382E+03  0.3378E+03
      2.219  0.4949E+02  0.4334E+02  0.3409E+03  0.3402E+03
      2.275  0.4616E+02  0.5651E+02  0.3435E+03  0.3434E+03
      2.330  0.3830E+02  0.3388E+02  0.3456E+03  0.3452E+03
      2.385  0.5288E+02  0.4418E+02  0.3485E+03  0.3477E+03
      2.441  0.3909E+02  0.4999E+02  0.3507E+03  0.3504E+03
      2.496  0.5108E+02  0.4274E+02  0.3535E+03  0.3528E+03
      2.551  0.4962E+02  0.5756E+02  0.3563E+03  0.3560E+03
      2.607  0.5202E+02  0.4488E+02  0.3592E+03  0.3585E+03
      2.662  0.3826E+02  0.4249E+02  0.3613E+03  0.3608E+03
      2.718  0.4323E+02  0.4409E+02  0.3637E+03  0.3633E+03
      2.773  0.3501E+02  0.2969E+02  0.3656E+03  0.3649E+03
      2.828  0.4398E+02  0.4627E+02  0.3680E+03  0.3675E+03
      2.884  0.4588E+02  0.4974E+02  0.3706E+03  0.3702E+03
      2.939  0.1437E+02  0.1899E+02  0.3714E+03  0.3713E+03
      2.995  0.3365E+02  0.2609E+02  0.3732E+03  0.3727E+03
      3.050  0.4456E+02  0.3886E+02  0.3757E+03  0.3749E+03
      3.105  0.4198E+02  0.5434E+02  0.3780E+03  0.3779E+03
      3.161  0.5332E+02  0.4348E+02  0.3810E+03  0.3803E+03
      3.216  0.4800E+02  0.4738E+02  0.3837E+03  0.3829E+03
      3.271  0.3828E+02  0.3196E+02  0.3858E+03  0.3847E+03
      3.327  0.4379E+02  0.4988E+02  0.3882E+03  0.3875E+03
      3.382  0.3900E+02  0.4105E+02  0.3904E+03  0.3897E+03
      3.438  0.4020E+02  0.3804E+02  0.3926E+03  0.3918E+03
      3.493  0.4329E+02  0.4402E+02  0.3950E+03  0.3943E+03
      3.548  0.4468E+02  0.4659E+02  0.3975E+03  0.3969E+03
      3.604  0.5122E+02  0.5101E+02  0.4003E+03  0.3997E+03
      3.659  0.4456E+02  0.3484E+02  0.4028E+03  0.4016E+03
      3.714  0.4302E+02  0.5354E+02  0.4051E+03  0.4046E+03
      3.770  0.3851E+02  0.3846E+02  0.4073E+03  0.4067E+03
      3.825  0.4208E+02  0.4452E+02  0.4096E+03  0.4092E+03
      3.881  0.3393E+02  0.3557E+02  0.4115E+03  0.4111E+03
      3.936  0.1086E+02  0.1253E+02  0.4121E+03  0.4118E+03
      3.991  0.3565E+02  0.3265E+02  0.4141E+03  0.4137E+03
      4.047  0.4505E+02  0.4268E+02  0.4166E+03  0.4160E+03
      4.102  0.3106E+02  0.2789E+02  0.4183E+03  0.4176E+03
      4.158  0.4745E+02  0.5406E+02  0.4209E+03  0.4206E+03
      4.213  0.4240E+02  0.4278E+02  0.4233E+03  0.4229E+03
      4.268  0.2550E+02  0.3044E+02  0.4247E+03  0.4246E+03
      4.324  0.1289E+02  0.1104E+02  0.4254E+03  0.4252E+03
      4.379  0.4335E+02  0.3602E+02  0.4278E+03  0.4272E+03
      4.434  0.2535E+02  0.3512E+02  0.4292E+03  0.4292E+03
      4.490  0.3948E+02  0.3120E+02  0.4314E+03  0.4309E+03
      4.545  0.3547E+02  0.3843E+02  0.4333E+03  0.4330E+03
      4.601  0.4890E+02  0.4669E+02  0.4360E+03  0.4356E+03
      4.656  0.3154E+02  0.3049E+02  0.4378E+03  0.4373E+03
      4.711  0.4178E+02  0.4597E+02  0.4401E+03  0.4398E+03
      4.767  0.4657E+02  0.4464E+02  0.4427E+03  0.4423E+03
      4.822  0.5140E+02  0.5076E+02  0.4455E+03  0.4451E+03
      4.877  0.4595E+02  0.4301E+02  0.4481E+03  0.4475E+03
      4.933  0.5164E+02  0.5533E+02  0.4509E+03  0.4506E+03
      4.988  0.4856E+02  0.4939E+02  0.4536E+03  0.4533E+03
      5.044  0.4215E+02  0.3981E+02  0.4560E+03  0.4555E+03
      5.099  0.4570E+02  0.4923E+02  0.4585E+03  0.4582E+03
      5.154  0.4656E+02  0.3950E+02  0.4611E+03  0.4604E+03
      5.210  0.5179E+02  0.5821E+02  0.4639E+03  0.4636E+03
      5.265  0.1158E+01  0.6428E+01  0.4640E+03  0.4640E+03
      5.321  0.0000E+00  0.0000E+00  0.4640E+03  0.4640E+03
      5.376  0.0000E+00  0.0000E+00  0.4640E+03  0.4640E+03
      5.431  0.0000E+00  0.0000E+00  0.4640E+03  0.4640E+03
      5.487  0.0000E+00  0.0000E+00  0.4640E+03  0.4640E+03
      5.542  0.0000E+00  0.0000E+00  0.4640E+03  0.4640E+03
      5.597  0.0000E+00  0.0000E+00  0.4640E+03  0.4640E+03
      5.653  0.0000E+00  0.0000E+00  0.4640E+03  0.4640E+03
      5.708  0.0000E+00  0.0000E+00  0.4640E+03  0.4640E+03
      5.764  0.0000E+00  0.0000E+00  0.4640E+03  0.4640E+03
      5.819  0.0000E+00  0.0000E+00  0.4640E+03  0.4640E+03
      5.874  0.0000E+00  0.0000E+00  0.4640E+03  0.4640E+03
      5.930  0.0000E+00  0.0000E+00  0.4640E+03  0.4640E+03
      5.985  0.0000E+00  0.0000E+00  0.4640E+03  0.4640E+03
