<?xml version="1.0" encoding="ISO-8859-1"?>
<modeling>
 <generator>
  <i name="program" type="string">vasp </i>
  <i name="version" type="string">6.4.3  </i>
  <i name="subversion" type="string">19Mar24 (build Oct 22 2024 11:23:12) complex                          parallel </i>
  <i name="platform" type="string">LinuxIFC </i>
  <i name="date" type="string">2025 06 10 </i>
  <i name="time" type="string">23:42:35 </i>
 </generator>
 <incar>
  <i type="string" name="SYSTEM">Si and Ge interface calculation</i>
  <i type="int" name="ISTART">     0</i>
  <i type="logical" name="ADDGRID"> T  </i>
  <i type="int" name="ISPIN">     2</i>
  <i name="AMIX">      0.60000000</i>
  <i type="int" name="ICHARG">     2</i>
  <i type="int" name="NELM">   100</i>
  <i name="EDIFF">      0.00000010</i>
  <i name="ENCUT">    700.00000000</i>
  <i name="ENAUG">    900.00000000</i>
  <i type="int" name="NBANDS">   634</i>
  <i name="NUPDOWN">      1.00000000</i>
  <i name="NELECT">   1056.00000000</i>
  <i type="string" name="LREAL">AUTO</i>
  <i type="int" name="ISMEAR">     0</i>
  <i name="SIGMA">      0.01000000</i>
  <i type="int" name="LMAXMIX">     6</i>
  <i type="logical" name="LWAVE"> F  </i>
  <i type="logical" name="LVTOT"> F  </i>
  <i type="logical" name="LVHAR"> T  </i>
  <i type="logical" name="LASPH"> T  </i>
  <i type="logical" name="LMIXTAU"> T  </i>
 </incar>
 <primitive_cell>
  <structure name="primitive_cell" >
   <crystal>
    <varray name="basis" >
     <v>      19.46759987       0.00000000       0.00000000 </v>
     <v>       0.00000000      19.46759987       0.00000000 </v>
     <v>       0.00000000       0.00000000      14.90025139 </v>
    </varray>
    <i name="volume">   5647.00819870 </i>
    <varray name="rec_basis" >
     <v>       0.05136740       0.00000000       0.00000000 </v>
     <v>       0.00000000       0.05136740       0.00000000 </v>
     <v>       0.00000000       0.00000000       0.06711296 </v>
    </varray>
   </crystal>
   <varray name="positions" >
    <v>       0.82836843       0.33333334       0.21775474 </v>
    <v>       0.30358535       0.46427652       0.54438680 </v>
    <v>       0.66170174       0.66666669       0.43550944 </v>
    <v>       0.99503511       0.33333334       0.00000000 </v>
    <v>       0.99503511       0.66666669       0.00000000 </v>
    <v>       0.66170174       0.33333334       0.43550944 </v>
    <v>       0.91170180       0.25000000       0.32663202 </v>
    <v>       0.53435463       0.31043035       0.54438680 </v>
    <v>       0.57836837       0.41666672       0.54438680 </v>
    <v>       0.74503505       0.75000006       0.32663202 </v>
    <v>       0.16170174       0.66666669       0.21775474 </v>
    <v>       0.95743150       0.19504575       0.54438680 </v>
    <v>       0.32836846       0.33333334       0.00000000 </v>
    <v>       0.61127764       0.92581505       0.54438680 </v>
    <v>       0.99503511       0.33333334       0.43550944 </v>
    <v>       0.32836846       0.00000000       0.00000000 </v>
    <v>       0.16170174       0.00000000       0.21775474 </v>
    <v>       0.99503511       0.00000000       0.43550944 </v>
    <v>       0.82836843       0.66666669       0.21775474 </v>
    <v>       0.49503511       0.66666669       0.21775474 </v>
    <v>       0.32836846       0.66666669       0.43550944 </v>
    <v>       0.66170180       0.33333334       0.00000000 </v>
    <v>       0.49503511       0.33333334       0.21775474 </v>
    <v>       0.41896999       0.88735348       0.54438680 </v>
    <v>       0.66170180       0.00000000       0.00000000 </v>
    <v>       0.07836838       0.91666675       0.54438680 </v>
    <v>       0.91170174       0.41666672       0.54438680 </v>
    <v>       0.07836843       0.91666675       0.10887737 </v>
    <v>       0.91170180       0.91666675       0.32663202 </v>
    <v>       0.57836855       0.58333343       0.32663202 </v>
    <v>       0.70743120       0.44504583       0.00000024 </v>
    <v>       0.91170180       0.58333343       0.32663202 </v>
    <v>       0.74503505       0.58333343       0.54438680 </v>
    <v>       0.07836843       0.25000000       0.10887737 </v>
    <v>       0.99503511       0.00000000       0.00000000 </v>
    <v>       0.66170186       0.50000000       0.21775474 </v>
    <v>       0.82836855       0.83333331       0.00000000 </v>
    <v>       0.24503510       0.91666675       0.32663202 </v>
    <v>       0.49503511       0.00000000       0.21775474 </v>
    <v>       0.74589276       0.25273815       0.00000024 </v>
    <v>       0.24503510       0.58333343       0.32663202 </v>
    <v>       0.07836838       0.58333343       0.54438680 </v>
    <v>       0.36127743       0.17581510       0.00000024 </v>
    <v>       0.24503510       0.25000000       0.32663202 </v>
    <v>       0.07836838       0.25000000       0.54438680 </v>
    <v>       0.74503517       0.91666675       0.10887737 </v>
    <v>       0.41170180       0.91666675       0.54438680 </v>
    <v>       0.57836855       0.91666675       0.32663202 </v>
    <v>       0.74503517       0.58333343       0.10887737 </v>
    <v>       0.74503505       0.91666675       0.54438680 </v>
    <v>       0.41170180       0.58333343       0.54438680 </v>
    <v>       0.74503517       0.25000000       0.10887737 </v>
    <v>       0.34204692       0.27196881       0.54438680 </v>
    <v>       0.41170180       0.25000000       0.54438680 </v>
    <v>       0.16170177       0.83333331       0.00000000 </v>
    <v>       0.38050824       0.07966125       0.90887731 </v>
    <v>       0.45743152       0.69504565       0.54438680 </v>
    <v>       0.16170177       0.50000000       0.00000000 </v>
    <v>       0.99503505       0.50000000       0.21775474 </v>
    <v>       0.82836843       0.50000000       0.43550944 </v>
    <v>       0.57836848       0.75000006       0.10887737 </v>
    <v>       0.99503505       0.16666667       0.21775474 </v>
    <v>       0.82836843       0.16666667       0.43550944 </v>
    <v>       0.49503511       0.83333331       0.00000000 </v>
    <v>       0.32836843       0.83333331       0.21775474 </v>
    <v>       0.49589306       0.50273812       0.54438680 </v>
    <v>       0.49503511       0.50000000       0.00000000 </v>
    <v>       0.09204672       0.52196890       0.00000024 </v>
    <v>       0.11127764       0.42581499       0.54438680 </v>
    <v>       0.49503511       0.16666667       0.00000000 </v>
    <v>       0.32836843       0.16666667       0.21775474 </v>
    <v>       0.57836837       0.08333334       0.54438680 </v>
    <v>       0.41170177       0.91666675       0.10887737 </v>
    <v>       0.39973903       0.98350745       0.00000024 </v>
    <v>       0.49503520       0.83333331       0.43550944 </v>
    <v>       0.82836855       0.50000000       0.00000000 </v>
    <v>       0.74503505       0.25000000       0.54438680 </v>
    <v>       0.49503520       0.50000000       0.43550944 </v>
    <v>       0.91170174       0.75000006       0.10887737 </v>
    <v>       0.66170186       0.16666667       0.21775474 </v>
    <v>       0.49503520       0.16666667       0.43550944 </v>
    <v>       0.24503510       0.75000006       0.10887737 </v>
    <v>       0.78435433       0.06043041       0.00000024 </v>
    <v>       0.91170174       0.75000006       0.54438680 </v>
    <v>       0.20743127       0.94504583       0.00000024 </v>
    <v>       0.55358523       0.21427658       0.00000024 </v>
    <v>       0.32836846       0.00000000       0.43550944 </v>
    <v>       0.24503510       0.08333334       0.10887737 </v>
    <v>       0.07836843       0.08333334       0.32663202 </v>
    <v>       0.91170174       0.08333334       0.54438680 </v>
    <v>       0.16170177       0.16666667       0.00000000 </v>
    <v>       0.41170186       0.75000006       0.32663202 </v>
    <v>       0.24503513       0.75000006       0.54438680 </v>
    <v>       0.57836848       0.41666672       0.10887737 </v>
    <v>       0.41170186       0.41666672       0.32663202 </v>
    <v>       0.24503513       0.41666672       0.54438680 </v>
    <v>       0.66896975       0.63735354       0.00000024 </v>
    <v>       0.86127740       0.67581505       0.00000024 </v>
    <v>       0.24503513       0.08333334       0.54438680 </v>
    <v>       0.82836855       0.16666667       0.00000000 </v>
    <v>       0.32836846       0.66666669       0.00000000 </v>
    <v>       0.57836837       0.75000006       0.54438680 </v>
    <v>       0.91170174       0.41666672       0.10887737 </v>
    <v>       0.74503505       0.41666672       0.32663202 </v>
    <v>       0.66170174       0.00000000       0.43550944 </v>
    <v>       0.91170174       0.08333334       0.10887737 </v>
    <v>       0.13050841       0.32966110       0.63550943 </v>
    <v>       0.16170175       0.16666667       0.43550944 </v>
    <v>       0.76512390       0.15658416       0.54438680 </v>
    <v>       0.64973921       0.23350728       0.72663206 </v>
    <v>       0.53435451       0.31043044       0.90887731 </v>
    <v>       0.91897005       0.38735336       0.54438680 </v>
    <v>       0.80358535       0.46427646       0.72663206 </v>
    <v>       0.68820065       0.54119962       0.90887731 </v>
    <v>       0.38050845       0.07966107       0.54438680 </v>
    <v>       0.26512375       0.15658420       0.72663206 </v>
    <v>       0.14973906       0.23350733       0.90887731 </v>
    <v>       0.82836843       0.00000000       0.21775474 </v>
    <v>       0.41896990       0.38735348       0.72663206 </v>
    <v>       0.30358520       0.46427661       0.90887731 </v>
    <v>       0.68820071       0.54119956       0.54438680 </v>
    <v>       0.57281601       0.61812270       0.72663206 </v>
    <v>       0.45743132       0.69504583       0.90887731 </v>
    <v>       0.07836843       0.75000006       0.32663202 </v>
    <v>       0.72666216       0.84889203       0.72663206 </v>
    <v>       0.61127746       0.92581517       0.90887731 </v>
    <v>       0.99589300       0.00273798       0.54438680 </v>
    <v>       0.88050830       0.07966111       0.72663206 </v>
    <v>       0.76512361       0.15658425       0.90887731 </v>
    <v>       0.41170186       0.08333334       0.32663202 </v>
    <v>       0.03435449       0.31043038       0.72663206 </v>
    <v>       0.91896975       0.38735351       0.90887731 </v>
    <v>       0.82836843       0.66666669       0.21775474 </v>
    <v>       0.18820064       0.54119962       0.72663206 </v>
    <v>       0.07281593       0.61812276       0.90887731 </v>
    <v>       0.82836843       0.83333331       0.43550944 </v>
    <v>       0.34204683       0.77196878       0.72663206 </v>
    <v>       0.22666211       0.84889191       0.90887731 </v>
    <v>       0.16170174       0.33333334       0.21775474 </v>
    <v>       0.49589294       0.00273812       0.72663206 </v>
    <v>       0.99503505       0.83333331       0.21775474 </v>
    <v>       0.07281609       0.61812264       0.54438680 </v>
    <v>       0.95743138       0.69504577       0.72663206 </v>
    <v>       0.84204668       0.77196896       0.90887731 </v>
    <v>       0.22666228       0.84889185       0.54438680 </v>
    <v>       0.11127758       0.92581493       0.72663206 </v>
    <v>       0.99589282       0.00273812       0.90887731 </v>
    <v>       0.97666222       0.09889185       0.63550943 </v>
    <v>       0.86127752       0.17581499       0.81775469 </v>
    <v>       0.41170177       0.58333343       0.10887737 </v>
    <v>       0.59204686       0.02196884       0.63550943 </v>
    <v>       0.47666219       0.09889197       0.81775469 </v>
    <v>       0.41170177       0.25000000       0.10887737 </v>
    <v>       0.74589312       0.25273800       0.63550943 </v>
    <v>       0.63050842       0.32966116       0.81775469 </v>
    <v>       0.51512373       0.40658429       0.00000024 </v>
    <v>       0.89973921       0.48350725       0.63550943 </v>
    <v>       0.78435451       0.56043041       0.81775469 </v>
    <v>       0.57836848       0.08333334       0.10887737 </v>
    <v>       0.36127767       0.17581493       0.63550943 </v>
    <v>       0.24589297       0.25273806       0.81775469 </v>
    <v>       0.13050824       0.32966119       0.00000024 </v>
    <v>       0.51512379       0.40658423       0.63550943 </v>
    <v>       0.39973909       0.48350737       0.81775469 </v>
    <v>       0.28435436       0.56043053       0.00000024 </v>
    <v>       0.66896993       0.63735342       0.63550943 </v>
    <v>       0.55358523       0.71427655       0.81775469 </v>
    <v>       0.43820050       0.79119968       0.00000024 </v>
    <v>       0.82281607       0.86812270       0.63550943 </v>
    <v>       0.70743138       0.94504583       0.81775469 </v>
    <v>       0.82836843       0.00000000       0.21775474 </v>
    <v>       0.74503505       0.08333334       0.32663202 </v>
    <v>       0.01512371       0.40658420       0.81775469 </v>
    <v>       0.89973897       0.48350737       0.00000024 </v>
    <v>       0.28435454       0.56043041       0.63550943 </v>
    <v>       0.16896984       0.63735348       0.81775469 </v>
    <v>       0.05358512       0.71427667       0.00000024 </v>
    <v>       0.43820068       0.79119956       0.63550943 </v>
    <v>       0.32281598       0.86812270       0.81775469 </v>
    <v>       0.24503510       0.41666672       0.10887737 </v>
    <v>       0.05358532       0.71427649       0.63550943 </v>
    <v>       0.93820059       0.79119968       0.81775469 </v>
    <v>       0.82281589       0.86812276       0.00000024 </v>
    <v>       0.20743148       0.94504571       0.63550943 </v>
    <v>       0.09204674       0.02196884       0.81775469 </v>
    <v>       0.97666204       0.09889197       0.00000024 </v>
    <v>       0.99503511       0.66666669       0.43550944 </v>
    <v>       0.84204680       0.27196887       0.72663206 </v>
    <v>       0.72666210       0.34889203       0.90887731 </v>
    <v>       0.57281607       0.11812264       0.54438680 </v>
    <v>       0.45743138       0.19504577       0.72663206 </v>
    <v>       0.34204668       0.27196890       0.90887731 </v>
    <v>       0.72666234       0.34889194       0.54438680 </v>
    <v>       0.61127758       0.42581508       0.72663206 </v>
    <v>       0.49589291       0.50273824       0.90887731 </v>
    <v>       0.88050848       0.57966119       0.54438680 </v>
    <v>       0.76512373       0.65658432       0.72663206 </v>
    <v>       0.64973903       0.73350745       0.90887731 </v>
    <v>       0.18820074       0.04119954       0.54438680 </v>
    <v>       0.07281604       0.11812267       0.72663206 </v>
    <v>       0.95743132       0.19504580       0.90887731 </v>
    <v>       0.57836855       0.25000000       0.32663202 </v>
    <v>       0.22666222       0.34889194       0.72663206 </v>
    <v>       0.11127750       0.42581508       0.90887731 </v>
    <v>       0.16170175       0.83333331       0.43550944 </v>
    <v>       0.38050833       0.57966125       0.72663206 </v>
    <v>       0.26512364       0.65658438       0.90887731 </v>
    <v>       0.64973915       0.73350728       0.54438680 </v>
    <v>       0.53435445       0.81043041       0.72663206 </v>
    <v>       0.41896975       0.88735354       0.90887731 </v>
    <v>       0.80358535       0.96427661       0.54438680 </v>
    <v>       0.68820065       0.04119968       0.72663206 </v>
    <v>       0.57281596       0.11812282       0.90887731 </v>
    <v>       0.16170175       0.50000000       0.43550944 </v>
    <v>       0.99589294       0.50273812       0.72663206 </v>
    <v>       0.88050824       0.57966125       0.90887731 </v>
    <v>       0.26512381       0.65658426       0.54438680 </v>
    <v>       0.14973913       0.73350739       0.72663206 </v>
    <v>       0.03435442       0.81043053       0.90887731 </v>
    <v>       0.32836846       0.33333334       0.43550944 </v>
    <v>       0.30358526       0.96427661       0.72663206 </v>
    <v>       0.18820056       0.04119968       0.90887731 </v>
    <v>       0.03435455       0.81043035       0.54438680 </v>
    <v>       0.91896987       0.88735348       0.72663206 </v>
    <v>       0.80358511       0.96427661       0.90887731 </v>
    <v>       0.78435469       0.06043031       0.63550943 </v>
    <v>       0.66896993       0.13735345       0.81775469 </v>
    <v>       0.07836843       0.41666672       0.32663202 </v>
    <v>       0.93820065       0.29119953       0.63550943 </v>
    <v>       0.82281596       0.36812270       0.81775469 </v>
    <v>       0.07836843       0.58333343       0.10887737 </v>
    <v>       0.55358541       0.21427646       0.63550943 </v>
    <v>       0.43820071       0.29119960       0.81775469 </v>
    <v>       0.32281598       0.36812276       0.00000024 </v>
    <v>       0.70743161       0.44504571       0.63550943 </v>
    <v>       0.59204692       0.52196884       0.81775469 </v>
    <v>       0.47666219       0.59889197       0.00000024 </v>
    <v>       0.86127782       0.67581499       0.63550943 </v>
    <v>       0.74589312       0.75273812       0.81775469 </v>
    <v>       0.63050836       0.82966125       0.00000024 </v>
    <v>       0.16896996       0.13735335       0.63550943 </v>
    <v>       0.05358525       0.21427648       0.81775469 </v>
    <v>       0.93820053       0.29119962       0.00000024 </v>
    <v>       0.32281613       0.36812264       0.63550943 </v>
    <v>       0.20743144       0.44504577       0.81775469 </v>
    <v>       0.32836843       0.50000000       0.21775474 </v>
    <v>       0.47666228       0.59889185       0.63550943 </v>
    <v>       0.36127758       0.67581499       0.81775469 </v>
    <v>       0.24589284       0.75273812       0.00000024 </v>
    <v>       0.63050848       0.82966119       0.63550943 </v>
    <v>       0.51512379       0.90658432       0.81775469 </v>
    <v>       0.66170186       0.83333331       0.21775474 </v>
    <v>       0.09204684       0.52196878       0.63550943 </v>
    <v>       0.97666216       0.59889191       0.81775469 </v>
    <v>       0.41170186       0.08333334       0.32663202 </v>
    <v>       0.24589302       0.75273800       0.63550943 </v>
    <v>       0.13050830       0.82966113       0.81775469 </v>
    <v>       0.01512358       0.90658432       0.00000024 </v>
    <v>       0.39973924       0.98350733       0.63550943 </v>
    <v>       0.28435454       0.06043053       0.81775469 </v>
    <v>       0.16896982       0.13735366       0.00000024 </v>
    <v>       0.01512378       0.90658414       0.63550943 </v>
    <v>       0.89973903       0.98350733       0.81775469 </v>
    <v>       0.07836843       0.75000006       0.32663202 </v>
   </varray>
  </structure>
  <varray name="primitive_index" >
   <v type="int" >        1 </v>
   <v type="int" >        2 </v>
   <v type="int" >        3 </v>
   <v type="int" >        4 </v>
   <v type="int" >        5 </v>
   <v type="int" >        6 </v>
   <v type="int" >        7 </v>
   <v type="int" >        8 </v>
   <v type="int" >        9 </v>
   <v type="int" >       10 </v>
   <v type="int" >       11 </v>
   <v type="int" >       12 </v>
   <v type="int" >       13 </v>
   <v type="int" >       14 </v>
   <v type="int" >       15 </v>
   <v type="int" >       16 </v>
   <v type="int" >       17 </v>
   <v type="int" >       18 </v>
   <v type="int" >       19 </v>
   <v type="int" >       20 </v>
   <v type="int" >       21 </v>
   <v type="int" >       22 </v>
   <v type="int" >       23 </v>
   <v type="int" >       24 </v>
   <v type="int" >       25 </v>
   <v type="int" >       26 </v>
   <v type="int" >       27 </v>
   <v type="int" >       28 </v>
   <v type="int" >       29 </v>
   <v type="int" >       30 </v>
   <v type="int" >       31 </v>
   <v type="int" >       32 </v>
   <v type="int" >       33 </v>
   <v type="int" >       34 </v>
   <v type="int" >       35 </v>
   <v type="int" >       36 </v>
   <v type="int" >       37 </v>
   <v type="int" >       38 </v>
   <v type="int" >       39 </v>
   <v type="int" >       40 </v>
   <v type="int" >       41 </v>
   <v type="int" >       42 </v>
   <v type="int" >       43 </v>
   <v type="int" >       44 </v>
   <v type="int" >       45 </v>
   <v type="int" >       46 </v>
   <v type="int" >       47 </v>
   <v type="int" >       48 </v>
   <v type="int" >       49 </v>
   <v type="int" >       50 </v>
   <v type="int" >       51 </v>
   <v type="int" >       52 </v>
   <v type="int" >       53 </v>
   <v type="int" >       54 </v>
   <v type="int" >       55 </v>
   <v type="int" >       56 </v>
   <v type="int" >       57 </v>
   <v type="int" >       58 </v>
   <v type="int" >       59 </v>
   <v type="int" >       60 </v>
   <v type="int" >       61 </v>
   <v type="int" >       62 </v>
   <v type="int" >       63 </v>
   <v type="int" >       64 </v>
   <v type="int" >       65 </v>
   <v type="int" >       66 </v>
   <v type="int" >       67 </v>
   <v type="int" >       68 </v>
   <v type="int" >       69 </v>
   <v type="int" >       70 </v>
   <v type="int" >       71 </v>
   <v type="int" >       72 </v>
   <v type="int" >       73 </v>
   <v type="int" >       74 </v>
   <v type="int" >       75 </v>
   <v type="int" >       76 </v>
   <v type="int" >       77 </v>
   <v type="int" >       78 </v>
   <v type="int" >       79 </v>
   <v type="int" >       80 </v>
   <v type="int" >       81 </v>
   <v type="int" >       82 </v>
   <v type="int" >       83 </v>
   <v type="int" >       84 </v>
   <v type="int" >       85 </v>
   <v type="int" >       86 </v>
   <v type="int" >       87 </v>
   <v type="int" >       88 </v>
   <v type="int" >       89 </v>
   <v type="int" >       90 </v>
   <v type="int" >       91 </v>
   <v type="int" >       92 </v>
   <v type="int" >       93 </v>
   <v type="int" >       94 </v>
   <v type="int" >       95 </v>
   <v type="int" >       96 </v>
   <v type="int" >       97 </v>
   <v type="int" >       98 </v>
   <v type="int" >       99 </v>
   <v type="int" >      100 </v>
   <v type="int" >      101 </v>
   <v type="int" >      102 </v>
   <v type="int" >      103 </v>
   <v type="int" >      104 </v>
   <v type="int" >      105 </v>
   <v type="int" >      106 </v>
   <v type="int" >      107 </v>
   <v type="int" >      108 </v>
   <v type="int" >      109 </v>
   <v type="int" >      110 </v>
   <v type="int" >      111 </v>
   <v type="int" >      112 </v>
   <v type="int" >      113 </v>
   <v type="int" >      114 </v>
   <v type="int" >      115 </v>
   <v type="int" >      116 </v>
   <v type="int" >      117 </v>
   <v type="int" >      118 </v>
   <v type="int" >      119 </v>
   <v type="int" >      120 </v>
   <v type="int" >      121 </v>
   <v type="int" >      122 </v>
   <v type="int" >      123 </v>
   <v type="int" >      124 </v>
   <v type="int" >      125 </v>
   <v type="int" >      126 </v>
   <v type="int" >      127 </v>
   <v type="int" >      128 </v>
   <v type="int" >      129 </v>
   <v type="int" >      130 </v>
   <v type="int" >      131 </v>
   <v type="int" >      132 </v>
   <v type="int" >      133 </v>
   <v type="int" >      134 </v>
   <v type="int" >      135 </v>
   <v type="int" >      136 </v>
   <v type="int" >      137 </v>
   <v type="int" >      138 </v>
   <v type="int" >      139 </v>
   <v type="int" >      140 </v>
   <v type="int" >      141 </v>
   <v type="int" >      142 </v>
   <v type="int" >      143 </v>
   <v type="int" >      144 </v>
   <v type="int" >      145 </v>
   <v type="int" >      146 </v>
   <v type="int" >      147 </v>
   <v type="int" >      148 </v>
   <v type="int" >      149 </v>
   <v type="int" >      150 </v>
   <v type="int" >      151 </v>
   <v type="int" >      152 </v>
   <v type="int" >      153 </v>
   <v type="int" >      154 </v>
   <v type="int" >      155 </v>
   <v type="int" >      156 </v>
   <v type="int" >      157 </v>
   <v type="int" >      158 </v>
   <v type="int" >      159 </v>
   <v type="int" >      160 </v>
   <v type="int" >      161 </v>
   <v type="int" >      162 </v>
   <v type="int" >      163 </v>
   <v type="int" >      164 </v>
   <v type="int" >      165 </v>
   <v type="int" >      166 </v>
   <v type="int" >      167 </v>
   <v type="int" >      168 </v>
   <v type="int" >      169 </v>
   <v type="int" >      170 </v>
   <v type="int" >      171 </v>
   <v type="int" >      172 </v>
   <v type="int" >      173 </v>
   <v type="int" >      174 </v>
   <v type="int" >      175 </v>
   <v type="int" >      176 </v>
   <v type="int" >      177 </v>
   <v type="int" >      178 </v>
   <v type="int" >      179 </v>
   <v type="int" >      180 </v>
   <v type="int" >      181 </v>
   <v type="int" >      182 </v>
   <v type="int" >      183 </v>
   <v type="int" >      184 </v>
   <v type="int" >      185 </v>
   <v type="int" >      186 </v>
   <v type="int" >      187 </v>
   <v type="int" >      188 </v>
   <v type="int" >      189 </v>
   <v type="int" >      190 </v>
   <v type="int" >      191 </v>
   <v type="int" >      192 </v>
   <v type="int" >      193 </v>
   <v type="int" >      194 </v>
   <v type="int" >      195 </v>
   <v type="int" >      196 </v>
   <v type="int" >      197 </v>
   <v type="int" >      198 </v>
   <v type="int" >      199 </v>
   <v type="int" >      200 </v>
   <v type="int" >      201 </v>
   <v type="int" >      202 </v>
   <v type="int" >      203 </v>
   <v type="int" >      204 </v>
   <v type="int" >      205 </v>
   <v type="int" >      206 </v>
   <v type="int" >      207 </v>
   <v type="int" >      208 </v>
   <v type="int" >      209 </v>
   <v type="int" >      210 </v>
   <v type="int" >      211 </v>
   <v type="int" >      212 </v>
   <v type="int" >      213 </v>
   <v type="int" >      214 </v>
   <v type="int" >      215 </v>
   <v type="int" >      216 </v>
   <v type="int" >      217 </v>
   <v type="int" >      218 </v>
   <v type="int" >      219 </v>
   <v type="int" >      220 </v>
   <v type="int" >      221 </v>
   <v type="int" >      222 </v>
   <v type="int" >      223 </v>
   <v type="int" >      224 </v>
   <v type="int" >      225 </v>
   <v type="int" >      226 </v>
   <v type="int" >      227 </v>
   <v type="int" >      228 </v>
   <v type="int" >      229 </v>
   <v type="int" >      230 </v>
   <v type="int" >      231 </v>
   <v type="int" >      232 </v>
   <v type="int" >      233 </v>
   <v type="int" >      234 </v>
   <v type="int" >      235 </v>
   <v type="int" >      236 </v>
   <v type="int" >      237 </v>
   <v type="int" >      238 </v>
   <v type="int" >      239 </v>
   <v type="int" >      240 </v>
   <v type="int" >      241 </v>
   <v type="int" >      242 </v>
   <v type="int" >      243 </v>
   <v type="int" >      244 </v>
   <v type="int" >      245 </v>
   <v type="int" >      246 </v>
   <v type="int" >      247 </v>
   <v type="int" >      248 </v>
   <v type="int" >      249 </v>
   <v type="int" >      250 </v>
   <v type="int" >      251 </v>
   <v type="int" >      252 </v>
   <v type="int" >      253 </v>
   <v type="int" >      254 </v>
   <v type="int" >      255 </v>
   <v type="int" >      256 </v>
   <v type="int" >      257 </v>
   <v type="int" >      258 </v>
   <v type="int" >      259 </v>
   <v type="int" >      260 </v>
   <v type="int" >      261 </v>
   <v type="int" >      262 </v>
   <v type="int" >      263 </v>
   <v type="int" >      264 </v>
  </varray>
 </primitive_cell>
 <kpoints>
  <generation param="Gamma">
   <v type="int" name="divisions">       2        2        2 </v>
   <v name="usershift">      0.00000000       0.00000000       0.00000000 </v>
   <v name="genvec1">      0.50000000       0.00000000       0.00000000 </v>
   <v name="genvec2">      0.00000000       0.50000000       0.00000000 </v>
   <v name="genvec3">      0.00000000       0.00000000       0.50000000 </v>
   <v name="shift">      0.00000000       0.00000000       0.00000000 </v>
  </generation>
  <varray name="kpointlist" >
   <v>       0.00000000       0.00000000       0.00000000 </v>
   <v>       0.50000000       0.00000000       0.00000000 </v>
   <v>       0.00000000       0.50000000       0.00000000 </v>
   <v>       0.50000000       0.50000000       0.00000000 </v>
   <v>       0.00000000       0.00000000       0.50000000 </v>
   <v>       0.50000000       0.00000000       0.50000000 </v>
   <v>       0.00000000       0.50000000       0.50000000 </v>
   <v>       0.50000000       0.50000000       0.50000000 </v>
  </varray>
  <varray name="weights" >
   <v>       0.12500000 </v>
   <v>       0.12500000 </v>
   <v>       0.12500000 </v>
   <v>       0.12500000 </v>
   <v>       0.12500000 </v>
   <v>       0.12500000 </v>
   <v>       0.12500000 </v>
   <v>       0.12500000 </v>
  </varray>
 </kpoints>
 <parameters>
  <separator name="general" >
   <i type="string" name="SYSTEM">Si and Ge interface calculation</i>
   <i type="logical" name="LCOMPAT"> F  </i>
  </separator>
  <separator name="electronic" >
   <i type="string" name="PREC">normal</i>
   <i name="ENMAX">    700.00000000</i>
   <i name="ENAUG">    900.00000000</i>
   <i name="EDIFF">      0.00000010</i>
   <i type="int" name="IALGO">    38</i>
   <i type="int" name="IWAVPR">    10</i>
   <i type="int" name="NBANDS">   636</i>
   <i type="int" name="NBANDSLOW">    -1</i>
   <i type="int" name="NBANDSHIGH">    -1</i>
   <i name="NELECT">   1056.00000000</i>
   <i type="int" name="TURBO">     0</i>
   <i type="int" name="IRESTART">     0</i>
   <i type="int" name="NREBOOT">     0</i>
   <i type="int" name="NMIN">     0</i>
   <i name="EREF">      0.00000000</i>
   <separator name="electronic smearing" >
    <i type="int" name="ISMEAR">     0</i>
    <i name="SIGMA">      0.01000000</i>
    <i name="KSPACING">      0.50000000</i>
    <i type="logical" name="KGAMMA"> T  </i>
    <i type="logical" name="KBLOWUP"> T  </i>
   </separator>
   <separator name="electronic projectors" >
    <i type="logical" name="LREAL"> T  </i>
    <v name="ROPT">     -0.00050000     -0.00050000</v>
    <i type="int" name="LMAXPAW">  -100</i>
    <i type="int" name="LMAXMIX">     6</i>
    <i type="logical" name="NLSPLINE"> F  </i>
   </separator>
   <separator name="electronic startup" >
    <i type="int" name="ISTART">     0</i>
    <i type="int" name="ICHARG">     2</i>
    <i type="int" name="INIWAV">     1</i>
   </separator>
   <separator name="electronic spin" >
    <i type="int" name="ISPIN">     2</i>
    <i type="logical" name="LNONCOLLINEAR"> F  </i>
    <v name="MAGMOM">      0.00378788      0.00378788      0.00378788      0.00378788      0.00378788      0.00378788      0.00378788      0.00378788      0.00378788      0.00378788      0.00378788      0.00378788      0.00378788      0.00378788      0.00378788      0.00378788      0.00378788      0.00378788      0.00378788      0.00378788
      0.00378788      0.00378788      0.00378788      0.00378788      0.00378788      0.00378788      0.00378788      0.00378788      0.00378788      0.00378788      0.00378788      0.00378788      0.00378788      0.00378788      0.00378788      0.00378788      0.00378788      0.00378788      0.00378788      0.00378788
      0.00378788      0.00378788      0.00378788      0.00378788      0.00378788      0.00378788      0.00378788      0.00378788      0.00378788      0.00378788      0.00378788      0.00378788      0.00378788      0.00378788      0.00378788      0.00378788      0.00378788      0.00378788      0.00378788      0.00378788
      0.00378788      0.00378788      0.00378788      0.00378788      0.00378788      0.00378788      0.00378788      0.00378788      0.00378788      0.00378788      0.00378788      0.00378788      0.00378788      0.00378788      0.00378788      0.00378788      0.00378788      0.00378788      0.00378788      0.00378788
      0.00378788      0.00378788      0.00378788      0.00378788      0.00378788      0.00378788      0.00378788      0.00378788      0.00378788      0.00378788      0.00378788      0.00378788      0.00378788      0.00378788      0.00378788      0.00378788      0.00378788      0.00378788      0.00378788      0.00378788
      0.00378788      0.00378788      0.00378788      0.00378788      0.00378788      0.00378788      0.00378788      0.00378788      0.00378788      0.00378788      0.00378788      0.00378788      0.00378788      0.00378788      0.00378788      0.00378788      0.00378788      0.00378788      0.00378788      0.00378788
      0.00378788      0.00378788      0.00378788      0.00378788      0.00378788      0.00378788      0.00378788      0.00378788      0.00378788      0.00378788      0.00378788      0.00378788      0.00378788      0.00378788      0.00378788      0.00378788      0.00378788      0.00378788      0.00378788      0.00378788
      0.00378788      0.00378788      0.00378788      0.00378788      0.00378788      0.00378788      0.00378788      0.00378788      0.00378788      0.00378788      0.00378788      0.00378788      0.00378788      0.00378788      0.00378788      0.00378788      0.00378788      0.00378788      0.00378788      0.00378788
      0.00378788      0.00378788      0.00378788      0.00378788      0.00378788      0.00378788      0.00378788      0.00378788      0.00378788      0.00378788      0.00378788      0.00378788      0.00378788      0.00378788      0.00378788      0.00378788      0.00378788      0.00378788      0.00378788      0.00378788
      0.00378788      0.00378788      0.00378788      0.00378788      0.00378788      0.00378788      0.00378788      0.00378788      0.00378788      0.00378788      0.00378788      0.00378788      0.00378788      0.00378788      0.00378788      0.00378788      0.00378788      0.00378788      0.00378788      0.00378788
      0.00378788      0.00378788      0.00378788      0.00378788      0.00378788      0.00378788      0.00378788      0.00378788      0.00378788      0.00378788      0.00378788      0.00378788      0.00378788      0.00378788      0.00378788      0.00378788      0.00378788      0.00378788      0.00378788      0.00378788
      0.00378788      0.00378788      0.00378788      0.00378788      0.00378788      0.00378788      0.00378788      0.00378788      0.00378788      0.00378788      0.00378788      0.00378788      0.00378788      0.00378788      0.00378788      0.00378788      0.00378788      0.00378788      0.00378788      0.00378788
      0.00378788      0.00378788      0.00378788      0.00378788      0.00378788      0.00378788      0.00378788      0.00378788      0.00378788      0.00378788      0.00378788      0.00378788      0.00378788      0.00378788      0.00378788      0.00378788      0.00378788      0.00378788      0.00378788      0.00378788
      0.00378788      0.00378788      0.00378788      0.00378788</v>
    <i name="NUPDOWN">      1.00000000</i>
    <i type="logical" name="LSORBIT"> F  </i>
    <v name="SAXIS">      0.00000000      0.00000000      1.00000000</v>
    <i type="logical" name="LSPIRAL"> F  </i>
    <v name="QSPIRAL">      0.00000000      0.00000000      0.00000000</v>
    <i type="logical" name="LZEROZ"> F  </i>
   </separator>
   <separator name="electronic exchange-correlation" >
    <i type="logical" name="LASPH"> T  </i>
   </separator>
   <separator name="electronic convergence" >
    <i type="int" name="NELM">   100</i>
    <i type="int" name="NELMDL">    -5</i>
    <i type="int" name="NELMIN">     2</i>
    <i name="ENINI">    700.00000000</i>
    <separator name="electronic convergence detail" >
     <i type="logical" name="LDIAG"> T  </i>
     <i type="logical" name="LSUBROT"> F  </i>
     <i name="WEIMIN">      0.00000000</i>
     <i name="EBREAK">      0.00000000</i>
     <i name="DEPER">      0.30000000</i>
     <i type="int" name="NRMM">     4</i>
     <i name="TIME">      0.40000000</i>
    </separator>
   </separator>
   <separator name="electronic mixer" >
    <i name="AMIX">      0.60000000</i>
    <i name="BMIX">      1.00000000</i>
    <i name="AMIN">      0.10000000</i>
    <i name="AMIX_MAG">      2.40000000</i>
    <i name="BMIX_MAG">      1.00000000</i>
    <separator name="electronic mixer details" >
     <i type="int" name="IMIX">     4</i>
     <i type="logical" name="MIXFIRST"> F  </i>
     <i type="int" name="MAXMIX">   -45</i>
     <i name="WC">    100.00000000</i>
     <i type="int" name="INIMIX">     1</i>
     <i type="int" name="MIXPRE">     1</i>
     <i type="int" name="MREMOVE">     5</i>
    </separator>
   </separator>
   <separator name="electronic dipolcorrection" >
    <i type="logical" name="LDIPOL"> F  </i>
    <i type="logical" name="LMONO"> F  </i>
    <i type="int" name="IDIPOL">     0</i>
    <i name="EPSILON">      1.00000000</i>
    <v name="DIPOL">   -100.00000000   -100.00000000   -100.00000000</v>
    <i name="EFIELD">      0.00000000</i>
    <i type="logical" name="LVACPOTAV"> F  </i>
   </separator>
  </separator>
  <separator name="grids" >
   <i type="int" name="NGX">   126</i>
   <i type="int" name="NGY">   126</i>
   <i type="int" name="NGZ">    96</i>
   <i type="int" name="NGXF">   252</i>
   <i type="int" name="NGYF">   252</i>
   <i type="int" name="NGZF">   192</i>
   <i type="logical" name="ADDGRID"> T  </i>
  </separator>
  <separator name="ionic" >
   <i type="int" name="NSW">     0</i>
   <i type="int" name="IBRION">    -1</i>
   <i type="int" name="MDALGO">     0</i>
   <i type="int" name="ISIF">     2</i>
   <i name="PSTRESS">      0.00000000</i>
   <i name="EDIFFG">      0.00000100</i>
   <i type="int" name="NFREE">     0</i>
   <i name="POTIM">      0.50000000</i>
   <i name="SMASS">     -3.00000000</i>
   <i name="SCALEE">      1.00000000</i>
  </separator>
  <separator name="ionic md" >
   <i name="TEBEG">      0.00010000</i>
   <i name="TEEND">      0.00010000</i>
   <i type="int" name="NBLOCK">     1</i>
   <i type="int" name="KBLOCK">     1</i>
   <i type="int" name="NPACO">   256</i>
   <i name="APACO">     10.00000000</i>
  </separator>
  <separator name="symmetry" >
   <i type="int" name="ISYM">     2</i>
   <i name="SYMPREC">      0.00001000</i>
  </separator>
  <separator name="dos" >
   <i type="int" name="LORBIT">     0</i>
   <v name="RWIGS">     -1.00000000     -1.00000000</v>
   <i type="int" name="NEDOS">   301</i>
   <i name="EMIN">     10.00000000</i>
   <i name="EMAX">    -10.00000000</i>
   <i name="EFERMI">      0.00000000</i>
  </separator>
  <separator name="writing" >
   <i type="int" name="NWRITE">     2</i>
   <i type="logical" name="LWAVE"> F  </i>
   <i type="logical" name="LDOWNSAMPLE"> F  </i>
   <i type="logical" name="LCHARG"> T  </i>
   <i type="logical" name="LPARD"> F  </i>
   <i type="logical" name="LVTOT"> F  </i>
   <i type="logical" name="LVHAR"> T  </i>
   <i type="logical" name="LELF"> F  </i>
   <i type="logical" name="LOPTICS"> F  </i>
   <v name="STM">      0.00000000      0.00000000      0.00000000      0.00000000      0.00000000      0.00000000      0.00000000</v>
  </separator>
  <separator name="performance" >
   <i type="int" name="NPAR">     4</i>
   <i type="int" name="NSIM">     4</i>
   <i type="int" name="NBLK">    -1</i>
   <i type="logical" name="LPLANE"> T  </i>
   <i type="logical" name="LSCALAPACK"> T  </i>
   <i type="logical" name="LSCAAWARE"> F  </i>
   <i type="logical" name="LSCALU"> F  </i>
   <i type="logical" name="LASYNC"> F  </i>
   <i type="logical" name="LORBITALREAL"> F  </i>
  </separator>
  <separator name="miscellaneous" >
   <i type="int" name="IDIOT">     3</i>
   <i type="int" name="PHON_NSTRUCT">    -1</i>
   <i type="logical" name="LMUSIC"> F  </i>
   <v name="POMASS">    118.71000000     28.08500000</v>
   <v name="DARWINR">      0.00000000      0.00000000</v>
   <v name="DARWINV">      1.00000000      1.00000000</v>
   <i type="logical" name="LCORR"> T  </i>
  </separator>
  <i type="logical" name="GGA_COMPAT"> T  </i>
  <i type="logical" name="LBERRY"> F  </i>
  <i type="int" name="ICORELEVEL">     0</i>
  <i type="logical" name="LDAU"> F  </i>
  <i type="int" name="I_CONSTRAINED_M">     0</i>
  <separator name="electronic exchange-correlation" >
   <i type="string" name="GGA    ">PE</i>
   <i type="string" name="XC_C">1</i>
   <i type="int" name="VOSKOWN">     0</i>
   <i type="logical" name="LHFCALC"> F  </i>
   <i type="string" name="PRECFOCK"></i>
   <i type="logical" name="LSYMGRAD"> F  </i>
   <i type="logical" name="LHFONE"> F  </i>
   <i type="logical" name="LRHFCALC"> F  </i>
   <i type="logical" name="LTHOMAS"> F  </i>
   <i type="logical" name="LMODELHF"> F  </i>
   <i type="logical" name="LFOCKACE"> F  </i>
   <i name="ENCUT4O">     -1.00000000</i>
   <i type="int" name="EXXOEP">     0</i>
   <i type="int" name="FOURORBIT">     0</i>
   <i name="AEXX">      0.00000000</i>
   <i name="HFALPHA">      0.00000000</i>
   <i name="MCALPHA">      0.00000000</i>
   <i name="ALDAX">      1.00000000</i>
   <i name="AGGAX">      1.00000000</i>
   <i name="AMGGAX">      1.00000000</i>
   <i name="ALDAC">      1.00000000</i>
   <i name="AGGAC">      1.00000000</i>
   <i name="AMGGAC">      1.00000000</i>
   <i type="int" name="NKREDX">     1</i>
   <i type="int" name="NKREDY">     1</i>
   <i type="int" name="NKREDZ">     1</i>
   <i type="logical" name="SHIFTRED"> F  </i>
   <i type="logical" name="ODDONLY"> F  </i>
   <i type="logical" name="EVENONLY"> F  </i>
   <i type="int" name="LMAXFOCK">     0</i>
   <i type="int" name="NMAXFOCKAE">     0</i>
   <i type="logical" name="LFOCKAEDFT"> F  </i>
   <i name="HFSCREEN">      0.00000000</i>
   <i name="HFSCREENC">      0.00000000</i>
   <i type="int" name="NBANDSGWLOW">     0</i>
  </separator>
  <separator name="vdW DFT" >
   <i type="logical" name="LUSE_VDW"> F  </i>
   <i type="int" name="IVDW_NL">    -1</i>
   <i type="logical" name="LSPIN_VDW"> F  </i>
   <i name="ZAB_VDW">     -0.84910000</i>
   <i name="GAMMA_VDW">      1.39626340</i>
   <i name="ALPHA_VDW">      0.00000000</i>
   <i name="PARAM1">      0.12340000</i>
   <i name="PARAM2">      1.00000000</i>
   <i name="BPARAM">      6.30000000</i>
   <i name="CPARAM">      0.00930000</i>
  </separator>
  <separator name="model GW" >
   <i type="int" name="MODEL_GW">     0</i>
   <i name="MODEL_EPS0">     12.83410954</i>
   <i name="MODEL_ALPHA">      1.00000000</i>
  </separator>
  <separator name="linear response parameters" >
   <i type="logical" name="LEPSILON"> F  </i>
   <i type="logical" name="LRPA"> F  </i>
   <i type="logical" name="LNABLA"> F  </i>
   <i type="logical" name="LVEL"> F  </i>
   <i name="CSHIFT">      0.10000000</i>
   <i name="OMEGAMAX">     -1.00000000</i>
   <i name="DEG_THRESHOLD">      0.00200000</i>
   <i name="RTIME">     -0.10000000</i>
   <i name="WPLASMAI">      0.00000000</i>
   <v name="DFIELD">      0.00000000      0.00000000      0.00000000</v>
   <v name="WPLASMA">      0.00000000      0.00000000      0.00000000      0.00000000      0.00000000      0.00000000      0.00000000      0.00000000      0.00000000</v>
  </separator>
  <separator name="orbital magnetization" >
   <i type="logical" name="NUCIND"> F  </i>
   <v name="MAGPOS">      0.00000000      0.00000000      0.00000000</v>
   <i type="logical" name="LNICSALL"> T  </i>
   <i type="logical" name="ORBITALMAG"> F  </i>
   <i type="logical" name="LMAGBLOCH"> F  </i>
   <i type="logical" name="LCHIMAG"> F  </i>
   <i type="logical" name="LGAUGE"> T  </i>
   <i type="int" name="MAGATOM">     0</i>
   <v name="MAGDIPOL">      0.00000000      0.00000000      0.00000000</v>
   <v name="AVECCONST">      0.00000000      0.00000000      0.00000000</v>
  </separator>
  <separator name="response functions" >
   <i type="logical" name="LALL_IN_ONE"> F  </i>
   <i type="int" name="IALL_IN_ONE">    -1</i>
   <i type="int" name="NBANDS_WAVE">    -1</i>
   <i type="logical" name="LFINITE_TEMPERATURE"> F  </i>
   <i type="logical" name="LADDER"> F  </i>
   <i type="logical" name="LRPAFORCE"> F  </i>
   <i type="logical" name="LFXC"> F  </i>
   <i type="logical" name="LHARTREE"> T  </i>
   <i type="int" name="IBSE">     0</i>
   <v type="int" name="KPOINT">    -1     0     0     0</v>
   <i type="logical" name="LTCTC"> F  </i>
   <i type="logical" name="LTCTE"> F  </i>
   <i type="logical" name="LTETE"> F  </i>
   <i type="logical" name="LTRIPLET"> F  </i>
   <i type="logical" name="LFXCEPS"> F  </i>
   <i type="logical" name="LFXHEG"> F  </i>
   <i type="int" name="NATURALO">     2</i>
   <i type="logical" name="LHOLEGF"> F  </i>
   <i type="logical" name="L2ORDER"> F  </i>
   <i type="logical" name="LDMP1"> F  </i>
   <i type="logical" name="LMP2LT"> F  </i>
   <i type="logical" name="LSMP2LT"> F  </i>
   <i type="logical" name="LGWLF"> F  </i>
   <i name="ENCUTGW">     -1.60000002</i>
   <i name="ENCUTGWSOFT">     -1.60000002</i>
   <i name="ENCUTLF">     -1.00000000</i>
   <i type="logical" name="ESF_SPLINES"> F  </i>
   <i name="ESF_CONV">      0.01000000</i>
   <i type="int" name="ESF_NINTER">    15</i>
   <i type="int" name="LMAXMP2">    -1</i>
   <i name="SCISSOR">      0.00000000</i>
   <i type="int" name="NOMEGA">     0</i>
   <i type="int" name="NOMEGAR">     0</i>
   <i type="int" name="NBANDSGW">    -1</i>
   <i type="int" name="NBANDSO">    -1</i>
   <i type="int" name="NBANDSV">    -1</i>
   <i type="int" name="NELMGW">     1</i>
   <i type="int" name="NELMHF">     1</i>
   <i type="int" name="DIM">     3</i>
   <i type="int" name="IESPILON">     4</i>
   <i type="int" name="ANTIRES">     0</i>
   <i name="OMEGAMAX">    -30.00000000</i>
   <i name="OMEGAMIN">    -30.00000000</i>
   <i name="OMEGATL">   -200.00000000</i>
   <i type="int" name="OMEGAGRID">     0</i>
   <i name="CSHIFT">     -0.10000000</i>
   <i type="logical" name="LSELFENERGY"> F  </i>
   <i type="logical" name="LSPECTRAL"> F  </i>
   <i type="logical" name="LSPECTRALGW"> F  </i>
   <i type="logical" name="LSINGLES"> F  </i>
   <i type="logical" name="LFERMIGW"> F  </i>
   <i type="logical" name="ODDONLYGW"> F  </i>
   <i type="logical" name="EVENONLYGW"> F  </i>
   <i type="int" name="NKREDLFX">     1</i>
   <i type="int" name="NKREDLFY">     1</i>
   <i type="int" name="NKREDLFZ">     1</i>
   <i type="int" name="MAXMEM">  2800</i>
   <i type="int" name="TELESCOPE">     0</i>
   <i type="int" name="NTAUPAR">    -1</i>
   <i type="int" name="NOMEGAPAR">    -1</i>
   <i name="DAMP_NEWTON">      0.80000001</i>
   <i name="LAMBDA">      1.00000000</i>
  </separator>
  <separator name="External order field" >
   <i name="OFIELD_KAPPA">      0.00000000</i>
   <v name="OFIELD_K">      0.00000000      0.00000000      0.00000000</v>
   <i name="OFIELD_Q6_NEAR">      0.00000000</i>
   <i name="OFIELD_Q6_FAR">      0.00000000</i>
   <i name="OFIELD_A">      0.00000000</i>
  </separator>
  <separator name="optional k-points parameters" >
   <i type="int" name="KPOINTS_OPT_MODE">     1</i>
   <i type="logical" name="LKPOINTS_OPT"> F  </i>
  </separator>
 </parameters>
 <atominfo>
  <atoms>     264 </atoms>
  <types>       2 </types>
  <array name="atoms" >
   <dimension dim="1">ion</dimension>
   <field type="string">element</field>
   <field type="int">atomtype</field>
   <set>
    <rc><c>Sn</c><c>   1</c></rc>
    <rc><c>Sn</c><c>   1</c></rc>
    <rc><c>Sn</c><c>   1</c></rc>
    <rc><c>Sn</c><c>   1</c></rc>
    <rc><c>Sn</c><c>   1</c></rc>
    <rc><c>Sn</c><c>   1</c></rc>
    <rc><c>Sn</c><c>   1</c></rc>
    <rc><c>Sn</c><c>   1</c></rc>
    <rc><c>Sn</c><c>   1</c></rc>
    <rc><c>Sn</c><c>   1</c></rc>
    <rc><c>Sn</c><c>   1</c></rc>
    <rc><c>Sn</c><c>   1</c></rc>
    <rc><c>Sn</c><c>   1</c></rc>
    <rc><c>Sn</c><c>   1</c></rc>
    <rc><c>Sn</c><c>   1</c></rc>
    <rc><c>Sn</c><c>   1</c></rc>
    <rc><c>Sn</c><c>   1</c></rc>
    <rc><c>Sn</c><c>   1</c></rc>
    <rc><c>Sn</c><c>   1</c></rc>
    <rc><c>Sn</c><c>   1</c></rc>
    <rc><c>Sn</c><c>   1</c></rc>
    <rc><c>Sn</c><c>   1</c></rc>
    <rc><c>Sn</c><c>   1</c></rc>
    <rc><c>Sn</c><c>   1</c></rc>
    <rc><c>Sn</c><c>   1</c></rc>
    <rc><c>Sn</c><c>   1</c></rc>
    <rc><c>Sn</c><c>   1</c></rc>
    <rc><c>Sn</c><c>   1</c></rc>
    <rc><c>Sn</c><c>   1</c></rc>
    <rc><c>Sn</c><c>   1</c></rc>
    <rc><c>Sn</c><c>   1</c></rc>
    <rc><c>Sn</c><c>   1</c></rc>
    <rc><c>Sn</c><c>   1</c></rc>
    <rc><c>Sn</c><c>   1</c></rc>
    <rc><c>Sn</c><c>   1</c></rc>
    <rc><c>Sn</c><c>   1</c></rc>
    <rc><c>Sn</c><c>   1</c></rc>
    <rc><c>Sn</c><c>   1</c></rc>
    <rc><c>Sn</c><c>   1</c></rc>
    <rc><c>Sn</c><c>   1</c></rc>
    <rc><c>Sn</c><c>   1</c></rc>
    <rc><c>Sn</c><c>   1</c></rc>
    <rc><c>Sn</c><c>   1</c></rc>
    <rc><c>Sn</c><c>   1</c></rc>
    <rc><c>Sn</c><c>   1</c></rc>
    <rc><c>Sn</c><c>   1</c></rc>
    <rc><c>Sn</c><c>   1</c></rc>
    <rc><c>Sn</c><c>   1</c></rc>
    <rc><c>Sn</c><c>   1</c></rc>
    <rc><c>Sn</c><c>   1</c></rc>
    <rc><c>Sn</c><c>   1</c></rc>
    <rc><c>Sn</c><c>   1</c></rc>
    <rc><c>Sn</c><c>   1</c></rc>
    <rc><c>Sn</c><c>   1</c></rc>
    <rc><c>Sn</c><c>   1</c></rc>
    <rc><c>Sn</c><c>   1</c></rc>
    <rc><c>Sn</c><c>   1</c></rc>
    <rc><c>Sn</c><c>   1</c></rc>
    <rc><c>Sn</c><c>   1</c></rc>
    <rc><c>Sn</c><c>   1</c></rc>
    <rc><c>Sn</c><c>   1</c></rc>
    <rc><c>Sn</c><c>   1</c></rc>
    <rc><c>Sn</c><c>   1</c></rc>
    <rc><c>Sn</c><c>   1</c></rc>
    <rc><c>Sn</c><c>   1</c></rc>
    <rc><c>Sn</c><c>   1</c></rc>
    <rc><c>Sn</c><c>   1</c></rc>
    <rc><c>Sn</c><c>   1</c></rc>
    <rc><c>Sn</c><c>   1</c></rc>
    <rc><c>Sn</c><c>   1</c></rc>
    <rc><c>Sn</c><c>   1</c></rc>
    <rc><c>Sn</c><c>   1</c></rc>
    <rc><c>Sn</c><c>   1</c></rc>
    <rc><c>Sn</c><c>   1</c></rc>
    <rc><c>Sn</c><c>   1</c></rc>
    <rc><c>Sn</c><c>   1</c></rc>
    <rc><c>Sn</c><c>   1</c></rc>
    <rc><c>Sn</c><c>   1</c></rc>
    <rc><c>Sn</c><c>   1</c></rc>
    <rc><c>Sn</c><c>   1</c></rc>
    <rc><c>Sn</c><c>   1</c></rc>
    <rc><c>Sn</c><c>   1</c></rc>
    <rc><c>Sn</c><c>   1</c></rc>
    <rc><c>Sn</c><c>   1</c></rc>
    <rc><c>Sn</c><c>   1</c></rc>
    <rc><c>Sn</c><c>   1</c></rc>
    <rc><c>Sn</c><c>   1</c></rc>
    <rc><c>Sn</c><c>   1</c></rc>
    <rc><c>Sn</c><c>   1</c></rc>
    <rc><c>Sn</c><c>   1</c></rc>
    <rc><c>Sn</c><c>   1</c></rc>
    <rc><c>Sn</c><c>   1</c></rc>
    <rc><c>Sn</c><c>   1</c></rc>
    <rc><c>Sn</c><c>   1</c></rc>
    <rc><c>Sn</c><c>   1</c></rc>
    <rc><c>Sn</c><c>   1</c></rc>
    <rc><c>Sn</c><c>   1</c></rc>
    <rc><c>Sn</c><c>   1</c></rc>
    <rc><c>Sn</c><c>   1</c></rc>
    <rc><c>Sn</c><c>   1</c></rc>
    <rc><c>Sn</c><c>   1</c></rc>
    <rc><c>Sn</c><c>   1</c></rc>
    <rc><c>Sn</c><c>   1</c></rc>
    <rc><c>Sn</c><c>   1</c></rc>
    <rc><c>Sn</c><c>   1</c></rc>
    <rc><c>Sn</c><c>   1</c></rc>
    <rc><c>Sn</c><c>   1</c></rc>
    <rc><c>Sn</c><c>   1</c></rc>
    <rc><c>Si</c><c>   2</c></rc>
    <rc><c>Si</c><c>   2</c></rc>
    <rc><c>Si</c><c>   2</c></rc>
    <rc><c>Si</c><c>   2</c></rc>
    <rc><c>Si</c><c>   2</c></rc>
    <rc><c>Si</c><c>   2</c></rc>
    <rc><c>Si</c><c>   2</c></rc>
    <rc><c>Si</c><c>   2</c></rc>
    <rc><c>Si</c><c>   2</c></rc>
    <rc><c>Si</c><c>   2</c></rc>
    <rc><c>Si</c><c>   2</c></rc>
    <rc><c>Si</c><c>   2</c></rc>
    <rc><c>Si</c><c>   2</c></rc>
    <rc><c>Si</c><c>   2</c></rc>
    <rc><c>Si</c><c>   2</c></rc>
    <rc><c>Si</c><c>   2</c></rc>
    <rc><c>Si</c><c>   2</c></rc>
    <rc><c>Si</c><c>   2</c></rc>
    <rc><c>Si</c><c>   2</c></rc>
    <rc><c>Si</c><c>   2</c></rc>
    <rc><c>Si</c><c>   2</c></rc>
    <rc><c>Si</c><c>   2</c></rc>
    <rc><c>Si</c><c>   2</c></rc>
    <rc><c>Si</c><c>   2</c></rc>
    <rc><c>Si</c><c>   2</c></rc>
    <rc><c>Si</c><c>   2</c></rc>
    <rc><c>Si</c><c>   2</c></rc>
    <rc><c>Si</c><c>   2</c></rc>
    <rc><c>Si</c><c>   2</c></rc>
    <rc><c>Si</c><c>   2</c></rc>
    <rc><c>Si</c><c>   2</c></rc>
    <rc><c>Si</c><c>   2</c></rc>
    <rc><c>Si</c><c>   2</c></rc>
    <rc><c>Si</c><c>   2</c></rc>
    <rc><c>Si</c><c>   2</c></rc>
    <rc><c>Si</c><c>   2</c></rc>
    <rc><c>Si</c><c>   2</c></rc>
    <rc><c>Si</c><c>   2</c></rc>
    <rc><c>Si</c><c>   2</c></rc>
    <rc><c>Si</c><c>   2</c></rc>
    <rc><c>Si</c><c>   2</c></rc>
    <rc><c>Si</c><c>   2</c></rc>
    <rc><c>Si</c><c>   2</c></rc>
    <rc><c>Si</c><c>   2</c></rc>
    <rc><c>Si</c><c>   2</c></rc>
    <rc><c>Si</c><c>   2</c></rc>
    <rc><c>Si</c><c>   2</c></rc>
    <rc><c>Si</c><c>   2</c></rc>
    <rc><c>Si</c><c>   2</c></rc>
    <rc><c>Si</c><c>   2</c></rc>
    <rc><c>Si</c><c>   2</c></rc>
    <rc><c>Si</c><c>   2</c></rc>
    <rc><c>Si</c><c>   2</c></rc>
    <rc><c>Si</c><c>   2</c></rc>
    <rc><c>Si</c><c>   2</c></rc>
    <rc><c>Si</c><c>   2</c></rc>
    <rc><c>Si</c><c>   2</c></rc>
    <rc><c>Si</c><c>   2</c></rc>
    <rc><c>Si</c><c>   2</c></rc>
    <rc><c>Si</c><c>   2</c></rc>
    <rc><c>Si</c><c>   2</c></rc>
    <rc><c>Si</c><c>   2</c></rc>
    <rc><c>Si</c><c>   2</c></rc>
    <rc><c>Si</c><c>   2</c></rc>
    <rc><c>Si</c><c>   2</c></rc>
    <rc><c>Si</c><c>   2</c></rc>
    <rc><c>Si</c><c>   2</c></rc>
    <rc><c>Si</c><c>   2</c></rc>
    <rc><c>Si</c><c>   2</c></rc>
    <rc><c>Si</c><c>   2</c></rc>
    <rc><c>Si</c><c>   2</c></rc>
    <rc><c>Si</c><c>   2</c></rc>
    <rc><c>Si</c><c>   2</c></rc>
    <rc><c>Si</c><c>   2</c></rc>
    <rc><c>Si</c><c>   2</c></rc>
    <rc><c>Si</c><c>   2</c></rc>
    <rc><c>Si</c><c>   2</c></rc>
    <rc><c>Si</c><c>   2</c></rc>
    <rc><c>Si</c><c>   2</c></rc>
    <rc><c>Si</c><c>   2</c></rc>
    <rc><c>Si</c><c>   2</c></rc>
    <rc><c>Si</c><c>   2</c></rc>
    <rc><c>Si</c><c>   2</c></rc>
    <rc><c>Si</c><c>   2</c></rc>
    <rc><c>Si</c><c>   2</c></rc>
    <rc><c>Si</c><c>   2</c></rc>
    <rc><c>Si</c><c>   2</c></rc>
    <rc><c>Si</c><c>   2</c></rc>
    <rc><c>Si</c><c>   2</c></rc>
    <rc><c>Si</c><c>   2</c></rc>
    <rc><c>Si</c><c>   2</c></rc>
    <rc><c>Si</c><c>   2</c></rc>
    <rc><c>Si</c><c>   2</c></rc>
    <rc><c>Si</c><c>   2</c></rc>
    <rc><c>Si</c><c>   2</c></rc>
    <rc><c>Si</c><c>   2</c></rc>
    <rc><c>Si</c><c>   2</c></rc>
    <rc><c>Si</c><c>   2</c></rc>
    <rc><c>Si</c><c>   2</c></rc>
    <rc><c>Si</c><c>   2</c></rc>
    <rc><c>Si</c><c>   2</c></rc>
    <rc><c>Si</c><c>   2</c></rc>
    <rc><c>Si</c><c>   2</c></rc>
    <rc><c>Si</c><c>   2</c></rc>
    <rc><c>Si</c><c>   2</c></rc>
    <rc><c>Si</c><c>   2</c></rc>
    <rc><c>Si</c><c>   2</c></rc>
    <rc><c>Si</c><c>   2</c></rc>
    <rc><c>Si</c><c>   2</c></rc>
    <rc><c>Si</c><c>   2</c></rc>
    <rc><c>Si</c><c>   2</c></rc>
    <rc><c>Si</c><c>   2</c></rc>
    <rc><c>Si</c><c>   2</c></rc>
    <rc><c>Si</c><c>   2</c></rc>
    <rc><c>Si</c><c>   2</c></rc>
    <rc><c>Si</c><c>   2</c></rc>
    <rc><c>Si</c><c>   2</c></rc>
    <rc><c>Si</c><c>   2</c></rc>
    <rc><c>Si</c><c>   2</c></rc>
    <rc><c>Si</c><c>   2</c></rc>
    <rc><c>Si</c><c>   2</c></rc>
    <rc><c>Si</c><c>   2</c></rc>
    <rc><c>Si</c><c>   2</c></rc>
    <rc><c>Si</c><c>   2</c></rc>
    <rc><c>Si</c><c>   2</c></rc>
    <rc><c>Si</c><c>   2</c></rc>
    <rc><c>Si</c><c>   2</c></rc>
    <rc><c>Si</c><c>   2</c></rc>
    <rc><c>Si</c><c>   2</c></rc>
    <rc><c>Si</c><c>   2</c></rc>
    <rc><c>Si</c><c>   2</c></rc>
    <rc><c>Si</c><c>   2</c></rc>
    <rc><c>Si</c><c>   2</c></rc>
    <rc><c>Si</c><c>   2</c></rc>
    <rc><c>Si</c><c>   2</c></rc>
    <rc><c>Si</c><c>   2</c></rc>
    <rc><c>Si</c><c>   2</c></rc>
    <rc><c>Si</c><c>   2</c></rc>
    <rc><c>Si</c><c>   2</c></rc>
    <rc><c>Si</c><c>   2</c></rc>
    <rc><c>Si</c><c>   2</c></rc>
    <rc><c>Si</c><c>   2</c></rc>
    <rc><c>Si</c><c>   2</c></rc>
    <rc><c>Si</c><c>   2</c></rc>
    <rc><c>Si</c><c>   2</c></rc>
    <rc><c>Si</c><c>   2</c></rc>
    <rc><c>Si</c><c>   2</c></rc>
    <rc><c>Si</c><c>   2</c></rc>
    <rc><c>Si</c><c>   2</c></rc>
    <rc><c>Si</c><c>   2</c></rc>
    <rc><c>Si</c><c>   2</c></rc>
    <rc><c>Si</c><c>   2</c></rc>
    <rc><c>Si</c><c>   2</c></rc>
    <rc><c>Si</c><c>   2</c></rc>
    <rc><c>Si</c><c>   2</c></rc>
    <rc><c>Si</c><c>   2</c></rc>
   </set>
  </array>
  <array name="atomtypes" >
   <dimension dim="1">type</dimension>
   <field type="int">atomspertype</field>
   <field type="string">element</field>
   <field>mass</field>
   <field>valence</field>
   <field type="string">pseudopotential</field>
   <set>
    <rc><c> 108</c><c>Sn</c><c>    118.71000000</c><c>      4.00000000</c><c>  PAW_PBE Sn 08Apr2002                  </c></rc>
    <rc><c> 156</c><c>Si</c><c>     28.08500000</c><c>      4.00000000</c><c>  PAW_PBE Si 05Jan2001                  </c></rc>
   </set>
  </array>
 </atominfo>
 <structure name="initialpos" >
  <crystal>
   <varray name="basis" >
    <v>      19.46759987       0.00000000       0.00000000 </v>
    <v>       0.00000000      19.46759987       0.00000000 </v>
    <v>       0.00000000       0.00000000      14.90025139 </v>
   </varray>
   <i name="volume">   5647.00819870 </i>
   <varray name="rec_basis" >
    <v>       0.05136740       0.00000000       0.00000000 </v>
    <v>       0.00000000       0.05136740       0.00000000 </v>
    <v>       0.00000000       0.00000000       0.06711296 </v>
   </varray>
  </crystal>
  <varray name="positions" >
   <v>       0.82836843       0.33333334       0.21775474 </v>
   <v>       0.30358535       0.46427652       0.54438680 </v>
   <v>       0.66170174       0.66666669       0.43550944 </v>
   <v>       0.99503511       0.33333334       0.00000000 </v>
   <v>       0.99503511       0.66666669       0.00000000 </v>
   <v>       0.66170174       0.33333334       0.43550944 </v>
   <v>       0.91170180       0.25000000       0.32663202 </v>
   <v>       0.53435463       0.31043035       0.54438680 </v>
   <v>       0.57836837       0.41666672       0.54438680 </v>
   <v>       0.74503505       0.75000006       0.32663202 </v>
   <v>       0.16170174       0.66666669       0.21775474 </v>
   <v>       0.95743150       0.19504575       0.54438680 </v>
   <v>       0.32836846       0.33333334       0.00000000 </v>
   <v>       0.61127764       0.92581505       0.54438680 </v>
   <v>       0.99503511       0.33333334       0.43550944 </v>
   <v>       0.32836846       0.00000000       0.00000000 </v>
   <v>       0.16170174       0.00000000       0.21775474 </v>
   <v>       0.99503511       0.00000000       0.43550944 </v>
   <v>       0.82836843       0.66666669       0.21775474 </v>
   <v>       0.49503511       0.66666669       0.21775474 </v>
   <v>       0.32836846       0.66666669       0.43550944 </v>
   <v>       0.66170180       0.33333334       0.00000000 </v>
   <v>       0.49503511       0.33333334       0.21775474 </v>
   <v>       0.41896999       0.88735348       0.54438680 </v>
   <v>       0.66170180       0.00000000       0.00000000 </v>
   <v>       0.07836838       0.91666675       0.54438680 </v>
   <v>       0.91170174       0.41666672       0.54438680 </v>
   <v>       0.07836843       0.91666675       0.10887737 </v>
   <v>       0.91170180       0.91666675       0.32663202 </v>
   <v>       0.57836855       0.58333343       0.32663202 </v>
   <v>       0.70743120       0.44504583       0.00000024 </v>
   <v>       0.91170180       0.58333343       0.32663202 </v>
   <v>       0.74503505       0.58333343       0.54438680 </v>
   <v>       0.07836843       0.25000000       0.10887737 </v>
   <v>       0.99503511       0.00000000       0.00000000 </v>
   <v>       0.66170186       0.50000000       0.21775474 </v>
   <v>       0.82836855       0.83333331       0.00000000 </v>
   <v>       0.24503510       0.91666675       0.32663202 </v>
   <v>       0.49503511       0.00000000       0.21775474 </v>
   <v>       0.74589276       0.25273815       0.00000024 </v>
   <v>       0.24503510       0.58333343       0.32663202 </v>
   <v>       0.07836838       0.58333343       0.54438680 </v>
   <v>       0.36127743       0.17581510       0.00000024 </v>
   <v>       0.24503510       0.25000000       0.32663202 </v>
   <v>       0.07836838       0.25000000       0.54438680 </v>
   <v>       0.74503517       0.91666675       0.10887737 </v>
   <v>       0.41170180       0.91666675       0.54438680 </v>
   <v>       0.57836855       0.91666675       0.32663202 </v>
   <v>       0.74503517       0.58333343       0.10887737 </v>
   <v>       0.74503505       0.91666675       0.54438680 </v>
   <v>       0.41170180       0.58333343       0.54438680 </v>
   <v>       0.74503517       0.25000000       0.10887737 </v>
   <v>       0.34204692       0.27196881       0.54438680 </v>
   <v>       0.41170180       0.25000000       0.54438680 </v>
   <v>       0.16170177       0.83333331       0.00000000 </v>
   <v>       0.38050824       0.07966125       0.90887731 </v>
   <v>       0.45743152       0.69504565       0.54438680 </v>
   <v>       0.16170177       0.50000000       0.00000000 </v>
   <v>       0.99503505       0.50000000       0.21775474 </v>
   <v>       0.82836843       0.50000000       0.43550944 </v>
   <v>       0.57836848       0.75000006       0.10887737 </v>
   <v>       0.99503505       0.16666667       0.21775474 </v>
   <v>       0.82836843       0.16666667       0.43550944 </v>
   <v>       0.49503511       0.83333331       0.00000000 </v>
   <v>       0.32836843       0.83333331       0.21775474 </v>
   <v>       0.49589306       0.50273812       0.54438680 </v>
   <v>       0.49503511       0.50000000       0.00000000 </v>
   <v>       0.09204672       0.52196890       0.00000024 </v>
   <v>       0.11127764       0.42581499       0.54438680 </v>
   <v>       0.49503511       0.16666667       0.00000000 </v>
   <v>       0.32836843       0.16666667       0.21775474 </v>
   <v>       0.57836837       0.08333334       0.54438680 </v>
   <v>       0.41170177       0.91666675       0.10887737 </v>
   <v>       0.39973903       0.98350745       0.00000024 </v>
   <v>       0.49503520       0.83333331       0.43550944 </v>
   <v>       0.82836855       0.50000000       0.00000000 </v>
   <v>       0.74503505       0.25000000       0.54438680 </v>
   <v>       0.49503520       0.50000000       0.43550944 </v>
   <v>       0.91170174       0.75000006       0.10887737 </v>
   <v>       0.66170186       0.16666667       0.21775474 </v>
   <v>       0.49503520       0.16666667       0.43550944 </v>
   <v>       0.24503510       0.75000006       0.10887737 </v>
   <v>       0.78435433       0.06043041       0.00000024 </v>
   <v>       0.91170174       0.75000006       0.54438680 </v>
   <v>       0.20743127       0.94504583       0.00000024 </v>
   <v>       0.55358523       0.21427658       0.00000024 </v>
   <v>       0.32836846       0.00000000       0.43550944 </v>
   <v>       0.24503510       0.08333334       0.10887737 </v>
   <v>       0.07836843       0.08333334       0.32663202 </v>
   <v>       0.91170174       0.08333334       0.54438680 </v>
   <v>       0.16170177       0.16666667       0.00000000 </v>
   <v>       0.41170186       0.75000006       0.32663202 </v>
   <v>       0.24503513       0.75000006       0.54438680 </v>
   <v>       0.57836848       0.41666672       0.10887737 </v>
   <v>       0.41170186       0.41666672       0.32663202 </v>
   <v>       0.24503513       0.41666672       0.54438680 </v>
   <v>       0.66896975       0.63735354       0.00000024 </v>
   <v>       0.86127740       0.67581505       0.00000024 </v>
   <v>       0.24503513       0.08333334       0.54438680 </v>
   <v>       0.82836855       0.16666667       0.00000000 </v>
   <v>       0.32836846       0.66666669       0.00000000 </v>
   <v>       0.57836837       0.75000006       0.54438680 </v>
   <v>       0.91170174       0.41666672       0.10887737 </v>
   <v>       0.74503505       0.41666672       0.32663202 </v>
   <v>       0.66170174       0.00000000       0.43550944 </v>
   <v>       0.91170174       0.08333334       0.10887737 </v>
   <v>       0.13050841       0.32966110       0.63550943 </v>
   <v>       0.16170175       0.16666667       0.43550944 </v>
   <v>       0.76512390       0.15658416       0.54438680 </v>
   <v>       0.64973921       0.23350728       0.72663206 </v>
   <v>       0.53435451       0.31043044       0.90887731 </v>
   <v>       0.91897005       0.38735336       0.54438680 </v>
   <v>       0.80358535       0.46427646       0.72663206 </v>
   <v>       0.68820065       0.54119962       0.90887731 </v>
   <v>       0.38050845       0.07966107       0.54438680 </v>
   <v>       0.26512375       0.15658420       0.72663206 </v>
   <v>       0.14973906       0.23350733       0.90887731 </v>
   <v>       0.82836843       0.00000000       0.21775474 </v>
   <v>       0.41896990       0.38735348       0.72663206 </v>
   <v>       0.30358520       0.46427661       0.90887731 </v>
   <v>       0.68820071       0.54119956       0.54438680 </v>
   <v>       0.57281601       0.61812270       0.72663206 </v>
   <v>       0.45743132       0.69504583       0.90887731 </v>
   <v>       0.07836843       0.75000006       0.32663202 </v>
   <v>       0.72666216       0.84889203       0.72663206 </v>
   <v>       0.61127746       0.92581517       0.90887731 </v>
   <v>       0.99589300       0.00273798       0.54438680 </v>
   <v>       0.88050830       0.07966111       0.72663206 </v>
   <v>       0.76512361       0.15658425       0.90887731 </v>
   <v>       0.41170186       0.08333334       0.32663202 </v>
   <v>       0.03435449       0.31043038       0.72663206 </v>
   <v>       0.91896975       0.38735351       0.90887731 </v>
   <v>       0.82836843       0.66666669       0.21775474 </v>
   <v>       0.18820064       0.54119962       0.72663206 </v>
   <v>       0.07281593       0.61812276       0.90887731 </v>
   <v>       0.82836843       0.83333331       0.43550944 </v>
   <v>       0.34204683       0.77196878       0.72663206 </v>
   <v>       0.22666211       0.84889191       0.90887731 </v>
   <v>       0.16170174       0.33333334       0.21775474 </v>
   <v>       0.49589294       0.00273812       0.72663206 </v>
   <v>       0.99503505       0.83333331       0.21775474 </v>
   <v>       0.07281609       0.61812264       0.54438680 </v>
   <v>       0.95743138       0.69504577       0.72663206 </v>
   <v>       0.84204668       0.77196896       0.90887731 </v>
   <v>       0.22666228       0.84889185       0.54438680 </v>
   <v>       0.11127758       0.92581493       0.72663206 </v>
   <v>       0.99589282       0.00273812       0.90887731 </v>
   <v>       0.97666222       0.09889185       0.63550943 </v>
   <v>       0.86127752       0.17581499       0.81775469 </v>
   <v>       0.41170177       0.58333343       0.10887737 </v>
   <v>       0.59204686       0.02196884       0.63550943 </v>
   <v>       0.47666219       0.09889197       0.81775469 </v>
   <v>       0.41170177       0.25000000       0.10887737 </v>
   <v>       0.74589312       0.25273800       0.63550943 </v>
   <v>       0.63050842       0.32966116       0.81775469 </v>
   <v>       0.51512373       0.40658429       0.00000024 </v>
   <v>       0.89973921       0.48350725       0.63550943 </v>
   <v>       0.78435451       0.56043041       0.81775469 </v>
   <v>       0.57836848       0.08333334       0.10887737 </v>
   <v>       0.36127767       0.17581493       0.63550943 </v>
   <v>       0.24589297       0.25273806       0.81775469 </v>
   <v>       0.13050824       0.32966119       0.00000024 </v>
   <v>       0.51512379       0.40658423       0.63550943 </v>
   <v>       0.39973909       0.48350737       0.81775469 </v>
   <v>       0.28435436       0.56043053       0.00000024 </v>
   <v>       0.66896993       0.63735342       0.63550943 </v>
   <v>       0.55358523       0.71427655       0.81775469 </v>
   <v>       0.43820050       0.79119968       0.00000024 </v>
   <v>       0.82281607       0.86812270       0.63550943 </v>
   <v>       0.70743138       0.94504583       0.81775469 </v>
   <v>       0.82836843       0.00000000       0.21775474 </v>
   <v>       0.74503505       0.08333334       0.32663202 </v>
   <v>       0.01512371       0.40658420       0.81775469 </v>
   <v>       0.89973897       0.48350737       0.00000024 </v>
   <v>       0.28435454       0.56043041       0.63550943 </v>
   <v>       0.16896984       0.63735348       0.81775469 </v>
   <v>       0.05358512       0.71427667       0.00000024 </v>
   <v>       0.43820068       0.79119956       0.63550943 </v>
   <v>       0.32281598       0.86812270       0.81775469 </v>
   <v>       0.24503510       0.41666672       0.10887737 </v>
   <v>       0.05358532       0.71427649       0.63550943 </v>
   <v>       0.93820059       0.79119968       0.81775469 </v>
   <v>       0.82281589       0.86812276       0.00000024 </v>
   <v>       0.20743148       0.94504571       0.63550943 </v>
   <v>       0.09204674       0.02196884       0.81775469 </v>
   <v>       0.97666204       0.09889197       0.00000024 </v>
   <v>       0.99503511       0.66666669       0.43550944 </v>
   <v>       0.84204680       0.27196887       0.72663206 </v>
   <v>       0.72666210       0.34889203       0.90887731 </v>
   <v>       0.57281607       0.11812264       0.54438680 </v>
   <v>       0.45743138       0.19504577       0.72663206 </v>
   <v>       0.34204668       0.27196890       0.90887731 </v>
   <v>       0.72666234       0.34889194       0.54438680 </v>
   <v>       0.61127758       0.42581508       0.72663206 </v>
   <v>       0.49589291       0.50273824       0.90887731 </v>
   <v>       0.88050848       0.57966119       0.54438680 </v>
   <v>       0.76512373       0.65658432       0.72663206 </v>
   <v>       0.64973903       0.73350745       0.90887731 </v>
   <v>       0.18820074       0.04119954       0.54438680 </v>
   <v>       0.07281604       0.11812267       0.72663206 </v>
   <v>       0.95743132       0.19504580       0.90887731 </v>
   <v>       0.57836855       0.25000000       0.32663202 </v>
   <v>       0.22666222       0.34889194       0.72663206 </v>
   <v>       0.11127750       0.42581508       0.90887731 </v>
   <v>       0.16170175       0.83333331       0.43550944 </v>
   <v>       0.38050833       0.57966125       0.72663206 </v>
   <v>       0.26512364       0.65658438       0.90887731 </v>
   <v>       0.64973915       0.73350728       0.54438680 </v>
   <v>       0.53435445       0.81043041       0.72663206 </v>
   <v>       0.41896975       0.88735354       0.90887731 </v>
   <v>       0.80358535       0.96427661       0.54438680 </v>
   <v>       0.68820065       0.04119968       0.72663206 </v>
   <v>       0.57281596       0.11812282       0.90887731 </v>
   <v>       0.16170175       0.50000000       0.43550944 </v>
   <v>       0.99589294       0.50273812       0.72663206 </v>
   <v>       0.88050824       0.57966125       0.90887731 </v>
   <v>       0.26512381       0.65658426       0.54438680 </v>
   <v>       0.14973913       0.73350739       0.72663206 </v>
   <v>       0.03435442       0.81043053       0.90887731 </v>
   <v>       0.32836846       0.33333334       0.43550944 </v>
   <v>       0.30358526       0.96427661       0.72663206 </v>
   <v>       0.18820056       0.04119968       0.90887731 </v>
   <v>       0.03435455       0.81043035       0.54438680 </v>
   <v>       0.91896987       0.88735348       0.72663206 </v>
   <v>       0.80358511       0.96427661       0.90887731 </v>
   <v>       0.78435469       0.06043031       0.63550943 </v>
   <v>       0.66896993       0.13735345       0.81775469 </v>
   <v>       0.07836843       0.41666672       0.32663202 </v>
   <v>       0.93820065       0.29119953       0.63550943 </v>
   <v>       0.82281596       0.36812270       0.81775469 </v>
   <v>       0.07836843       0.58333343       0.10887737 </v>
   <v>       0.55358541       0.21427646       0.63550943 </v>
   <v>       0.43820071       0.29119960       0.81775469 </v>
   <v>       0.32281598       0.36812276       0.00000024 </v>
   <v>       0.70743161       0.44504571       0.63550943 </v>
   <v>       0.59204692       0.52196884       0.81775469 </v>
   <v>       0.47666219       0.59889197       0.00000024 </v>
   <v>       0.86127782       0.67581499       0.63550943 </v>
   <v>       0.74589312       0.75273812       0.81775469 </v>
   <v>       0.63050836       0.82966125       0.00000024 </v>
   <v>       0.16896996       0.13735335       0.63550943 </v>
   <v>       0.05358525       0.21427648       0.81775469 </v>
   <v>       0.93820053       0.29119962       0.00000024 </v>
   <v>       0.32281613       0.36812264       0.63550943 </v>
   <v>       0.20743144       0.44504577       0.81775469 </v>
   <v>       0.32836843       0.50000000       0.21775474 </v>
   <v>       0.47666228       0.59889185       0.63550943 </v>
   <v>       0.36127758       0.67581499       0.81775469 </v>
   <v>       0.24589284       0.75273812       0.00000024 </v>
   <v>       0.63050848       0.82966119       0.63550943 </v>
   <v>       0.51512379       0.90658432       0.81775469 </v>
   <v>       0.66170186       0.83333331       0.21775474 </v>
   <v>       0.09204684       0.52196878       0.63550943 </v>
   <v>       0.97666216       0.59889191       0.81775469 </v>
   <v>       0.41170186       0.08333334       0.32663202 </v>
   <v>       0.24589302       0.75273800       0.63550943 </v>
   <v>       0.13050830       0.82966113       0.81775469 </v>
   <v>       0.01512358       0.90658432       0.00000024 </v>
   <v>       0.39973924       0.98350733       0.63550943 </v>
   <v>       0.28435454       0.06043053       0.81775469 </v>
   <v>       0.16896982       0.13735366       0.00000024 </v>
   <v>       0.01512378       0.90658414       0.63550943 </v>
   <v>       0.89973903       0.98350733       0.81775469 </v>
   <v>       0.07836843       0.75000006       0.32663202 </v>
  </varray>
 </structure>
 <calculation>
  <scstep>
   <time name="dav">  148.87  150.45</time>
   <time name="total">  151.75  153.35</time>
   <energy>
    <i name="alphaZ">    877.10294752 </i>
    <i name="ewald"> -22299.60689632 </i>
    <i name="hartreedc">  -6517.55005830 </i>
    <i name="XCdc"> -14322.17001981 </i>
    <i name="pawpsdc">  34204.16796134 </i>
    <i name="pawaedc"> -18083.40668920 </i>
    <i name="eentropy">     -0.00259208 </i>
    <i name="bandstr">   6725.15860121 </i>
    <i name="atom">  26239.67945397 </i>
    <i name="e_fr_energy">   6823.37270833 </i>
    <i name="e_wo_entrp">   6823.37530041 </i>
    <i name="e_0_energy">   6823.37400437 </i>
   </energy>
  </scstep>
  <scstep>
   <time name="dav">  175.75  177.57</time>
   <time name="total">  175.75  177.57</time>
   <energy>
    <i name="e_fr_energy">   1069.98583209 </i>
    <i name="e_wo_entrp">   1069.98966382 </i>
    <i name="e_0_energy">   1069.98774796 </i>
   </energy>
  </scstep>
  <scstep>
   <time name="dav">  223.13  225.47</time>
   <time name="total">  223.14  225.48</time>
   <energy>
    <i name="e_fr_energy">    191.11182595 </i>
    <i name="e_wo_entrp">    191.11686442 </i>
    <i name="e_0_energy">    191.11434518 </i>
   </energy>
  </scstep>
  <scstep>
   <time name="dav">  206.75  208.91</time>
   <time name="total">  206.75  208.91</time>
   <energy>
    <i name="e_fr_energy">     63.17455216 </i>
    <i name="e_wo_entrp">     63.17974978 </i>
    <i name="e_0_energy">     63.17715097 </i>
   </energy>
  </scstep>
  <scstep>
   <time name="dav">  217.34  219.62</time>
   <time name="total">  223.09  225.44</time>
   <energy>
    <i name="e_fr_energy">     56.09514212 </i>
    <i name="e_wo_entrp">     56.10101869 </i>
    <i name="e_0_energy">     56.09808040 </i>
   </energy>
  </scstep>
  <scstep>
   <time name="dav">  212.90  215.17</time>
   <time name="total">  221.50  223.86</time>
   <energy>
    <i name="e_fr_energy">   -227.70811411 </i>
    <i name="e_wo_entrp">   -227.70302159 </i>
    <i name="e_0_energy">   -227.70556785 </i>
   </energy>
  </scstep>
  <scstep>
   <time name="dav">  189.94  191.96</time>
   <time name="total">  198.56  200.66</time>
   <energy>
    <i name="e_fr_energy">    407.46940545 </i>
    <i name="e_wo_entrp">    407.47311044 </i>
    <i name="e_0_energy">    407.47125795 </i>
   </energy>
  </scstep>
  <scstep>
   <time name="dav">  224.42  226.85</time>
   <time name="total">  233.06  235.56</time>
   <energy>
    <i name="e_fr_energy">   -403.71722366 </i>
    <i name="e_wo_entrp">   -403.71309040 </i>
    <i name="e_0_energy">   -403.71515703 </i>
   </energy>
  </scstep>
  <scstep>
   <time name="dav">  186.57  188.77</time>
   <time name="total">  195.17  197.47</time>
   <energy>
    <i name="e_fr_energy">    428.56777844 </i>
    <i name="e_wo_entrp">    428.57276582 </i>
    <i name="e_0_energy">    428.57027213 </i>
   </energy>
  </scstep>
  <scstep>
   <time name="dav">  207.19  209.62</time>
   <time name="total">  215.93  218.45</time>
   <energy>
    <i name="e_fr_energy">    351.73839533 </i>
    <i name="e_wo_entrp">    351.74357282 </i>
    <i name="e_0_energy">    351.74098407 </i>
   </energy>
  </scstep>
  <scstep>
   <time name="dav">  195.63  197.75</time>
   <time name="total">  204.35  206.54</time>
   <energy>
    <i name="e_fr_energy">    384.84311144 </i>
    <i name="e_wo_entrp">    384.84931773 </i>
    <i name="e_0_energy">    384.84621458 </i>
   </energy>
  </scstep>
  <scstep>
   <time name="dav">  178.01  179.87</time>
   <time name="total">  186.75  188.69</time>
   <energy>
    <i name="e_fr_energy">    364.95268939 </i>
    <i name="e_wo_entrp">    364.95745400 </i>
    <i name="e_0_energy">    364.95507169 </i>
   </energy>
  </scstep>
  <scstep>
   <time name="dav">  192.51  194.56</time>
   <time name="total">  201.25  203.37</time>
   <energy>
    <i name="e_fr_energy">    361.72804496 </i>
    <i name="e_wo_entrp">    361.73314108 </i>
    <i name="e_0_energy">    361.73059302 </i>
   </energy>
  </scstep>
  <scstep>
   <time name="dav">  204.35  206.51</time>
   <time name="total">  213.05  215.29</time>
   <energy>
    <i name="e_fr_energy">    372.19661014 </i>
    <i name="e_wo_entrp">    372.20249432 </i>
    <i name="e_0_energy">    372.19955223 </i>
   </energy>
  </scstep>
  <scstep>
   <time name="dav">  213.52  215.78</time>
   <time name="total">  222.25  224.58</time>
   <energy>
    <i name="e_fr_energy">    318.35749534 </i>
    <i name="e_wo_entrp">    318.36265901 </i>
    <i name="e_0_energy">    318.36007717 </i>
   </energy>
  </scstep>
  <scstep>
   <time name="dav">  184.33  186.23</time>
   <time name="total">  193.12  195.09</time>
   <energy>
    <i name="e_fr_energy">    331.03595525 </i>
    <i name="e_wo_entrp">    331.04082609 </i>
    <i name="e_0_energy">    331.03839067 </i>
   </energy>
  </scstep>
  <scstep>
   <time name="dav">  187.69  189.66</time>
   <time name="total">  196.48  198.53</time>
   <energy>
    <i name="e_fr_energy">    342.74244615 </i>
    <i name="e_wo_entrp">    342.74851424 </i>
    <i name="e_0_energy">    342.74548019 </i>
   </energy>
  </scstep>
  <scstep>
   <time name="dav">  217.27  219.63</time>
   <time name="total">  226.13  229.11</time>
   <energy>
    <i name="e_fr_energy">    372.62575743 </i>
    <i name="e_wo_entrp">    372.63089051 </i>
    <i name="e_0_energy">    372.62832397 </i>
   </energy>
  </scstep>
  <scstep>
   <time name="dav">  212.11  214.83</time>
   <time name="total">  220.92  223.74</time>
   <energy>
    <i name="e_fr_energy">    360.74062560 </i>
    <i name="e_wo_entrp">    360.74530609 </i>
    <i name="e_0_energy">    360.74296584 </i>
   </energy>
  </scstep>
  <scstep>
   <time name="dav">  185.70  187.64</time>
   <time name="total">  194.51  196.55</time>
[...]
       <r>     6.0833   113.5774  1007.2676 </r>
       <r>     6.1470   113.2697  1014.4839 </r>
       <r>     6.2107   108.6321  1021.4062 </r>
       <r>     6.2744   103.3822  1027.9961 </r>
       <r>     6.3381   130.1658  1036.2889 </r>
       <r>     6.4018   114.7833  1043.6019 </r>
       <r>     6.4655   108.7081  1050.5308 </r>
       <r>     6.5292   108.7352  1057.4619 </r>
       <r>     6.5929   111.4853  1064.5667 </r>
       <r>     6.6566   114.7650  1071.8799 </r>
       <r>     6.7203   121.2360  1079.6043 </r>
       <r>     6.7840   131.5454  1087.9863 </r>
       <r>     6.8477   101.0412  1094.4274 </r>
       <r>     6.9114   112.8433  1101.6164 </r>
       <r>     6.9751   119.0988  1109.2064 </r>
       <r>     7.0388   129.4956  1117.4584 </r>
       <r>     7.1026   120.8969  1125.1641 </r>
       <r>     7.1663   113.6254  1132.4055 </r>
       <r>     7.2300   120.0314  1140.0577 </r>
       <r>     7.2937   131.5911  1148.4409 </r>
       <r>     7.3574   125.4587  1156.4340 </r>
       <r>     7.4211   114.6805  1163.7449 </r>
       <r>     7.4848   122.8905  1171.5801 </r>
       <r>     7.5485   121.6981  1179.3391 </r>
       <r>     7.6122   121.9379  1187.1073 </r>
       <r>     7.6759   125.9594  1195.1379 </r>
       <r>     7.7396   114.5756  1202.4420 </r>
       <r>     7.8033   134.8733  1211.0379 </r>
       <r>     7.8670   123.2985  1218.9014 </r>
       <r>     7.9307   138.2482  1227.7110 </r>
       <r>     7.9944   123.6584  1235.5927 </r>
       <r>     8.0581   133.3198  1244.0913 </r>
       <r>     8.1218   124.7531  1252.0445 </r>
       <r>     8.1855   126.0666  1260.0786 </r>
       <r>     8.2492    98.5082  1266.3558 </r>
       <r>     8.3129    64.4786  1270.4648 </r>
       <r>     8.3766    24.0900  1271.9999 </r>
       <r>     8.4404     0.0000  1272.0000 </r>
       <r>     8.5041     0.0000  1272.0000 </r>
       <r>     8.5678     0.0000  1272.0000 </r>
       <r>     8.6315     0.0000  1272.0000 </r>
       <r>     8.6952     0.0000  1272.0000 </r>
       <r>     8.7589     0.0000  1272.0000 </r>
       <r>     8.8226     0.0000  1272.0000 </r>
       <r>     8.8863     0.0000  1272.0000 </r>
       <r>     8.9500     0.0000  1272.0000 </r>
       <r>     9.0137     0.0000  1272.0000 </r>
       <r>     9.0774     0.0000  1272.0000 </r>
       <r>     9.1411     0.0000  1272.0000 </r>
       <r>     9.2048     0.0000  1272.0000 </r>
       <r>     9.2685     0.0000  1272.0000 </r>
       <r>     9.3322     0.0000  1272.0000 </r>
       <r>     9.3959     0.0000  1272.0000 </r>
       <r>     9.4596     0.0000  1272.0000 </r>
      </set>
     </set>
    </array>
   </total>
  </dos>
 </calculation>
 <structure name="finalpos" >
  <crystal>
   <varray name="basis" >
    <v>      19.46759987       0.00000000       0.00000000 </v>
    <v>       0.00000000      19.46759987       0.00000000 </v>
    <v>       0.00000000       0.00000000      14.90025139 </v>
   </varray>
   <i name="volume">   5647.00819870 </i>
   <varray name="rec_basis" >
    <v>       0.05136740       0.00000000       0.00000000 </v>
    <v>       0.00000000       0.05136740       0.00000000 </v>
    <v>       0.00000000       0.00000000       0.06711296 </v>
   </varray>
  </crystal>
  <varray name="positions" >
   <v>       0.82836843       0.33333334       0.21775474 </v>
   <v>       0.30358535       0.46427652       0.54438680 </v>
   <v>       0.66170174       0.66666669       0.43550944 </v>
   <v>       0.99503511       0.33333334       0.00000000 </v>
   <v>       0.99503511       0.66666669       0.00000000 </v>
   <v>       0.66170174       0.33333334       0.43550944 </v>
   <v>       0.91170180       0.25000000       0.32663202 </v>
   <v>       0.53435463       0.31043035       0.54438680 </v>
   <v>       0.57836837       0.41666672       0.54438680 </v>
   <v>       0.74503505       0.75000006       0.32663202 </v>
   <v>       0.16170174       0.66666669       0.21775474 </v>
   <v>       0.95743150       0.19504575       0.54438680 </v>
   <v>       0.32836846       0.33333334       0.00000000 </v>
   <v>       0.61127764       0.92581505       0.54438680 </v>
   <v>       0.99503511       0.33333334       0.43550944 </v>
   <v>       0.32836846       0.00000000       0.00000000 </v>
   <v>       0.16170174       0.00000000       0.21775474 </v>
   <v>       0.99503511       0.00000000       0.43550944 </v>
   <v>       0.82836843       0.66666669       0.21775474 </v>
   <v>       0.49503511       0.66666669       0.21775474 </v>
   <v>       0.32836846       0.66666669       0.43550944 </v>
   <v>       0.66170180       0.33333334       0.00000000 </v>
   <v>       0.49503511       0.33333334       0.21775474 </v>
   <v>       0.41896999       0.88735348       0.54438680 </v>
   <v>       0.66170180       0.00000000       0.00000000 </v>
   <v>       0.07836838       0.91666675       0.54438680 </v>
   <v>       0.91170174       0.41666672       0.54438680 </v>
   <v>       0.07836843       0.91666675       0.10887737 </v>
   <v>       0.91170180       0.91666675       0.32663202 </v>
   <v>       0.57836855       0.58333343       0.32663202 </v>
   <v>       0.70743120       0.44504583       0.00000024 </v>
   <v>       0.91170180       0.58333343       0.32663202 </v>
   <v>       0.74503505       0.58333343       0.54438680 </v>
   <v>       0.07836843       0.25000000       0.10887737 </v>
   <v>       0.99503511       0.00000000       0.00000000 </v>
   <v>       0.66170186       0.50000000       0.21775474 </v>
   <v>       0.82836855       0.83333331       0.00000000 </v>
   <v>       0.24503510       0.91666675       0.32663202 </v>
   <v>       0.49503511       0.00000000       0.21775474 </v>
   <v>       0.74589276       0.25273815       0.00000024 </v>
   <v>       0.24503510       0.58333343       0.32663202 </v>
   <v>       0.07836838       0.58333343       0.54438680 </v>
   <v>       0.36127743       0.17581510       0.00000024 </v>
   <v>       0.24503510       0.25000000       0.32663202 </v>
   <v>       0.07836838       0.25000000       0.54438680 </v>
   <v>       0.74503517       0.91666675       0.10887737 </v>
   <v>       0.41170180       0.91666675       0.54438680 </v>
   <v>       0.57836855       0.91666675       0.32663202 </v>
   <v>       0.74503517       0.58333343       0.10887737 </v>
   <v>       0.74503505       0.91666675       0.54438680 </v>
   <v>       0.41170180       0.58333343       0.54438680 </v>
   <v>       0.74503517       0.25000000       0.10887737 </v>
   <v>       0.34204692       0.27196881       0.54438680 </v>
   <v>       0.41170180       0.25000000       0.54438680 </v>
   <v>       0.16170177       0.83333331       0.00000000 </v>
   <v>       0.38050824       0.07966125       0.90887731 </v>
   <v>       0.45743152       0.69504565       0.54438680 </v>
   <v>       0.16170177       0.50000000       0.00000000 </v>
   <v>       0.99503505       0.50000000       0.21775474 </v>
   <v>       0.82836843       0.50000000       0.43550944 </v>
   <v>       0.57836848       0.75000006       0.10887737 </v>
   <v>       0.99503505       0.16666667       0.21775474 </v>
   <v>       0.82836843       0.16666667       0.43550944 </v>
   <v>       0.49503511       0.83333331       0.00000000 </v>
   <v>       0.32836843       0.83333331       0.21775474 </v>
   <v>       0.49589306       0.50273812       0.54438680 </v>
   <v>       0.49503511       0.50000000       0.00000000 </v>
   <v>       0.09204672       0.52196890       0.00000024 </v>
   <v>       0.11127764       0.42581499       0.54438680 </v>
   <v>       0.49503511       0.16666667       0.00000000 </v>
   <v>       0.32836843       0.16666667       0.21775474 </v>
   <v>       0.57836837       0.08333334       0.54438680 </v>
   <v>       0.41170177       0.91666675       0.10887737 </v>
   <v>       0.39973903       0.98350745       0.00000024 </v>
   <v>       0.49503520       0.83333331       0.43550944 </v>
   <v>       0.82836855       0.50000000       0.00000000 </v>
   <v>       0.74503505       0.25000000       0.54438680 </v>
   <v>       0.49503520       0.50000000       0.43550944 </v>
   <v>       0.91170174       0.75000006       0.10887737 </v>
   <v>       0.66170186       0.16666667       0.21775474 </v>
   <v>       0.49503520       0.16666667       0.43550944 </v>
   <v>       0.24503510       0.75000006       0.10887737 </v>
   <v>       0.78435433       0.06043041       0.00000024 </v>
   <v>       0.91170174       0.75000006       0.54438680 </v>
   <v>       0.20743127       0.94504583       0.00000024 </v>
   <v>       0.55358523       0.21427658       0.00000024 </v>
   <v>       0.32836846       0.00000000       0.43550944 </v>
   <v>       0.24503510       0.08333334       0.10887737 </v>
   <v>       0.07836843       0.08333334       0.32663202 </v>
   <v>       0.91170174       0.08333334       0.54438680 </v>
   <v>       0.16170177       0.16666667       0.00000000 </v>
   <v>       0.41170186       0.75000006       0.32663202 </v>
   <v>       0.24503513       0.75000006       0.54438680 </v>
   <v>       0.57836848       0.41666672       0.10887737 </v>
   <v>       0.41170186       0.41666672       0.32663202 </v>
   <v>       0.24503513       0.41666672       0.54438680 </v>
   <v>       0.66896975       0.63735354       0.00000024 </v>
   <v>       0.86127740       0.67581505       0.00000024 </v>
   <v>       0.24503513       0.08333334       0.54438680 </v>
   <v>       0.82836855       0.16666667       0.00000000 </v>
   <v>       0.32836846       0.66666669       0.00000000 </v>
   <v>       0.57836837       0.75000006       0.54438680 </v>
   <v>       0.91170174       0.41666672       0.10887737 </v>
   <v>       0.74503505       0.41666672       0.32663202 </v>
   <v>       0.66170174       0.00000000       0.43550944 </v>
   <v>       0.91170174       0.08333334       0.10887737 </v>
   <v>       0.13050841       0.32966110       0.63550943 </v>
   <v>       0.16170175       0.16666667       0.43550944 </v>
   <v>       0.76512390       0.15658416       0.54438680 </v>
   <v>       0.64973921       0.23350728       0.72663206 </v>
   <v>       0.53435451       0.31043044       0.90887731 </v>
   <v>       0.91897005       0.38735336       0.54438680 </v>
   <v>       0.80358535       0.46427646       0.72663206 </v>
   <v>       0.68820065       0.54119962       0.90887731 </v>
   <v>       0.38050845       0.07966107       0.54438680 </v>
   <v>       0.26512375       0.15658420       0.72663206 </v>
   <v>       0.14973906       0.23350733       0.90887731 </v>
   <v>       0.82836843       0.00000000       0.21775474 </v>
   <v>       0.41896990       0.38735348       0.72663206 </v>
   <v>       0.30358520       0.46427661       0.90887731 </v>
   <v>       0.68820071       0.54119956       0.54438680 </v>
   <v>       0.57281601       0.61812270       0.72663206 </v>
   <v>       0.45743132       0.69504583       0.90887731 </v>
   <v>       0.07836843       0.75000006       0.32663202 </v>
   <v>       0.72666216       0.84889203       0.72663206 </v>
   <v>       0.61127746       0.92581517       0.90887731 </v>
   <v>       0.99589300       0.00273798       0.54438680 </v>
   <v>       0.88050830       0.07966111       0.72663206 </v>
   <v>       0.76512361       0.15658425       0.90887731 </v>
   <v>       0.41170186       0.08333334       0.32663202 </v>
   <v>       0.03435449       0.31043038       0.72663206 </v>
   <v>       0.91896975       0.38735351       0.90887731 </v>
   <v>       0.82836843       0.66666669       0.21775474 </v>
   <v>       0.18820064       0.54119962       0.72663206 </v>
   <v>       0.07281593       0.61812276       0.90887731 </v>
   <v>       0.82836843       0.83333331       0.43550944 </v>
   <v>       0.34204683       0.77196878       0.72663206 </v>
   <v>       0.22666211       0.84889191       0.90887731 </v>
   <v>       0.16170174       0.33333334       0.21775474 </v>
   <v>       0.49589294       0.00273812       0.72663206 </v>
   <v>       0.99503505       0.83333331       0.21775474 </v>
   <v>       0.07281609       0.61812264       0.54438680 </v>
   <v>       0.95743138       0.69504577       0.72663206 </v>
   <v>       0.84204668       0.77196896       0.90887731 </v>
   <v>       0.22666228       0.84889185       0.54438680 </v>
   <v>       0.11127758       0.92581493       0.72663206 </v>
   <v>       0.99589282       0.00273812       0.90887731 </v>
   <v>       0.97666222       0.09889185       0.63550943 </v>
   <v>       0.86127752       0.17581499       0.81775469 </v>
   <v>       0.41170177       0.58333343       0.10887737 </v>
   <v>       0.59204686       0.02196884       0.63550943 </v>
   <v>       0.47666219       0.09889197       0.81775469 </v>
   <v>       0.41170177       0.25000000       0.10887737 </v>
   <v>       0.74589312       0.25273800       0.63550943 </v>
   <v>       0.63050842       0.32966116       0.81775469 </v>
   <v>       0.51512373       0.40658429       0.00000024 </v>
   <v>       0.89973921       0.48350725       0.63550943 </v>
   <v>       0.78435451       0.56043041       0.81775469 </v>
   <v>       0.57836848       0.08333334       0.10887737 </v>
   <v>       0.36127767       0.17581493       0.63550943 </v>
   <v>       0.24589297       0.25273806       0.81775469 </v>
   <v>       0.13050824       0.32966119       0.00000024 </v>
   <v>       0.51512379       0.40658423       0.63550943 </v>
   <v>       0.39973909       0.48350737       0.81775469 </v>
   <v>       0.28435436       0.56043053       0.00000024 </v>
   <v>       0.66896993       0.63735342       0.63550943 </v>
   <v>       0.55358523       0.71427655       0.81775469 </v>
   <v>       0.43820050       0.79119968       0.00000024 </v>
   <v>       0.82281607       0.86812270       0.63550943 </v>
   <v>       0.70743138       0.94504583       0.81775469 </v>
   <v>       0.82836843       0.00000000       0.21775474 </v>
   <v>       0.74503505       0.08333334       0.32663202 </v>
   <v>       0.01512371       0.40658420       0.81775469 </v>
   <v>       0.89973897       0.48350737       0.00000024 </v>
   <v>       0.28435454       0.56043041       0.63550943 </v>
   <v>       0.16896984       0.63735348       0.81775469 </v>
   <v>       0.05358512       0.71427667       0.00000024 </v>
   <v>       0.43820068       0.79119956       0.63550943 </v>
   <v>       0.32281598       0.86812270       0.81775469 </v>
   <v>       0.24503510       0.41666672       0.10887737 </v>
   <v>       0.05358532       0.71427649       0.63550943 </v>
   <v>       0.93820059       0.79119968       0.81775469 </v>
   <v>       0.82281589       0.86812276       0.00000024 </v>
   <v>       0.20743148       0.94504571       0.63550943 </v>
   <v>       0.09204674       0.02196884       0.81775469 </v>
   <v>       0.97666204       0.09889197       0.00000024 </v>
   <v>       0.99503511       0.66666669       0.43550944 </v>
   <v>       0.84204680       0.27196887       0.72663206 </v>
   <v>       0.72666210       0.34889203       0.90887731 </v>
   <v>       0.57281607       0.11812264       0.54438680 </v>
   <v>       0.45743138       0.19504577       0.72663206 </v>
   <v>       0.34204668       0.27196890       0.90887731 </v>
   <v>       0.72666234       0.34889194       0.54438680 </v>
   <v>       0.61127758       0.42581508       0.72663206 </v>
   <v>       0.49589291       0.50273824       0.90887731 </v>
   <v>       0.88050848       0.57966119       0.54438680 </v>
   <v>       0.76512373       0.65658432       0.72663206 </v>
   <v>       0.64973903       0.73350745       0.90887731 </v>
   <v>       0.18820074       0.04119954       0.54438680 </v>
   <v>       0.07281604       0.11812267       0.72663206 </v>
   <v>       0.95743132       0.19504580       0.90887731 </v>
   <v>       0.57836855       0.25000000       0.32663202 </v>
   <v>       0.22666222       0.34889194       0.72663206 </v>
   <v>       0.11127750       0.42581508       0.90887731 </v>
   <v>       0.16170175       0.83333331       0.43550944 </v>
   <v>       0.38050833       0.57966125       0.72663206 </v>
   <v>       0.26512364       0.65658438       0.90887731 </v>
   <v>       0.64973915       0.73350728       0.54438680 </v>
   <v>       0.53435445       0.81043041       0.72663206 </v>
   <v>       0.41896975       0.88735354       0.90887731 </v>
   <v>       0.80358535       0.96427661       0.54438680 </v>
   <v>       0.68820065       0.04119968       0.72663206 </v>
   <v>       0.57281596       0.11812282       0.90887731 </v>
   <v>       0.16170175       0.50000000       0.43550944 </v>
   <v>       0.99589294       0.50273812       0.72663206 </v>
   <v>       0.88050824       0.57966125       0.90887731 </v>
   <v>       0.26512381       0.65658426       0.54438680 </v>
   <v>       0.14973913       0.73350739       0.72663206 </v>
   <v>       0.03435442       0.81043053       0.90887731 </v>
   <v>       0.32836846       0.33333334       0.43550944 </v>
   <v>       0.30358526       0.96427661       0.72663206 </v>
   <v>       0.18820056       0.04119968       0.90887731 </v>
   <v>       0.03435455       0.81043035       0.54438680 </v>
   <v>       0.91896987       0.88735348       0.72663206 </v>
   <v>       0.80358511       0.96427661       0.90887731 </v>
   <v>       0.78435469       0.06043031       0.63550943 </v>
   <v>       0.66896993       0.13735345       0.81775469 </v>
   <v>       0.07836843       0.41666672       0.32663202 </v>
   <v>       0.93820065       0.29119953       0.63550943 </v>
   <v>       0.82281596       0.36812270       0.81775469 </v>
   <v>       0.07836843       0.58333343       0.10887737 </v>
   <v>       0.55358541       0.21427646       0.63550943 </v>
   <v>       0.43820071       0.29119960       0.81775469 </v>
   <v>       0.32281598       0.36812276       0.00000024 </v>
   <v>       0.70743161       0.44504571       0.63550943 </v>
   <v>       0.59204692       0.52196884       0.81775469 </v>
   <v>       0.47666219       0.59889197       0.00000024 </v>
   <v>       0.86127782       0.67581499       0.63550943 </v>
   <v>       0.74589312       0.75273812       0.81775469 </v>
   <v>       0.63050836       0.82966125       0.00000024 </v>
   <v>       0.16896996       0.13735335       0.63550943 </v>
   <v>       0.05358525       0.21427648       0.81775469 </v>
   <v>       0.93820053       0.29119962       0.00000024 </v>
   <v>       0.32281613       0.36812264       0.63550943 </v>
   <v>       0.20743144       0.44504577       0.81775469 </v>
   <v>       0.32836843       0.50000000       0.21775474 </v>
   <v>       0.47666228       0.59889185       0.63550943 </v>
   <v>       0.36127758       0.67581499       0.81775469 </v>
   <v>       0.24589284       0.75273812       0.00000024 </v>
   <v>       0.63050848       0.82966119       0.63550943 </v>
   <v>       0.51512379       0.90658432       0.81775469 </v>
   <v>       0.66170186       0.83333331       0.21775474 </v>
   <v>       0.09204684       0.52196878       0.63550943 </v>
   <v>       0.97666216       0.59889191       0.81775469 </v>
   <v>       0.41170186       0.08333334       0.32663202 </v>
   <v>       0.24589302       0.75273800       0.63550943 </v>
   <v>       0.13050830       0.82966113       0.81775469 </v>
   <v>       0.01512358       0.90658432       0.00000024 </v>
   <v>       0.39973924       0.98350733       0.63550943 </v>
   <v>       0.28435454       0.06043053       0.81775469 </v>
   <v>       0.16896982       0.13735366       0.00000024 </v>
   <v>       0.01512378       0.90658414       0.63550943 </v>
   <v>       0.89973903       0.98350733       0.81775469 </v>
   <v>       0.07836843       0.75000006       0.32663202 </v>
  </varray>
 </structure>
</modeling>
