 168 168   0   0
  0.2680330E+02  0.1600268E-08  0.1600268E-08  0.2030401E-08  0.5000000E-15
  1.000000000000000E-004
  CAR 
 Si and Ge interface calculation         
      6.60170802     -9.48712750  301      3.63372645      1.00000000
     -9.487  0.0000E+00  0.0000E+00  0.0000E+00  0.0000E+00
     -9.433  0.0000E+00  0.0000E+00  0.0000E+00  0.0000E+00
     -9.380  0.0000E+00  0.0000E+00  0.0000E+00  0.0000E+00
     -9.326  0.0000E+00  0.0000E+00  0.0000E+00  0.0000E+00
     -9.273  0.0000E+00  0.0000E+00  0.0000E+00  0.0000E+00
     -9.219  0.0000E+00  0.0000E+00  0.0000E+00  0.0000E+00
     -9.165  0.0000E+00  0.0000E+00  0.0000E+00  0.0000E+00
     -9.112  0.0000E+00  0.0000E+00  0.0000E+00  0.0000E+00
     -9.058  0.0000E+00  0.0000E+00  0.0000E+00  0.0000E+00
     -9.004  0.0000E+00  0.0000E+00  0.0000E+00  0.0000E+00
     -8.951  0.0000E+00  0.0000E+00  0.0000E+00  0.0000E+00
     -8.897  0.0000E+00  0.0000E+00  0.0000E+00  0.0000E+00
     -8.844  0.0000E+00  0.0000E+00  0.0000E+00  0.0000E+00
     -8.790  0.5911E-05  0.1389E-06  0.3170E-06  0.7451E-08
     -8.736  0.9294E+01  0.9131E+01  0.4985E+00  0.4897E+00
     -8.683  0.2879E-01  0.1926E+00  0.5000E+00  0.5000E+00
     -8.629  0.2312E-07  0.2311E-09  0.5000E+00  0.5000E+00
     -8.575  0.5177E+02  0.4325E+02  0.3277E+01  0.2819E+01
     -8.522  0.4165E+01  0.1269E+02  0.3500E+01  0.3500E+01
     -8.468  0.0000E+00  0.0000E+00  0.3500E+01  0.3500E+01
     -8.415  0.0000E+00  0.0000E+00  0.3500E+01  0.3500E+01
     -8.361  0.8094E-02  0.3452E-03  0.3500E+01  0.3500E+01
     -8.307  0.9315E+01  0.9321E+01  0.4000E+01  0.4000E+01
     -8.254  0.2070E+02  0.8683E+01  0.5110E+01  0.4466E+01
     -8.200  0.3524E+02  0.4726E+02  0.7000E+01  0.7000E+01
     -8.146  0.5585E+02  0.5500E+02  0.9995E+01  0.9949E+01
     -8.093  0.2509E+02  0.2154E+02  0.1134E+02  0.1110E+02
     -8.039  0.3094E+02  0.3534E+02  0.1300E+02  0.1300E+02
     -7.986  0.0000E+00  0.0000E+00  0.1300E+02  0.1300E+02
     -7.932  0.0000E+00  0.0000E+00  0.1300E+02  0.1300E+02
     -7.878  0.9235E-08  0.4503E-10  0.1300E+02  0.1300E+02
     -7.825  0.5027E+02  0.3856E+02  0.1570E+02  0.1507E+02
     -7.771  0.5665E+01  0.1738E+02  0.1600E+02  0.1600E+02
     -7.717  0.4503E-04  0.3981E-05  0.1600E+02  0.1600E+02
     -7.664  0.2811E+02  0.2764E+02  0.1751E+02  0.1748E+02
     -7.610  0.8251E+02  0.7703E+02  0.2193E+02  0.2161E+02
     -7.556  0.5720E+02  0.6315E+02  0.2500E+02  0.2500E+02
     -7.503  0.7997E+01  0.6635E+01  0.2543E+02  0.2536E+02
     -7.449  0.1326E+01  0.2688E+01  0.2550E+02  0.2550E+02
     -7.396  0.3028E-09  0.1104E-10  0.2550E+02  0.2550E+02
     -7.342  0.3653E+02  0.2726E+02  0.2746E+02  0.2696E+02
     -7.288  0.7535E+02  0.8461E+02  0.3150E+02  0.3150E+02
     -7.235  0.1420E-01  0.8729E-02  0.3150E+02  0.3150E+02
     -7.181  0.6073E+02  0.5631E+02  0.3476E+02  0.3452E+02
     -7.127  0.5114E+02  0.5556E+02  0.3750E+02  0.3750E+02
     -7.074  0.0000E+00  0.0000E+00  0.3750E+02  0.3750E+02
     -7.020  0.5433E-01  0.5779E-02  0.3750E+02  0.3750E+02
     -6.967  0.5588E+02  0.5590E+02  0.4050E+02  0.4050E+02
     -6.913  0.8142E+02  0.7530E+02  0.4487E+02  0.4454E+02
     -6.859  0.2217E+02  0.1988E+02  0.4606E+02  0.4560E+02
     -6.806  0.9553E+02  0.1010E+03  0.5118E+02  0.5102E+02
     -6.752  0.3004E+02  0.2947E+02  0.5279E+02  0.5260E+02
     -6.698  0.6919E+02  0.7274E+02  0.5650E+02  0.5650E+02
     -6.645  0.7556E+01  0.4235E+01  0.5691E+02  0.5673E+02
     -6.591  0.1184E+02  0.9979E+01  0.5754E+02  0.5726E+02
     -6.538  0.2826E+02  0.2965E+02  0.5906E+02  0.5885E+02
     -6.484  0.5122E+02  0.5442E+02  0.6180E+02  0.6177E+02
     -6.430  0.2236E+02  0.2289E+02  0.6300E+02  0.6300E+02
     -6.377  0.8676E+02  0.7935E+02  0.6765E+02  0.6725E+02
     -6.323  0.1206E+03  0.1082E+03  0.7412E+02  0.7306E+02
     -6.269  0.4438E+02  0.6417E+02  0.7650E+02  0.7650E+02
     -6.216  0.1726E+02  0.1181E+02  0.7743E+02  0.7713E+02
     -6.162  0.4804E+02  0.5346E+02  0.8000E+02  0.8000E+02
     -6.108  0.4620E+01  0.4653E+01  0.8025E+02  0.8025E+02
     -6.055  0.7378E+02  0.6739E+02  0.8421E+02  0.8386E+02
     -6.001  0.1041E+02  0.1659E+02  0.8477E+02  0.8475E+02
     -5.948  0.9828E+02  0.7743E+02  0.9004E+02  0.8891E+02
     -5.894  0.3200E+02  0.5303E+02  0.9175E+02  0.9175E+02
     -5.840  0.2926E+02  0.2668E+02  0.9332E+02  0.9318E+02
     -5.787  0.7419E+02  0.6491E+02  0.9730E+02  0.9666E+02
     -5.733  0.6899E+02  0.8088E+02  0.1010E+03  0.1010E+03
     -5.679  0.1821E+02  0.1132E+02  0.1020E+03  0.1016E+03
     -5.626  0.9755E+01  0.1665E+02  0.1025E+03  0.1025E+03
     -5.572  0.4844E+01  0.1227E+01  0.1028E+03  0.1026E+03
     -5.519  0.9065E+02  0.7550E+02  0.1076E+03  0.1066E+03
     -5.465  0.6211E+02  0.7084E+02  0.1110E+03  0.1104E+03
     -5.411  0.6671E+02  0.7095E+02  0.1145E+03  0.1142E+03
     -5.358  0.2322E+02  0.2575E+02  0.1158E+03  0.1156E+03
     -5.304  0.7753E+02  0.7199E+02  0.1199E+03  0.1195E+03
     -5.250  0.5927E+02  0.6676E+02  0.1231E+03  0.1230E+03
     -5.197  0.2591E+02  0.2721E+02  0.1245E+03  0.1245E+03
     -5.143  0.5572E+02  0.5369E+02  0.1275E+03  0.1274E+03
     -5.090  0.5556E+02  0.5301E+02  0.1305E+03  0.1302E+03
     -5.036  0.3719E+02  0.3860E+02  0.1325E+03  0.1323E+03
     -4.982  0.7838E+02  0.6662E+02  0.1367E+03  0.1359E+03
     -4.929  0.6045E+02  0.6832E+02  0.1399E+03  0.1395E+03
     -4.875  0.6155E+02  0.5953E+02  0.1432E+03  0.1427E+03
     -4.821  0.7618E+02  0.8124E+02  0.1473E+03  0.1471E+03
     -4.768  0.9226E+02  0.9295E+02  0.1522E+03  0.1521E+03
     -4.714  0.3826E+02  0.3533E+02  0.1543E+03  0.1540E+03
     -4.660  0.3191E+02  0.3808E+02  0.1560E+03  0.1560E+03
     -4.607  0.4183E+02  0.4192E+02  0.1582E+03  0.1582E+03
     -4.553  0.3275E+02  0.2919E+02  0.1600E+03  0.1598E+03
     -4.500  0.2518E+02  0.2756E+02  0.1614E+03  0.1613E+03
     -4.446  0.2916E+02  0.2586E+02  0.1629E+03  0.1627E+03
     -4.392  0.4379E+02  0.4288E+02  0.1653E+03  0.1650E+03
     -4.339  0.1009E+03  0.1013E+03  0.1707E+03  0.1704E+03
     -4.285  0.3374E+02  0.2971E+02  0.1725E+03  0.1720E+03
     -4.231  0.4794E+02  0.5159E+02  0.1751E+03  0.1748E+03
     -4.178  0.3615E+02  0.4150E+02  0.1770E+03  0.1770E+03
     -4.124  0.2919E+02  0.2324E+02  0.1786E+03  0.1782E+03
     -4.071  0.5791E+02  0.5318E+02  0.1817E+03  0.1811E+03
     -4.017  0.2478E+02  0.3545E+02  0.1830E+03  0.1830E+03
     -3.963  0.1396E+02  0.1386E+02  0.1837E+03  0.1837E+03
     -3.910  0.2799E+02  0.2793E+02  0.1852E+03  0.1852E+03
     -3.856  0.5746E+02  0.5580E+02  0.1883E+03  0.1882E+03
     -3.802  0.6267E+02  0.6069E+02  0.1917E+03  0.1915E+03
     -3.749  0.5227E+02  0.4552E+02  0.1945E+03  0.1939E+03
     -3.695  0.6225E+02  0.6340E+02  0.1978E+03  0.1973E+03
     -3.642  0.6495E+02  0.6049E+02  0.2013E+03  0.2006E+03
     -3.588  0.1739E+02  0.3126E+02  0.2023E+03  0.2023E+03
     -3.534  0.5326E+02  0.4481E+02  0.2051E+03  0.2047E+03
     -3.481  0.6797E+02  0.6931E+02  0.2088E+03  0.2084E+03
     -3.427  0.6022E+02  0.6616E+02  0.2120E+03  0.2119E+03
     -3.373  0.1379E+01  0.1740E+01  0.2121E+03  0.2120E+03
     -3.320  0.5493E+02  0.5571E+02  0.2150E+03  0.2150E+03
     -3.266  0.1535E+02  0.1282E+02  0.2158E+03  0.2157E+03
     -3.212  0.9468E+02  0.9521E+02  0.2209E+03  0.2208E+03
     -3.159  0.1001E+03  0.8811E+02  0.2263E+03  0.2255E+03
     -3.105  0.3691E+02  0.5089E+02  0.2282E+03  0.2282E+03
     -3.052  0.2382E+02  0.1389E+02  0.2295E+03  0.2290E+03
     -2.998  0.9265E+02  0.1010E+03  0.2345E+03  0.2344E+03
     -2.944  0.7499E+02  0.7626E+02  0.2385E+03  0.2385E+03
     -2.891  0.9265E+02  0.9238E+02  0.2435E+03  0.2435E+03
     -2.837  0.2770E+02  0.2667E+02  0.2450E+03  0.2449E+03
     -2.783  0.3749E+02  0.3477E+02  0.2470E+03  0.2467E+03
     -2.730  0.8671E+02  0.8023E+02  0.2516E+03  0.2511E+03
     -2.676  0.4284E+02  0.5014E+02  0.2539E+03  0.2537E+03
     -2.623  0.4323E+02  0.4680E+02  0.2562E+03  0.2562E+03
     -2.569  0.6200E-04  0.3407E-05  0.2563E+03  0.2563E+03
     -2.515  0.8066E+02  0.7569E+02  0.2606E+03  0.2603E+03
     -2.462  0.3029E+02  0.3331E+02  0.2622E+03  0.2621E+03
     -2.408  0.6562E+02  0.5938E+02  0.2657E+03  0.2653E+03
     -2.354  0.5110E+02  0.5079E+02  0.2685E+03  0.2680E+03
     -2.301  0.1124E+03  0.1088E+03  0.2745E+03  0.2738E+03
     -2.247  0.1427E+02  0.2636E+02  0.2753E+03  0.2753E+03
     -2.194  0.5590E+02  0.5581E+02  0.2782E+03  0.2782E+03
     -2.140  0.2796E+02  0.2792E+02  0.2797E+03  0.2797E+03
     -2.086  0.1051E+02  0.8001E+01  0.2803E+03  0.2802E+03
     -2.033  0.3148E+02  0.3414E+02  0.2820E+03  0.2820E+03
     -1.979  0.7427E+00  0.2041E+00  0.2820E+03  0.2820E+03
     -1.925  0.5520E+02  0.5573E+02  0.2850E+03  0.2850E+03
     -1.872  0.4375E+02  0.4167E+02  0.2873E+03  0.2872E+03
     -1.818  0.5414E+02  0.5622E+02  0.2902E+03  0.2902E+03
     -1.764  0.5472E+02  0.5087E+02  0.2932E+03  0.2930E+03
     -1.711  0.1349E+01  0.5096E+01  0.2933E+03  0.2933E+03
     -1.657  0.6159E+02  0.4748E+02  0.2966E+03  0.2958E+03
     -1.604  0.8427E+02  0.9731E+02  0.3011E+03  0.3010E+03
     -1.550  0.6730E+02  0.6705E+02  0.3047E+03  0.3046E+03
     -1.496  0.5809E+01  0.7225E+01  0.3050E+03  0.3050E+03
     -1.443  0.8629E+01  0.4734E+01  0.3055E+03  0.3053E+03
     -1.389  0.3328E+02  0.3701E+02  0.3072E+03  0.3072E+03
     -1.335  0.4575E-01  0.2273E+00  0.3072E+03  0.3072E+03
     -1.282  0.3864E-01  0.9189E-03  0.3073E+03  0.3073E+03
     -1.228  0.2800E+02  0.2798E+02  0.3088E+03  0.3088E+03
     -1.175  0.2790E+02  0.2796E+02  0.3102E+03  0.3102E+03
     -1.121  0.0000E+00  0.0000E+00  0.3102E+03  0.3102E+03
     -1.067  0.4906E+01  0.1216E+01  0.3105E+03  0.3103E+03
     -1.014  0.2306E+02  0.2675E+02  0.3117E+03  0.3117E+03
     -0.960  0.0000E+00  0.0000E+00  0.3118E+03  0.3118E+03
     -0.906  0.8396E-07  0.3043E-08  0.3118E+03  0.3118E+03
     -0.853  0.1790E+02  0.1406E+02  0.3127E+03  0.3125E+03
     -0.799  0.4236E+02  0.3749E+02  0.3150E+03  0.3145E+03
     -0.746  0.3473E+02  0.4077E+02  0.3168E+03  0.3167E+03
     -0.692  0.2431E+02  0.2269E+02  0.3181E+03  0.3179E+03
     -0.638  0.6080E+02  0.5921E+02  0.3214E+03  0.3211E+03
     -0.585  0.3366E+02  0.3026E+02  0.3232E+03  0.3227E+03
     -0.531  0.9984E+01  0.1929E+02  0.3238E+03  0.3237E+03
     -0.477  0.0000E+00  0.0000E+00  0.3238E+03  0.3238E+03
     -0.424  0.2893E-01  0.5770E-02  0.3238E+03  0.3238E+03
     -0.370  0.6877E+01  0.5208E+01  0.3241E+03  0.3240E+03
     -0.316  0.5831E+02  0.5979E+02  0.3272E+03  0.3272E+03
     -0.263  0.1134E+03  0.8905E+02  0.3333E+03  0.3320E+03
     -0.209  0.1188E+03  0.1332E+03  0.3397E+03  0.3392E+03
     -0.156  0.3390E+02  0.3474E+02  0.3415E+03  0.3410E+03
     -0.102  0.1116E+03  0.1151E+03  0.3475E+03  0.3472E+03
     -0.048  0.9077E+02  0.8604E+02  0.3524E+03  0.3518E+03
      0.005  0.1063E+03  0.1038E+03  0.3581E+03  0.3574E+03
      0.059  0.4705E+02  0.5737E+02  0.3606E+03  0.3604E+03
      0.113  0.3099E+02  0.2703E+02  0.3623E+03  0.3619E+03
      0.166  0.5292E+02  0.5833E+02  0.3651E+03  0.3650E+03
      0.220  0.1293E+03  0.1139E+03  0.3720E+03  0.3711E+03
      0.273  0.1273E+03  0.1326E+03  0.3789E+03  0.3782E+03
      0.327  0.1199E+03  0.1075E+03  0.3853E+03  0.3840E+03
      0.381  0.6981E+02  0.8377E+02  0.3890E+03  0.3885E+03
      0.434  0.1036E+03  0.9423E+02  0.3946E+03  0.3936E+03
      0.488  0.1133E+03  0.1276E+03  0.4007E+03  0.4004E+03
      0.542  0.4366E+02  0.4847E+02  0.4030E+03  0.4030E+03
      0.595  0.7350E+02  0.6055E+02  0.4070E+03  0.4062E+03
      0.649  0.3530E+02  0.3784E+02  0.4088E+03  0.4083E+03
      0.702  0.5041E+02  0.5410E+02  0.4115E+03  0.4112E+03
      0.756  0.1132E+03  0.1127E+03  0.4176E+03  0.4172E+03
      0.810  0.1127E+03  0.1036E+03  0.4237E+03  0.4228E+03
      0.863  0.1196E+03  0.1265E+03  0.4301E+03  0.4296E+03
      0.917  0.1716E+03  0.1705E+03  0.4393E+03  0.4387E+03
      0.971  0.1215E+03  0.1211E+03  0.4458E+03  0.4452E+03
      1.024  0.1184E+03  0.1197E+03  0.4521E+03  0.4516E+03
      1.078  0.8575E+02  0.8663E+02  0.4567E+03  0.4563E+03
      1.132  0.1450E+03  0.1443E+03  0.4645E+03  0.4640E+03
      1.185  0.7805E+02  0.6753E+02  0.4687E+03  0.4676E+03
      1.239  0.1299E+03  0.1362E+03  0.4757E+03  0.4749E+03
      1.292  0.1054E+03  0.1074E+03  0.4813E+03  0.4807E+03
      1.346  0.9610E+02  0.9924E+02  0.4865E+03  0.4860E+03
      1.400  0.1177E+03  0.1105E+03  0.4928E+03  0.4919E+03
      1.453  0.7299E+02  0.8321E+02  0.4967E+03  0.4964E+03
      1.507  0.1575E+03  0.1483E+03  0.5052E+03  0.5043E+03
      1.561  0.1527E+03  0.1607E+03  0.5133E+03  0.5130E+03
      1.614  0.1146E+03  0.1061E+03  0.5195E+03  0.5187E+03
      1.668  0.9805E+02  0.1129E+03  0.5247E+03  0.5247E+03
      1.721  0.1345E+03  0.1170E+03  0.5320E+03  0.5310E+03
      1.775  0.9927E+02  0.1033E+03  0.5373E+03  0.5365E+03
      1.829  0.8903E+02  0.9065E+02  0.5421E+03  0.5414E+03
      1.882  0.9143E+02  0.9720E+02  0.5470E+03  0.5466E+03
      1.936  0.8629E+02  0.8502E+02  0.5516E+03  0.5512E+03
      1.990  0.7977E+02  0.8078E+02  0.5559E+03  0.5555E+03
      2.043  0.6783E+02  0.6947E+02  0.5595E+03  0.5592E+03
      2.097  0.8185E+02  0.7968E+02  0.5639E+03  0.5635E+03
      2.150  0.1626E+03  0.1595E+03  0.5726E+03  0.5720E+03
      2.204  0.8506E+02  0.7878E+02  0.5772E+03  0.5763E+03
      2.258  0.9094E+02  0.9997E+02  0.5820E+03  0.5816E+03
      2.311  0.9650E+02  0.1015E+03  0.5872E+03  0.5871E+03
      2.365  0.5432E+02  0.5366E+02  0.5901E+03  0.5899E+03
      2.419  0.1069E+03  0.9896E+02  0.5959E+03  0.5953E+03
      2.472  0.5366E+02  0.6254E+02  0.5987E+03  0.5986E+03
      2.526  0.7743E+02  0.6977E+02  0.6029E+03  0.6023E+03
      2.579  0.4186E+02  0.5009E+02  0.6051E+03  0.6050E+03
      2.633  0.9160E+02  0.8775E+02  0.6101E+03  0.6097E+03
      2.687  0.1257E+03  0.1247E+03  0.6168E+03  0.6164E+03
      2.740  0.5042E+02  0.5342E+02  0.6195E+03  0.6193E+03
      2.794  0.9842E+02  0.9167E+02  0.6248E+03  0.6242E+03
      2.848  0.6501E+02  0.7163E+02  0.6283E+03  0.6281E+03
      2.901  0.6863E+02  0.7005E+02  0.6320E+03  0.6318E+03
      2.955  0.1487E+02  0.1756E+02  0.6328E+03  0.6327E+03
      3.009  0.5400E+02  0.4041E+02  0.6356E+03  0.6349E+03
      3.062  0.7186E+02  0.8414E+02  0.6395E+03  0.6394E+03
      3.116  0.1838E+02  0.1651E+02  0.6405E+03  0.6403E+03
      3.169  0.1110E+03  0.1038E+03  0.6464E+03  0.6459E+03
      3.223  0.6158E+02  0.6944E+02  0.6497E+03  0.6496E+03
      3.277  0.3589E+02  0.2342E+02  0.6517E+03  0.6509E+03
      3.330  0.7934E+02  0.6355E+02  0.6559E+03  0.6543E+03
      3.384  0.5807E+02  0.8799E+02  0.6590E+03  0.6590E+03
      3.438  0.4870E+02  0.3763E+02  0.6616E+03  0.6610E+03
      3.491  0.4032E+02  0.5109E+02  0.6638E+03  0.6637E+03
      3.545  0.3701E+02  0.2799E+02  0.6658E+03  0.6653E+03
      3.598  0.6690E+02  0.6010E+02  0.6694E+03  0.6685E+03
      3.652  0.5806E+02  0.7131E+02  0.6725E+03  0.6723E+03
      3.706  0.4202E+02  0.3062E+02  0.6747E+03  0.6739E+03
      3.759  0.1033E+02  0.1513E+02  0.6753E+03  0.6748E+03
      3.813  0.3603E+02  0.4504E+02  0.6772E+03  0.6772E+03
      3.867  0.2819E+02  0.6253E+01  0.6787E+03  0.6775E+03
      3.920  0.4746E+01  0.2793E+02  0.6790E+03  0.6790E+03
      3.974  0.1030E+02  0.7701E+01  0.6796E+03  0.6794E+03
      4.027  0.5956E+02  0.6034E+02  0.6827E+03  0.6826E+03
      4.081  0.4910E+01  0.2933E+01  0.6830E+03  0.6828E+03
      4.135  0.6378E+02  0.5463E+02  0.6864E+03  0.6857E+03
      4.188  0.6654E+02  0.7945E+02  0.6900E+03  0.6900E+03
      4.242  0.8501E+01  0.5911E+01  0.6905E+03  0.6903E+03
      4.296  0.7050E+02  0.6650E+02  0.6942E+03  0.6939E+03
      4.349  0.2189E+02  0.2450E+02  0.6954E+03  0.6952E+03
      4.403  0.4720E+02  0.4939E+02  0.6979E+03  0.6978E+03
      4.457  0.1367E+02  0.1318E+02  0.6987E+03  0.6986E+03
      4.510  0.7320E+02  0.5883E+02  0.7026E+03  0.7017E+03
      4.564  0.7707E+02  0.9251E+02  0.7067E+03  0.7067E+03
      4.617  0.2030E+01  0.1858E+01  0.7068E+03  0.7068E+03
      4.671  0.6767E+02  0.6194E+02  0.7105E+03  0.7101E+03
      4.725  0.9643E+02  0.9404E+02  0.7156E+03  0.7151E+03
      4.778  0.9733E+02  0.1051E+03  0.7209E+03  0.7208E+03
      4.832  0.7307E+02  0.7061E+02  0.7248E+03  0.7246E+03
      4.886  0.4552E+02  0.4728E+02  0.7272E+03  0.7271E+03
      4.939  0.3712E+02  0.3796E+02  0.7292E+03  0.7291E+03
      4.993  0.5592E+02  0.5380E+02  0.7322E+03  0.7320E+03
      5.046  0.6216E+02  0.6520E+02  0.7355E+03  0.7355E+03
      5.100  0.6844E+02  0.6651E+02  0.7392E+03  0.7391E+03
      5.154  0.1178E+03  0.1056E+03  0.7455E+03  0.7447E+03
      5.207  0.1078E+03  0.1216E+03  0.7513E+03  0.7513E+03
      5.261  0.9303E+02  0.7394E+02  0.7563E+03  0.7552E+03
      5.315  0.7254E+02  0.8258E+02  0.7602E+03  0.7597E+03
      5.368  0.7635E+02  0.8375E+02  0.7643E+03  0.7641E+03
      5.422  0.7472E+02  0.7649E+02  0.7683E+03  0.7683E+03
      5.475  0.9873E+02  0.9159E+02  0.7736E+03  0.7732E+03
      5.529  0.9770E+02  0.8964E+02  0.7788E+03  0.7780E+03
      5.583  0.8578E+02  0.9197E+02  0.7834E+03  0.7829E+03
      5.636  0.9865E+02  0.1001E+03  0.7887E+03  0.7883E+03
      5.690  0.9448E+02  0.8920E+02  0.7938E+03  0.7931E+03
      5.744  0.1186E+03  0.1215E+03  0.8001E+03  0.7996E+03
      5.797  0.7752E+02  0.7838E+02  0.8043E+03  0.8038E+03
      5.851  0.5673E+02  0.6930E+02  0.8073E+03  0.8075E+03
      5.905  0.1216E+02  0.9470E+01  0.8080E+03  0.8080E+03
      5.958  0.0000E+00  0.0000E+00  0.8080E+03  0.8080E+03
      6.012  0.0000E+00  0.0000E+00  0.8080E+03  0.8080E+03
      6.065  0.0000E+00  0.0000E+00  0.8080E+03  0.8080E+03
      6.119  0.0000E+00  0.0000E+00  0.8080E+03  0.8080E+03
      6.173  0.0000E+00  0.0000E+00  0.8080E+03  0.8080E+03
      6.226  0.0000E+00  0.0000E+00  0.8080E+03  0.8080E+03
      6.280  0.0000E+00  0.0000E+00  0.8080E+03  0.8080E+03
      6.334  0.0000E+00  0.0000E+00  0.8080E+03  0.8080E+03
      6.387  0.0000E+00  0.0000E+00  0.8080E+03  0.8080E+03
      6.441  0.0000E+00  0.0000E+00  0.8080E+03  0.8080E+03
      6.494  0.0000E+00  0.0000E+00  0.8080E+03  0.8080E+03
      6.548  0.0000E+00  0.0000E+00  0.8080E+03  0.8080E+03
      6.602  0.0000E+00  0.0000E+00  0.8080E+03  0.8080E+03
