Si Bulk DFT energetics calculations using VASP\n
This script is running on comp120.cluster.local in /lustre/home/ah1365/projects/127870/upgrade_report/case_studies/common/structures/interfaces/168_Sn72Ge96_011_011_a0.689873_b0.072165_c2.065575_interface3shift6\n
Job started on: Mon  9 Jun 03:21:04 UTC 2025\n
 running   64 mpi-ranks, on    4 nodes
 distrk:  each k-point on   64 cores,    1 groups
 distr:  one band on   16 cores,    4 groups
 vasp.6.4.3 19Mar24 (build Oct 22 2024 11:23:12) complex                        
  
 POSCAR found type information on POSCAR SnGe
 POSCAR found :  2 types and     168 ions
 -----------------------------------------------------------------------------
|                                                                             |
|           W    W    AA    RRRRR   N    N  II  N    N   GGGG   !!!           |
|           W    W   A  A   R    R  NN   N  II  NN   N  G    G  !!!           |
|           W    W  A    A  R    R  N N  N  II  N N  N  G       !!!           |
|           W WW W  AAAAAA  RRRRR   N  N N  II  N  N N  G  GGG   !            |
|           WW  WW  A    A  R   R   N   NN  II  N   NN  G    G                |
|           W    W  A    A  R    R  N    N  II  N    N   GGGG   !!!           |
|                                                                             |
|     You use a magnetic or noncollinear calculation, but did not specify     |
|     the initial magnetic moment with the MAGMOM tag. Note that a            |
|     default of 5.952e-3 will be used for all atoms. This ferromagnetic      |
|     setup may break the symmetry of the crystal, in particular it may       |
|     rule out finding an antiferromagnetic solution. Thence, we              |
|     recommend setting the initial magnetic moment manually or verifying     |
|     carefully that this magnetic setup is desired.                          |
|                                                                             |
 -----------------------------------------------------------------------------

 scaLAPACK will be used
 WARNING: PSMAXN for non-local potential too small
 LDA part: xc-table for (Slater+PW92), standard interpolation
 POSCAR, INCAR and KPOINTS ok, starting setup
 FFT: planning ... GRIDC
 FFT: planning ... GRID_SOFT
 FFT: planning ... GRID
 WAVECAR not read
 entering main loop
       N       E                     dE             d eps       ncg     rms          rms(c)
DAV:   1     0.347379813797E+04    0.34738E+04   -0.28104E+05  8080   0.168E+03
DAV:   2    -0.254544253210E+03   -0.37283E+04   -0.36047E+04  9512   0.200E+02
DAV:   3    -0.663577865372E+03   -0.40903E+03   -0.39794E+03  9904   0.649E+01
DAV:   4    -0.679874147923E+03   -0.16296E+02   -0.16005E+02  9768   0.129E+01
DAV:   5    -0.680572758116E+03   -0.69861E+00   -0.69392E+00 10608   0.229E+00    0.300E+01
DAV:   6    -0.670584588876E+03    0.99882E+01   -0.22574E+01 12080   0.885E+00    0.147E+01
DAV:   7    -0.674343011093E+03   -0.37584E+01   -0.35599E+01 11640   0.132E+01    0.707E+00
DAV:   8    -0.669330003404E+03    0.50130E+01   -0.17854E+01 12632   0.100E+01    0.330E+00
DAV:   9    -0.668667352221E+03    0.66265E+00   -0.74116E+00 10624   0.475E+00    0.178E+00
DAV:  10    -0.668655853887E+03    0.11498E-01   -0.19133E+00  9208   0.192E+00    0.116E+00
DAV:  11    -0.668650534565E+03    0.53193E-02   -0.33036E-01 10240   0.638E-01    0.579E-01
DAV:  12    -0.668651195263E+03   -0.66070E-03   -0.71425E-02  9624   0.375E-01    0.186E-01
DAV:  13    -0.668652431251E+03   -0.12360E-02   -0.12659E-02  9192   0.147E-01    0.118E-01
DAV:  14    -0.668652714475E+03   -0.28322E-03   -0.16750E-03  9624   0.505E-02    0.735E-02
DAV:  15    -0.668652769267E+03   -0.54793E-04   -0.33132E-04  9768   0.239E-02    0.447E-02
DAV:  16    -0.668652831830E+03   -0.62562E-04   -0.14653E-04  8928   0.161E-02    0.245E-02
DAV:  17    -0.668652854244E+03   -0.22415E-04   -0.36411E-05  9128   0.909E-03    0.171E-02
DAV:  18    -0.668652859545E+03   -0.53010E-05   -0.73348E-06  9536   0.401E-03    0.138E-02
DAV:  19    -0.668652865087E+03   -0.55420E-05   -0.53550E-06  9912   0.331E-03    0.109E-02
DAV:  20    -0.668652872227E+03   -0.71403E-05   -0.43231E-06  9392   0.298E-03    0.811E-03
DAV:  21    -0.668652876732E+03   -0.45049E-05   -0.28863E-06  9488   0.255E-03    0.568E-03
DAV:  22    -0.668652878140E+03   -0.14075E-05   -0.15464E-06  9544   0.189E-03    0.317E-03
DAV:  23    -0.668652878662E+03   -0.52186E-06   -0.89024E-07  9320   0.129E-03    0.124E-03
DAV:  24    -0.668652878984E+03   -0.32212E-06   -0.23755E-07  5880   0.742E-04    0.638E-04
DAV:  25    -0.668652879129E+03   -0.14481E-06   -0.79628E-08  4888   0.343E-04    0.352E-04
DAV:  26    -0.668652879159E+03   -0.30243E-07   -0.17504E-08  4848   0.207E-04
   1 F= -.66865288E+03 E0= -.66865152E+03  d E =-.271158E-02  mag=     1.0000
Job ended on: Mon  9 Jun 04:01:08 UTC 2025\n
