       N       E                     dE             d eps       ncg     rms          rms(c)
DAV:   1     0.109220436891E+05    0.10922E+05   -0.30353E+05 12928   0.174E+03
DAV:   2     0.683311148597E+04   -0.40889E+04   -0.39494E+04 15328   0.223E+02
DAV:   3     0.637035412086E+04   -0.46276E+03   -0.44118E+03 17392   0.705E+01
DAV:   4     0.634419783508E+04   -0.26156E+02   -0.24912E+02 16744   0.158E+01
DAV:   5     0.634264763806E+04   -0.15502E+01   -0.15125E+01 18904   0.348E+00    0.915E+01
DAV:   6     0.646032617123E+04    0.11768E+03   -0.15585E+02 16192   0.140E+01    0.584E+01
DAV:   7     0.640387306915E+04   -0.56453E+02   -0.53670E+02 17360   0.249E+01    0.539E+01
DAV:   8     0.648381770226E+04    0.79945E+02   -0.88806E+02 17896   0.341E+01    0.167E+01
DAV:   9     0.649475611589E+04    0.10938E+02   -0.15890E+02 16200   0.138E+01    0.105E+01
DAV:  10     0.649680586338E+04    0.20497E+01   -0.29963E+01 16856   0.562E+00    0.554E+00
DAV:  11     0.649707832488E+04    0.27246E+00   -0.21244E+00 17848   0.172E+00    0.312E+00
DAV:  12     0.649721878675E+04    0.14046E+00   -0.13985E+00 17416   0.123E+00    0.135E+00
DAV:  13     0.649722050779E+04    0.17210E-02   -0.53812E-01 17208   0.102E+00    0.125E+00
DAV:  14     0.649726538731E+04    0.44880E-01   -0.27596E-01 17088   0.592E-01    0.588E-01
DAV:  15     0.649727378757E+04    0.84003E-02   -0.44568E-02 15976   0.277E-01    0.248E-01
DAV:  16     0.649727343900E+04   -0.34857E-03   -0.12469E-02 16352   0.126E-01    0.156E-01
DAV:  17     0.649727396823E+04    0.52923E-03   -0.31166E-03 16456   0.688E-02    0.767E-02
DAV:  18     0.649727416247E+04    0.19424E-03   -0.10667E-03 16024   0.410E-02    0.391E-02
DAV:  19     0.649727417224E+04    0.97765E-05   -0.43391E-04 16920   0.217E-02    0.209E-02
DAV:  20     0.649727416571E+04   -0.65372E-05   -0.61454E-05 16520   0.970E-03    0.124E-02
DAV:  21     0.649727416192E+04   -0.37900E-05   -0.13956E-05 16352   0.482E-03    0.681E-03
DAV:  22     0.649727416037E+04   -0.15448E-05   -0.54018E-06 16248   0.300E-03    0.392E-03
DAV:  23     0.649727416045E+04    0.81851E-07   -0.17192E-06 15752   0.185E-03    0.211E-03
DAV:  24     0.649727416073E+04    0.27750E-06   -0.57098E-07 13088   0.103E-03    0.115E-03
DAV:  25     0.649727416070E+04   -0.27037E-07   -0.21195E-07  9848   0.568E-04
   1 F= 0.64972742E+04 E0= 0.64972758E+04  d E =-.337047E-02  mag=     1.0000
