  96  96   0   0
  0.2276159E+02  0.1265123E-08  0.1265123E-08  0.1393391E-08  0.5000000E-15
  1.000000000000000E-004
  CAR 
 Si and Ge interface calculation         
      6.43105783    -11.20160834  301      3.57061148      1.00000000
    -11.202  0.0000E+00  0.0000E+00  0.0000E+00  0.0000E+00
    -11.143  0.0000E+00  0.0000E+00  0.0000E+00  0.0000E+00
    -11.084  0.0000E+00  0.0000E+00  0.0000E+00  0.0000E+00
    -11.025  0.0000E+00  0.0000E+00  0.0000E+00  0.0000E+00
    -10.967  0.0000E+00  0.0000E+00  0.0000E+00  0.0000E+00
    -10.908  0.0000E+00  0.0000E+00  0.0000E+00  0.0000E+00
    -10.849  0.0000E+00  0.0000E+00  0.0000E+00  0.0000E+00
    -10.790  0.0000E+00  0.0000E+00  0.0000E+00  0.0000E+00
    -10.731  0.0000E+00  0.0000E+00  0.0000E+00  0.0000E+00
    -10.673  0.0000E+00  0.0000E+00  0.0000E+00  0.0000E+00
    -10.614  0.0000E+00  0.0000E+00  0.0000E+00  0.0000E+00
    -10.555  0.0000E+00  0.0000E+00  0.0000E+00  0.0000E+00
    -10.496  0.0000E+00  0.0000E+00  0.0000E+00  0.0000E+00
    -10.438  0.1325E-06  0.1287E-09  0.7789E-08  0.7564E-11
    -10.379  0.3286E+02  0.2629E+02  0.1931E+01  0.1545E+01
    -10.320  0.1166E+01  0.7737E+01  0.2000E+01  0.2000E+01
    -10.261  0.0000E+00  0.0000E+00  0.2000E+01  0.2000E+01
    -10.202  0.6584E-12  0.0000E+00  0.2000E+01  0.2000E+01
    -10.144  0.5311E+01  0.1303E+01  0.2312E+01  0.2077E+01
    -10.085  0.2184E+02  0.1673E+02  0.3596E+01  0.3060E+01
    -10.026  0.6876E+01  0.1600E+02  0.4000E+01  0.4000E+01
     -9.967  0.2184E+02  0.1709E+02  0.5283E+01  0.5004E+01
     -9.909  0.1710E+02  0.1204E+02  0.6288E+01  0.5712E+01
     -9.850  0.1827E+02  0.2761E+02  0.7362E+01  0.7335E+01
     -9.791  0.1086E+02  0.1132E+02  0.8000E+01  0.8000E+01
     -9.732  0.3089E+01  0.2561E+00  0.8182E+01  0.8015E+01
     -9.673  0.1968E+02  0.2243E+02  0.9338E+01  0.9333E+01
     -9.615  0.2260E+02  0.2268E+02  0.1067E+02  0.1067E+02
     -9.556  0.0000E+00  0.2552E-02  0.1067E+02  0.1067E+02
     -9.497  0.0000E+00  0.0000E+00  0.1067E+02  0.1067E+02
     -9.438  0.0000E+00  0.0000E+00  0.1067E+02  0.1067E+02
     -9.380  0.0000E+00  0.0000E+00  0.1067E+02  0.1067E+02
     -9.321  0.2113E+01  0.1269E+00  0.1079E+02  0.1067E+02
     -9.262  0.2057E+02  0.2256E+02  0.1200E+02  0.1200E+02
     -9.203  0.0000E+00  0.0000E+00  0.1200E+02  0.1200E+02
     -9.144  0.0000E+00  0.0000E+00  0.1200E+02  0.1200E+02
     -9.086  0.1911E+01  0.1404E+00  0.1211E+02  0.1201E+02
     -9.027  0.2077E+02  0.2254E+02  0.1333E+02  0.1333E+02
     -8.968  0.1230E+01  0.4420E-01  0.1341E+02  0.1334E+02
     -8.909  0.3280E+02  0.3398E+02  0.1533E+02  0.1533E+02
     -8.851  0.4407E-14  0.0000E+00  0.1533E+02  0.1533E+02
     -8.792  0.3580E+01  0.7440E+00  0.1554E+02  0.1538E+02
     -8.733  0.1911E+02  0.2194E+02  0.1667E+02  0.1667E+02
     -8.674  0.5274E-01  0.1183E-02  0.1667E+02  0.1667E+02
     -8.615  0.2260E+02  0.2220E+02  0.1800E+02  0.1797E+02
     -8.557  0.3076E-01  0.4821E+00  0.1800E+02  0.1800E+02
     -8.498  0.6749E+01  0.3033E+01  0.1840E+02  0.1818E+02
     -8.439  0.2353E+02  0.2076E+02  0.1978E+02  0.1940E+02
     -8.380  0.2676E+02  0.3256E+02  0.2135E+02  0.2131E+02
     -8.322  0.1100E+02  0.1150E+02  0.2200E+02  0.2199E+02
     -8.263  0.9179E+01  0.7508E+01  0.2254E+02  0.2243E+02
     -8.204  0.1765E+02  0.1478E+02  0.2358E+02  0.2330E+02
     -8.145  0.2373E+02  0.2616E+02  0.2497E+02  0.2484E+02
     -8.087  0.8305E+01  0.8719E+01  0.2546E+02  0.2535E+02
     -8.028  0.2206E+02  0.2240E+02  0.2676E+02  0.2667E+02
     -7.969  0.2304E+02  0.2307E+02  0.2811E+02  0.2802E+02
     -7.910  0.2774E+02  0.2667E+02  0.2974E+02  0.2959E+02
     -7.851  0.1592E+02  0.1613E+02  0.3068E+02  0.3054E+02
     -7.793  0.2172E+02  0.1983E+02  0.3195E+02  0.3170E+02
     -7.734  0.1717E+02  0.1935E+02  0.3296E+02  0.3284E+02
     -7.675  0.2336E+02  0.1967E+02  0.3433E+02  0.3400E+02
     -7.616  0.2971E+02  0.3046E+02  0.3608E+02  0.3579E+02
     -7.558  0.1677E+02  0.1709E+02  0.3707E+02  0.3679E+02
     -7.499  0.1726E+02  0.1817E+02  0.3808E+02  0.3786E+02
     -7.440  0.2068E+02  0.2189E+02  0.3930E+02  0.3915E+02
     -7.381  0.1955E+02  0.1965E+02  0.4045E+02  0.4030E+02
     -7.322  0.2172E+02  0.1852E+02  0.4172E+02  0.4139E+02
     -7.264  0.2540E+02  0.2675E+02  0.4322E+02  0.4296E+02
     -7.205  0.3597E+02  0.3753E+02  0.4533E+02  0.4517E+02
     -7.146  0.2963E+02  0.2939E+02  0.4707E+02  0.4689E+02
     -7.087  0.1479E+02  0.1540E+02  0.4794E+02  0.4780E+02
     -7.029  0.2603E+02  0.2136E+02  0.4947E+02  0.4906E+02
     -6.970  0.3767E+02  0.4068E+02  0.5169E+02  0.5145E+02
     -6.911  0.2946E+02  0.2680E+02  0.5342E+02  0.5302E+02
     -6.852  0.2663E+02  0.3056E+02  0.5498E+02  0.5482E+02
     -6.793  0.3812E+02  0.3668E+02  0.5722E+02  0.5697E+02
     -6.735  0.2339E+02  0.2348E+02  0.5860E+02  0.5835E+02
     -6.676  0.2865E+02  0.2870E+02  0.6028E+02  0.6004E+02
     -6.617  0.3630E+02  0.3586E+02  0.6241E+02  0.6215E+02
     -6.558  0.2814E+02  0.2528E+02  0.6407E+02  0.6363E+02
     -6.500  0.2341E+02  0.2961E+02  0.6544E+02  0.6537E+02
     -6.441  0.2765E+02  0.2646E+02  0.6707E+02  0.6693E+02
     -6.382  0.3265E+02  0.2909E+02  0.6899E+02  0.6864E+02
     -6.323  0.2497E+02  0.2625E+02  0.7046E+02  0.7018E+02
     -6.264  0.3287E+02  0.3627E+02  0.7239E+02  0.7231E+02
     -6.206  0.3612E+02  0.2919E+02  0.7451E+02  0.7403E+02
     -6.147  0.3191E+02  0.3672E+02  0.7639E+02  0.7619E+02
     -6.088  0.2758E+02  0.2559E+02  0.7801E+02  0.7769E+02
     -6.029  0.1433E+02  0.1783E+02  0.7885E+02  0.7874E+02
     -5.971  0.1944E+02  0.1732E+02  0.7999E+02  0.7976E+02
     -5.912  0.2495E+02  0.2450E+02  0.8146E+02  0.8120E+02
     -5.853  0.2887E+02  0.2911E+02  0.8316E+02  0.8291E+02
     -5.794  0.2402E+02  0.2478E+02  0.8457E+02  0.8437E+02
     -5.735  0.3643E+02  0.3560E+02  0.8671E+02  0.8646E+02
     -5.677  0.2919E+02  0.2839E+02  0.8843E+02  0.8813E+02
     -5.618  0.2908E+02  0.3095E+02  0.9014E+02  0.8995E+02
     -5.559  0.2967E+02  0.2671E+02  0.9188E+02  0.9152E+02
     -5.500  0.2943E+02  0.3145E+02  0.9361E+02  0.9337E+02
     -5.442  0.2031E+02  0.2153E+02  0.9480E+02  0.9463E+02
     -5.383  0.1836E+02  0.1887E+02  0.9588E+02  0.9574E+02
     -5.324  0.1218E+02  0.1392E+02  0.9660E+02  0.9656E+02
     -5.265  0.4375E+02  0.3956E+02  0.9917E+02  0.9888E+02
     -5.207  0.1340E+02  0.1624E+02  0.9996E+02  0.9984E+02
     -5.148  0.2451E+02  0.2222E+02  0.1014E+03  0.1011E+03
     -5.089  0.1560E+02  0.1822E+02  0.1023E+03  0.1022E+03
     -5.030  0.1566E+02  0.1690E+02  0.1032E+03  0.1032E+03
     -4.971  0.1853E+02  0.1740E+02  0.1043E+03  0.1042E+03
     -4.913  0.3385E+02  0.3157E+02  0.1063E+03  0.1061E+03
     -4.854  0.1321E+02  0.1545E+02  0.1071E+03  0.1070E+03
     -4.795  0.2615E+02  0.2001E+02  0.1086E+03  0.1082E+03
     -4.736  0.2798E+02  0.3126E+02  0.1103E+03  0.1100E+03
     -4.678  0.3862E+02  0.3836E+02  0.1125E+03  0.1123E+03
     -4.619  0.4023E+02  0.3291E+02  0.1149E+03  0.1142E+03
     -4.560  0.1975E+02  0.2585E+02  0.1161E+03  0.1157E+03
     -4.501  0.2798E+02  0.2674E+02  0.1177E+03  0.1173E+03
     -4.442  0.1517E+02  0.1843E+02  0.1186E+03  0.1184E+03
     -4.384  0.2564E+02  0.2781E+02  0.1201E+03  0.1200E+03
     -4.325  0.1962E+02  0.1700E+02  0.1213E+03  0.1210E+03
     -4.266  0.2293E+02  0.2473E+02  0.1226E+03  0.1225E+03
     -4.207  0.1570E+02  0.1568E+02  0.1235E+03  0.1234E+03
     -4.149  0.2510E+02  0.2674E+02  0.1250E+03  0.1250E+03
     -4.090  0.2826E+02  0.2520E+02  0.1267E+03  0.1264E+03
     -4.031  0.3268E+02  0.3385E+02  0.1286E+03  0.1284E+03
     -3.972  0.1394E+02  0.1483E+02  0.1294E+03  0.1293E+03
     -3.913  0.1790E+02  0.1494E+02  0.1305E+03  0.1302E+03
     -3.855  0.3173E+02  0.3204E+02  0.1323E+03  0.1321E+03
     -3.796  0.2017E+02  0.2262E+02  0.1335E+03  0.1334E+03
     -3.737  0.2334E+02  0.2553E+02  0.1349E+03  0.1349E+03
     -3.678  0.1321E+02  0.1144E+02  0.1357E+03  0.1356E+03
     -3.620  0.1785E+02  0.1697E+02  0.1367E+03  0.1366E+03
     -3.561  0.2660E+02  0.2418E+02  0.1383E+03  0.1380E+03
     -3.502  0.2033E+02  0.2324E+02  0.1395E+03  0.1393E+03
     -3.443  0.2851E+02  0.2625E+02  0.1411E+03  0.1409E+03
     -3.384  0.2776E+02  0.2772E+02  0.1428E+03  0.1425E+03
     -3.326  0.2542E+02  0.2778E+02  0.1443E+03  0.1441E+03
     -3.267  0.2773E+02  0.2293E+02  0.1459E+03  0.1455E+03
     -3.208  0.2562E+02  0.3012E+02  0.1474E+03  0.1473E+03
     -3.149  0.2120E+02  0.2208E+02  0.1487E+03  0.1486E+03
     -3.091  0.2876E+02  0.2313E+02  0.1503E+03  0.1499E+03
     -3.032  0.2892E+02  0.3172E+02  0.1520E+03  0.1518E+03
     -2.973  0.1737E+02  0.1747E+02  0.1531E+03  0.1528E+03
     -2.914  0.3199E+02  0.3242E+02  0.1549E+03  0.1547E+03
     -2.855  0.2518E+02  0.2511E+02  0.1564E+03  0.1562E+03
     -2.797  0.2087E+02  0.1864E+02  0.1577E+03  0.1573E+03
     -2.738  0.2945E+02  0.3195E+02  0.1594E+03  0.1592E+03
     -2.679  0.2530E+02  0.2663E+02  0.1609E+03  0.1607E+03
     -2.620  0.1908E+02  0.1755E+02  0.1620E+03  0.1618E+03
     -2.562  0.2028E+02  0.1862E+02  0.1632E+03  0.1629E+03
     -2.503  0.2830E+02  0.2369E+02  0.1649E+03  0.1643E+03
     -2.444  0.2561E+02  0.3172E+02  0.1664E+03  0.1661E+03
     -2.385  0.2980E+02  0.2687E+02  0.1681E+03  0.1677E+03
     -2.326  0.1447E+02  0.2036E+02  0.1690E+03  0.1689E+03
     -2.268  0.2900E+02  0.2770E+02  0.1707E+03  0.1705E+03
     -2.209  0.1897E+02  0.2094E+02  0.1718E+03  0.1718E+03
     -2.150  0.2429E+02  0.1387E+02  0.1732E+03  0.1726E+03
     -2.091  0.2109E+02  0.2887E+02  0.1744E+03  0.1743E+03
     -2.033  0.1637E+02  0.1814E+02  0.1754E+03  0.1753E+03
     -1.974  0.2162E+02  0.2112E+02  0.1767E+03  0.1766E+03
     -1.915  0.1516E+02  0.1627E+02  0.1776E+03  0.1775E+03
     -1.856  0.2117E+02  0.1516E+02  0.1788E+03  0.1784E+03
     -1.798  0.2534E+02  0.2687E+02  0.1803E+03  0.1800E+03
     -1.739  0.1751E+02  0.2026E+02  0.1813E+03  0.1812E+03
     -1.680  0.4155E+02  0.3689E+02  0.1838E+03  0.1834E+03
     -1.621  0.2331E+02  0.2847E+02  0.1851E+03  0.1850E+03
     -1.562  0.2215E+02  0.1884E+02  0.1864E+03  0.1861E+03
     -1.504  0.2576E+02  0.2500E+02  0.1880E+03  0.1876E+03
     -1.445  0.2162E+02  0.2503E+02  0.1892E+03  0.1891E+03
     -1.386  0.2866E+02  0.2955E+02  0.1909E+03  0.1908E+03
     -1.327  0.2404E+02  0.2115E+02  0.1923E+03  0.1921E+03
     -1.269  0.9530E+01  0.1366E+02  0.1929E+03  0.1929E+03
     -1.210  0.1158E+02  0.1002E+02  0.1936E+03  0.1935E+03
     -1.151  0.3932E+02  0.3656E+02  0.1959E+03  0.1956E+03
     -1.092  0.1591E+02  0.1598E+02  0.1968E+03  0.1965E+03
     -1.033  0.2171E+02  0.2196E+02  0.1981E+03  0.1978E+03
     -0.975  0.2541E+02  0.2762E+02  0.1996E+03  0.1995E+03
     -0.916  0.1545E+02  0.1331E+02  0.2005E+03  0.2002E+03
     -0.857  0.2926E+02  0.2936E+02  0.2022E+03  0.2020E+03
     -0.798  0.2838E+02  0.2648E+02  0.2039E+03  0.2035E+03
     -0.740  0.3522E+02  0.3174E+02  0.2060E+03  0.2054E+03
     -0.681  0.2864E+02  0.3341E+02  0.2076E+03  0.2074E+03
     -0.622  0.3844E+02  0.3342E+02  0.2099E+03  0.2093E+03
     -0.563  0.5163E+02  0.5294E+02  0.2129E+03  0.2124E+03
     -0.504  0.2661E+02  0.3113E+02  0.2145E+03  0.2143E+03
     -0.446  0.3734E+02  0.3773E+02  0.2167E+03  0.2165E+03
     -0.387  0.2316E+02  0.2280E+02  0.2180E+03  0.2178E+03
     -0.328  0.3185E+02  0.2883E+02  0.2199E+03  0.2195E+03
     -0.269  0.3726E+02  0.3829E+02  0.2221E+03  0.2218E+03
     -0.211  0.3496E+02  0.3826E+02  0.2242E+03  0.2240E+03
     -0.152  0.4519E+02  0.3785E+02  0.2268E+03  0.2262E+03
     -0.093  0.3275E+02  0.3723E+02  0.2287E+03  0.2284E+03
     -0.034  0.5452E+02  0.5063E+02  0.2320E+03  0.2314E+03
      0.025  0.3982E+02  0.4518E+02  0.2343E+03  0.2341E+03
      0.083  0.3622E+02  0.3288E+02  0.2364E+03  0.2360E+03
      0.142  0.3716E+02  0.4001E+02  0.2386E+03  0.2383E+03
      0.201  0.4270E+02  0.4240E+02  0.2411E+03  0.2408E+03
      0.260  0.5173E+02  0.5052E+02  0.2442E+03  0.2438E+03
      0.318  0.2999E+02  0.3326E+02  0.2459E+03  0.2458E+03
      0.377  0.5074E+02  0.4727E+02  0.2489E+03  0.2485E+03
      0.436  0.4563E+02  0.4632E+02  0.2516E+03  0.2513E+03
      0.495  0.3485E+02  0.3345E+02  0.2536E+03  0.2532E+03
      0.554  0.4546E+02  0.4256E+02  0.2563E+03  0.2557E+03
      0.612  0.3959E+02  0.4745E+02  0.2586E+03  0.2585E+03
      0.671  0.5364E+02  0.4509E+02  0.2618E+03  0.2612E+03
      0.730  0.5233E+02  0.5521E+02  0.2649E+03  0.2644E+03
      0.789  0.3387E+02  0.3209E+02  0.2669E+03  0.2663E+03
      0.847  0.4384E+02  0.4368E+02  0.2694E+03  0.2689E+03
      0.906  0.5776E+02  0.5813E+02  0.2728E+03  0.2723E+03
      0.965  0.4951E+02  0.4804E+02  0.2757E+03  0.2751E+03
      1.024  0.4922E+02  0.5197E+02  0.2786E+03  0.2782E+03
      1.082  0.5230E+02  0.5159E+02  0.2817E+03  0.2812E+03
      1.141  0.3965E+02  0.4152E+02  0.2840E+03  0.2836E+03
      1.200  0.3573E+02  0.3873E+02  0.2861E+03  0.2859E+03
      1.259  0.5779E+02  0.5176E+02  0.2895E+03  0.2889E+03
      1.318  0.4294E+02  0.4734E+02  0.2921E+03  0.2917E+03
      1.376  0.4114E+02  0.3750E+02  0.2945E+03  0.2939E+03
      1.435  0.4914E+02  0.5331E+02  0.2974E+03  0.2971E+03
      1.494  0.5013E+02  0.4855E+02  0.3003E+03  0.2999E+03
      1.553  0.3855E+02  0.3610E+02  0.3026E+03  0.3020E+03
      1.611  0.4035E+02  0.4418E+02  0.3049E+03  0.3046E+03
      1.670  0.3575E+02  0.3424E+02  0.3070E+03  0.3067E+03
      1.729  0.3820E+02  0.3783E+02  0.3093E+03  0.3089E+03
      1.788  0.4587E+02  0.4752E+02  0.3120E+03  0.3117E+03
      1.847  0.5552E+02  0.4900E+02  0.3152E+03  0.3146E+03
      1.905  0.3319E+02  0.3490E+02  0.3172E+03  0.3166E+03
      1.964  0.3694E+02  0.4319E+02  0.3194E+03  0.3191E+03
      2.023  0.4889E+02  0.4534E+02  0.3222E+03  0.3218E+03
      2.082  0.4920E+02  0.4753E+02  0.3251E+03  0.3246E+03
      2.140  0.3611E+02  0.4076E+02  0.3273E+03  0.3270E+03
      2.199  0.3999E+02  0.3508E+02  0.3296E+03  0.3291E+03
      2.258  0.4558E+02  0.4841E+02  0.3323E+03  0.3319E+03
      2.317  0.4459E+02  0.4367E+02  0.3349E+03  0.3345E+03
      2.376  0.4098E+02  0.4444E+02  0.3373E+03  0.3371E+03
      2.434  0.4115E+02  0.3549E+02  0.3397E+03  0.3392E+03
      2.493  0.3378E+02  0.3298E+02  0.3417E+03  0.3411E+03
      2.552  0.3461E+02  0.3778E+02  0.3438E+03  0.3433E+03
      2.611  0.4057E+02  0.4019E+02  0.3461E+03  0.3457E+03
      2.669  0.4758E+02  0.4531E+02  0.3489E+03  0.3484E+03
      2.728  0.3591E+02  0.3610E+02  0.3510E+03  0.3505E+03
      2.787  0.2096E+02  0.2449E+02  0.3523E+03  0.3519E+03
      2.846  0.5309E+02  0.4864E+02  0.3554E+03  0.3548E+03
      2.905  0.3232E+02  0.3486E+02  0.3573E+03  0.3568E+03
      2.963  0.3568E+02  0.3265E+02  0.3594E+03  0.3587E+03
      3.022  0.5887E+02  0.5438E+02  0.3629E+03  0.3619E+03
      3.081  0.3040E+02  0.3885E+02  0.3646E+03  0.3642E+03
      3.140  0.3699E+02  0.3718E+02  0.3668E+03  0.3664E+03
      3.198  0.4879E+02  0.4608E+02  0.3697E+03  0.3691E+03
      3.257  0.1834E+02  0.1779E+02  0.3708E+03  0.3702E+03
      3.316  0.5398E+02  0.5509E+02  0.3739E+03  0.3734E+03
      3.375  0.3765E+02  0.3784E+02  0.3762E+03  0.3756E+03
      3.434  0.3430E+02  0.3250E+02  0.3782E+03  0.3775E+03
      3.492  0.3679E+02  0.3786E+02  0.3803E+03  0.3798E+03
      3.551  0.4054E+02  0.4036E+02  0.3827E+03  0.3821E+03
      3.610  0.4243E+02  0.3843E+02  0.3852E+03  0.3844E+03
      3.669  0.4704E+02  0.5235E+02  0.3880E+03  0.3875E+03
      3.727  0.4022E+02  0.4295E+02  0.3903E+03  0.3900E+03
      3.786  0.4339E+02  0.3849E+02  0.3929E+03  0.3923E+03
      3.845  0.3573E+02  0.3609E+02  0.3950E+03  0.3944E+03
      3.904  0.3939E+02  0.4269E+02  0.3973E+03  0.3969E+03
      3.962  0.3817E+02  0.4027E+02  0.3995E+03  0.3993E+03
      4.021  0.4992E+02  0.4610E+02  0.4025E+03  0.4020E+03
      4.080  0.2909E+02  0.3226E+02  0.4042E+03  0.4039E+03
      4.139  0.3472E+02  0.3359E+02  0.4062E+03  0.4058E+03
      4.198  0.3587E+02  0.3329E+02  0.4083E+03  0.4078E+03
      4.256  0.5004E+02  0.4744E+02  0.4113E+03  0.4106E+03
      4.315  0.5022E+02  0.5529E+02  0.4142E+03  0.4138E+03
      4.374  0.4558E+02  0.4800E+02  0.4169E+03  0.4166E+03
      4.433  0.5123E+02  0.4636E+02  0.4199E+03  0.4194E+03
      4.491  0.2392E+02  0.2955E+02  0.4213E+03  0.4211E+03
      4.550  0.3885E+02  0.3148E+02  0.4236E+03  0.4230E+03
      4.609  0.4802E+02  0.4804E+02  0.4264E+03  0.4258E+03
      4.668  0.3987E+02  0.4085E+02  0.4288E+03  0.4282E+03
      4.727  0.2824E+02  0.3437E+02  0.4304E+03  0.4302E+03
      4.785  0.4036E+02  0.3678E+02  0.4328E+03  0.4324E+03
      4.844  0.4177E+02  0.4143E+02  0.4353E+03  0.4348E+03
      4.903  0.4426E+02  0.4743E+02  0.4379E+03  0.4376E+03
      4.962  0.3447E+02  0.3164E+02  0.4399E+03  0.4395E+03
      5.020  0.1582E+02  0.2194E+02  0.4408E+03  0.4407E+03
      5.079  0.3239E+02  0.2772E+02  0.4427E+03  0.4424E+03
      5.138  0.4640E+02  0.4241E+02  0.4455E+03  0.4449E+03
      5.197  0.4768E+02  0.4718E+02  0.4483E+03  0.4476E+03
      5.256  0.3857E+02  0.4479E+02  0.4505E+03  0.4503E+03
      5.314  0.3205E+02  0.2749E+02  0.4524E+03  0.4519E+03
      5.373  0.5291E+02  0.5457E+02  0.4555E+03  0.4551E+03
      5.432  0.3441E+02  0.3695E+02  0.4575E+03  0.4573E+03
      5.491  0.5036E+02  0.4532E+02  0.4605E+03  0.4599E+03
      5.549  0.3019E+02  0.3782E+02  0.4623E+03  0.4622E+03
      5.608  0.2440E+02  0.2066E+02  0.4637E+03  0.4634E+03
      5.667  0.5014E+01  0.1080E+02  0.4640E+03  0.4640E+03
      5.726  0.0000E+00  0.0000E+00  0.4640E+03  0.4640E+03
      5.785  0.0000E+00  0.0000E+00  0.4640E+03  0.4640E+03
      5.843  0.0000E+00  0.0000E+00  0.4640E+03  0.4640E+03
      5.902  0.0000E+00  0.0000E+00  0.4640E+03  0.4640E+03
      5.961  0.0000E+00  0.0000E+00  0.4640E+03  0.4640E+03
      6.020  0.0000E+00  0.0000E+00  0.4640E+03  0.4640E+03
      6.078  0.0000E+00  0.0000E+00  0.4640E+03  0.4640E+03
      6.137  0.0000E+00  0.0000E+00  0.4640E+03  0.4640E+03
      6.196  0.0000E+00  0.0000E+00  0.4640E+03  0.4640E+03
      6.255  0.0000E+00  0.0000E+00  0.4640E+03  0.4640E+03
      6.314  0.0000E+00  0.0000E+00  0.4640E+03  0.4640E+03
      6.372  0.0000E+00  0.0000E+00  0.4640E+03  0.4640E+03
      6.431  0.0000E+00  0.0000E+00  0.4640E+03  0.4640E+03
