 vasp.6.4.3 19Mar24 (build Oct 22 2024 11:23:12) complex                        
  
 executed on             LinuxIFC date 2025.06.09  17:10:35
 running   64 mpi-ranks, on    4 nodes
 distrk:  each k-point on   64 cores,    1 groups
 distr:  one band on NCORE=  16 cores,    4 groups


--------------------------------------------------------------------------------------------------------


 INCAR:
   SYSTEM = Si and Ge interface calculation
   ISTART = 0
   ICHARG = 2
   LWAVE = .FALSE.
   LREAL = AUTO
   ENCUT = 700
   ENAUG = 900
   ADDGRID = .TRUE.
   LMAXMIX = 6
   LASPH = .TRUE.
   LMIXTAU = .TRUE.
   NCORE = 16
   NELM = 100
   NBANDS = 548
   EDIFF = 1d-7
   AMIX = 0.6
   ISMEAR = 0
   SIGMA = 0.01
   NELECT = 912
   ISPIN = 2
   NUPDOWN = 1
   LVTOT = .FALSE.
   LVHAR = .TRUE.

 POTCAR:    PAW_PBE Ge 05Jan2001                  
 POTCAR:    PAW_PBE Si 05Jan2001                  
 -----------------------------------------------------------------------------
|                                                                             |
|           W    W    AA    RRRRR   N    N  II  N    N   GGGG   !!!           |
|           W    W   A  A   R    R  NN   N  II  NN   N  G    G  !!!           |
|           W    W  A    A  R    R  N N  N  II  N N  N  G       !!!           |
|           W WW W  AAAAAA  RRRRR   N  N N  II  N  N N  G  GGG   !            |
|           WW  WW  A    A  R   R   N   NN  II  N   NN  G    G                |
|           W    W  A    A  R    R  N    N  II  N    N   GGGG   !!!           |
|                                                                             |
|     You use a magnetic or noncollinear calculation, but did not specify     |
|     the initial magnetic moment with the MAGMOM tag. Note that a            |
|     default of 4.386e-3 will be used for all atoms. This ferromagnetic      |
|     setup may break the symmetry of the crystal, in particular it may       |
|     rule out finding an antiferromagnetic solution. Thence, we              |
|     recommend setting the initial magnetic moment manually or verifying     |
|     carefully that this magnetic setup is desired.                          |
|                                                                             |
 -----------------------------------------------------------------------------

 POTCAR:    PAW_PBE Ge 05Jan2001                  
   VRHFIN =Ge: s2p2                                                                                 
   LEXCH  = PE                                                                                      
   EATOM  =   104.9960 eV,    7.7170 Ry                                                             
                                                                                                    
   TITEL  = PAW_PBE Ge 05Jan2001                                                                    
   LULTRA =        F    use ultrasoft PP ?                                                          
   IUNSCR =        1    unscreen: 0-lin 1-nonlin 2-no                                               
   RPACOR =    2.170    partial core radius                                                         
   POMASS =   72.610; ZVAL   =    4.000    mass and valenz                                          
   RCORE  =    2.300    outmost cutoff radius                                                       
   RWIGS  =    2.300; RWIGS  =    1.217    wigner-seitz radius (au A)                               
   ENMAX  =  173.807; ENMIN  =  130.355 eV                                                          
   ICORE  =        3    local potential                                                             
   LCOR   =        T    correct aug charges                                                         
   LPAW   =        T    paw PP                                                                      
   EAUG   =  385.843                                                                                
   DEXC   =    0.000                                                                                
   RMAX   =    2.342    core radius for proj-oper                                                   
   RAUG   =    1.300    factor for augmentation sphere                                              
   RDEP   =    2.318    radius for radial grids                                                     
   RDEPT  =    2.103    core radius for aug-charge                                                  
                                                                                                    
   Atomic configuration                                                                             
   10 entries                                                                                       
     n  l   j            E        occ.                                                              
     1  0  0.50    -10959.8463   2.0000                                                             
     2  0  0.50     -1371.6056   2.0000                                                             
     2  1  1.50     -1198.4791   6.0000                                                             
     3  0  0.50      -168.4733   2.0000                                                             
     3  1  1.50      -115.6019   6.0000                                                             
     3  2  2.50       -29.3106  10.0000                                                             
     4  0  0.50       -11.7309   2.0000                                                             
     4  1  0.50        -3.8952   2.0000                                                             
     4  2  1.50        -4.0817   0.0000                                                             
     4  3  2.50        -4.0817   0.0000                                                             
   Description                                                                                      
     l       E           TYP  RCUT    TYP  RCUT                                                     
     0    -11.7309493     23  2.300                                                                 
     0     -7.4578696     23  2.300                                                                 
     1     -3.8952261     23  2.300                                                                 
     1      6.1178114     23  2.300                                                                 
     2     -4.0817478     23  2.300                                                                 
     3     -1.3605826      7  2.300                                                                 
  local pseudopotential read in
  partial core-charges read in
  partial kinetic energy density read in
  atomic valenz-charges read in
  non local Contribution for L=           0  read in
    real space projection operators read in
  non local Contribution for L=           0  read in
    real space projection operators read in
  non local Contribution for L=           1  read in
    real space projection operators read in
  non local Contribution for L=           1  read in
    real space projection operators read in
  non local Contribution for L=           2  read in
    real space projection operators read in
    PAW grid and wavefunctions read in
 
   number of l-projection  operators is LMAX  =           5
   number of lm-projection operators is LMMAX =          13
 
 POTCAR:    PAW_PBE Si 05Jan2001                  
   VRHFIN =Si: s2p2                                                                                 
   LEXCH  = PE                                                                                      
   EATOM  =   103.0669 eV,    7.5752 Ry                                                             
                                                                                                    
   TITEL  = PAW_PBE Si 05Jan2001                                                                    
   LULTRA =        F    use ultrasoft PP ?                                                          
   IUNSCR =        1    unscreen: 0-lin 1-nonlin 2-no                                               
   RPACOR =    1.500    partial core radius                                                         
   POMASS =   28.085; ZVAL   =    4.000    mass and valenz                                          
   RCORE  =    1.900    outmost cutoff radius                                                       
   RWIGS  =    2.480; RWIGS  =    1.312    wigner-seitz radius (au A)                               
   ENMAX  =  245.345; ENMIN  =  184.009 eV                                                          
   ICORE  =        2    local potential                                                             
   LCOR   =        T    correct aug charges                                                         
   LPAW   =        T    paw PP                                                                      
   EAUG   =  322.069                                                                                
   DEXC   =    0.000                                                                                
   RMAX   =    1.950    core radius for proj-oper                                                   
   RAUG   =    1.300    factor for augmentation sphere                                              
   RDEP   =    1.993    radius for radial grids                                                     
   RDEPT  =    1.837    core radius for aug-charge                                                  
                                                                                                    
   Atomic configuration                                                                             
    6 entries                                                                                       
     n  l   j            E        occ.                                                              
     1  0  0.50     -1785.8828   2.0000                                                             
     2  0  0.50      -139.4969   2.0000                                                             
     2  1  1.50       -95.5546   6.0000                                                             
     3  0  0.50       -10.8127   2.0000                                                             
     3  1  0.50        -4.0811   2.0000                                                             
     3  2  1.50        -4.0817   0.0000                                                             
   Description                                                                                      
     l       E           TYP  RCUT    TYP  RCUT                                                     
     0    -10.8127223     23  1.900                                                                 
     0     -7.6451159     23  1.900                                                                 
     1     -4.0811372     23  1.900                                                                 
     1      2.4879257     23  1.900                                                                 
     2     -4.0817478      7  1.900                                                                 
  local pseudopotential read in
  partial core-charges read in
  partial kinetic energy density read in
  atomic valenz-charges read in
  non local Contribution for L=           0  read in
    real space projection operators read in
  non local Contribution for L=           0  read in
    real space projection operators read in
  non local Contribution for L=           1  read in
    real space projection operators read in
  non local Contribution for L=           1  read in
    real space projection operators read in
    PAW grid and wavefunctions read in
 
   number of l-projection  operators is LMAX  =           4
   number of lm-projection operators is LMMAX =           8
 
 Optimization of the real space projectors (new method)

 maximal supplied QI-value         = 16.25
 optimisation between [QCUT,QGAM] = [ 13.49, 26.98] = [ 50.95,203.80] Ry 
 Optimized for a Real-space Cutoff    1.25 Angstroem

   l    n(q)    QCUT    max X(q) W(low)/X(q) W(high)/X(q)  e(spline) 
   0     10    13.489    65.336    0.91E-04    0.11E-03    0.34E-06
   0     10    13.489    52.220    0.89E-04    0.11E-03    0.34E-06
   1     10    13.489    36.409    0.22E-03    0.27E-03    0.14E-06
   1     10    13.489    21.334    0.21E-03    0.27E-03    0.14E-06
   2      9    13.489     4.673    0.11E-03    0.12E-03    0.19E-06
 Optimization of the real space projectors (new method)

 maximal supplied QI-value         = 19.84
 optimisation between [QCUT,QGAM] = [ 13.49, 26.99] = [ 50.98,203.92] Ry 
 Optimized for a Real-space Cutoff    1.07 Angstroem

   l    n(q)    QCUT    max X(q) W(low)/X(q) W(high)/X(q)  e(spline) 
   0      9    13.493   159.560    0.22E-03    0.15E-03    0.72E-07
   0      9    13.493   115.863    0.21E-03    0.15E-03    0.71E-07
   1      8    13.493    88.339    0.15E-03    0.11E-03    0.13E-06
   1      8    13.493    48.592    0.15E-03    0.10E-03    0.13E-06
  PAW_PBE Ge 05Jan2001                  :
 energy of atom  1       EATOM= -104.9960
 kinetic energy error for atom=    0.0001 (will be added to EATOM!!)
  PAW_PBE Si 05Jan2001                  :
 energy of atom  2       EATOM= -103.0669
 kinetic energy error for atom=    0.0003 (will be added to EATOM!!)
 
 
 POSCAR: Ge+Si
  positions in direct lattice
  No initial velocities read in


 exchange-correlation table for PE
   RHO(1)=    0.500       N(1)  =     2000
   RHO(2)=  100.500       N(2)  =     4000
 


--------------------------------------------------------------------------------------------------------


 ion  position               nearest neighbor table
   1  0.994  0.667  0.000- 207 2.10  31 2.45 100 2.45
   2  0.828  0.667  0.158-  32 2.45 100 2.45  49 2.45 101 2.45
   3  0.661  0.667  0.317-  50 2.45  33 2.45 101 2.45 102 2.45
   4  0.994  0.333  0.000- 103 2.45  34 2.45 147 2.99 210 3.02
   5  0.828  0.333  0.158-  35 2.45 103 2.45  52 2.45 104 2.45
   6  0.661  0.333  0.317-  53 2.45 104 2.45  36 2.45 105 2.45
   7  0.994  0.000  0.000- 106 2.45  28 2.45 204 2.48
   8  0.828  0.000  0.158- 106 2.45  29 2.45 107 2.45  46 2.45
   9  0.661  0.000  0.317- 107 2.45 108 2.45  47 2.45  30 2.45
  10  0.328  0.667  0.000-  40 2.45  82 2.45
  11  0.161  0.667  0.158-  31 2.45  41 2.45  82 2.45  83 2.45
  12  0.994  0.667  0.317-  42 2.45  32 2.45  84 2.45  83 2.45
  13  0.328  0.333  0.000- 156 2.09  43 2.45  85 2.45
  14  0.161  0.333  0.158-  34 2.45  44 2.45  85 2.45  86 2.45
  15  0.994  0.333  0.317-  45 2.45  35 2.45  87 2.45  86 2.45
  16  0.328  0.000  0.000- 159 2.42  88 2.45  37 2.45
  17  0.161  0.000  0.158-  88 2.45  89 2.45  28 2.45  38 2.45
  18  0.994  0.000  0.317-  90 2.45  89 2.45  39 2.45  29 2.45
  19  0.661  0.667  0.000- 228 2.41  91 2.45  49 2.45
  20  0.494  0.667  0.158-  40 2.45  50 2.45  92 2.45  91 2.45
  21  0.328  0.667  0.317-  41 2.45  51 2.45  93 2.45  92 2.45
  22  0.661  0.333  0.000-  94 2.45  52 2.45 165 2.49
  23  0.494  0.333  0.158-  95 2.45  43 2.45  53 2.45  94 2.45
  24  0.328  0.333  0.317-  96 2.45  44 2.45  54 2.45  95 2.45
  25  0.661  0.000  0.000-  97 2.45  46 2.45 225 2.74 168 2.77
  26  0.494  0.000  0.158-  98 2.45  97 2.45  37 2.45  47 2.45
  27  0.328  0.000  0.317-  99 2.45  98 2.45  38 2.45  48 2.45
  28  0.078  0.917  0.079-  55 2.45  56 2.45  17 2.45   7 2.45
  29  0.911  0.917  0.238-  57 2.45   8 2.45  18 2.45  56 2.45
  30  0.744  0.917  0.396- 133 2.36  57 2.45   9 2.45
  31  0.078  0.583  0.079-  11 2.45   1 2.45  58 2.45  59 2.45
  32  0.911  0.583  0.238-   2 2.45  12 2.45  60 2.45  59 2.45
  33  0.744  0.583  0.396- 136 2.33   3 2.45  60 2.45
  34  0.078  0.250  0.079-  14 2.45  61 2.45  62 2.45   4 2.45
  35  0.911  0.250  0.238-   5 2.45  63 2.45  15 2.45  62 2.45
  36  0.744  0.250  0.396-  63 2.45   6 2.45 193 2.73
  37  0.411  0.917  0.079-  65 2.45  64 2.45  16 2.45  26 2.45
  38  0.244  0.917  0.238-  66 2.45  65 2.45  17 2.45  27 2.45
  39  0.078  0.917  0.396- 112 2.41  66 2.45  18 2.45
  40  0.411  0.583  0.079-  10 2.45  20 2.45  68 2.45  67 2.45
  41  0.244  0.583  0.238-  11 2.45  21 2.45  69 2.45  68 2.45
  42  0.078  0.583  0.396- 115 2.38  12 2.45  69 2.45
  43  0.411  0.250  0.079-  13 2.45  71 2.45  23 2.45  70 2.45
  44  0.244  0.250  0.238-  14 2.45  72 2.45  24 2.45  71 2.45
  45  0.078  0.250  0.396-  15 2.45  72 2.45 175 2.64
  46  0.744  0.917  0.079-  73 2.45  74 2.45   8 2.45  25 2.45
  47  0.578  0.917  0.238-  75 2.45  74 2.45  26 2.45   9 2.45
  48  0.411  0.917  0.396-  75 2.45  27 2.45 187 2.66
  49  0.744  0.583  0.079-   2 2.45  19 2.45  76 2.45  77 2.45
  50  0.578  0.583  0.238-  20 2.45   3 2.45  78 2.45  77 2.45
  51  0.411  0.583  0.396-  21 2.45  78 2.45 181 2.71
  52  0.744  0.250  0.079-  79 2.45  80 2.45   5 2.45  22 2.45
  53  0.578  0.250  0.238-  81 2.45  23 2.45   6 2.45  80 2.45
  54  0.411  0.250  0.396- 184 2.00  24 2.45  81 2.45
  55  0.161  0.833  0.000-  82 2.45  28 2.45 150 2.49
  56  0.994  0.833  0.158- 100 2.45  83 2.45  28 2.45  29 2.45
  57  0.828  0.833  0.317- 101 2.45  84 2.45  29 2.45  30 2.45
  58  0.161  0.500  0.000-  85 2.45  31 2.45 210 2.74 153 2.77
  59  0.994  0.500  0.158- 103 2.45  86 2.45  31 2.45  32 2.45
  60  0.828  0.500  0.317- 104 2.45  87 2.45  32 2.45  33 2.45
  61  0.161  0.167  0.000- 213 2.41  88 2.45  34 2.45
  62  0.994  0.167  0.158- 106 2.45  89 2.45  34 2.45  35 2.45
  63  0.828  0.167  0.317-  35 2.45 107 2.45  90 2.45  36 2.45
  64  0.494  0.833  0.000-  37 2.45  91 2.45 162 2.99 225 3.02
  65  0.328  0.833  0.158-  82 2.45  37 2.45  38 2.45  92 2.45
  66  0.161  0.833  0.317-  83 2.45  93 2.45  38 2.45  39 2.45
  67  0.494  0.500  0.000-  94 2.45  40 2.45 219 2.48
  68  0.328  0.500  0.158-  85 2.45  95 2.45  40 2.45  41 2.45
  69  0.161  0.500  0.317-  86 2.45  96 2.45  41 2.45  42 2.45
  70  0.494  0.167  0.000- 222 2.10  43 2.45  97 2.45
  71  0.328  0.167  0.158-  88 2.45  43 2.45  44 2.45  98 2.45
  72  0.161  0.167  0.317-  89 2.45  44 2.45  45 2.45  99 2.45
  73  0.828  0.833  0.000- 141 2.09 100 2.45  46 2.45
  74  0.661  0.833  0.158-  91 2.45 101 2.45  46 2.45  47 2.45
  75  0.494  0.833  0.317-  92 2.45 102 2.45  47 2.45  48 2.45
  76  0.828  0.500  0.000- 144 2.42 103 2.45  49 2.45
  77  0.661  0.500  0.158-  94 2.45 104 2.45  49 2.45  50 2.45
  78  0.494  0.500  0.317-  95 2.45 105 2.45  50 2.45  51 2.45
  79  0.828  0.167  0.000-  52 2.45 106 2.45
  80  0.661  0.167  0.158-  97 2.45  52 2.45  53 2.45 107 2.45
  81  0.494  0.167  0.317-  98 2.45  53 2.45 108 2.45  54 2.45
  82  0.244  0.750  0.079-  65 2.45  11 2.45  55 2.45  10 2.45
  83  0.078  0.750  0.238-  66 2.45  56 2.45  12 2.45  11 2.45
  84  0.911  0.750  0.396- 169 2.00  57 2.45  12 2.45
  85  0.244  0.417  0.079-  68 2.45  58 2.45  14 2.45  13 2.45
  86  0.078  0.417  0.238-  69 2.45  59 2.45  15 2.45  14 2.45
  87  0.911  0.417  0.396-  60 2.45  15 2.45 172 2.66
  88  0.244  0.083  0.079-  71 2.45  61 2.45  17 2.45  16 2.45
  89  0.078  0.083  0.238-  72 2.45  62 2.45  18 2.45  17 2.45
  90  0.911  0.083  0.396-  63 2.45  18 2.45 196 2.71
  91  0.578  0.750  0.079-  74 2.45  19 2.45  20 2.45  64 2.45
  92  0.411  0.750  0.238-  75 2.45  20 2.45  21 2.45  65 2.45
  93  0.244  0.750  0.396-  21 2.45  66 2.45 178 2.73
  94  0.578  0.417  0.079-  77 2.45  22 2.45  67 2.45  23 2.45
  95  0.411  0.417  0.238-  78 2.45  23 2.45  68 2.45  24 2.45
  96  0.244  0.417  0.396- 118 2.36  24 2.45  69 2.45
  97  0.578  0.083  0.079-  80 2.45  25 2.45  26 2.45  70 2.45
  98  0.411  0.083  0.238-  81 2.45  26 2.45  27 2.45  71 2.45
  99  0.244  0.083  0.396- 121 2.33  27 2.45  72 2.45
 100  0.911  0.750  0.079-  56 2.45   2 2.45   1 2.45  73 2.45
 101  0.744  0.750  0.238-  57 2.45   3 2.45  74 2.45   2 2.45
 102  0.578  0.750  0.396-  75 2.45   3 2.45 190 2.64
 103  0.911  0.417  0.079-  59 2.45   5 2.45   4 2.45  76 2.45
 104  0.744  0.417  0.238-  60 2.45  77 2.45   6 2.45   5 2.45
 105  0.578  0.417  0.396- 127 2.41  78 2.45   6 2.45
 106  0.911  0.083  0.079-  62 2.45   8 2.45   7 2.45  79 2.45
 107  0.744  0.083  0.238-  63 2.45   9 2.45  80 2.45   8 2.45
 108  0.578  0.083  0.396- 130 2.38  81 2.45   9 2.45
 109  0.908  0.253  0.508- 226 2.33 142 2.33
 110  0.858  0.903  0.660- 166 2.33 143 2.33 227 2.33 199 2.33
 111  0.808  0.553  0.812- 167 2.33 228 2.33 144 2.33 200 2.33
 112  0.008  0.953  0.508- 145 2.33 199 2.33  39 2.41
 113  0.958  0.603  0.660- 139 2.33 200 2.33 202 2.33 146 2.33
 114  0.908  0.253  0.812- 201 2.33 147 2.33 140 2.33 203 2.33
 115  0.108  0.653  0.508- 202 2.33 148 2.33  42 2.38
 116  0.058  0.303  0.660- 149 2.33 142 2.33 205 2.33 203 2.33
 117  0.008  0.953  0.812- 150 2.33 143 2.33 204 2.33 206 2.33
 118  0.208  0.353  0.508- 205 2.33 151 2.33  96 2.36
 119  0.158  0.003  0.660- 145 2.33 206 2.33 152 2.33 208 2.33
 120  0.108  0.653  0.812- 146 2.33 207 2.33 153 2.33 209 2.33
 121  0.308  0.053  0.508-  99 2.33 208 2.33 154 2.33
 122  0.258  0.703  0.660- 148 2.33 155 2.33 211 2.33 209 2.33
 123  0.208  0.353  0.812- 149 2.33 210 2.33 156 2.33 212 2.33
 124  0.408  0.753  0.508- 211 2.33 157 2.33
 125  0.358  0.403  0.660- 151 2.33 158 2.33 214 2.33 212 2.33
 126  0.308  0.053  0.812- 152 2.33 159 2.33 213 2.33 215 2.33
 127  0.508  0.453  0.508- 214 2.33 160 2.33 105 2.41
 128  0.458  0.103  0.660- 154 2.33 215 2.33 217 2.33 161 2.33
 129  0.408  0.753  0.812- 155 2.33 216 2.33 162 2.33 218 2.33
 130  0.608  0.153  0.508- 163 2.33 217 2.33 108 2.38
 131  0.558  0.803  0.660- 157 2.33 218 2.33 164 2.33 220 2.33
 132  0.508  0.453  0.812- 165 2.33 221 2.33 219 2.33 158 2.33
 133  0.708  0.853  0.508- 166 2.33 220 2.33  30 2.36
 134  0.658  0.503  0.660- 160 2.33 221 2.33 223 2.33 167 2.33
 135  0.608  0.153  0.812- 168 2.33 161 2.33 222 2.33 224 2.33
 136  0.808  0.553  0.508-  33 2.33 139 2.33 223 2.33
 137  0.758  0.203  0.660- 163 2.33 140 2.33 226 2.33 224 2.33
 138  0.708  0.853  0.812- 141 2.33 164 2.33 225 2.33 227 2.33
 139  0.908  0.503  0.584- 113 2.33 136 2.33 172 2.33 170 2.33
 140  0.858  0.153  0.736- 137 2.33 173 2.33 114 2.33 171 2.33
 141  0.808  0.803  0.888-  73 2.09 138 2.33 174 2.33
 142  0.008  0.203  0.584- 173 2.33 116 2.33 109 2.33 175 2.33
 143  0.958  0.853  0.736- 117 2.33 110 2.33 176 2.33 174 2.33
 144  0.908  0.503  0.888- 177 2.33 111 2.33  76 2.42
 145  0.108  0.903  0.584- 119 2.33 178 2.33 112 2.33 176 2.33
 146  0.058  0.553  0.736- 120 2.33 179 2.33 113 2.33 177 2.33
 147  0.008  0.203  0.888- 180 2.33 114 2.33   4 2.99
 148  0.208  0.603  0.584- 181 2.33 122 2.33 115 2.33 179 2.33
 149  0.158  0.253  0.736- 123 2.33 116 2.33 182 2.33 180 2.33
 150  0.108  0.903  0.888- 117 2.33 183 2.33  55 2.49
 151  0.308  0.303  0.584- 125 2.33 182 2.33 118 2.33 184 2.33
 152  0.258  0.953  0.736- 126 2.33 119 2.33 185 2.33 183 2.33
 153  0.208  0.603  0.888- 120 2.33 186 2.33  58 2.77
 154  0.408  0.003  0.584- 128 2.33 187 2.33 121 2.33 185 2.33
 155  0.358  0.653  0.736- 188 2.33 129 2.33 122 2.33 186 2.33
 156  0.308  0.303  0.888-  13 2.09 189 2.33 123 2.33
 157  0.508  0.703  0.584- 190 2.33 131 2.33 124 2.33 188 2.33
 158  0.458  0.353  0.736- 125 2.33 189 2.33 191 2.33 132 2.33
 159  0.408  0.003  0.888- 192 2.33 126 2.33  16 2.42
 160  0.608  0.403  0.584- 134 2.33 193 2.33 127 2.33 191 2.33
 161  0.558  0.053  0.736- 135 2.33 194 2.33 128 2.33 192 2.33
 162  0.508  0.703  0.888- 195 2.33 129 2.33  64 2.99
 163  0.708  0.103  0.584- 137 2.33 130 2.33 196 2.33 194 2.33
 164  0.658  0.753  0.736- 138 2.33 197 2.33 131 2.33 195 2.33
 165  0.608  0.403  0.888- 132 2.33 198 2.33  22 2.49
 166  0.808  0.803  0.584- 110 2.33 133 2.33 197 2.33 169 2.33
 167  0.758  0.453  0.736- 111 2.33 170 2.33 198 2.33 134 2.33
 168  0.708  0.103  0.888- 135 2.33 171 2.33  25 2.77
 169  0.908  0.753  0.508-  84 2.00 166 2.33 202 2.33
 170  0.858  0.403  0.660- 167 2.33 226 2.33 203 2.33 139 2.33
 171  0.808  0.053  0.812- 204 2.33 168 2.33 227 2.33 140 2.33
 172  0.008  0.453  0.508- 205 2.33 139 2.33  87 2.66
 173  0.958  0.103  0.660- 199 2.33 140 2.33 142 2.33 206 2.33
 174  0.908  0.753  0.812- 200 2.33 207 2.33 141 2.33 143 2.33
 175  0.108  0.153  0.508- 208 2.33 142 2.33  45 2.64
 176  0.058  0.803  0.660- 202 2.33 209 2.33 143 2.33 145 2.33
 177  0.008  0.453  0.812- 210 2.33 203 2.33 144 2.33 146 2.33
 178  0.208  0.853  0.508- 211 2.33 145 2.33  93 2.73
 179  0.158  0.503  0.660- 205 2.33 146 2.33 212 2.33 148 2.33
 180  0.108  0.153  0.812- 206 2.33 213 2.33 147 2.33 149 2.33
 181  0.308  0.553  0.508- 148 2.33 214 2.33  51 2.71
 182  0.258  0.203  0.660- 208 2.33 215 2.33 151 2.33 149 2.33
 183  0.208  0.853  0.812- 209 2.33 150 2.33 216 2.33 152 2.33
 184  0.408  0.253  0.508-  54 2.00 217 2.33 151 2.33
 185  0.358  0.903  0.660- 211 2.33 218 2.33 152 2.33 154 2.33
 186  0.308  0.553  0.812- 212 2.33 219 2.33 153 2.33 155 2.33
 187  0.508  0.953  0.508- 154 2.33 220 2.33  48 2.66
 188  0.458  0.603  0.660- 155 2.33 214 2.33 157 2.33 221 2.33
 189  0.408  0.253  0.812- 156 2.33 222 2.33 215 2.33 158 2.33
 190  0.608  0.653  0.508- 157 2.33 223 2.33 102 2.64
 191  0.558  0.303  0.660- 217 2.33 224 2.33 158 2.33 160 2.33
 192  0.508  0.953  0.812- 218 2.33 159 2.33 225 2.33 161 2.33
 193  0.708  0.353  0.508- 160 2.33 226 2.33  36 2.73
 194  0.658  0.003  0.660- 220 2.33 161 2.33 227 2.33 163 2.33
 195  0.608  0.653  0.812- 228 2.33 221 2.33 162 2.33 164 2.33
 196  0.808  0.053  0.508- 199 2.33 163 2.33  90 2.71
 197  0.758  0.703  0.660- 200 2.33 166 2.33 164 2.33 223 2.33
 198  0.708  0.353  0.812- 201 2.33 165 2.33 224 2.33 167 2.33
 199  0.908  0.003  0.584- 173 2.33 196 2.33 110 2.33 112 2.33
 200  0.858  0.653  0.736- 174 2.33 197 2.33 113 2.33 111 2.33
 201  0.808  0.303  0.888- 198 2.33 114 2.33
 202  0.008  0.703  0.584- 176 2.33 113 2.33 115 2.33 169 2.33
 203  0.958  0.353  0.736- 177 2.33 170 2.33 114 2.33 116 2.33
 204  0.908  0.003  0.888- 171 2.33 117 2.33   7 2.48
 205  0.108  0.403  0.584- 179 2.33 118 2.33 172 2.33 116 2.33
 206  0.058  0.053  0.736- 180 2.33 119 2.33 173 2.33 117 2.33
 207  0.008  0.703  0.888-   1 2.10 120 2.33 174 2.33
 208  0.208  0.103  0.584- 175 2.33 182 2.33 121 2.33 119 2.33
 209  0.158  0.753  0.736- 183 2.33 176 2.33 122 2.33 120 2.33
 210  0.108  0.403  0.888- 177 2.33 123 2.33  58 2.74   4 3.02
 211  0.308  0.803  0.584- 185 2.33 178 2.33 124 2.33 122 2.33
 212  0.258  0.453  0.736- 186 2.33 179 2.33 125 2.33 123 2.33
 213  0.208  0.103  0.888- 180 2.33 126 2.33  61 2.41
 214  0.408  0.503  0.584- 188 2.33 125 2.33 127 2.33 181 2.33
 215  0.358  0.153  0.736- 189 2.33 128 2.33 182 2.33 126 2.33
 216  0.308  0.803  0.888- 129 2.33 183 2.33
 217  0.508  0.203  0.584- 191 2.33 184 2.33 130 2.33 128 2.33
 218  0.458  0.853  0.736- 192 2.33 131 2.33 185 2.33 129 2.33
 219  0.408  0.503  0.888- 186 2.33 132 2.33  67 2.48
 220  0.608  0.903  0.584- 194 2.33 187 2.33 133 2.33 131 2.33
 221  0.558  0.553  0.736- 195 2.33 134 2.33 132 2.33 188 2.33
 222  0.508  0.203  0.888-  70 2.10 189 2.33 135 2.33
 223  0.708  0.603  0.584- 134 2.33 197 2.33 190 2.33 136 2.33
 224  0.658  0.253  0.736- 191 2.33 198 2.33 135 2.33 137 2.33
 225  0.608  0.903  0.888- 192 2.33 138 2.33  25 2.74  64 3.02
 226  0.808  0.303  0.584- 109 2.33 170 2.33 193 2.33 137 2.33
 227  0.758  0.953  0.736- 171 2.33 110 2.33 194 2.33 138 2.33
 228  0.708  0.603  0.888- 195 2.33 111 2.33  19 2.41
 
  LATTYP: Found a simple tetragonal cell.
 ALAT       =    16.9734001160
 C/A-ratio  =     1.0522935852
  
  Lattice vectors:
  
 A1 = (  16.9734001160,   0.0000000000,   0.0000000000)
 A2 = (   0.0000000000,  16.9734001160,   0.0000000000)
 A3 = (   0.0000000000,   0.0000000000,  17.8610000610)


Analysis of symmetry for initial positions (statically):
=====================================================================
 Subroutine PRICEL returns following result:
 
  LATTYP: Found a simple tetragonal cell.
 ALAT       =    12.0020066819
 C/A-ratio  =     1.4881678151
  
  Lattice vectors:
  
 A1 = (   8.4866990566,  -8.4867015686,   0.0000000000)
 A2 = (   8.4866990566,   8.4866985474,   0.0000000000)
 A3 = (   0.0000000000,   0.0000000000,  17.8610000610)
 
   2 primitive cells build up your supercell.
 

 Routine SETGRP: Setting up the symmetry group for a 
 simple tetragonal supercell.


 Subroutine GETGRP returns: Found  1 space group operations
 (whereof  1 operations were pure point group operations)
 out of a pool of 16 trial point group operations.


The static configuration has the point symmetry C_1 .


Analysis of symmetry for dynamics (positions and initial velocities):
=====================================================================
 Subroutine PRICEL returns following result:
 
  LATTYP: Found a simple tetragonal cell.
 ALAT       =    12.0020066819
 C/A-ratio  =     1.4881678151
  
  Lattice vectors:
  
 A1 = (   8.4866990566,  -8.4867015686,   0.0000000000)
 A2 = (   8.4866990566,   8.4866985474,   0.0000000000)
 A3 = (   0.0000000000,   0.0000000000,  17.8610000610)
 
   2 primitive cells build up your supercell.
 

 Routine SETGRP: Setting up the symmetry group for a 
 simple tetragonal supercell.


 Subroutine GETGRP returns: Found  1 space group operations
 (whereof  1 operations were pure point group operations)
 out of a pool of 16 trial point group operations.


The dynamic configuration has the point symmetry C_1 .


Analysis of structural, dynamic, and magnetic symmetry:
=====================================================================
 Subroutine PRICEL returns following result:
 
  LATTYP: Found a simple tetragonal cell.
 ALAT       =    12.0020066819
 C/A-ratio  =     1.4881678151
  
  Lattice vectors:
  
 A1 = (   8.4866990566,  -8.4867015686,   0.0000000000)
 A2 = (   8.4866990566,   8.4866985474,   0.0000000000)
 A3 = (   0.0000000000,   0.0000000000,  17.8610000610)
 
   2 primitive cells build up your supercell.
 

 Routine SETGRP: Setting up the symmetry group for a 
 simple tetragonal supercell.


 Subroutine GETGRP returns: Found  1 space group operations
 (whereof  1 operations were pure point group operations)
 out of a pool of 16 trial point group operations.


The overall configuration has the point symmetry C_1 .


 Subroutine INISYM returns: Found  1 space group operations
 (whereof  1 operations are pure point group operations),
 and found     2 'primitive' translations


----------------------------------------------------------------------------------------

                                     Primitive cell                                     

  volume of cell :    2572.8438

  direct lattice vectors                    reciprocal lattice vectors
     8.486699057 -8.486701569  0.000000000     0.058915711 -0.058915715  0.000000000
     8.486699057  8.486698547  0.000000000     0.058915732  0.058915715  0.000000000
     0.000000000  0.000000000 17.861000061     0.000000000  0.000000000  0.055987906

  length of vectors
    12.002006682 12.002004546 17.861000061     0.083319400  0.083319415  0.055987906

  position of ions in fractional coordinates (direct lattice)
     0.327638864  0.660972352  0.000000000
     0.160972248  0.494305677  0.158384174
     0.994305511  0.327638881  0.316768378
     0.660972147  0.327639069  0.000000000
     0.494305531  0.160972036  0.158384174
     0.327638870  0.994305316  0.316768378
     0.994305431  0.994305785  0.000000000
     0.827638814  0.827638753  0.158384174
     0.660972153  0.660972033  0.316768378
     0.660972218  0.994305469  0.000000000
     0.494305571  0.827638763  0.158384174
     0.327638805  0.660972293  0.316768378
     0.994305561  0.660972244  0.000000000
     0.827638854  0.494305480  0.158384174
     0.660972088  0.327639010  0.316768378
     0.327638844  0.327638961  0.000000000
     0.160972167  0.160972225  0.158384174
     0.994305372  0.994305726  0.316768378
     0.994305511  0.327638881  0.000000000
     0.827638789  0.160972427  0.158384174
     0.660972158  0.994305409  0.316768378
     0.327638959  0.994305405  0.000000000
     0.160972237  0.827638979  0.158384174
     0.994305561  0.660972244  0.316768378
     0.660972242  0.660972122  0.000000000
     0.494305520  0.494305696  0.158384174
     0.327638844  0.327638961  0.316768378
     0.160972270  0.994305432  0.079192095
     0.994305496  0.827638955  0.237576291
     0.827638805  0.660972146  0.395960480
     0.494305524  0.660972178  0.079192095
     0.327638750  0.494305701  0.237576291
     0.160972133  0.327639024  0.395960480
     0.827638882  0.327638820  0.079192095
     0.660972108  0.160972343  0.237576291
     0.494305551  0.994305400  0.395960480
     0.494305496  0.327639075  0.079192095
     0.327638835  0.160972056  0.237576291
     0.160972151  0.994305313  0.395960480
     0.827638751  0.994305524  0.079192095
     0.660972089  0.827638802  0.237576291
     0.494305405  0.660972059  0.395960480
     0.160972242  0.660972329  0.079192095
     0.994305565  0.494305592  0.237576291
     0.827638763  0.327638701  0.395960480
     0.827638820  0.660972161  0.079192095
     0.660972151  0.494305433  0.237576291
     0.494305436  0.327639015  0.395960480
     0.160972133  0.327639024  0.079192095
     0.994305397  0.160972229  0.237576291
     0.827638721  0.994305494  0.395960480
     0.494305566  0.994305415  0.079192095
     0.327638897  0.827638687  0.237576291
     0.160972182  0.660972269  0.395960480
     0.654709792  0.160584333  0.507936299
     0.954709777  0.760584310  0.659971476
     0.254709852  0.360584081  0.812006712
     0.054709793  0.960584285  0.507936299
     0.354709747  0.560584411  0.659971476
     0.654709911  0.160583974  0.812006712
     0.454709881  0.760584267  0.507936299
     0.754709867  0.360584127  0.659971476
     0.054709971  0.960583867  0.812006712
     0.854709821  0.560584516  0.507936299
     0.154709807  0.160584019  0.659971476
     0.454709882  0.760583790  0.812006712
     0.254709851  0.360584558  0.507936299
     0.554709897  0.960584240  0.659971476
     0.854709941  0.560584158  0.812006712
     0.404709762  0.410584481  0.583953917
     0.704709985  0.010584222  0.735989094
     0.004709852  0.610584081  0.888024211
     0.804709792  0.210584046  0.583953917
     0.104709806  0.810584232  0.735989094
     0.404709940  0.410584063  0.888024211
     0.204709881  0.010584267  0.583953917
     0.504709956  0.610584038  0.735989094
     0.804709911  0.210583927  0.888024211
     0.604709971  0.810584248  0.583953917
     0.904709897  0.410584287  0.735989094
     0.204709822  0.010583850  0.888024211
     0.004709792  0.610584379  0.583953917
     0.304709926  0.210584329  0.735989094
     0.604709852  0.810583891  0.888024211
     0.154709762  0.660584481  0.507936299
     0.454709777  0.260584310  0.659971476
     0.754709941  0.860583874  0.812006712
     0.554709852  0.460584226  0.507936299
     0.854709747  0.060584291  0.659971476
     0.154709881  0.660584122  0.812006712
     0.954709732  0.260584296  0.507936299
     0.254709897  0.860584097  0.659971476
     0.554709971  0.460583867  0.812006712
     0.354709911  0.060584308  0.507936299
     0.654709807  0.660584019  0.659971476
     0.954709971  0.260584057  0.812006712
     0.754709822  0.860584231  0.507936299
     0.054709867  0.460584388  0.659971476
     0.354709852  0.060583891  0.812006712
     0.904709523  0.910584480  0.583953917
     0.204709777  0.510584310  0.735989094
     0.504709882  0.110583933  0.888024211
     0.304709852  0.710584226  0.583953917
     0.604709776  0.310584262  0.735989094
     0.904709762  0.910584241  0.888024211
     0.704709881  0.510584267  0.583953917
     0.004709956  0.110584038  0.735989094
     0.304709911  0.710583927  0.888024211
     0.104709822  0.310584277  0.583953917
     0.404709807  0.910584019  0.735989094
     0.704709822  0.510583850  0.888024211
     0.504709703  0.110584350  0.583953917
     0.804709747  0.710584150  0.735989094
     0.104709881  0.310583980  0.888024211

  ion indices of the primitive-cell ions
   primitive index   ion index
                 1           1
                 2           2
                 3           3
                 4           4
                 5          65
                 6          66
                 7           7
                 8          68
                 9          69
                10          10
                11          11
                12          12
                13          73
                14          14
                15          15
                16          76
                17          77
                18          18
                19          19
                20          62
                21          21
                22          55
                23          56
                24          57
                25          58
                26          59
                27          60
                28          28
                29          29
                30          96
                31          31
                32          32
                33          33
                34          34
                35          35
                36          93
                37         103
                38          38
                39          39
                40          40
                41          41
                42          42
                43         100
                44         101
                45          45
                46          85
                47          86
                48          87
                49          49
                50          50
                51          51
                52          82
                53          83
                54          84
                55         124
                56         110
                57         111
                58         112
                59         113
                60         129
                61         115
                62         116
                63         117
                64         133
                65         119
                66         120
                67         136
                68         122
                69         138
                70         139
                71         155
                72         141
                73         142
                74         143
                75         144
                76         145
                77         146
                78         147
                79         148
                80         164
                81         150
                82         166
                83         167
                84         153
                85         169
                86         170
                87         186
                88         172
                89         173
                90         174
                91         190
                92         176
                93         177
                94         178
                95         179
                96         195
                97         181
                98         197
                99         183
               100         199
               101         200
               102         216
               103         202
               104         203
               105         204
               106         205
               107         206
               108         207
               109         223
               110         209
               111         210
               112         211
               113         212
               114         228

----------------------------------------------------------------------------------------

 
 
 KPOINTS: Automatic KPOINTS generated             

Automatic generation of k-mesh.
 Grid dimensions read from file:
 generate k-points for:    2    2    2

 Generating k-lattice:

  Cartesian coordinates                     Fractional coordinates (reciprocal lattice)
     0.029457857  0.000000000  0.000000000     0.500000000  0.000000000  0.000000000
     0.000000000  0.029457857  0.000000000     0.000000000  0.500000000  0.000000000
     0.000000000  0.000000000  0.027993953     0.000000000  0.000000000  0.500000000

  Length of vectors
     0.029457857  0.029457857  0.027993953

  Shift w.r.t. Gamma in fractional coordinates (k-lattice)
     0.000000000  0.000000000  0.000000000

 
 Subroutine IBZKPT returns following result:
 ===========================================
 
 Found      8 irreducible k-points:
 
 Following reciprocal coordinates:
            Coordinates               Weight
  0.000000  0.000000  0.000000      1.000000
  0.500000  0.000000  0.000000      1.000000
  0.000000  0.500000  0.000000      1.000000
  0.500000  0.500000  0.000000      1.000000
  0.000000  0.000000  0.500000      1.000000
  0.500000  0.000000  0.500000      1.000000
  0.000000  0.500000  0.500000      1.000000
  0.500000  0.500000  0.500000      1.000000
 
 Following cartesian coordinates:
            Coordinates               Weight
  0.000000  0.000000  0.000000      1.000000
  0.029458  0.000000  0.000000      1.000000
  0.000000  0.029458  0.000000      1.000000
  0.029458  0.029458  0.000000      1.000000
  0.000000  0.000000  0.027994      1.000000
  0.029458  0.000000  0.027994      1.000000
  0.000000  0.029458  0.027994      1.000000
  0.029458  0.029458  0.027994      1.000000
 


--------------------------------------------------------------------------------------------------------




 Dimension of arrays:
   k-points           NKPTS =      8   k-points in BZ     NKDIM =      8   number of bands    NBANDS=    548
   number of dos      NEDOS =    301   number of ions     NIONS =    228
   non local maximal  LDIM  =      5   non local SUM 2l+1 LMDIM =     13
   total plane-waves  NPLWV = ******
   max r-space proj   IRMAX =   2420   max aug-charges    IRDMAX= 127378
   dimension x,y,z NGX =   112 NGY =  112 NGZ =  120
   dimension x,y,z NGXF=   224 NGYF=  224 NGZF=  240
   support grid    NGXF=   448 NGYF=  448 NGZF=  480
   ions per type =             108 120
   NGX,Y,Z   is equivalent  to a cutoff of  10.97, 10.97, 11.17 a.u.
   NGXF,Y,Z  is equivalent  to a cutoff of  21.94, 21.94, 22.34 a.u.

 SYSTEM =  Si and Ge interface calculation         
 POSCAR =  Ge+Si                                   

 Startparameter for this run:
   NWRITE =      2    write-flag & timer
   PREC   = normal    normal or accurate (medium, high low for compatibility)
   ISTART =      0    job   : 0-new  1-cont  2-samecut
   ICHARG =      2    charge: 1-file 2-atom 10-const
   ISPIN  =      2    spin polarized calculation?
   LNONCOLLINEAR =      F non collinear calculations
   LSORBIT =      F    spin-orbit coupling
   INIWAV =      1    electr: 0-lowe 1-rand  2-diag
   LASPH  =      T    aspherical Exc in radial PAW
 Electronic Relaxation 1
   ENCUT  =  700.0 eV  51.45 Ry    7.17 a.u.  36.62 36.62 38.53*2*pi/ulx,y,z
   ENINI  =  700.0     initial cutoff
   ENAUG  =  900.0 eV  augmentation charge cutoff
   NELM   =    100;   NELMIN=  2; NELMDL= -5     # of ELM steps 
   EDIFF  = 0.1E-06   stopping-criterion for ELM
   LREAL  =      T    real-space projection
   NLSPLINE    = F    spline interpolate recip. space projectors
   LCOMPAT=      F    compatible to vasp.4.4
   GGA_COMPAT  = T    GGA compatible to vasp.4.4-vasp.4.6
   LMAXPAW     = -100 max onsite density
   LMAXMIX     =    6 max onsite mixed and CHGCAR
   VOSKOWN=      0    Vosko Wilk Nusair interpolation
   ROPT   =   -0.00050  -0.00050
 Ionic relaxation
   EDIFFG = 0.1E-05   stopping-criterion for IOM
   NSW    =      0    number of steps for IOM
   NBLOCK =      1;   KBLOCK =      1    inner block; outer block 
   IBRION =     -1    ionic relax: 0-MD 1-quasi-New 2-CG
   NFREE  =      0    steps in history (QN), initial steepest desc. (CG)
   ISIF   =      2    stress and relaxation
   IWAVPR =     10    prediction:  0-non 1-charg 2-wave 3-comb
   ISYM   =      2    0-nonsym 1-usesym 2-fastsym
   LCORR  =      T    Harris-Foulkes like correction to forces

   POTIM  = 0.5000    time-step for ionic-motion
   TEIN   =    0.0    initial temperature
   TEBEG  =    0.0;   TEEND  =   0.0 temperature during run
   SMASS  =  -3.00    Nose mass-parameter (am)
   estimated Nose-frequenzy (Omega)   =  0.10E-29 period in steps = 0.13E+47 mass=  -0.658E-26a.u.
   SCALEE = 1.0000    scale energy and forces
   NPACO  =    256;   APACO  = 10.0  distance and # of slots for P.C.
   PSTRESS=    0.0 pullay stress

  Mass of Ions in am
   POMASS =  72.61 28.09
  Ionic Valenz
   ZVAL   =   4.00  4.00
  Atomic Wigner-Seitz radii
   RWIGS  =  -1.00 -1.00
  virtual crystal weights 
   VCA    =   1.00  1.00
   NELECT =     912.0000    total number of electrons
   NUPDOWN=       1.0000    fix difference up-down

 DOS related values:
   EMIN   =  10.00;   EMAX   =-10.00  energy-range for DOS
   EFERMI =   0.00;   METHOD = LEGACY      
   ISMEAR =     0;   SIGMA  =   0.01  broadening in eV -4-tet -1-fermi 0-gaus

 Electronic relaxation 2 (details)
   IALGO  =     38    algorithm
   LDIAG  =      T    sub-space diagonalisation (order eigenvalues)
   LSUBROT=      F    optimize rotation matrix (better conditioning)
   TURBO    =      0    0=normal 1=particle mesh
   IRESTART =      0    0=no restart 2=restart with 2 vectors
   NREBOOT  =      0    no. of reboots
   NMIN     =      0    reboot dimension
   EREF     =   0.00    reference energy to select bands
   IMIX   =      4    mixing-type and parameters
     AMIX     =   0.60;   BMIX     =  1.00
     AMIX_MAG =   2.40;   BMIX_MAG =  1.00
     AMIN     =   0.10
     WC   =   100.;   INIMIX=   1;  MIXPRE=   1;  MAXMIX= -45

 Intra band minimization:
   WEIMIN = 0.0000     energy-eigenvalue tresh-hold
   EBREAK =  0.46E-10  absolut break condition
   DEPER  =   0.30     relativ break condition  

   TIME   =   0.40     timestep for ELM

  volume/ion in A,a.u.               =      22.57       152.30
  Fermi-wavevector in a.u.,A,eV,Ry     =   0.919585  1.737764 11.505588  0.845637
  Thomas-Fermi vector in A             =   2.044795
 
 Write flags
   LWAVE        =      F    write WAVECAR
   LDOWNSAMPLE  =      F    k-point downsampling of WAVECAR
   LCHARG       =      T    write CHGCAR
   LVTOT        =      F    write LOCPOT, total local potential
   LVHAR        =      T    write LOCPOT, Hartree potential only
   WRT_POTENTIAL=  hartree ionic  ! write potential to hdf5 file
   LELF         =      F    write electronic localiz. function (ELF)
   LORBIT       =      0    0 simple, 1 ext, 2 COOP (PROOUT), +10 PAW based schemes


 Dipole corrections
   LMONO      =      F    monopole corrections only (constant potential shift)
   LDIPOL     =      F    correct potential (dipole corrections)
   IDIPOL     =      0    1-x, 2-y, 3-z, 4-all directions 
   EPSILON    =  1.0000000 bulk dielectric constant
   LVACPOTAV  =      F  vacuum potentials using an averaging scheme for the charge density
   VACPOTFLAT =  0.1000000 required flatness to determine vacuum potential
 Exchange correlation treatment:
   GGA     = PE    functional components
   XC_C    = 1    coefficients multiplying the functional components
   LIBXC   =     F    Libxc                    
   VOSKOWN =     0    Vosko Wilk Nusair interpolation
   LHFCALC =     F    Hartree Fock is set to
   LHFONE  =     F    Hartree Fock one center treatment
   AEXX    =    0.0000 exact exchange contribution

 Parameters of functionals:
   PE:
     No parameter
 
 Van der Waals corrections
   IVDW    =     0    specifies the selected vdW correction

 Linear response parameters
   LEPSILON=     F    determine dielectric tensor
   LRPA    =     F    only Hartree local field effects (RPA)
   LNABLA  =     F    use nabla operator in PAW spheres
   LVEL    =     F    velocity operator in full k-point grid
   CSHIFT  =0.1000    complex shift for real part using Kramers Kronig
   OMEGAMAX=  -1.0    maximum frequency
   DEG_THRESHOLD= 0.2000000E-02 threshold for treating states as degnerate
   RTIME   =   -0.100 relaxation time in fs
  (WPLASMAI=    0.000 imaginary part of plasma frequency in eV, 0.658/RTIME)
   DFIELD  = 0.0000000 0.0000000 0.0000000 field for delta impulse in time
 
  Optional k-point grid parameters
   LKPOINTS_OPT  =     F    use optional k-point grid
   KPOINTS_OPT_MODE=     1    mode for optional k-point grid
 
 Orbital magnetization related:
   ORBITALMAG=     F  switch on orbital magnetization
   LCHIMAG   =     F  perturbation theory with respect to B field
   DQ        =  0.001000  dq finite difference perturbation B field
   LLRAUG    =     F  two centre corrections for induced B field
   LBONE     =     F  B-component reconstruction in AE one-centre
   LVGVCALC  =     T  calculate vGv susceptibility
   LVGVAPPL  =     F  apply vGv susceptibility instead of pGv for G=0

 Random number generation:
   RANDOM_GENERATOR = DEFAULT
   PCG_SEED         = not used


--------------------------------------------------------------------------------------------------------


 Static calculation
 charge density and potential will be updated during run
 spin polarized calculation
 Variant of blocked Davidson
 Davidson routine will perform the subspace rotation
 perform sub-space diagonalisation
    after iterative eigenvector-optimisation
 modified Broyden-mixing scheme, WC =      100.0
 initial mixing is a Kerker type mixing with AMIX =  0.6000 and BMIX =      1.0000
 Hartree-type preconditioning will be used
 using additional bands           92
 real space projection scheme for non local part
 use partial core corrections
 calculate Harris-corrections to forces 
   (improved forces if not selfconsistent)
 use gradient corrections 
 use of overlap-Matrix (Vanderbilt PP)
 Gauss-broadening in eV      SIGMA  =   0.01


--------------------------------------------------------------------------------------------------------


  energy-cutoff  :      700.00
  volume of cell :     5145.69
      direct lattice vectors                 reciprocal lattice vectors
    16.973400116  0.000000000  0.000000000     0.058915715  0.000000000  0.000000000
     0.000000000 16.973400116  0.000000000     0.000000000  0.058915715  0.000000000
     0.000000000  0.000000000 17.861000061     0.000000000  0.000000000  0.055987906

  length of vectors
    16.973400116 16.973400116 17.861000061     0.058915715  0.058915715  0.055987906


 
 k-points in units of 2pi/SCALE and weight: Automatic KPOINTS generated             
   0.00000000  0.00000000  0.00000000       0.125
   0.02945786  0.00000000  0.00000000       0.125
   0.00000000  0.02945786  0.00000000       0.125
   0.02945786  0.02945786  0.00000000       0.125
   0.00000000  0.00000000  0.02799395       0.125
   0.02945786  0.00000000  0.02799395       0.125
   0.00000000  0.02945786  0.02799395       0.125
   0.02945786  0.02945786  0.02799395       0.125
 
 k-points in reciprocal lattice and weights: Automatic KPOINTS generated             
   0.00000000  0.00000000  0.00000000       0.125
   0.50000000  0.00000000  0.00000000       0.125
   0.00000000  0.50000000  0.00000000       0.125
   0.50000000  0.50000000  0.00000000       0.125
   0.00000000  0.00000000  0.50000000       0.125
   0.50000000  0.00000000  0.50000000       0.125
   0.00000000  0.50000000  0.50000000       0.125
   0.50000000  0.50000000  0.50000000       0.125
 
 position of ions in fractional coordinates (direct lattice) 
   0.99430549  0.66666657  0.00000000
   0.82763886  0.66666657  0.15838417
   0.66097212  0.66666657  0.31676838
   0.99430549  0.33333328  0.00000000
   0.82763886  0.33333328  0.15838417
   0.66097212  0.33333328  0.31676838
   0.99430549  0.00000000  0.00000000
   0.82763886  0.00000000  0.15838417
   0.66097212  0.00000000  0.31676838
   0.32763880  0.66666657  0.00000000
   0.16097215  0.66666657  0.15838417
   0.99430543  0.66666657  0.31676838
   0.32763880  0.33333328  0.00000000
   0.16097215  0.33333328  0.15838417
   0.99430543  0.33333328  0.31676838
   0.32763880  0.00000000  0.00000000
   0.16097215  0.00000000  0.15838417
   0.99430543  0.00000000  0.31676838
   0.66097212  0.66666657  0.00000000
   0.49430543  0.66666657  0.15838417
   0.32763875  0.66666657  0.31676838
   0.66097212  0.33333328  0.00000000
   0.49430543  0.33333328  0.15838417
   0.32763875  0.33333328  0.31676838
   0.66097212  0.00000000  0.00000000
   0.49430543  0.00000000  0.15838417
   0.32763875  0.00000000  0.31676838
   0.07763884  0.91666657  0.07919210
   0.91097212  0.91666657  0.23757629
   0.74430549  0.91666657  0.39596048
   0.07763884  0.58333331  0.07919210
   0.91097212  0.58333331  0.23757629
   0.74430549  0.58333331  0.39596048
   0.07763884  0.24999995  0.07919210
   0.91097212  0.24999995  0.23757629
   0.74430549  0.24999995  0.39596048
   0.41097209  0.91666657  0.07919210
   0.24430542  0.91666657  0.23757629
   0.07763872  0.91666657  0.39596048
   0.41097209  0.58333331  0.07919210
   0.24430542  0.58333331  0.23757629
   0.07763872  0.58333331  0.39596048
   0.41097209  0.24999995  0.07919210
   0.24430542  0.24999995  0.23757629
   0.07763872  0.24999995  0.39596048
   0.74430549  0.91666657  0.07919210
   0.57763875  0.91666657  0.23757629
   0.41097206  0.91666657  0.39596048
   0.74430549  0.58333331  0.07919210
   0.57763875  0.58333331  0.23757629
   0.41097206  0.58333331  0.39596048
   0.74430549  0.24999995  0.07919210
   0.57763875  0.24999995  0.23757629
   0.41097206  0.24999995  0.39596048
   0.16097216  0.83333319  0.00000000
   0.99430549  0.83333319  0.15838417
   0.82763880  0.83333319  0.31676838
   0.16097216  0.49999991  0.00000000
   0.99430549  0.49999991  0.15838417
   0.82763880  0.49999991  0.31676838
   0.16097216  0.16666664  0.00000000
   0.99430549  0.16666664  0.15838417
   0.82763880  0.16666664  0.31676838
   0.49430543  0.83333319  0.00000000
   0.32763875  0.83333319  0.15838417
   0.16097207  0.83333319  0.31676838
   0.49430543  0.49999991  0.00000000
   0.32763875  0.49999991  0.15838417
   0.16097207  0.49999991  0.31676838
   0.49430543  0.16666664  0.00000000
   0.32763875  0.16666664  0.15838417
   0.16097207  0.16666664  0.31676838
   0.82763880  0.83333319  0.00000000
   0.66097212  0.83333319  0.15838417
   0.49430543  0.83333319  0.31676838
   0.82763880  0.49999991  0.00000000
   0.66097212  0.49999991  0.15838417
   0.49430543  0.49999991  0.31676838
   0.82763880  0.16666664  0.00000000
   0.66097212  0.16666664  0.15838417
   0.49430543  0.16666664  0.31676838
   0.24430546  0.74999988  0.07919210
   0.07763878  0.74999988  0.23757629
   0.91097212  0.74999988  0.39596048
   0.24430546  0.41666663  0.07919210
   0.07763878  0.41666663  0.23757629
   0.91097212  0.41666663  0.39596048
   0.24430546  0.08333333  0.07919210
   0.07763878  0.08333333  0.23757629
   0.91097212  0.08333333  0.39596048
   0.57763886  0.74999988  0.07919210
   0.41097215  0.74999988  0.23757629
   0.24430545  0.74999988  0.39596048
   0.57763886  0.41666663  0.07919210
   0.41097215  0.41666663  0.23757629
   0.24430545  0.41666663  0.39596048
   0.57763886  0.08333333  0.07919210
   0.41097215  0.08333333  0.23757629
   0.24430545  0.08333333  0.39596048
   0.91097218  0.74999988  0.07919210
   0.74430549  0.74999988  0.23757629
   0.57763875  0.74999988  0.39596048
   0.91097218  0.41666663  0.07919210
   0.74430549  0.41666663  0.23757629
   0.57763875  0.41666663  0.39596048
   0.91097218  0.08333333  0.07919210
   0.74430549  0.08333333  0.23757629
   0.57763875  0.08333333  0.39596048
   0.90764689  0.25293720  0.50793630
   0.85764694  0.90293711  0.65997148
   0.80764687  0.55293697  0.81200671
   0.00764704  0.95293725  0.50793630
   0.95764697  0.60293716  0.65997148
   0.90764689  0.25293708  0.81200671
   0.10764706  0.65293717  0.50793630
   0.05764699  0.30293712  0.65997148
   0.00764692  0.95293695  0.81200671
   0.20764697  0.35293716  0.50793630
   0.15764689  0.00293708  0.65997148
   0.10764682  0.65293693  0.81200671
   0.30764699  0.05293727  0.50793630
   0.25764704  0.70293713  0.65997148
   0.20764685  0.35293698  0.81200671
   0.40764701  0.75293720  0.50793630
   0.35764694  0.40293711  0.65997148
   0.30764687  0.05293703  0.81200671
   0.50764704  0.45293716  0.50793630
   0.45764685  0.10293710  0.65997148
   0.40764689  0.75293696  0.81200671
   0.60764718  0.15293729  0.50793630
   0.55764699  0.80293715  0.65997148
   0.50764704  0.45293707  0.81200671
   0.70764708  0.85293722  0.50793630
   0.65764689  0.50293714  0.65997148
   0.60764694  0.15293693  0.81200671
   0.80764711  0.55293721  0.50793630
   0.75764704  0.20293713  0.65997148
   0.70764697  0.85293698  0.81200671
   0.90764701  0.50293720  0.58395392
   0.85764694  0.15293706  0.73598909
   0.80764687  0.80293697  0.88802421
   0.00764692  0.20293713  0.58395392
   0.95764691  0.85293704  0.73598909
   0.90764689  0.50293690  0.88802421
   0.10764706  0.90293717  0.58395392
   0.05764699  0.55293703  0.73598909
   0.00764692  0.20293701  0.88802421
   0.20764708  0.60293710  0.58395392
   0.15764689  0.25293708  0.73598909
   0.10764682  0.90293699  0.88802421
   0.30764699  0.30293715  0.58395392
   0.25764692  0.95293707  0.73598909
   0.20764685  0.60293698  0.88802421
   0.40764713  0.00293720  0.58395392
   0.35764706  0.65293706  0.73598909
   0.30764699  0.30293703  0.88802421
   0.50764704  0.70293713  0.58395392
   0.45764685  0.35293701  0.73598909
   0.40764689  0.00293696  0.88802421
   0.60764718  0.40293717  0.58395392
   0.55764699  0.05293703  0.73598909
   0.50764704  0.70293701  0.88802421
   0.70764708  0.10293722  0.58395392
   0.65764701  0.75293708  0.73598909
   0.60764694  0.40293699  0.88802421
   0.80764699  0.80293715  0.58395392
   0.75764704  0.45293707  0.73598909
   0.70764685  0.10293698  0.88802421
   0.90764701  0.75293720  0.50793630
   0.85764694  0.40293711  0.65997148
   0.80764687  0.05293703  0.81200671
   0.00764704  0.45293719  0.50793630
   0.95764691  0.10293710  0.65997148
   0.90764689  0.75293696  0.81200671
   0.10764706  0.15293717  0.50793630
   0.05764699  0.80293709  0.65997148
   0.00764692  0.45293695  0.81200671
   0.20764708  0.85293716  0.50793630
   0.15764689  0.50293708  0.65997148
   0.10764682  0.15293693  0.81200671
   0.30764699  0.55293715  0.50793630
   0.25764704  0.20293713  0.65997148
   0.20764685  0.85293698  0.81200671
   0.40764701  0.25293708  0.50793630
   0.35764694  0.90293706  0.65997148
   0.30764687  0.55293691  0.81200671
   0.50764704  0.95293719  0.50793630
   0.45764685  0.60293710  0.65997148
   0.40764689  0.25293696  0.81200671
   0.60764694  0.65293717  0.50793630
   0.55764699  0.30293706  0.65997148
   0.50764680  0.95293695  0.81200671
   0.70764708  0.35293716  0.50793630
   0.65764689  0.00293708  0.65997148
   0.60764694  0.65293693  0.81200671
   0.80764711  0.05293727  0.50793630
   0.75764704  0.70293713  0.65997148
   0.70764697  0.35293698  0.81200671
   0.90764689  0.00293732  0.58395392
   0.85764694  0.65293711  0.73598909
   0.80764687  0.30293706  0.88802421
   0.00764704  0.70293719  0.58395392
   0.95764691  0.35293707  0.73598909
   0.90764689  0.00293708  0.88802421
   0.10764706  0.40293717  0.58395392
   0.05764699  0.05293703  0.73598909
   0.00764692  0.70293701  0.88802421
   0.20764697  0.10293722  0.58395392
   0.15764689  0.75293708  0.73598909
   0.10764682  0.40293699  0.88802421
   0.30764699  0.80293727  0.58395392
   0.25764692  0.45293716  0.73598909
   0.20764685  0.10293710  0.88802421
   0.40764701  0.50293714  0.58395392
   0.35764694  0.15293706  0.73598909
   0.30764687  0.80293697  0.88802421
   0.50764704  0.20293713  0.58395392
   0.45764697  0.85293710  0.73598909
   0.40764689  0.50293702  0.88802421
   0.60764706  0.90293723  0.58395392
   0.55764699  0.55293709  0.73598909
   0.50764692  0.20293713  0.88802421
   0.70764697  0.60293710  0.58395392
   0.65764689  0.25293708  0.73598909
   0.60764682  0.90293699  0.88802421
   0.80764699  0.30293715  0.58395392
   0.75764692  0.95293707  0.73598909
   0.70764685  0.60293692  0.88802421
 
 position of ions in cartesian coordinates  (Angst):
  16.87674494 11.31559839  0.00000000
  14.04784561 11.31559839  2.82889974
  11.21894422 11.31559839  5.65780002
  16.87674494  5.65779920  0.00000000
  14.04784561  5.65779920  2.82889974
  11.21894422  5.65779920  5.65780002
  16.87674494  0.00000000  0.00000000
  14.04784561  0.00000000  2.82889974
  11.21894422  0.00000000  5.65780002
   5.56114453 11.31559839  0.00000000
   2.73224468 11.31559839  2.82889974
  16.87674393 11.31559839  5.65780002
   5.56114453  5.65779920  0.00000000
   2.73224468  5.65779920  2.82889974
  16.87674393  5.65779920  5.65780002
   5.56114453  0.00000000  0.00000000
   2.73224468  0.00000000  2.82889974
  16.87674393  0.00000000  5.65780002
  11.21894422 11.31559839  0.00000000
   8.39004388 11.31559839  2.82889974
   5.56114351 11.31559839  5.65780002
  11.21894422  5.65779920  0.00000000
   8.39004388  5.65779920  2.82889974
   5.56114351  5.65779920  5.65780002
  11.21894422  0.00000000  0.00000000
   8.39004388  0.00000000  2.82889974
   5.56114351  0.00000000  5.65780002
   1.31779513 15.55894841  1.41445001
  15.46229425 15.55894841  4.24335015
  12.63339491 15.55894841  7.07225016
   1.31779513  9.90114972  1.41445001
  15.46229425  9.90114972  4.24335015
  12.63339491  9.90114972  7.07225016
   1.31779513  4.24334927  1.41445001
  15.46229425  4.24334927  4.24335015
  12.63339491  4.24334927  7.07225016
   6.97559370 15.55894841  1.41445001
   4.14669359 15.55894841  4.24335015
   1.31779311 15.55894841  7.07225016
   6.97559370  9.90114972  1.41445001
   4.14669359  9.90114972  4.24335015
   1.31779311  9.90114972  7.07225016
   6.97559370  4.24334927  1.41445001
   4.14669359  4.24334927  4.24335015
   1.31779311  4.24334927  7.07225016
  12.63339491 15.55894841  1.41445001
   9.80449354 15.55894841  4.24335015
   6.97559319 15.55894841  7.07225016
  12.63339491  9.90114972  1.41445001
   9.80449354  9.90114972  4.24335015
   6.97559319  9.90114972  7.07225016
  12.63339491  4.24334927  1.41445001
   9.80449354  4.24334927  4.24335015
   6.97559319  4.24334927  7.07225016
   2.73224493 14.14449773  0.00000000
  16.87674494 14.14449773  2.82889974
  14.04784459 14.14449773  5.65780002
   2.73224493  8.48669855  0.00000000
  16.87674494  8.48669855  2.82889974
  14.04784459  8.48669855  5.65780002
   2.73224493  2.82889960  0.00000000
  16.87674494  2.82889960  2.82889974
  14.04784459  2.82889960  5.65780002
   8.39004388 14.14449773  0.00000000
   5.56114351 14.14449773  2.82889974
   2.73224342 14.14449773  5.65780002
   8.39004388  8.48669855  0.00000000
   5.56114351  8.48669855  2.82889974
   2.73224342  8.48669855  5.65780002
   8.39004388  2.82889960  0.00000000
   5.56114351  2.82889960  2.82889974
   2.73224342  2.82889960  5.65780002
  14.04784459 14.14449773  0.00000000
  11.21894422 14.14449773  2.82889974
   8.39004388 14.14449773  5.65780002
  14.04784459  8.48669855  0.00000000
  11.21894422  8.48669855  2.82889974
   8.39004388  8.48669855  5.65780002
  14.04784459  2.82889960  0.00000000
  11.21894422  2.82889960  2.82889974
   8.39004388  2.82889960  5.65780002
   4.14669436 12.73004807  1.41445001
   1.31779413 12.73004807  4.24335015
  15.46229425 12.73004807  7.07225016
   4.14669436  7.07224938  1.41445001
   1.31779413  7.07224938  4.24335015
  15.46229425  7.07224938  7.07225016
   4.14669436  1.41444992  1.41445001
   1.31779413  1.41444992  4.24335015
  15.46229425  1.41444992  7.07225016
   9.80449558 12.73004807  1.41445001
   6.97559470 12.73004807  4.24335015
   4.14669410 12.73004807  7.07225016
   9.80449558  7.07224938  1.41445001
   6.97559470  7.07224938  4.24335015
   4.14669410  7.07224938  7.07225016
   9.80449558  1.41444992  1.41445001
   6.97559470  1.41444992  4.24335015
   4.14669410  1.41444992  7.07225016
  15.46229527 12.73004807  1.41445001
  12.63339491 12.73004807  4.24335015
   9.80449354 12.73004807  7.07225016
  15.46229527  7.07224938  1.41445001
  12.63339491  7.07224938  4.24335015
   9.80449354  7.07224938  7.07225016
  15.46229527  1.41444992  1.41445001
  12.63339491  1.41444992  4.24335015
   9.80449354  1.41444992  7.07225016
  15.40585390  4.29320427  9.07225027
  14.55718470 15.32591292 11.78775057
  13.70851349  9.38522045 14.50325193
   0.12979624 16.17458514  9.07225027
  16.25452512 10.23389370 11.78775057
  15.40585390  4.29320223 14.50325193
   1.82713664 11.08256390  9.07225027
   0.97846543  5.14187295 11.78775057
   0.12979420 16.17458009 14.50325193
   3.52447504  5.99054367  9.07225027
   2.67580381  0.04985220 11.78775057
   1.82713260 11.08255985 14.50325193
   5.22181546  0.89852545  9.07225027
   4.37314626 11.93123310 11.78775057
   3.52447302  5.99054063 14.50325193
   6.91915587 12.77990432  9.07225027
   6.07048465  6.83921286 11.78775057
   5.22181344  0.89852141 14.50325193
   8.61649629  7.68788358  9.07225027
   7.76782305  1.74719262 11.78775057
   6.91915384 12.77990027 14.50325193
  10.31383873  2.59586587  9.07225027
   9.46516548 13.62857351 11.78775057
   8.61649629  7.68788207 14.50325193
  12.01117711 14.47724474  9.07225027
  11.16250387  8.53655328 11.78775057
  10.31383468  2.59585979 14.50325193
  13.70851753  9.38522450  9.07225027
  12.85984632  3.44453304 11.78775057
  12.01117509 14.47724069 14.50325193
  15.40585593  8.53655429 10.43000095
  14.55718470  2.59586183 13.14550125
  13.70851349 13.62857048 15.86100049
   0.12979420  3.44453304 10.43000095
  16.25452411 14.47724170 13.14550125
  15.40585390  8.53654924 15.86100049
   1.82713664 15.32591393 10.43000095
   0.97846543  9.38522147 13.14550125
   0.12979420  3.44453102 15.86100049
   3.52447706 10.23389268 10.43000095
   2.67580381  4.29320223 13.14550125
   1.82713260 15.32591090 15.86100049
   5.22181546  5.14187346 10.43000095
   4.37314423 16.17458212 13.14550125
   3.52447302 10.23389066 15.86100049
   6.91915789  0.04985424 10.43000095
   6.07048667 11.08256189 13.14550125
   5.22181546  5.14187144 15.86100049
   8.61649629 11.93123310 10.43000095
   7.76782305  5.99054114 13.14550125
   6.91915384  0.04985018 15.86100049
  10.31383873  6.83921388 10.43000095
   9.46516548  0.89852141 13.14550125
   8.61649629 11.93123108 15.86100049
  12.01117711  1.74719466 10.43000095
  11.16250590 12.77990229 13.14550125
  10.31383468  6.83921084 15.86100049
  13.70851551 13.62857351 10.43000095
  12.85984632  7.68788207 13.14550125
  12.01117307  1.74719060 15.86100049
  15.40585593 12.77990432  9.07225027
  14.55718470  6.83921286 11.78775057
  13.70851349  0.89852141 14.50325193
   0.12979624  7.68788409  9.07225027
  16.25452411  1.74719262 11.78775057
  15.40585390 12.77990027 14.50325193
   1.82713664  2.59586385  9.07225027
   0.97846543 13.62857250 11.78775057
   0.12979420  7.68788003 14.50325193
   3.52447706 14.47724372  9.07225027
   2.67580381  8.53655226 11.78775057
   1.82713260  2.59585979 14.50325193
   5.22181546  9.38522349  9.07225027
   4.37314626  3.44453304 11.78775057
   3.52447302 14.47724069 14.50325193
   6.91915587  4.29320223  9.07225027
   6.07048465 15.32591191 11.78775057
   5.22181344  9.38521945 14.50325193
   8.61649629 16.17458414  9.07225027
   7.76782305 10.23389268 11.78775057
   6.91915384  4.29320021 14.50325193
  10.31383468 11.08256390  9.07225027
   9.46516548  5.14187195 11.78775057
   8.61649224 16.17458009 14.50325193
  12.01117711  5.99054367  9.07225027
  11.16250387  0.04985220 11.78775057
  10.31383468 11.08255985 14.50325193
  13.70851753  0.89852545  9.07225027
  12.85984632 11.93123310 11.78775057
  12.01117509  5.99054063 14.50325193
  15.40585390  0.04985626 10.43000095
  14.55718470 11.08256289 13.14550125
  13.70851349  5.14187195 15.86100049
   0.12979624 11.93123411 10.43000095
  16.25452411  5.99054216 13.14550125
  15.40585390  0.04985220 15.86100049
   1.82713664  6.83921388 10.43000095
   0.97846543  0.89852141 13.14550125
   0.12979420 11.93123108 15.86100049
   3.52447504  1.74719466 10.43000095
   2.67580381 12.77990229 13.14550125
   1.82713260  6.83921084 15.86100049
   5.22181546 13.62857553 10.43000095
   4.37314423  7.68788358 13.14550125
   3.52447302  1.74719262 15.86100049
   6.91915587  8.53655328 10.43000095
   6.07048465  2.59586183 13.14550125
   5.22181344 13.62857048 15.86100049
   8.61649629  3.44453304 10.43000095
   7.76782507 14.47724271 13.14550125
   6.91915384  8.53655126 15.86100049
  10.31383670 15.32591494 10.43000095
   9.46516548  9.38522247 13.14550125
   8.61649426  3.44453304 15.86100049
  12.01117509 10.23389268 10.43000095
  11.16250387  4.29320223 13.14550125
  10.31383266 15.32591090 15.86100049
  13.70851551  5.14187346 10.43000095
  12.85984429 16.17458212 13.14550125
  12.01117307 10.23388966 15.86100049
 


--------------------------------------------------------------------------------------------------------


 k-point     1 :   0.0000 0.0000 0.0000  plane waves:  216521
 k-point     2 :   0.5000 0.0000 0.0000  plane waves:  216418
 k-point     3 :   0.0000 0.5000 0.0000  plane waves:  216418
 k-point     4 :   0.5000 0.5000 0.0000  plane waves:  216296
 k-point     5 :   0.0000 0.0000 0.5000  plane waves:  216310
 k-point     6 :   0.5000 0.0000 0.5000  plane waves:  216392
 k-point     7 :   0.0000 0.5000 0.5000  plane waves:  216392
 k-point     8 :   0.5000 0.5000 0.5000  plane waves:  216352

 maximum and minimum number of plane-waves per node :     13598    13447

 maximum number of plane-waves:    216521
 maximum index in each direction: 
   IXMAX=   36   IYMAX=   36   IZMAX=   38
   IXMIN=  -37   IYMIN=  -37   IZMIN=  -39


 real space projection operators:
  total allocation   :      36350.39 KBytes
  max/ min on nodes  :       2278.64       2266.25


 parallel 3D FFT for wavefunctions:
    minimum data exchange during FFTs selected (reduces bandwidth)
 parallel 3D FFT for charge:
    minimum data exchange during FFTs selected (reduces bandwidth)


 total amount of memory used by VASP MPI-rank0   577877. kBytes
=======================================================================

   base      :      30000. kBytes
   nonlr-proj:      12084. kBytes
   fftplans  :      30616. kBytes
   grid      :      24869. kBytes
   one-center:        243. kBytes
   wavefun   :     480065. kBytes
 
     INWAV:  cpu time      0.0000: real time      0.0002
 Broyden mixing: mesh for mixing (old mesh)
   NGX = 73   NGY = 73   NGZ = 77
  (NGX  =224   NGY  =224   NGZ  =240)
  gives a total of 410333 points

 initial charge density was supplied:
 charge density of overlapping atoms calculated
 number of electron     912.0000000 magnetization       1.0000000
 keeping initial charge density in first step


--------------------------------------------------------------------------------------------------------


 Maximum index for non-local projection operator          217
 Maximum index for augmentation-charges         2999 (set IRDMAX)


--------------------------------------------------------------------------------------------------------


 First call to EWALD:  gamma=   0.103
 Maximum number of real-space cells 3x 3x 3
 Maximum number of reciprocal cells 3x 3x 3

    FEWALD:  cpu time      0.0070: real time      0.0070


--------------------------------------- Ionic step        1  -------------------------------------------




--------------------------------------- Iteration      1(   1)  ---------------------------------------


    POTLOK:  cpu time      0.4117: real time      0.4144
    SETDIJ:  cpu time      2.1453: real time      2.1546
     EDDAV:  cpu time    113.3034: real time    114.2602
       DOS:  cpu time      0.0030: real time      0.0030
    --------------------------------------------
      LOOP:  cpu time    115.8633: real time    116.8323

 eigenvalue-minimisations  : 17536
 total energy-change (2. order) : 0.3808552E+04  (-0.4038476E+05)
 number of electron     912.0000000 magnetization       1.0000000
 augmentation part      912.0000000 magnetization       1.0000000

 Free energy of the ion-electron system (eV)
  ---------------------------------------------------
  alpha Z        PSCENC =      1093.62735331
  Ewald energy   TEWEN  =    -24081.07993417
  -Hartree energ DENC   =     -2281.42103523
  -exchange      EXHF   =         0.00000000
  -V(xc)+E(xc)   XCENC  =     -1946.90906536
  PAW double counting   =     20094.53666134   -16418.68521354
  entropy T*S    EENTRO =        -0.00101932
  eigenvalues    EBANDS =      3640.93082873
  atomic energy  EATOM  =     23707.55310521
  Solvation  Ediel_sol  =         0.00000000
  ---------------------------------------------------
  free energy    TOTEN  =      3808.55168099 eV

  energy without entropy =     3808.55270031  energy(sigma->0) =     3808.55219065


--------------------------------------------------------------------------------------------------------




--------------------------------------- Iteration      1(   2)  ---------------------------------------


     EDDAV:  cpu time    127.5032: real time    128.5737
       DOS:  cpu time      0.0029: real time      0.0029
    --------------------------------------------
      LOOP:  cpu time    127.5061: real time    128.5767

 eigenvalue-minimisations  : 20480
 total energy-change (2. order) :-0.4449552E+04  (-0.4294310E+04)
 number of electron     912.0000000 magnetization       1.0000000
 augmentation part      912.0000000 magnetization       1.0000000

 Free energy of the ion-electron system (eV)
  ---------------------------------------------------
  alpha Z        PSCENC =      1093.62735331
  Ewald energy   TEWEN  =    -24081.07993417
  -Hartree energ DENC   =     -2281.42103523
  -exchange      EXHF   =         0.00000000
  -V(xc)+E(xc)   XCENC  =     -1946.90906536
  PAW double counting   =     20094.53666134   -16418.68521354
  entropy T*S    EENTRO =        -0.00304499
  eigenvalues    EBANDS =      -808.61917326
  atomic energy  EATOM  =     23707.55310521
  Solvation  Ediel_sol  =         0.00000000
  ---------------------------------------------------
  free energy    TOTEN  =      -641.00034667 eV

  energy without entropy =     -640.99730168  energy(sigma->0) =     -640.99882417


--------------------------------------------------------------------------------------------------------




--------------------------------------- Iteration      1(   3)  ---------------------------------------


     EDDAV:  cpu time    133.4245: real time    134.5545
       DOS:  cpu time      0.0029: real time      0.0029
    --------------------------------------------
      LOOP:  cpu time    133.4274: real time    134.5574

 eigenvalue-minimisations  : 21640
 total energy-change (2. order) :-0.4254468E+03  (-0.4113781E+03)
 number of electron     912.0000000 magnetization       1.0000000
 augmentation part      912.0000000 magnetization       1.0000000

 Free energy of the ion-electron system (eV)
  ---------------------------------------------------
  alpha Z        PSCENC =      1093.62735331
  Ewald energy   TEWEN  =    -24081.07993417
  -Hartree energ DENC   =     -2281.42103523
  -exchange      EXHF   =         0.00000000
  -V(xc)+E(xc)   XCENC  =     -1946.90906536
  PAW double counting   =     20094.53666134   -16418.68521354
  entropy T*S    EENTRO =        -0.00435911
  eigenvalues    EBANDS =     -1234.06468332
  atomic energy  EATOM  =     23707.55310521
  Solvation  Ediel_sol  =         0.00000000
  ---------------------------------------------------
  free energy    TOTEN  =     -1066.44717085 eV

  energy without entropy =    -1066.44281174  energy(sigma->0) =    -1066.44499130


--------------------------------------------------------------------------------------------------------




--------------------------------------- Iteration      1(   4)  ---------------------------------------


     EDDAV:  cpu time    129.0592: real time    130.1604
       DOS:  cpu time      0.0030: real time      0.0030
    --------------------------------------------
      LOOP:  cpu time    129.0622: real time    130.1634

 eigenvalue-minimisations  : 20712
 total energy-change (2. order) :-0.1643970E+02  (-0.1613990E+02)
 number of electron     912.0000000 magnetization       1.0000000
 augmentation part      912.0000000 magnetization       1.0000000

 Free energy of the ion-electron system (eV)
  ---------------------------------------------------
  alpha Z        PSCENC =      1093.62735331
  Ewald energy   TEWEN  =    -24081.07993417
  -Hartree energ DENC   =     -2281.42103523
  -exchange      EXHF   =         0.00000000
  -V(xc)+E(xc)   XCENC  =     -1946.90906536
  PAW double counting   =     20094.53666134   -16418.68521354
  entropy T*S    EENTRO =        -0.00485374
  eigenvalues    EBANDS =     -1250.50388805
  atomic energy  EATOM  =     23707.55310521
  Solvation  Ediel_sol  =         0.00000000
  ---------------------------------------------------
  free energy    TOTEN  =     -1082.88687022 eV

  energy without entropy =    -1082.88201647  energy(sigma->0) =    -1082.88444335


--------------------------------------------------------------------------------------------------------




--------------------------------------- Iteration      1(   5)  ---------------------------------------


     EDDAV:  cpu time    143.3797: real time    144.6090
       DOS:  cpu time      0.0030: real time      0.0030
    CHARGE:  cpu time      4.5320: real time      4.5728
    MIXING:  cpu time      0.0189: real time      0.0190
    --------------------------------------------
      LOOP:  cpu time    147.9336: real time    149.2039

 eigenvalue-minimisations  : 23656
 total energy-change (2. order) :-0.6622171E+00  (-0.6579760E+00)
 number of electron     911.9999993 magnetization       1.0000000
 augmentation part      -99.5469482 magnetization      -0.0560025

 Broyden mixing:
  rms(total) = 0.42253E+01    rms(broyden)= 0.42253E+01
  rms(prec ) = 0.45648E+01
  weight for this iteration     100.00

 Free energy of the ion-electron system (eV)
  ---------------------------------------------------
  alpha Z        PSCENC =      1093.62735331
  Ewald energy   TEWEN  =    -24081.07993417
  -Hartree energ DENC   =     -2281.42103523
  -exchange      EXHF   =         0.00000000
  -V(xc)+E(xc)   XCENC  =     -1946.90906536
  PAW double counting   =     20094.53666134   -16418.68521354
  entropy T*S    EENTRO =        -0.00486622
  eigenvalues    EBANDS =     -1251.16609272
  atomic energy  EATOM  =     23707.55310521
  Solvation  Ediel_sol  =         0.00000000
  ---------------------------------------------------
  free energy    TOTEN  =     -1083.54908736 eV

  energy without entropy =    -1083.54422114  energy(sigma->0) =    -1083.54665425


--------------------------------------------------------------------------------------------------------




--------------------------------------- Iteration      1(   6)  ---------------------------------------


    POTLOK:  cpu time      0.3992: real time      0.4014
    SETDIJ:  cpu time      2.1175: real time      2.1274
     EDDAV:  cpu time    133.4984: real time    134.6187
       DOS:  cpu time      0.0029: real time      0.0029
    CHARGE:  cpu time      4.5031: real time      4.5418
    MIXING:  cpu time      0.0192: real time      0.0193
    --------------------------------------------
      LOOP:  cpu time    140.5402: real time    141.7113

 eigenvalue-minimisations  : 21640
 total energy-change (2. order) : 0.1865847E+02  (-0.4210362E+01)
 number of electron     911.9999993 magnetization       1.0000000
 augmentation part      -99.3517513 magnetization      -0.0557615

 Broyden mixing:
[...]
      2.73224      0.00000      2.82890         0.002058     -0.002545      0.093466
     16.87674      0.00000      5.65780         0.137711     -0.326788     -0.255894
     11.21894     11.31560      0.00000         0.435686     -0.391657     -0.560720
      8.39004     11.31560      2.82890         0.021086     -0.033036      0.076145
      5.56114     11.31560      5.65780         0.225628     -0.181400     -0.171469
     11.21894      5.65780      0.00000        -0.409913      0.403536     -0.895406
      8.39004      5.65780      2.82890        -0.015855      0.042174      0.127803
      5.56114      5.65780      5.65780         0.131096     -0.023028      0.350977
     11.21894      0.00000      0.00000        -0.094776      0.076592     -2.237228
      8.39004      0.00000      2.82890        -0.038572      0.032338      0.031979
      5.56114      0.00000      5.65780        -0.171864      0.352772     -0.162234
      1.31780     15.55895      1.41445         0.036247     -0.474342      0.234459
     15.46229     15.55895      4.24335        -0.033035     -0.012599     -0.097724
     12.63339     15.55895      7.07225         0.285649      0.560121      0.827458
      1.31780      9.90115      1.41445        -0.075296     -0.044974     -0.369650
     15.46229      9.90115      4.24335        -0.013548      0.020671     -0.083411
     12.63339      9.90115      7.07225         0.078792     -0.608419      0.054370
      1.31780      4.24335      1.41445        -0.152950      0.353313      0.010776
     15.46229      4.24335      4.24335         0.014934     -0.008931     -0.064151
     12.63339      4.24335      7.07225        -0.575115      0.477205      1.562071
      6.97559     15.55895      1.41445        -0.275422      0.187226      0.143137
      4.14669     15.55895      4.24335         0.013963     -0.024609     -0.061903
      1.31779     15.55895      7.07225        -0.165119      0.611417      0.499310
      6.97559      9.90115      1.41445         0.201958     -0.170776      0.227323
      4.14669      9.90115      4.24335         0.010231      0.030265     -0.048099
      1.31779      9.90115      7.07225        -0.418861     -0.413520      0.975587
      6.97559      4.24335      1.41445         0.026923     -0.028426     -0.383907
      4.14669      4.24335      4.24335         0.044505     -0.070038     -0.107161
      1.31779      4.24335      7.07225         0.697114     -0.502937      1.475779
     12.63339     15.55895      1.41445         0.152350      0.015154     -0.355177
      9.80449     15.55895      4.24335         0.003842     -0.041698     -0.029170
      6.97559     15.55895      7.07225         0.599595     -0.778105      1.585595
     12.63339      9.90115      1.41445        -0.055129      0.484310      0.117682
      9.80449      9.90115      4.24335        -0.008394      0.021586     -0.078775
      6.97559      9.90115      7.07225        -0.574430      0.724964      1.571008
     12.63339      4.24335      1.41445         0.129649     -0.333588      0.127406
      9.80449      4.24335      4.24335        -0.038682      0.069286     -0.137049
      6.97559      4.24335      7.07225         0.114996     -0.091008     -5.589266
      2.73224     14.14450      0.00000        -0.409913      0.403536     -0.895406
     16.87674     14.14450      2.82890        -0.015855      0.042174      0.127803
     14.04784     14.14450      5.65780         0.131096     -0.023028      0.350977
      2.73224      8.48670      0.00000        -0.094776      0.076592     -2.237228
     16.87674      8.48670      2.82890        -0.038572      0.032338      0.031979
     14.04784      8.48670      5.65780        -0.171864      0.352772     -0.162234
      2.73224      2.82890      0.00000         0.435686     -0.391657     -0.560720
     16.87674      2.82890      2.82890         0.021086     -0.033036      0.076145
     14.04784      2.82890      5.65780         0.225628     -0.181400     -0.171469
      8.39004     14.14450      0.00000         0.747057     -0.624849     -1.910543
      5.56114     14.14450      2.82890        -0.020856      0.006282      0.066284
      2.73224     14.14450      5.65780        -0.007326     -0.491354     -0.171819
      8.39004      8.48670      0.00000        -0.301114      0.832835     -0.916688
      5.56114      8.48670      2.82890         0.020218     -0.020540      0.049070
      2.73224      8.48670      5.65780         0.047757     -0.009238      0.403932
      8.39004      2.82890      0.00000        -0.543546     -1.026616      2.776888
      5.56114      2.82890      2.82890         0.024867     -0.037809      0.114038
      2.73224      2.82890      5.65780        -0.013350      0.492024     -0.053082
     14.04784     14.14450      0.00000         0.623845      1.021794      3.024660
     11.21894     14.14450      2.82890         0.050912     -0.086078      0.059554
      8.39004     14.14450      5.65780        -0.252138      0.201619     -0.077555
     14.04784      8.48670      0.00000         0.248281     -0.871441     -0.687633
     11.21894      8.48670      2.82890         0.002058     -0.002545      0.093466
      8.39004      8.48670      5.65780         0.137711     -0.326788     -0.255894
     14.04784      2.82890      0.00000        -0.614165      0.573647     -1.840035
     11.21894      2.82890      2.82890        -0.031137      0.085442      0.075623
      8.39004      2.82890      5.65780        -0.083608     -0.040393      0.355298
      4.14669     12.73005      1.41445         0.129649     -0.333588      0.127406
      1.31779     12.73005      4.24335        -0.038682      0.069286     -0.137049
     15.46229     12.73005      7.07225         0.114996     -0.091008     -5.589266
      4.14669      7.07225      1.41445         0.152350      0.015154     -0.355177
      1.31779      7.07225      4.24335         0.003842     -0.041698     -0.029170
     15.46229      7.07225      7.07225         0.599595     -0.778105      1.585595
      4.14669      1.41445      1.41445        -0.055129      0.484310      0.117682
      1.31779      1.41445      4.24335        -0.008394      0.021586     -0.078775
     15.46229      1.41445      7.07225        -0.574430      0.724964      1.571008
      9.80450     12.73005      1.41445        -0.152950      0.353313      0.010776
      6.97559     12.73005      4.24335         0.014934     -0.008931     -0.064151
      4.14669     12.73005      7.07225        -0.575115      0.477205      1.562071
      9.80450      7.07225      1.41445         0.036247     -0.474342      0.234459
      6.97559      7.07225      4.24335        -0.033035     -0.012599     -0.097724
      4.14669      7.07225      7.07225         0.285649      0.560121      0.827458
      9.80450      1.41445      1.41445        -0.075296     -0.044974     -0.369650
      6.97559      1.41445      4.24335        -0.013548      0.020671     -0.083411
      4.14669      1.41445      7.07225         0.078792     -0.608419      0.054370
     15.46230     12.73005      1.41445         0.026923     -0.028426     -0.383907
     12.63339     12.73005      4.24335         0.044505     -0.070038     -0.107161
      9.80449     12.73005      7.07225         0.697114     -0.502937      1.475779
     15.46230      7.07225      1.41445        -0.275422      0.187226      0.143137
     12.63339      7.07225      4.24335         0.013963     -0.024609     -0.061903
      9.80449      7.07225      7.07225        -0.165119      0.611417      0.499310
     15.46230      1.41445      1.41445         0.201958     -0.170776      0.227323
     12.63339      1.41445      4.24335         0.010231      0.030265     -0.048099
      9.80449      1.41445      7.07225        -0.418861     -0.413520      0.975587
     15.40585      4.29320      9.07225        -0.115462      0.039993     -0.886545
     14.55718     15.32591     11.78775         0.094891     -0.011334      0.038858
     13.70851      9.38522     14.50325         0.455404      0.124117      0.202211
      0.12980     16.17459      9.07225         0.765335     -0.141866      0.076456
     16.25453     10.23389     11.78775        -0.088750      0.012769      0.028274
     15.40585      4.29320     14.50325         0.022212     -0.005737      0.086762
      1.82714     11.08256      9.07225         0.694359      0.214576     -0.391894
      0.97847      5.14187     11.78775        -0.002384      0.001922      0.057304
      0.12979     16.17458     14.50325        -0.437033     -0.135145      0.095914
      3.52448      5.99054      9.07225        -0.569133     -0.332679     -0.312348
      2.67580      0.04985     11.78775        -0.020576     -0.000488      0.022766
      1.82713     11.08256     14.50325        -0.051606      0.029491      0.446994
      5.22182      0.89853      9.07225        -0.643654      0.119997      0.467506
      4.37315     11.93123     11.78775         0.011782     -0.000880      0.055011
      3.52447      5.99054     14.50325         0.013754     -0.029367      0.482049
      6.91916     12.77990      9.07225        -0.115462      0.039993     -0.886545
      6.07048      6.83921     11.78775         0.094891     -0.011334      0.038858
      5.22181      0.89852     14.50325         0.455404      0.124117      0.202211
      8.61650      7.68788      9.07225         0.765335     -0.141866      0.076456
      7.76782      1.74719     11.78775        -0.088750      0.012769      0.028274
      6.91915     12.77990     14.50325         0.022212     -0.005737      0.086762
     10.31384      2.59587      9.07225         0.694359      0.214576     -0.391894
      9.46517     13.62857     11.78775        -0.002384      0.001922      0.057304
      8.61650      7.68788     14.50325        -0.437033     -0.135145      0.095914
     12.01118     14.47724      9.07225        -0.569133     -0.332679     -0.312348
     11.16250      8.53655     11.78775        -0.020576     -0.000488      0.022766
     10.31383      2.59586     14.50325        -0.051606      0.029491      0.446994
     13.70852      9.38522      9.07225        -0.643654      0.119997      0.467506
     12.85985      3.44453     11.78775         0.011782     -0.000880      0.055011
     12.01118     14.47724     14.50325         0.013754     -0.029367      0.482049
     15.40586      8.53655     10.43000         0.387327      0.065995     -0.336731
     14.55718      2.59586     13.14550         0.031932     -0.008656     -0.058286
     13.70851     13.62857     15.86100        -0.719643     -0.957009     -3.320116
      0.12979      3.44453     10.43000         0.011766     -0.104107     -0.051556
     16.25452     14.47724     13.14550         0.082769      0.010493     -0.066227
     15.40585      8.53655     15.86100        -0.690510      0.404484      0.231139
      1.82714     15.32591     10.43000        -0.303194     -0.025588      0.028844
      0.97847      9.38522     13.14550        -0.097236      0.023600      0.005962
      0.12979      3.44453     15.86100        -0.536435      0.137797      0.895851
      3.52448     10.23389     10.43000        -0.125906      0.075165     -0.411346
      2.67580      4.29320     13.14550        -0.021530      0.014706     -0.053921
      1.82713     15.32591     15.86100         0.832807     -0.029731      0.204563
      5.22182      5.14187     10.43000         0.010840      0.027013     -0.532394
      4.37314     16.17458     13.14550        -0.093145      0.014867     -0.039888
      3.52447     10.23389     15.86100         0.726276     -0.408593      1.588720
      6.91916      0.04985     10.43000         0.387327      0.065995     -0.336731
      6.07049     11.08256     13.14550         0.031932     -0.008656     -0.058286
      5.22182      5.14187     15.86100        -0.719643     -0.957009     -3.320116
      8.61650     11.93123     10.43000         0.011766     -0.104107     -0.051556
      7.76782      5.99054     13.14550         0.082769      0.010493     -0.066227
      6.91915      0.04985     15.86100        -0.690510      0.404484      0.231139
     10.31384      6.83921     10.43000        -0.303194     -0.025588      0.028844
      9.46517      0.89852     13.14550        -0.097236      0.023600      0.005962
      8.61650     11.93123     15.86100        -0.536435      0.137797      0.895851
     12.01118      1.74719     10.43000        -0.125906      0.075165     -0.411346
     11.16251     12.77990     13.14550        -0.021530      0.014706     -0.053921
     10.31383      6.83921     15.86100         0.832807     -0.029731      0.204563
     13.70852     13.62857     10.43000         0.010840      0.027013     -0.532394
     12.85985      7.68788     13.14550        -0.093145      0.014867     -0.039888
     12.01117      1.74719     15.86100         0.726276     -0.408593      1.588720
     15.40586     12.77990      9.07225        -0.075262      0.106705      5.838720
     14.55718      6.83921     11.78775        -0.085637      0.023367      0.057831
     13.70851      0.89852     14.50325        -0.290764      0.027624      0.367425
      0.12980      7.68788      9.07225        -0.751109      0.521480     -1.332539
     16.25452      1.74719     11.78775         0.076596     -0.020954      0.051000
     15.40585     12.77990     14.50325        -0.043795      0.002208      0.572667
      1.82714      2.59586      9.07225        -0.860819      0.126248     -0.648677
      0.97847     13.62857     11.78775         0.071694      0.000263      0.074849
      0.12979      7.68788     14.50325         0.264879     -0.035468      0.416509
      3.52448     14.47724      9.07225         0.656011     -0.130048     -0.674639
      2.67580      8.53655     11.78775        -0.000087      0.001203     -0.018767
      1.82713      2.59586     14.50325         0.146711     -0.086211      0.011893
      5.22182      9.38522      9.07225         0.844957     -0.505006     -1.265179
      4.37315      3.44453     11.78775        -0.056206      0.005117      0.063924
      3.52447     14.47724     14.50325        -0.077462      0.125363     -0.039129
      6.91916      4.29320      9.07225        -0.075262      0.106705      5.838720
      6.07048     15.32591     11.78775        -0.085637      0.023367      0.057831
      5.22181      9.38522     14.50325        -0.290764      0.027624      0.367425
      8.61650     16.17458      9.07225        -0.751109      0.521480     -1.332539
      7.76782     10.23389     11.78775         0.076596     -0.020954      0.051000
      6.91915      4.29320     14.50325        -0.043795      0.002208      0.572667
     10.31383     11.08256      9.07225        -0.860819      0.126248     -0.648677
      9.46517      5.14187     11.78775         0.071694      0.000263      0.074849
      8.61649     16.17458     14.50325         0.264879     -0.035468      0.416509
     12.01118      5.99054      9.07225         0.656011     -0.130048     -0.674639
     11.16250      0.04985     11.78775        -0.000087      0.001203     -0.018767
     10.31383     11.08256     14.50325         0.146711     -0.086211      0.011893
     13.70852      0.89853      9.07225         0.844957     -0.505006     -1.265179
     12.85985     11.93123     11.78775        -0.056206      0.005117      0.063924
     12.01118      5.99054     14.50325        -0.077462      0.125363     -0.039129
     15.40585      0.04986     10.43000        -0.415968     -0.090383     -0.257562
     14.55718     11.08256     13.14550        -0.064184      0.005771     -0.053561
     13.70851      5.14187     15.86100         0.292731     -0.078207      0.849038
      0.12980     11.93123     10.43000        -0.079164     -0.035616     -0.524470
     16.25452      5.99054     13.14550        -0.025728      0.017736     -0.059194
     15.40585      0.04985     15.86100         0.816661     -0.359588      0.408601
      1.82714      6.83921     10.43000         0.092609     -0.084177     -0.441645
      0.97847      0.89852     13.14550         0.060973     -0.010728     -0.023528
      0.12979     11.93123     15.86100         0.682064      0.986284     -3.087121
      3.52448      1.74719     10.43000         0.369244      0.045197     -0.069167
      2.67580     12.77990     13.14550         0.028977     -0.008759     -0.055365
      1.82713      6.83921     15.86100        -0.594321      0.363506      1.700112
      5.22182     13.62858     10.43000         0.036208      0.097851     -0.020034
      4.37314      7.68788     13.14550         0.099430     -0.021196     -0.004879
      3.52447      1.74719     15.86100        -0.887244     -0.021220     -0.062971
      6.91916      8.53655     10.43000        -0.415968     -0.090383     -0.257562
      6.07048      2.59586     13.14550        -0.064184      0.005771     -0.053561
      5.22181     13.62857     15.86100         0.292731     -0.078207      0.849038
      8.61650      3.44453     10.43000        -0.079164     -0.035616     -0.524470
      7.76783     14.47724     13.14550        -0.025728      0.017736     -0.059194
      6.91915      8.53655     15.86100         0.816661     -0.359588      0.408601
     10.31384     15.32591     10.43000         0.092609     -0.084177     -0.441645
      9.46517      9.38522     13.14550         0.060973     -0.010728     -0.023528
      8.61649      3.44453     15.86100         0.682064      0.986284     -3.087121
     12.01118     10.23389     10.43000         0.369244      0.045197     -0.069167
     11.16250      4.29320     13.14550         0.028977     -0.008759     -0.055365
     10.31383     15.32591     15.86100        -0.594321      0.363506      1.700112
     13.70852      5.14187     10.43000         0.036208      0.097851     -0.020034
     12.85984     16.17458     13.14550         0.099430     -0.021196     -0.004879
     12.01117     10.23389     15.86100        -0.887244     -0.021220     -0.062971
 -----------------------------------------------------------------------------------
    total drift:                               -0.149886     -0.078794     -0.021526


--------------------------------------------------------------------------------------------------------



  FREE ENERGIE OF THE ION-ELECTRON SYSTEM (eV)
  ---------------------------------------------------
  free  energy   TOTEN  =     -1063.54393247 eV

  energy  without entropy=    -1063.53982556  energy(sigma->0) =    -1063.54187902
 


--------------------------------------------------------------------------------------------------------


    POTLOK:  cpu time      2.5281: real time      2.5413


--------------------------------------------------------------------------------------------------------


     LOOP+:  cpu time   3015.2832: real time   3041.4684
    4ORBIT:  cpu time      0.0000: real time      0.0000

 total amount of memory used by VASP MPI-rank0   577877. kBytes
=======================================================================

   base      :      30000. kBytes
   nonlr-proj:      12084. kBytes
   fftplans  :      30616. kBytes
   grid      :      24869. kBytes
   one-center:        243. kBytes
   wavefun   :     480065. kBytes
 
  
  
 General timing and accounting informations for this job:
 ========================================================
  
                  Total CPU time used (sec):     3212.424
                            User time (sec):     3056.925
                          System time (sec):      155.499
                         Elapsed time (sec):     3244.466
  
                   Maximum memory used (kb):      858356.
                   Average memory used (kb):          N/A
  
                          Minor page faults:       260094
                          Major page faults:           42
                 Voluntary context switches:         2004
