 180 180   0   0
  0.2656311E+02  0.1385872E-08  0.1959920E-08  0.1760313E-08  0.5000000E-15
  1.000000000000000E-004
  CAR 
 Si and Ge interface calculation         
      5.89979967    -10.23456903  301      2.95684597      1.00000000
    -10.235  0.0000E+00  0.0000E+00  0.0000E+00  0.0000E+00
    -10.181  0.0000E+00  0.0000E+00  0.0000E+00  0.0000E+00
    -10.127  0.0000E+00  0.0000E+00  0.0000E+00  0.0000E+00
    -10.073  0.0000E+00  0.0000E+00  0.0000E+00  0.0000E+00
    -10.019  0.0000E+00  0.0000E+00  0.0000E+00  0.0000E+00
     -9.966  0.0000E+00  0.0000E+00  0.0000E+00  0.0000E+00
     -9.912  0.0000E+00  0.0000E+00  0.0000E+00  0.0000E+00
     -9.858  0.0000E+00  0.0000E+00  0.0000E+00  0.0000E+00
     -9.804  0.0000E+00  0.0000E+00  0.0000E+00  0.0000E+00
     -9.751  0.0000E+00  0.0000E+00  0.0000E+00  0.0000E+00
     -9.697  0.0000E+00  0.0000E+00  0.0000E+00  0.0000E+00
     -9.643  0.0000E+00  0.0000E+00  0.0000E+00  0.0000E+00
     -9.589  0.0000E+00  0.0000E+00  0.0000E+00  0.0000E+00
     -9.535  0.3668E-05  0.3641E-06  0.1973E-06  0.1958E-07
     -9.482  0.9252E+01  0.9153E+01  0.4976E+00  0.4923E+00
     -9.428  0.1462E+01  0.7252E+00  0.5762E+00  0.5313E+00
     -9.374  0.1718E+02  0.1801E+02  0.1500E+01  0.1500E+01
     -9.320  0.1845E+02  0.1815E+02  0.2492E+01  0.2476E+01
     -9.267  0.1302E+02  0.1150E+02  0.3192E+01  0.3095E+01
     -9.213  0.2485E+02  0.2626E+02  0.4528E+01  0.4507E+01
     -9.159  0.9123E+01  0.9299E+01  0.5019E+01  0.5007E+01
     -9.105  0.8942E+01  0.9165E+01  0.5500E+01  0.5500E+01
     -9.051  0.1814E+02  0.1400E+02  0.6475E+01  0.6253E+01
     -8.998  0.2663E+02  0.2806E+02  0.7908E+01  0.7762E+01
     -8.944  0.2496E+02  0.2609E+02  0.9250E+01  0.9165E+01
     -8.890  0.4163E+02  0.4288E+02  0.1149E+02  0.1147E+02
     -8.836  0.1246E+02  0.1117E+02  0.1216E+02  0.1207E+02
     -8.782  0.4908E+02  0.4561E+02  0.1480E+02  0.1452E+02
     -8.729  0.5131E+02  0.5232E+02  0.1756E+02  0.1734E+02
     -8.675  0.8695E+01  0.1243E+02  0.1803E+02  0.1801E+02
     -8.621  0.2748E+02  0.2677E+02  0.1950E+02  0.1945E+02
     -8.567  0.5566E+02  0.5657E+02  0.2250E+02  0.2249E+02
     -8.514  0.8792E+01  0.4691E+01  0.2297E+02  0.2274E+02
     -8.460  0.6196E+02  0.6308E+02  0.2630E+02  0.2613E+02
     -8.406  0.3817E+02  0.3747E+02  0.2836E+02  0.2815E+02
     -8.352  0.7061E+01  0.1045E+02  0.2873E+02  0.2871E+02
     -8.298  0.3293E+02  0.2750E+02  0.3051E+02  0.3019E+02
     -8.245  0.5711E+02  0.6121E+02  0.3358E+02  0.3348E+02
     -8.191  0.2014E+02  0.2044E+02  0.3466E+02  0.3458E+02
     -8.137  0.2253E+02  0.2146E+02  0.3587E+02  0.3574E+02
     -8.083  0.6797E+02  0.6464E+02  0.3953E+02  0.3921E+02
     -8.030  0.7134E+02  0.7496E+02  0.4336E+02  0.4324E+02
     -7.976  0.4676E+02  0.4678E+02  0.4588E+02  0.4576E+02
     -7.922  0.6350E+02  0.6117E+02  0.4929E+02  0.4905E+02
     -7.868  0.3595E+02  0.3769E+02  0.5123E+02  0.5108E+02
     -7.814  0.2173E+02  0.2268E+02  0.5240E+02  0.5230E+02
     -7.761  0.4116E+02  0.4146E+02  0.5461E+02  0.5453E+02
     -7.707  0.6231E+02  0.5879E+02  0.5796E+02  0.5769E+02
     -7.653  0.5680E+02  0.6098E+02  0.6102E+02  0.6097E+02
     -7.599  0.4870E+02  0.4548E+02  0.6364E+02  0.6341E+02
     -7.546  0.6419E+02  0.6429E+02  0.6709E+02  0.6687E+02
     -7.492  0.7122E+02  0.6955E+02  0.7092E+02  0.7061E+02
     -7.438  0.1072E+03  0.1024E+03  0.7668E+02  0.7612E+02
     -7.384  0.3330E+02  0.4118E+02  0.7848E+02  0.7834E+02
     -7.330  0.6448E+02  0.6254E+02  0.8194E+02  0.8170E+02
     -7.277  0.4785E+02  0.4795E+02  0.8452E+02  0.8428E+02
     -7.223  0.8026E+02  0.8034E+02  0.8883E+02  0.8860E+02
     -7.169  0.6591E+02  0.6216E+02  0.9238E+02  0.9194E+02
     -7.115  0.4797E+02  0.5366E+02  0.9496E+02  0.9483E+02
     -7.061  0.3327E+02  0.3355E+02  0.9675E+02  0.9663E+02
     -7.008  0.6252E+02  0.5911E+02  0.1001E+03  0.9981E+02
     -6.954  0.5398E+02  0.5521E+02  0.1030E+03  0.1028E+03
     -6.900  0.3946E+02  0.3933E+02  0.1051E+03  0.1049E+03
     -6.846  0.4027E+02  0.4234E+02  0.1073E+03  0.1072E+03
     -6.793  0.6986E+02  0.6740E+02  0.1111E+03  0.1108E+03
     -6.739  0.4331E+02  0.4704E+02  0.1134E+03  0.1133E+03
     -6.685  0.5630E+02  0.5550E+02  0.1164E+03  0.1163E+03
     -6.631  0.5554E+02  0.5531E+02  0.1194E+03  0.1193E+03
     -6.577  0.5529E+02  0.5295E+02  0.1224E+03  0.1221E+03
     -6.524  0.5151E+02  0.5434E+02  0.1251E+03  0.1251E+03
     -6.470  0.5141E+02  0.5012E+02  0.1279E+03  0.1278E+03
     -6.416  0.3556E+02  0.3474E+02  0.1298E+03  0.1296E+03
     -6.362  0.3167E+02  0.3421E+02  0.1315E+03  0.1315E+03
     -6.309  0.2864E+02  0.2781E+02  0.1331E+03  0.1330E+03
     -6.255  0.4435E+02  0.4146E+02  0.1355E+03  0.1352E+03
     -6.201  0.6548E+02  0.6141E+02  0.1390E+03  0.1385E+03
     -6.147  0.4186E+02  0.4773E+02  0.1412E+03  0.1411E+03
     -6.093  0.6516E+02  0.6315E+02  0.1447E+03  0.1445E+03
     -6.040  0.4014E+02  0.3974E+02  0.1469E+03  0.1466E+03
     -5.986  0.6066E+02  0.6384E+02  0.1502E+03  0.1500E+03
     -5.932  0.2889E+02  0.2823E+02  0.1517E+03  0.1515E+03
     -5.878  0.2528E+02  0.2707E+02  0.1531E+03  0.1530E+03
     -5.825  0.1415E+02  0.1413E+02  0.1538E+03  0.1538E+03
     -5.771  0.5419E+02  0.5189E+02  0.1567E+03  0.1565E+03
     -5.717  0.4283E+02  0.4166E+02  0.1590E+03  0.1588E+03
     -5.663  0.1751E+02  0.2138E+02  0.1600E+03  0.1599E+03
     -5.609  0.4296E+02  0.4035E+02  0.1623E+03  0.1621E+03
     -5.556  0.2232E+02  0.1712E+02  0.1635E+03  0.1630E+03
     -5.502  0.5276E+02  0.6021E+02  0.1663E+03  0.1663E+03
     -5.448  0.1176E+02  0.1181E+02  0.1670E+03  0.1669E+03
     -5.394  0.2374E+02  0.2320E+02  0.1682E+03  0.1682E+03
     -5.340  0.4448E+02  0.4289E+02  0.1706E+03  0.1705E+03
     -5.287  0.4663E+02  0.4848E+02  0.1731E+03  0.1731E+03
     -5.233  0.5062E+02  0.4593E+02  0.1759E+03  0.1755E+03
     -5.179  0.7053E+02  0.6877E+02  0.1797E+03  0.1792E+03
     -5.125  0.4398E+02  0.4782E+02  0.1820E+03  0.1818E+03
     -5.072  0.3786E+02  0.3989E+02  0.1841E+03  0.1840E+03
     -5.018  0.1908E+02  0.1996E+02  0.1851E+03  0.1850E+03
     -4.964  0.3617E+02  0.3673E+02  0.1870E+03  0.1870E+03
     -4.910  0.4357E+02  0.3975E+02  0.1894E+03  0.1891E+03
     -4.856  0.5859E+02  0.6237E+02  0.1925E+03  0.1925E+03
     -4.803  0.5405E+02  0.5035E+02  0.1954E+03  0.1952E+03
     -4.749  0.5789E+02  0.5859E+02  0.1985E+03  0.1984E+03
     -4.695  0.3968E+02  0.3904E+02  0.2007E+03  0.2005E+03
     -4.641  0.4674E+02  0.4600E+02  0.2032E+03  0.2029E+03
     -4.588  0.6340E+02  0.6525E+02  0.2066E+03  0.2064E+03
     -4.534  0.7727E+02  0.7517E+02  0.2108E+03  0.2105E+03
     -4.480  0.6892E+02  0.6785E+02  0.2145E+03  0.2141E+03
     -4.426  0.9017E+02  0.8873E+02  0.2193E+03  0.2189E+03
     -4.372  0.6911E+02  0.7073E+02  0.2230E+03  0.2227E+03
     -4.319  0.7370E+02  0.7602E+02  0.2270E+03  0.2268E+03
     -4.265  0.6769E+02  0.6760E+02  0.2306E+03  0.2304E+03
     -4.211  0.5211E+02  0.5146E+02  0.2334E+03  0.2332E+03
     -4.157  0.8265E+02  0.8020E+02  0.2379E+03  0.2375E+03
     -4.104  0.7778E+02  0.7770E+02  0.2421E+03  0.2417E+03
     -4.050  0.9501E+02  0.9573E+02  0.2472E+03  0.2468E+03
     -3.996  0.9622E+02  0.9674E+02  0.2524E+03  0.2520E+03
     -3.942  0.6959E+02  0.7317E+02  0.2561E+03  0.2560E+03
     -3.888  0.4692E+02  0.4434E+02  0.2586E+03  0.2584E+03
     -3.835  0.3782E+02  0.4043E+02  0.2607E+03  0.2605E+03
     -3.781  0.5468E+02  0.5252E+02  0.2636E+03  0.2634E+03
     -3.727  0.3428E+02  0.3659E+02  0.2654E+03  0.2653E+03
     -3.673  0.3930E+02  0.3566E+02  0.2676E+03  0.2672E+03
     -3.619  0.3181E+02  0.3737E+02  0.2693E+03  0.2693E+03
     -3.566  0.3927E+02  0.3616E+02  0.2714E+03  0.2712E+03
     -3.512  0.3951E+02  0.4193E+02  0.2735E+03  0.2735E+03
     -3.458  0.3476E+02  0.3410E+02  0.2754E+03  0.2753E+03
     -3.404  0.5522E+02  0.5091E+02  0.2783E+03  0.2780E+03
     -3.351  0.3482E+02  0.3789E+02  0.2802E+03  0.2801E+03
     -3.297  0.4583E+02  0.4304E+02  0.2827E+03  0.2824E+03
     -3.243  0.5533E+02  0.5761E+02  0.2857E+03  0.2855E+03
     -3.189  0.3995E+02  0.3765E+02  0.2878E+03  0.2875E+03
     -3.135  0.4051E+02  0.4403E+02  0.2900E+03  0.2899E+03
     -3.082  0.4987E+02  0.4526E+02  0.2927E+03  0.2923E+03
     -3.028  0.5266E+02  0.5592E+02  0.2955E+03  0.2953E+03
     -2.974  0.5901E+02  0.5976E+02  0.2987E+03  0.2985E+03
     -2.920  0.1980E+02  0.1973E+02  0.2997E+03  0.2996E+03
     -2.867  0.3343E+02  0.3155E+02  0.3015E+03  0.3013E+03
     -2.813  0.2053E+02  0.2115E+02  0.3026E+03  0.3024E+03
     -2.759  0.2504E+02  0.2712E+02  0.3040E+03  0.3039E+03
     -2.705  0.3741E+02  0.3843E+02  0.3060E+03  0.3059E+03
     -2.651  0.3656E+02  0.3283E+02  0.3080E+03  0.3077E+03
     -2.598  0.4544E+02  0.4359E+02  0.3104E+03  0.3101E+03
     -2.544  0.3102E+02  0.3460E+02  0.3121E+03  0.3119E+03
     -2.490  0.2353E+02  0.2175E+02  0.3133E+03  0.3131E+03
     -2.436  0.2684E+02  0.2802E+02  0.3148E+03  0.3146E+03
     -2.383  0.2902E+02  0.3110E+02  0.3163E+03  0.3163E+03
     -2.329  0.4001E+02  0.3358E+02  0.3185E+03  0.3181E+03
     -2.275  0.3585E+02  0.4145E+02  0.3204E+03  0.3203E+03
     -2.221  0.3677E+02  0.3715E+02  0.3224E+03  0.3223E+03
     -2.167  0.1862E+02  0.1837E+02  0.3234E+03  0.3233E+03
     -2.114  0.1627E+02  0.1754E+02  0.3243E+03  0.3242E+03
     -2.060  0.4129E+02  0.4048E+02  0.3265E+03  0.3264E+03
     -2.006  0.1408E+02  0.1548E+02  0.3273E+03  0.3272E+03
     -1.952  0.1218E+02  0.9315E+01  0.3279E+03  0.3277E+03
     -1.898  0.1451E+02  0.1590E+02  0.3287E+03  0.3286E+03
     -1.845  0.4699E+02  0.4774E+02  0.3312E+03  0.3312E+03
     -1.791  0.1609E+02  0.1617E+02  0.3321E+03  0.3320E+03
     -1.737  0.3043E+02  0.2818E+02  0.3337E+03  0.3335E+03
     -1.683  0.5256E+02  0.5210E+02  0.3365E+03  0.3363E+03
     -1.630  0.2423E+02  0.2516E+02  0.3378E+03  0.3377E+03
     -1.576  0.3360E+02  0.3391E+02  0.3397E+03  0.3395E+03
     -1.522  0.2516E+02  0.2616E+02  0.3410E+03  0.3409E+03
     -1.468  0.1389E+02  0.1512E+02  0.3418E+03  0.3417E+03
     -1.414  0.1347E+02  0.1231E+02  0.3425E+03  0.3424E+03
     -1.361  0.2396E+02  0.2437E+02  0.3438E+03  0.3437E+03
     -1.307  0.2617E+02  0.2436E+02  0.3452E+03  0.3450E+03
     -1.253  0.2738E+02  0.2756E+02  0.3466E+03  0.3465E+03
     -1.199  0.1524E+02  0.1650E+02  0.3475E+03  0.3474E+03
     -1.146  0.1078E+02  0.6755E+01  0.3480E+03  0.3478E+03
     -1.092  0.4530E+02  0.4898E+02  0.3505E+03  0.3504E+03
     -1.038  0.6398E+02  0.5745E+02  0.3539E+03  0.3535E+03
     -0.984  0.8641E+02  0.8965E+02  0.3586E+03  0.3583E+03
     -0.930  0.9647E+02  0.9397E+02  0.3638E+03  0.3634E+03
     -0.877  0.7340E+02  0.7562E+02  0.3677E+03  0.3674E+03
     -0.823  0.8451E+02  0.8316E+02  0.3723E+03  0.3719E+03
     -0.769  0.1054E+03  0.1053E+03  0.3779E+03  0.3776E+03
     -0.715  0.6370E+02  0.6526E+02  0.3813E+03  0.3811E+03
     -0.662  0.9806E+02  0.9526E+02  0.3866E+03  0.3862E+03
     -0.608  0.1088E+03  0.1070E+03  0.3925E+03  0.3920E+03
     -0.554  0.1202E+03  0.1212E+03  0.3989E+03  0.3985E+03
     -0.500  0.8296E+02  0.8396E+02  0.4034E+03  0.4030E+03
     -0.446  0.1084E+03  0.1081E+03  0.4092E+03  0.4088E+03
     -0.393  0.7683E+02  0.7868E+02  0.4134E+03  0.4130E+03
     -0.339  0.7666E+02  0.7754E+02  0.4175E+03  0.4172E+03
     -0.285  0.9079E+02  0.8952E+02  0.4224E+03  0.4220E+03
     -0.231  0.6129E+02  0.6279E+02  0.4257E+03  0.4254E+03
     -0.177  0.7268E+02  0.7045E+02  0.4296E+03  0.4292E+03
     -0.124  0.7698E+02  0.7640E+02  0.4337E+03  0.4333E+03
     -0.070  0.1144E+03  0.1135E+03  0.4399E+03  0.4394E+03
     -0.016  0.1261E+03  0.1257E+03  0.4466E+03  0.4462E+03
      0.038  0.1305E+03  0.1292E+03  0.4537E+03  0.4531E+03
      0.091  0.1142E+03  0.1135E+03  0.4598E+03  0.4592E+03
      0.145  0.1119E+03  0.1144E+03  0.4658E+03  0.4654E+03
      0.199  0.1285E+03  0.1288E+03  0.4727E+03  0.4723E+03
      0.253  0.1034E+03  0.1068E+03  0.4783E+03  0.4780E+03
      0.307  0.1357E+03  0.1257E+03  0.4856E+03  0.4848E+03
      0.360  0.1208E+03  0.1233E+03  0.4921E+03  0.4914E+03
      0.414  0.1092E+03  0.1109E+03  0.4980E+03  0.4974E+03
      0.468  0.1121E+03  0.1157E+03  0.5040E+03  0.5036E+03
      0.522  0.1173E+03  0.1146E+03  0.5103E+03  0.5098E+03
      0.575  0.1360E+03  0.1325E+03  0.5176E+03  0.5169E+03
      0.629  0.1142E+03  0.1170E+03  0.5238E+03  0.5232E+03
      0.683  0.9724E+02  0.1010E+03  0.5290E+03  0.5286E+03
      0.737  0.1113E+03  0.1109E+03  0.5350E+03  0.5346E+03
      0.791  0.1121E+03  0.1119E+03  0.5410E+03  0.5406E+03
      0.844  0.1098E+03  0.1089E+03  0.5469E+03  0.5465E+03
      0.898  0.1070E+03  0.1053E+03  0.5527E+03  0.5521E+03
      0.952  0.1020E+03  0.1029E+03  0.5582E+03  0.5577E+03
      1.006  0.1217E+03  0.1233E+03  0.5647E+03  0.5643E+03
      1.059  0.1148E+03  0.1115E+03  0.5709E+03  0.5703E+03
      1.113  0.8897E+02  0.9565E+02  0.5757E+03  0.5754E+03
      1.167  0.1186E+03  0.1115E+03  0.5820E+03  0.5814E+03
      1.221  0.8493E+02  0.8843E+02  0.5866E+03  0.5862E+03
      1.275  0.1031E+03  0.1033E+03  0.5921E+03  0.5917E+03
      1.328  0.8814E+02  0.8507E+02  0.5969E+03  0.5963E+03
      1.382  0.9496E+02  0.1011E+03  0.6020E+03  0.6017E+03
      1.436  0.8781E+02  0.8665E+02  0.6067E+03  0.6064E+03
      1.490  0.1070E+03  0.1066E+03  0.6125E+03  0.6121E+03
      1.544  0.9597E+02  0.9432E+02  0.6176E+03  0.6172E+03
      1.597  0.7535E+02  0.7998E+02  0.6217E+03  0.6215E+03
      1.651  0.7285E+02  0.6737E+02  0.6256E+03  0.6251E+03
      1.705  0.1031E+03  0.9847E+02  0.6311E+03  0.6304E+03
      1.759  0.8870E+02  0.8914E+02  0.6359E+03  0.6352E+03
      1.812  0.6595E+02  0.7151E+02  0.6395E+03  0.6391E+03
      1.866  0.8310E+02  0.8507E+02  0.6439E+03  0.6436E+03
      1.920  0.6703E+02  0.6526E+02  0.6475E+03  0.6472E+03
      1.974  0.9092E+02  0.8472E+02  0.6524E+03  0.6517E+03
      2.028  0.5991E+02  0.6232E+02  0.6557E+03  0.6551E+03
      2.081  0.8169E+02  0.8513E+02  0.6600E+03  0.6596E+03
      2.135  0.6126E+02  0.6267E+02  0.6633E+03  0.6630E+03
      2.189  0.9383E+02  0.8925E+02  0.6684E+03  0.6678E+03
      2.243  0.6963E+02  0.6424E+02  0.6721E+03  0.6713E+03
      2.296  0.6080E+02  0.7188E+02  0.6754E+03  0.6751E+03
      2.350  0.7642E+02  0.7135E+02  0.6795E+03  0.6790E+03
      2.404  0.7647E+02  0.7156E+02  0.6836E+03  0.6828E+03
      2.458  0.3996E+02  0.4527E+02  0.6858E+03  0.6853E+03
      2.512  0.7192E+02  0.7150E+02  0.6896E+03  0.6891E+03
      2.565  0.7820E+02  0.8143E+02  0.6938E+03  0.6935E+03
      2.619  0.6098E+02  0.6333E+02  0.6971E+03  0.6969E+03
      2.673  0.5738E+02  0.5267E+02  0.7002E+03  0.6997E+03
      2.727  0.7265E+02  0.6384E+02  0.7041E+03  0.7032E+03
      2.780  0.7142E+02  0.7654E+02  0.7080E+03  0.7073E+03
      2.834  0.7371E+02  0.6817E+02  0.7119E+03  0.7109E+03
      2.888  0.7061E+02  0.8150E+02  0.7157E+03  0.7153E+03
      2.942  0.6033E+02  0.5352E+02  0.7190E+03  0.7182E+03
      2.996  0.5967E+02  0.6500E+02  0.7222E+03  0.7217E+03
      3.049  0.5306E+02  0.5412E+02  0.7250E+03  0.7246E+03
      3.103  0.4554E+02  0.3825E+02  0.7275E+03  0.7267E+03
      3.157  0.5895E+02  0.5971E+02  0.7306E+03  0.7299E+03
      3.211  0.6310E+02  0.7134E+02  0.7340E+03  0.7337E+03
      3.265  0.6727E+02  0.6120E+02  0.7377E+03  0.7370E+03
      3.318  0.5250E+02  0.3855E+02  0.7405E+03  0.7391E+03
      3.372  0.4675E+02  0.5890E+02  0.7430E+03  0.7422E+03
      3.426  0.7481E+02  0.7936E+02  0.7470E+03  0.7465E+03
      3.480  0.4306E+02  0.3586E+02  0.7493E+03  0.7484E+03
      3.533  0.5099E+02  0.6526E+02  0.7521E+03  0.7519E+03
      3.587  0.5940E+02  0.5039E+02  0.7553E+03  0.7547E+03
      3.641  0.4260E+02  0.4775E+02  0.7576E+03  0.7572E+03
      3.695  0.4936E+02  0.5234E+02  0.7602E+03  0.7600E+03
      3.749  0.4169E+02  0.3900E+02  0.7625E+03  0.7621E+03
      3.802  0.5226E+02  0.5241E+02  0.7653E+03  0.7650E+03
      3.856  0.5987E+02  0.6075E+02  0.7685E+03  0.7682E+03
      3.910  0.5379E+02  0.5439E+02  0.7714E+03  0.7712E+03
      3.964  0.3491E+02  0.3199E+02  0.7733E+03  0.7729E+03
      4.017  0.5341E+02  0.5485E+02  0.7761E+03  0.7758E+03
      4.071  0.4354E+02  0.4796E+02  0.7785E+03  0.7784E+03
      4.125  0.5488E+02  0.5349E+02  0.7814E+03  0.7813E+03
      4.179  0.3490E+02  0.3680E+02  0.7833E+03  0.7833E+03
      4.233  0.4897E+02  0.4103E+02  0.7859E+03  0.7855E+03
      4.286  0.7820E+02  0.7655E+02  0.7901E+03  0.7896E+03
      4.340  0.8313E+02  0.9009E+02  0.7946E+03  0.7944E+03
      4.394  0.6159E+02  0.5464E+02  0.7979E+03  0.7974E+03
      4.448  0.5506E+02  0.6292E+02  0.8009E+03  0.8007E+03
      4.501  0.7309E+02  0.7132E+02  0.8048E+03  0.8046E+03
      4.555  0.8318E+02  0.7854E+02  0.8093E+03  0.8088E+03
      4.609  0.1083E+03  0.1125E+03  0.8151E+03  0.8149E+03
      4.663  0.1008E+03  0.9546E+02  0.8205E+03  0.8200E+03
      4.717  0.9560E+02  0.9794E+02  0.8257E+03  0.8253E+03
      4.770  0.6339E+02  0.6622E+02  0.8291E+03  0.8288E+03
      4.824  0.8313E+02  0.8438E+02  0.8336E+03  0.8334E+03
      4.878  0.7834E+02  0.7403E+02  0.8378E+03  0.8373E+03
      4.932  0.8596E+02  0.8460E+02  0.8424E+03  0.8419E+03
      4.986  0.1313E+03  0.1326E+03  0.8495E+03  0.8490E+03
      5.039  0.1277E+03  0.1276E+03  0.8563E+03  0.8559E+03
      5.093  0.9220E+02  0.9505E+02  0.8613E+03  0.8610E+03
      5.147  0.4488E+02  0.4384E+02  0.8637E+03  0.8634E+03
      5.201  0.5597E+01  0.1190E+02  0.8640E+03  0.8640E+03
      5.254  0.0000E+00  0.0000E+00  0.8640E+03  0.8640E+03
      5.308  0.0000E+00  0.0000E+00  0.8640E+03  0.8640E+03
      5.362  0.0000E+00  0.0000E+00  0.8640E+03  0.8640E+03
      5.416  0.0000E+00  0.0000E+00  0.8640E+03  0.8640E+03
      5.470  0.0000E+00  0.0000E+00  0.8640E+03  0.8640E+03
      5.523  0.0000E+00  0.0000E+00  0.8640E+03  0.8640E+03
      5.577  0.0000E+00  0.0000E+00  0.8640E+03  0.8640E+03
      5.631  0.0000E+00  0.0000E+00  0.8640E+03  0.8640E+03
      5.685  0.0000E+00  0.0000E+00  0.8640E+03  0.8640E+03
      5.738  0.0000E+00  0.0000E+00  0.8640E+03  0.8640E+03
      5.792  0.0000E+00  0.0000E+00  0.8640E+03  0.8640E+03
      5.846  0.0000E+00  0.0000E+00  0.8640E+03  0.8640E+03
      5.900  0.0000E+00  0.0000E+00  0.8640E+03  0.8640E+03
