  120  120    1    2
  0.8293659E+01  0.1330318E-08  0.1629300E-08  0.5029925E-09  0.5000000E-15
  1.000000000000000E-004
  CAR 
 Si and Ge interface calculation         
    480     20    288
 
  0.0000000E+00  0.0000000E+00  0.0000000E+00  0.2777778E-01
      1        -12.053171      -12.047883   1.000000   1.000000
      2        -11.854150      -11.849353   1.000000   1.000000
      3        -11.538263      -11.526750   1.000000   1.000000
      4        -11.316420      -11.304441   1.000000   1.000000
      5        -11.184972      -11.179040   1.000000   1.000000
      6        -11.102481      -11.095916   1.000000   1.000000
      7        -10.803198      -10.794063   1.000000   1.000000
      8        -10.642241      -10.633778   1.000000   1.000000
      9        -10.223809      -10.215153   1.000000   1.000000
     10         -9.925910       -9.916853   1.000000   1.000000
     11         -9.821180       -9.813937   1.000000   1.000000
     12         -9.676663       -9.665344   1.000000   1.000000
     13         -9.572124       -9.563926   1.000000   1.000000
     14         -9.471316       -9.462476   1.000000   1.000000
     15         -9.253270       -9.244310   1.000000   1.000000
     16         -9.032555       -9.024881   1.000000   1.000000
     17         -8.884611       -8.877355   1.000000   1.000000
     18         -8.437744       -8.429730   1.000000   1.000000
     19         -8.252112       -8.243913   1.000000   1.000000
     20         -8.230069       -8.221877   1.000000   1.000000
     21         -8.114423       -8.101372   1.000000   1.000000
     22         -8.030359       -8.021706   1.000000   1.000000
     23         -7.806164       -7.798092   1.000000   1.000000
     24         -7.621050       -7.612459   1.000000   1.000000
     25         -7.608017       -7.599928   1.000000   1.000000
     26         -7.365807       -7.357395   1.000000   1.000000
     27         -7.149539       -7.139871   1.000000   1.000000
     28         -6.991897       -6.981997   1.000000   1.000000
     29         -6.982266       -6.973338   1.000000   1.000000
     30         -6.821682       -6.812604   1.000000   1.000000
     31         -6.736544       -6.723589   1.000000   1.000000
     32         -6.654739       -6.647104   1.000000   1.000000
     33         -6.458159       -6.448254   1.000000   1.000000
     34         -6.434078       -6.420861   1.000000   1.000000
     35         -6.353671       -6.346256   1.000000   1.000000
     36         -6.335815       -6.327249   1.000000   1.000000
     37         -6.096754       -6.088294   1.000000   1.000000
     38         -5.882705       -5.871662   1.000000   1.000000
     39         -5.765692       -5.754170   1.000000   1.000000
     40         -5.453845       -5.441093   1.000000   1.000000
     41         -5.438446       -5.426918   1.000000   1.000000
     42         -5.411505       -5.402533   1.000000   1.000000
     43         -4.966710       -4.953938   1.000000   1.000000
     44         -4.946964       -4.936527   1.000000   1.000000
     45         -4.839456       -4.829617   1.000000   1.000000
     46         -4.630228       -4.621723   1.000000   1.000000
     47         -4.410987       -4.401143   1.000000   1.000000
     48         -4.353913       -4.341350   1.000000   1.000000
     49         -4.058427       -4.049572   1.000000   1.000000
     50         -3.969878       -3.961526   1.000000   1.000000
     51         -3.900055       -3.891929   1.000000   1.000000
     52         -3.884100       -3.875144   1.000000   1.000000
     53         -3.632839       -3.622759   1.000000   1.000000
     54         -3.427554       -3.416299   1.000000   1.000000
     55         -3.416937       -3.408246   1.000000   1.000000
     56         -3.294220       -3.283982   1.000000   1.000000
     57         -3.255403       -3.246724   1.000000   1.000000
     58         -3.175606       -3.164617   1.000000   1.000000
     59         -3.103886       -3.092687   1.000000   1.000000
     60         -3.096360       -3.086069   1.000000   1.000000
     61         -3.007750       -2.998801   1.000000   1.000000
     62         -2.971614       -2.961095   1.000000   1.000000
     63         -2.876233       -2.867595   1.000000   1.000000
     64         -2.663054       -2.653845   1.000000   1.000000
     65         -2.652456       -2.641551   1.000000   1.000000
     66         -2.607204       -2.597437   1.000000   1.000000
     67         -2.484215       -2.474430   1.000000   1.000000
     68         -2.379071       -2.369215   1.000000   1.000000
     69         -2.253901       -2.245237   1.000000   1.000000
     70         -2.165215       -2.154448   1.000000   1.000000
     71         -2.097105       -2.084409   1.000000   1.000000
     72         -1.926927       -1.918649   1.000000   1.000000
     73         -1.903033       -1.893148   1.000000   1.000000
     74         -1.882641       -1.870781   1.000000   1.000000
     75         -1.834958       -1.823754   1.000000   1.000000
     76         -1.762760       -1.754141   1.000000   1.000000
     77         -1.760188       -1.751046   1.000000   1.000000
     78         -1.687570       -1.678130   1.000000   1.000000
     79         -1.562773       -1.552425   1.000000   1.000000
     80         -1.478649       -1.468666   1.000000   1.000000
     81         -1.470338       -1.459299   1.000000   1.000000
     82         -1.392023       -1.379971   1.000000   1.000000
     83         -1.290297       -1.278488   1.000000   1.000000
     84         -1.257394       -1.245792   1.000000   1.000000
     85         -1.221042       -1.209556   1.000000   1.000000
     86         -1.020766       -1.009031   1.000000   1.000000
     87         -0.822060       -0.811065   1.000000   1.000000
     88         -0.771109       -0.760992   1.000000   1.000000
     89         -0.751679       -0.739672   1.000000   1.000000
     90         -0.685564       -0.675455   1.000000   1.000000
     91         -0.642329       -0.631713   1.000000   1.000000
     92         -0.590570       -0.578998   1.000000   1.000000
     93         -0.523672       -0.512530   1.000000   1.000000
     94         -0.500485       -0.489858   1.000000   1.000000
     95         -0.327776       -0.316077   1.000000   1.000000
     96         -0.317212       -0.307232   1.000000   1.000000
     97         -0.279602       -0.269863   1.000000   1.000000
     98         -0.148024       -0.137089   1.000000   1.000000
     99         -0.135663       -0.124208   1.000000   1.000000
    100          0.104438        0.113929   1.000000   1.000000
    101          0.225244        0.237705   1.000000   1.000000
    102          0.299364        0.309197   1.000000   1.000000
    103          0.379827        0.388697   1.000000   1.000000
    104          0.421970        0.433454   1.000000   1.000000
    105          0.448435        0.458162   1.000000   1.000000
    106          0.505584        0.517087   1.000000   1.000000
    107          0.506937        0.518043   1.000000   1.000000
    108          0.648483        0.660319   1.000000   1.000000
    109          0.716806        0.727879   1.000000   1.000000
    110          0.789353        0.799914   1.000000   1.000000
    111          0.804617        0.816971   1.000000   1.000000
    112          0.833797        0.844333   1.000000   1.000000
    113          0.898470        0.909229   1.000000   1.000000
    114          0.966646        0.979199   1.000000   1.000000
    115          1.058615        1.069343   1.000000   1.000000
    116          1.068980        1.080493   1.000000   1.000000
    117          1.120993        1.130013   1.000000   1.000000
    118          1.149236        1.159954   1.000000   1.000000
    119          1.232820        1.242976   1.000000   1.000000
    120          1.288139        1.297270   1.000000   1.000000
    121          1.325743        1.335258   1.000000   1.000000
    122          1.369789        1.380311   1.000000   1.000000
    123          1.419446        1.430371   1.000000   1.000000
    124          1.441162        1.451514   1.000000   1.000000
    125          1.581781        1.590394   1.000000   1.000000
    126          1.624791        1.635200   1.000000   1.000000
    127          1.736086        1.746006   1.000000   1.000000
    128          1.791930        1.803471   1.000000   1.000000
    129          1.869115        1.879426   1.000000   1.000000
    130          1.914455        1.923024   1.000000   1.000000
    131          1.988330        2.000211   1.000000   1.000000
    132          2.152016        2.161629   1.000000   1.000000
    133          2.167249        2.176975   1.000000   1.000000
    134          2.261288        2.271914   1.000000   1.000000
    135          2.286916        2.295989   1.000000   1.000000
    136          2.421243        2.431929   1.000000   1.000000
    137          2.443894        2.456291   1.000000   1.000000
    138          2.533342        2.543750   1.000000   1.000000
    139          2.546825        2.558422   1.000000   1.000000
    140          2.619721        2.632011   1.000000   1.000000
    141          2.706333        2.717049   1.000000   1.000000
    142          2.707678        2.717354   1.000000   1.000000
    143          2.785881        2.797069   1.000000   1.000000
    144          2.823566        2.833106   1.000000   1.000000
    145          2.877363        2.890180   1.000000   1.000000
    146          2.951266        2.960673   1.000000   1.000000
    147          3.001761        3.013605   1.000000   1.000000
    148          3.070422        3.081452   1.000000   1.000000
    149          3.145765        3.157256   1.000000   1.000000
    150          3.162167        3.173331   1.000000   1.000000
    151          3.197713        3.210431   1.000000   1.000000
    152          3.281982        3.293093   1.000000   1.000000
    153          3.390295        3.406424   1.000000   1.000000
    154          3.439759        3.450195   1.000000   1.000000
    155          3.510880        3.524778   1.000000   1.000000
    156          3.522776        3.534485   1.000000   1.000000
    157          3.602457        3.614886   1.000000   1.000000
    158          3.662802        3.676549   1.000000   1.000000
    159          3.736018        3.747767   1.000000   1.000000
    160          3.741011        3.754444   1.000000   1.000000
    161          3.984627        3.995878   1.000000   1.000000
    162          4.004747        4.019934   1.000000   1.000000
    163          4.063095        4.076326   1.000000   1.000000
    164          4.080102        4.097627   1.000000   1.000000
    165          4.196503        4.207208   1.000000   1.000000
    166          4.213438        4.223715   1.000000   1.000000
    167          4.241437        4.253769   1.000000   1.000000
    168          4.355950        4.368160   1.000000   1.000000
    169          4.411542        4.424293   1.000000   1.000000
    170          4.431222        4.443865   1.000000   1.000000
    171          4.535965        4.548571   1.000000   1.000000
    172          4.617322        4.630725   1.000000   1.000000
    173          4.687954        4.702663   1.000000   1.000000
    174          4.803109        4.819413   1.000000   1.000000
    175          4.839090        4.852068   1.000000   1.000000
    176          4.952785        4.966180   1.000000   1.000000
    177          4.965947        4.982187   1.000000   1.000000
    178          5.074467        5.090162   1.000000   1.000000
    179          5.189199        5.205157   1.000000   1.000000
    180          5.192612        5.207616   1.000000   1.000000
    181          5.302144        5.318944   1.000000   1.000000
    182          5.353125        5.368823   1.000000   1.000000
    183          5.416554        5.428826   1.000000   1.000000
    184          5.500073        5.511528   1.000000   1.000000
    185          5.606757        5.620898   1.000000   1.000000
    186          5.618906        5.639154   1.000000   1.000000
    187          5.629238        5.649407   1.000000   1.000000
    188          5.673454        5.690024   1.000000   1.000000
    189          5.725887        5.738678   1.000000   1.000000
    190          5.839989        5.853729   1.000000   1.000000
    191          5.909527        5.924239   1.000000   1.000000
    192          5.924967        5.941129   1.000000   1.000000
    193          5.997733        6.012434   1.000000   1.000000
    194          6.042591        6.058243   1.000000   1.000000
    195          6.064750        6.077601   1.000000   1.000000
    196          6.107852        6.120360   1.000000   1.000000
    197          6.272882        6.289313   1.000000   1.000000
    198          6.306101        6.325282   1.000000   1.000000
    199          6.489579        6.505836   1.000000   1.000000
    200          6.642929        6.662698   1.000000   1.000000
    201          6.727145        6.749717   1.000000   1.000000
    202          6.772800        6.788680   1.000000   1.000000
    203          6.971176        6.983403   1.000000   1.000000
    204          7.050546        7.071927   1.000000   1.000000
    205          7.120636        7.140051   1.000000   1.000000
    206          7.122750        7.142645   1.000000   1.000000
    207          7.171410        7.194133   1.000000   1.000000
    208          7.441766        7.456560   1.000000   1.000000
    209          7.484144        7.506016   1.000000   1.000000
    210          7.531064        7.545673   1.000000   1.000000
    211          7.720885        7.738275   1.000000   1.000000
    212          7.733685        7.754359   1.000000   1.000000
    213          7.899635        7.911483   1.000000   1.000000
    214          7.902442        7.919926   1.000000   1.000000
    215          7.949727        7.964402   1.000000   1.000000
    216          8.050374        8.071795   1.000000   1.000000
    217          8.260460        8.278142   1.000000   1.000000
    218          8.287216        8.301255   1.000000   1.000000
    219          8.314658        8.330680   1.000000   1.000000
    220          8.370126        8.385793   1.000000   1.000000
    221          8.486523        8.505102   1.000000   1.000000
    222          8.507014        8.527745   1.000000   1.000000
    223          8.554541        8.569810   1.000000   1.000000
    224          8.554883        8.573242   1.000000   1.000000
    225          8.618337        8.636602   1.000000   1.000000
    226          8.816512        8.843406   1.000000   1.000000
    227          8.838841        8.863459   1.000000   1.000000
    228          8.931526        8.948732   1.000000   1.000000
    229          9.069788        9.094529   1.000000   1.000000
    230          9.086744        9.114535   1.000000   1.000000
    231          9.130530        9.156582   1.000000   1.000000
    232          9.164480        9.185695   1.000000   1.000000
    233          9.265611        9.289121   1.000000   1.000000
    234          9.356704        9.377297   1.000000   1.000000
    235          9.414422        9.442031   1.000000   1.000000
    236          9.470535        9.496532   1.000000   1.000000
    237          9.530866        9.567015   1.000000   0.068706
    238          9.587750        9.613080   0.999862   0.000000
    239          9.616947        9.647115   0.311416   0.000000
    240          9.755776        9.777892   0.000000   0.000000
    241          9.796297        9.816544   0.000000   0.000000
    242          9.941411        9.967554   0.000000   0.000000
    243         10.029785       10.060097   0.000000   0.000000
    244         10.041548       10.066230   0.000000   0.000000
    245         10.230830       10.249291   0.000000   0.000000
    246         10.235375       10.256200   0.000000   0.000000
    247         10.293006       10.311012   0.000000   0.000000
    248         10.429149       10.448690   0.000000   0.000000
    249         10.518794       10.539466   0.000000   0.000000
    250         10.541812       10.562298   0.000000   0.000000
    251         10.636264       10.654636   0.000000   0.000000
    252         10.770980       10.793326   0.000000   0.000000
    253         10.825871       10.848879   0.000000   0.000000
    254         10.873106       10.889551   0.000000   0.000000
    255         10.948808       10.967229   0.000000   0.000000
    256         10.958372       10.976436   0.000000   0.000000
    257         11.156156       11.175889   0.000000   0.000000
    258         11.215752       11.230933   0.000000   0.000000
    259         11.224915       11.243997   0.000000   0.000000
    260         11.398039       11.418488   0.000000   0.000000
    261         11.420218       11.439751   0.000000   0.000000
    262         11.524358       11.542212   0.000000   0.000000
    263         11.599769       11.617001   0.000000   0.000000
    264         11.652397       11.667891   0.000000   0.000000
    265         11.679394       11.695613   0.000000   0.000000
    266         11.705901       11.719910   0.000000   0.000000
    267         11.768308       11.786478   0.000000   0.000000
    268         11.860761       11.879357   0.000000   0.000000
    269         11.951473       11.973800   0.000000   0.000000
    270         11.986191       12.002348   0.000000   0.000000
    271         12.116129       12.131515   0.000000   0.000000
    272         12.221502       12.236920   0.000000   0.000000
    273         12.321525       12.338716   0.000000   0.000000
    274         12.370813       12.387127   0.000000   0.000000
    275         12.424087       12.440214   0.000000   0.000000
    276         12.488128       12.508773   0.000000   0.000000
    277         12.609379       12.634669   0.000000   0.000000
    278         12.733502       12.750450   0.000000   0.000000
    279         12.749974       12.765850   0.000000   0.000000
    280         12.754410       12.766152   0.000000   0.000000
    281         12.973249       12.986035   0.000000   0.000000
    282         13.025236       13.039551   0.000000   0.000000
    283         13.088775       13.101231   0.000000   0.000000
    284         13.151646       13.164764   0.000000   0.000000
    285         13.242612       13.255540   0.000000   0.000000
    286         13.303882       13.320940   0.000000   0.000000
    287         13.366216       13.383176   0.000000   0.000000
    288         13.404550       13.424149   0.000000   0.000000
 
  0.3333333E+00  0.2133637E-17  0.0000000E+00  0.5555556E-01
      1        -12.012515      -12.007325   1.000000   1.000000
      2        -11.915614      -11.910657   1.000000   1.000000
      3        -11.504597      -11.493070   1.000000   1.000000
      4        -11.402476      -11.390785   1.000000   1.000000
      5        -11.125942      -11.120032   1.000000   1.000000
      6        -11.082491      -11.076256   1.000000   1.000000
      7        -10.703460      -10.694196   1.000000   1.000000
      8        -10.667477      -10.658622   1.000000   1.000000
      9        -10.285607      -10.276939   1.000000   1.000000
     10        -10.100921      -10.092206   1.000000   1.000000
     11         -9.756367       -9.748045   1.000000   1.000000
     12         -9.616277       -9.607366   1.000000   1.000000
     13         -9.576966       -9.567183   1.000000   1.000000
     14         -9.362919       -9.354382   1.000000   1.000000
     15         -9.260695       -9.251400   1.000000   1.000000
     16         -9.098689       -9.089478   1.000000   1.000000
     17         -8.758250       -8.751779   1.000000   1.000000
     18         -8.620059       -8.612765   1.000000   1.000000
     19         -8.376466       -8.367108   1.000000   1.000000
     20         -8.309187       -8.300672   1.000000   1.000000
     21         -7.994259       -7.985550   1.000000   1.000000
     22         -7.923363       -7.914879   1.000000   1.000000
     23         -7.838293       -7.827833   1.000000   1.000000
     24         -7.600598       -7.591824   1.000000   1.000000
     25         -7.478630       -7.469537   1.000000   1.000000
     26         -7.291880       -7.282873   1.000000   1.000000
     27         -7.130270       -7.120884   1.000000   1.000000
     28         -7.072071       -7.063490   1.000000   1.000000
     29         -6.914692       -6.905183   1.000000   1.000000
     30         -6.905206       -6.895877   1.000000   1.000000
     31         -6.746960       -6.735554   1.000000   1.000000
     32         -6.563858       -6.552934   1.000000   1.000000
     33         -6.547089       -6.539491   1.000000   1.000000
     34         -6.505500       -6.495665   1.000000   1.000000
     35         -6.339615       -6.329684   1.000000   1.000000
     36         -6.334888       -6.324715   1.000000   1.000000
     37         -6.007563       -5.998760   1.000000   1.000000
     38         -5.918072       -5.907740   1.000000   1.000000
     39         -5.722714       -5.713019   1.000000   1.000000
     40         -5.590404       -5.577651   1.000000   1.000000
     41         -5.548021       -5.536598   1.000000   1.000000
     42         -5.504479       -5.494391   1.000000   1.000000
     43         -4.944491       -4.933048   1.000000   1.000000
     44         -4.944228       -4.931860   1.000000   1.000000
     45         -4.695937       -4.686083   1.000000   1.000000
     46         -4.633007       -4.624438   1.000000   1.000000
     47         -4.466122       -4.456101   1.000000   1.000000
     48         -4.422951       -4.411147   1.000000   1.000000
     49         -3.974758       -3.966213   1.000000   1.000000
     50         -3.970229       -3.961215   1.000000   1.000000
     51         -3.824814       -3.815929   1.000000   1.000000
     52         -3.716878       -3.707819   1.000000   1.000000
     53         -3.579572       -3.570689   1.000000   1.000000
     54         -3.468868       -3.458445   1.000000   1.000000
     55         -3.405585       -3.394635   1.000000   1.000000
     56         -3.304384       -3.294307   1.000000   1.000000
     57         -3.303537       -3.293602   1.000000   1.000000
     58         -3.182453       -3.173807   1.000000   1.000000
     59         -3.077350       -3.066283   1.000000   1.000000
     60         -3.071071       -3.060956   1.000000   1.000000
     61         -3.010639       -3.001644   1.000000   1.000000
     62         -2.983258       -2.972287   1.000000   1.000000
     63         -2.884464       -2.875528   1.000000   1.000000
     64         -2.776871       -2.766809   1.000000   1.000000
     65         -2.634974       -2.625633   1.000000   1.000000
     66         -2.617564       -2.607945   1.000000   1.000000
     67         -2.383106       -2.372905   1.000000   1.000000
     68         -2.297329       -2.288120   1.000000   1.000000
     69         -2.265814       -2.255747   1.000000   1.000000
     70         -2.140023       -2.130396   1.000000   1.000000
     71         -2.139450       -2.127790   1.000000   1.000000
     72         -2.037155       -2.026075   1.000000   1.000000
     73         -1.995858       -1.986943   1.000000   1.000000
     74         -1.875577       -1.866093   1.000000   1.000000
     75         -1.829177       -1.819473   1.000000   1.000000
     76         -1.809126       -1.798708   1.000000   1.000000
     77         -1.742839       -1.731502   1.000000   1.000000
     78         -1.641570       -1.630892   1.000000   1.000000
     79         -1.629420       -1.618104   1.000000   1.000000
     80         -1.441111       -1.430234   1.000000   1.000000
     81         -1.435217       -1.424970   1.000000   1.000000
     82         -1.318412       -1.307030   1.000000   1.000000
     83         -1.275978       -1.264542   1.000000   1.000000
     84         -1.218597       -1.207092   1.000000   1.000000
     85         -1.185139       -1.173984   1.000000   1.000000
     86         -0.999987       -0.989145   1.000000   1.000000
     87         -0.987537       -0.976861   1.000000   1.000000
     88         -0.857386       -0.847335   1.000000   1.000000
     89         -0.833298       -0.822988   1.000000   1.000000
     90         -0.707211       -0.696215   1.000000   1.000000
     91         -0.615651       -0.605173   1.000000   1.000000
     92         -0.560962       -0.548751   1.000000   1.000000
     93         -0.517054       -0.505039   1.000000   1.000000
     94         -0.376644       -0.366144   1.000000   1.000000
     95         -0.353382       -0.343257   1.000000   1.000000
     96         -0.226247       -0.215984   1.000000   1.000000
     97         -0.213882       -0.202951   1.000000   1.000000
     98         -0.169589       -0.159458   1.000000   1.000000
     99         -0.159207       -0.149806   1.000000   1.000000
    100         -0.043018       -0.032383   1.000000   1.000000
    101          0.134742        0.146450   1.000000   1.000000
    102          0.194193        0.205729   1.000000   1.000000
    103          0.296711        0.306092   1.000000   1.000000
    104          0.392713        0.402776   1.000000   1.000000
    105          0.428079        0.440571   1.000000   1.000000
    106          0.453680        0.465031   1.000000   1.000000
    107          0.559740        0.571360   1.000000   1.000000
    108          0.614875        0.625746   1.000000   1.000000
    109          0.679375        0.691078   1.000000   1.000000
    110          0.718905        0.731616   1.000000   1.000000
    111          0.752659        0.763489   1.000000   1.000000
    112          0.881019        0.892021   1.000000   1.000000
    113          0.881911        0.892421   1.000000   1.000000
    114          1.002797        1.013494   1.000000   1.000000
    115          1.132342        1.143192   1.000000   1.000000
    116          1.186066        1.195566   1.000000   1.000000
    117          1.186915        1.196825   1.000000   1.000000
    118          1.206481        1.216908   1.000000   1.000000
    119          1.290929        1.301835   1.000000   1.000000
    120          1.303563        1.313147   1.000000   1.000000
    121          1.405386        1.415538   1.000000   1.000000
    122          1.430591        1.440773   1.000000   1.000000
    123          1.457599        1.468130   1.000000   1.000000
    124          1.544180        1.554394   1.000000   1.000000
    125          1.548145        1.557552   1.000000   1.000000
    126          1.643100        1.653729   1.000000   1.000000
    127          1.820104        1.831435   1.000000   1.000000
    128          1.832690        1.842780   1.000000   1.000000
    129          1.883204        1.893547   1.000000   1.000000
    130          1.980099        1.990606   1.000000   1.000000
    131          1.994225        2.004036   1.000000   1.000000
    132          2.011138        2.020712   1.000000   1.000000
    133          2.203702        2.213100   1.000000   1.000000
    134          2.297308        2.307191   1.000000   1.000000
    135          2.309994        2.320995   1.000000   1.000000
    136          2.391778        2.402277   1.000000   1.000000
    137          2.406139        2.416232   1.000000   1.000000
    138          2.520442        2.531628   1.000000   1.000000
    139          2.529868        2.540177   1.000000   1.000000
    140          2.597013        2.608025   1.000000   1.000000
    141          2.609521        2.620420   1.000000   1.000000
    142          2.686856        2.697996   1.000000   1.000000
    143          2.714301        2.725153   1.000000   1.000000
    144          2.811307        2.823434   1.000000   1.000000
    145          2.870006        2.880518   1.000000   1.000000
    146          2.928922        2.940549   1.000000   1.000000
    147          2.998387        3.010367   1.000000   1.000000
    148          3.095244        3.107052   1.000000   1.000000
    149          3.100409        3.111432   1.000000   1.000000
    150          3.196578        3.206474   1.000000   1.000000
    151          3.268367        3.278821   1.000000   1.000000
    152          3.288384        3.302163   1.000000   1.000000
    153          3.361146        3.372958   1.000000   1.000000
    154          3.444996        3.458863   1.000000   1.000000
    155          3.448846        3.462387   1.000000   1.000000
    156          3.514053        3.527142   1.000000   1.000000
    157          3.528584        3.541005   1.000000   1.000000
    158          3.667835        3.680529   1.000000   1.000000
    159          3.775174        3.786656   1.000000   1.000000
    160          3.919393        3.931030   1.000000   1.000000
    161          3.950729        3.965112   1.000000   1.000000
    162          4.026898        4.040802   1.000000   1.000000
    163          4.054640        4.067631   1.000000   1.000000
    164          4.100150        4.115444   1.000000   1.000000
    165          4.172213        4.183910   1.000000   1.000000
    166          4.193263        4.205317   1.000000   1.000000
    167          4.314658        4.326742   1.000000   1.000000
    168          4.369690        4.381400   1.000000   1.000000
    169          4.458512        4.469993   1.000000   1.000000
    170          4.528231        4.539110   1.000000   1.000000
    171          4.538890        4.552662   1.000000   1.000000
    172          4.568270        4.583390   1.000000   1.000000
    173          4.698132        4.713391   1.000000   1.000000
    174          4.761683        4.774697   1.000000   1.000000
    175          4.766601        4.780462   1.000000   1.000000