Si and Ge interface calculation         
           1
    13.303180    0.000000    0.000000
    -6.651589   14.873406    0.000000
     0.000000    0.000000    5.029925
   Si   C 
    36    84
Direct configuration=     1
   0.99715096  0.98005658  0.00000000
   0.96381754  0.74672317  0.24143688
   0.93048412  0.51338983  0.48287377
   0.33048421  0.31338987  0.00000000
   0.29715079  0.08005647  0.24143688
   0.26381737  0.84672308  0.48287377
   0.66381747  0.64672315  0.00000000
   0.63048405  0.41338971  0.24143688
   0.59715062  0.18005633  0.48287377
   0.31381753  0.94672334  0.12071820
   0.28048411  0.71338999  0.36215508
   0.24715069  0.48005658  0.60359186
   0.64715082  0.28005657  0.12071820
   0.61381739  0.04672319  0.36215505
   0.58048397  0.81338978  0.60359186
   0.98048443  0.61338985  0.12071823
   0.94715101  0.38005647  0.36215505
   0.91381758  0.14672309  0.60359186
   0.16381757  0.64672309  0.00000000
   0.13048416  0.41338971  0.24143688
   0.09715075  0.18005632  0.48287377
   0.49715090  0.98005664  0.00000001
   0.46381742  0.74672317  0.24143678
   0.43048406  0.51338983  0.48287368
   0.83048415  0.31338987  0.00000001
   0.79715073  0.08005653  0.24143678
   0.76381731  0.84672308  0.48287368
   0.14715090  0.28005657  0.12071820
   0.11381748  0.04672317  0.36215508
   0.08048407  0.81338978  0.60359186
   0.48048422  0.61338991  0.12071820
   0.44715083  0.38005653  0.36215505
   0.41381741  0.14672317  0.60359186
   0.81381750  0.94672328  0.12071820
   0.78048414  0.71338987  0.36215505
   0.74715072  0.48005646  0.60359186
   0.80354196  0.82711160  0.92071831
   0.17497040  0.85568315  0.60359192
   0.48925620  0.84139746  0.76215517
   0.94639903  0.68425441  0.92071855
   0.31782749  0.71282601  0.60359192
   0.63211328  0.69854021  0.76215517
   0.08925617  0.54139733  0.92071831
   0.46068469  0.56996888  0.60359192
   0.77497047  0.55568314  0.76215517
   0.23211336  0.39854017  0.92071831
   0.60354185  0.42711174  0.60359192
   0.91782767  0.41282594  0.76215517
   0.37497044  0.25568303  0.92071831
   0.74639898  0.28425461  0.60359192
   0.06068480  0.26996884  0.76215517
   0.51782763  0.11282588  0.92071831
   0.88925612  0.14139748  0.60359192
   0.20354187  0.12711169  0.76215517
   0.66068482  0.96996874  0.92071843
   0.03211325  0.99854028  0.60359192
   0.34639904  0.98425454  0.76215517
   0.35354185  0.92711163  0.99999976
   0.72497022  0.95568317  0.68287337
   0.03925610  0.94139743  0.84143663
   0.49639893  0.78425443  0.99999976
   0.86782730  0.81282598  0.68287337
   0.18211305  0.79854017  0.84143663
   0.63925624  0.64139736  0.99999976
   0.01068461  0.66996884  0.68287337
   0.32497048  0.65568316  0.84143663
   0.78211331  0.49854028  0.99999976
   0.15354168  0.52711177  0.68287337
   0.46782756  0.51282603  0.84143663
   0.92497027  0.35568306  0.99999988
   0.29639879  0.38425461  0.68287349
   0.61068457  0.36996886  0.84143663
   0.06782758  0.21282589  0.99999988
   0.43925607  0.24139749  0.68287337
   0.75354183  0.22711170  0.84143663
   0.21068478  0.06996880  0.99999988
   0.58211315  0.09854034  0.68287337
   0.89639890  0.08425457  0.84143663
   0.30354202  0.82711160  0.92071855
   0.67497045  0.85568327  0.60359192
   0.98925620  0.84139741  0.76215517
   0.44639921  0.68425441  0.92071855
   0.81782770  0.71282607  0.60359192
   0.13211334  0.69854021  0.76215517
   0.58925641  0.54139727  0.92071855
   0.96068478  0.56996894  0.60359192
   0.27497053  0.55568314  0.76215517
   0.73211342  0.39854023  0.92071855
   0.10354184  0.42711178  0.60359192
   0.41782767  0.41282597  0.76215517
   0.87497055  0.25568301  0.92071831
   0.24639897  0.28425458  0.60359192
   0.56068480  0.26996881  0.76215517
   0.01782763  0.11282588  0.92071831
   0.38925612  0.14139745  0.60359192
   0.70354193  0.12711167  0.76215517
   0.16068482  0.96996874  0.92071831
   0.53211325  0.99854034  0.60359192
   0.84639907  0.98425454  0.76215517
   0.85354179  0.92711163  0.99999976
   0.22497030  0.95568317  0.68287349
   0.53925604  0.94139737  0.84143663
   0.99639887  0.78425455  0.99999976
   0.36782739  0.81282610  0.68287349
   0.68211311  0.79854029  0.84143663
   0.13925612  0.64139736  0.99999976
   0.51068461  0.66996884  0.68287349
   0.82497042  0.65568310  0.84143663
   0.28211331  0.49854016  0.99999976
   0.65354174  0.52711171  0.68287349
   0.96782750  0.51282591  0.84143663
   0.42497039  0.35568309  0.99999976
   0.79639876  0.38425457  0.68287349
   0.11068463  0.36996883  0.84143663
   0.56782770  0.21282591  0.00000000
   0.93925607  0.24139749  0.68287337
   0.25354183  0.22711171  0.84143663
   0.71068478  0.06996882  0.99999976
   0.08211315  0.09854033  0.68287349
   0.39639902  0.08425461  0.84143663
