 180 180   0   0
  0.2731342E+02  0.1451029E-08  0.1946760E-08  0.1740444E-08  0.5000000E-15
  1.000000000000000E-004
  CAR 
 Si and Ge interface calculation         
      5.60641104    -10.17278385  301      2.75179721      1.00000000
    -10.173  0.0000E+00  0.0000E+00  0.0000E+00  0.0000E+00
    -10.120  0.0000E+00  0.0000E+00  0.0000E+00  0.0000E+00
    -10.068  0.0000E+00  0.0000E+00  0.0000E+00  0.0000E+00
    -10.015  0.0000E+00  0.0000E+00  0.0000E+00  0.0000E+00
     -9.962  0.0000E+00  0.0000E+00  0.0000E+00  0.0000E+00
     -9.910  0.0000E+00  0.0000E+00  0.0000E+00  0.0000E+00
     -9.857  0.0000E+00  0.0000E+00  0.0000E+00  0.0000E+00
     -9.805  0.0000E+00  0.0000E+00  0.0000E+00  0.0000E+00
     -9.752  0.0000E+00  0.0000E+00  0.0000E+00  0.0000E+00
     -9.699  0.0000E+00  0.0000E+00  0.0000E+00  0.0000E+00
     -9.647  0.0000E+00  0.0000E+00  0.0000E+00  0.0000E+00
     -9.594  0.0000E+00  0.0000E+00  0.0000E+00  0.0000E+00
     -9.542  0.0000E+00  0.0000E+00  0.0000E+00  0.0000E+00
     -9.489  0.5500E-05  0.5961E-06  0.2893E-06  0.3135E-07
     -9.436  0.9410E+01  0.9239E+01  0.4949E+00  0.4860E+00
     -9.384  0.1755E+01  0.9838E+00  0.5873E+00  0.5377E+00
     -9.331  0.1849E+02  0.1874E+02  0.1560E+01  0.1523E+01
     -9.279  0.2167E+02  0.2044E+02  0.2700E+01  0.2598E+01
     -9.226  0.1555E+02  0.1725E+02  0.3518E+01  0.3505E+01
     -9.173  0.2818E+02  0.2840E+02  0.5000E+01  0.4999E+01
     -9.121  0.1538E+02  0.1105E+02  0.5809E+01  0.5580E+01
     -9.068  0.4121E+02  0.4490E+02  0.7977E+01  0.7942E+01
     -9.016  0.2365E+02  0.2135E+02  0.9220E+01  0.9065E+01
     -8.963  0.8012E+01  0.9566E+01  0.9642E+01  0.9568E+01
     -8.910  0.3516E+02  0.3602E+02  0.1149E+02  0.1146E+02
     -8.858  0.3851E+02  0.3676E+02  0.1352E+02  0.1340E+02
     -8.805  0.5874E+02  0.5762E+02  0.1661E+02  0.1643E+02
     -8.753  0.8135E+01  0.1111E+02  0.1703E+02  0.1701E+02
     -8.700  0.2086E+02  0.2019E+02  0.1813E+02  0.1807E+02
     -8.647  0.3561E+02  0.3662E+02  0.2000E+02  0.2000E+02
     -8.595  0.2853E+02  0.2854E+02  0.2151E+02  0.2150E+02
     -8.542  0.6475E+02  0.5962E+02  0.2491E+02  0.2464E+02
     -8.490  0.4183E+02  0.4461E+02  0.2711E+02  0.2698E+02
     -8.437  0.2661E+02  0.2893E+02  0.2851E+02  0.2850E+02
     -8.384  0.3351E+02  0.3307E+02  0.3027E+02  0.3024E+02
     -8.332  0.6086E+02  0.5642E+02  0.3347E+02  0.3321E+02
     -8.279  0.1465E+02  0.1893E+02  0.3424E+02  0.3421E+02
     -8.227  0.2158E+02  0.1637E+02  0.3538E+02  0.3507E+02
     -8.174  0.3254E+02  0.3732E+02  0.3709E+02  0.3703E+02
     -8.121  0.5249E+02  0.5028E+02  0.3985E+02  0.3968E+02
     -8.069  0.6465E+02  0.6092E+02  0.4325E+02  0.4288E+02
     -8.016  0.7109E+02  0.7769E+02  0.4699E+02  0.4697E+02
     -7.964  0.6587E+02  0.6497E+02  0.5046E+02  0.5038E+02
     -7.911  0.4153E+02  0.3783E+02  0.5264E+02  0.5237E+02
     -7.859  0.3530E+02  0.3950E+02  0.5450E+02  0.5445E+02
     -7.806  0.2941E+02  0.2816E+02  0.5604E+02  0.5593E+02
     -7.753  0.4508E+02  0.4159E+02  0.5841E+02  0.5812E+02
     -7.701  0.5441E+02  0.5757E+02  0.6128E+02  0.6115E+02
     -7.648  0.6110E+02  0.6008E+02  0.6449E+02  0.6431E+02
     -7.596  0.5712E+02  0.5778E+02  0.6749E+02  0.6735E+02
     -7.543  0.7117E+02  0.6676E+02  0.7124E+02  0.7086E+02
     -7.490  0.7328E+02  0.7073E+02  0.7509E+02  0.7458E+02
     -7.438  0.6387E+02  0.6939E+02  0.7845E+02  0.7823E+02
     -7.385  0.5784E+02  0.5825E+02  0.8149E+02  0.8129E+02
     -7.333  0.9285E+02  0.9069E+02  0.8638E+02  0.8606E+02
     -7.280  0.3905E+02  0.4241E+02  0.8843E+02  0.8829E+02
     -7.227  0.8341E+02  0.8322E+02  0.9282E+02  0.9267E+02
     -7.175  0.5696E+02  0.5769E+02  0.9582E+02  0.9570E+02
     -7.122  0.2302E+02  0.2225E+02  0.9703E+02  0.9687E+02
     -7.070  0.2814E+02  0.2936E+02  0.9851E+02  0.9842E+02
     -7.017  0.8735E+02  0.8281E+02  0.1031E+03  0.1028E+03
     -6.964  0.4408E+02  0.4798E+02  0.1054E+03  0.1053E+03
     -6.912  0.6575E+02  0.5986E+02  0.1089E+03  0.1084E+03
     -6.859  0.5175E+02  0.5751E+02  0.1116E+03  0.1115E+03
     -6.807  0.3743E+02  0.3914E+02  0.1136E+03  0.1135E+03
     -6.754  0.6287E+02  0.5620E+02  0.1169E+03  0.1165E+03
     -6.701  0.6378E+02  0.6706E+02  0.1202E+03  0.1200E+03
     -6.649  0.3745E+02  0.3903E+02  0.1222E+03  0.1221E+03
     -6.596  0.6020E+02  0.6022E+02  0.1254E+03  0.1252E+03
     -6.544  0.1578E+02  0.1205E+02  0.1262E+03  0.1259E+03
     -6.491  0.6488E+02  0.6777E+02  0.1296E+03  0.1294E+03
     -6.438  0.3225E+02  0.3169E+02  0.1313E+03  0.1311E+03
     -6.386  0.5038E+02  0.5097E+02  0.1340E+03  0.1338E+03
     -6.333  0.3557E+02  0.3457E+02  0.1358E+03  0.1356E+03
     -6.281  0.3697E+02  0.4042E+02  0.1378E+03  0.1377E+03
     -6.228  0.4763E+02  0.4471E+02  0.1403E+03  0.1401E+03
     -6.175  0.6057E+02  0.6085E+02  0.1435E+03  0.1433E+03
     -6.123  0.5410E+02  0.5345E+02  0.1463E+03  0.1461E+03
     -6.070  0.4599E+02  0.4646E+02  0.1487E+03  0.1485E+03
     -6.018  0.2042E+02  0.2246E+02  0.1498E+03  0.1497E+03
     -5.965  0.4595E+02  0.4510E+02  0.1522E+03  0.1521E+03
     -5.912  0.3900E+02  0.3987E+02  0.1543E+03  0.1542E+03
     -5.860  0.1742E+02  0.1670E+02  0.1552E+03  0.1551E+03
     -5.807  0.4491E+02  0.4482E+02  0.1575E+03  0.1574E+03
     -5.755  0.3596E+02  0.3096E+02  0.1594E+03  0.1590E+03
     -5.702  0.4902E+02  0.5182E+02  0.1620E+03  0.1618E+03
     -5.649  0.3617E+02  0.3390E+02  0.1639E+03  0.1636E+03
     -5.597  0.4212E+02  0.4436E+02  0.1661E+03  0.1659E+03
     -5.544  0.2005E+02  0.2324E+02  0.1672E+03  0.1671E+03
     -5.492  0.2060E+02  0.2069E+02  0.1683E+03  0.1682E+03
     -5.439  0.4128E+02  0.3578E+02  0.1704E+03  0.1701E+03
     -5.386  0.5569E+02  0.6086E+02  0.1734E+03  0.1733E+03
     -5.334  0.4807E+02  0.4498E+02  0.1759E+03  0.1756E+03
     -5.281  0.5346E+02  0.5306E+02  0.1787E+03  0.1784E+03
     -5.229  0.5393E+02  0.5296E+02  0.1815E+03  0.1812E+03
     -5.176  0.4274E+02  0.4773E+02  0.1838E+03  0.1837E+03
     -5.123  0.3804E+02  0.3673E+02  0.1858E+03  0.1857E+03
     -5.071  0.4636E+02  0.4807E+02  0.1882E+03  0.1882E+03
     -5.018  0.3882E+02  0.3599E+02  0.1903E+03  0.1901E+03
     -4.966  0.5011E+02  0.5248E+02  0.1929E+03  0.1928E+03
     -4.913  0.3847E+02  0.3544E+02  0.1949E+03  0.1947E+03
     -4.860  0.7140E+02  0.7257E+02  0.1987E+03  0.1985E+03
     -4.808  0.6131E+02  0.6145E+02  0.2019E+03  0.2018E+03
     -4.755  0.2301E+02  0.2037E+02  0.2031E+03  0.2028E+03
     -4.703  0.8981E+02  0.9017E+02  0.2078E+03  0.2076E+03
     -4.650  0.7800E+02  0.7836E+02  0.2120E+03  0.2117E+03
     -4.597  0.4495E+02  0.4339E+02  0.2143E+03  0.2140E+03
     -4.545  0.7376E+02  0.7309E+02  0.2182E+03  0.2178E+03
     -4.492  0.5508E+02  0.5475E+02  0.2211E+03  0.2207E+03
     -4.440  0.9734E+02  0.9777E+02  0.2262E+03  0.2258E+03
     -4.387  0.4973E+02  0.5283E+02  0.2288E+03  0.2286E+03
     -4.334  0.7648E+02  0.7832E+02  0.2329E+03  0.2327E+03
     -4.282  0.8120E+02  0.7422E+02  0.2371E+03  0.2366E+03
     -4.229  0.1103E+03  0.1163E+03  0.2429E+03  0.2428E+03
     -4.177  0.8757E+02  0.8596E+02  0.2475E+03  0.2473E+03
     -4.124  0.7920E+02  0.7543E+02  0.2517E+03  0.2512E+03
     -4.071  0.8575E+02  0.8701E+02  0.2562E+03  0.2558E+03
     -4.019  0.5372E+02  0.5626E+02  0.2590E+03  0.2588E+03
     -3.966  0.3019E+02  0.3289E+02  0.2606E+03  0.2605E+03
     -3.914  0.5169E+02  0.4724E+02  0.2633E+03  0.2630E+03
     -3.861  0.3881E+02  0.4387E+02  0.2654E+03  0.2653E+03
     -3.809  0.4112E+02  0.3922E+02  0.2675E+03  0.2674E+03
     -3.756  0.5020E+02  0.5138E+02  0.2702E+03  0.2701E+03
     -3.703  0.4236E+02  0.4105E+02  0.2724E+03  0.2722E+03
     -3.651  0.3278E+02  0.3365E+02  0.2741E+03  0.2740E+03
     -3.598  0.6507E+02  0.6224E+02  0.2776E+03  0.2773E+03
     -3.546  0.1859E+02  0.2219E+02  0.2785E+03  0.2784E+03
     -3.493  0.3870E+02  0.3719E+02  0.2806E+03  0.2804E+03
     -3.440  0.4731E+02  0.4561E+02  0.2831E+03  0.2828E+03
     -3.388  0.5459E+02  0.5630E+02  0.2859E+03  0.2858E+03
     -3.335  0.5477E+02  0.5495E+02  0.2888E+03  0.2886E+03
     -3.283  0.3262E+02  0.3484E+02  0.2905E+03  0.2905E+03
     -3.230  0.4434E+02  0.4122E+02  0.2929E+03  0.2926E+03
     -3.177  0.6723E+02  0.6533E+02  0.2964E+03  0.2961E+03
     -3.125  0.4438E+02  0.4983E+02  0.2987E+03  0.2987E+03
     -3.072  0.4285E+02  0.3855E+02  0.3010E+03  0.3007E+03
     -3.020  0.2119E+02  0.2370E+02  0.3021E+03  0.3020E+03
     -2.967  0.2405E+02  0.2060E+02  0.3034E+03  0.3031E+03
     -2.914  0.2925E+02  0.3337E+02  0.3049E+03  0.3048E+03
     -2.862  0.2893E+02  0.2537E+02  0.3064E+03  0.3062E+03
     -2.809  0.4694E+02  0.4479E+02  0.3089E+03  0.3085E+03
     -2.757  0.3534E+02  0.3711E+02  0.3108E+03  0.3105E+03
     -2.704  0.2427E+02  0.2936E+02  0.3120E+03  0.3120E+03
     -2.651  0.3618E+02  0.3294E+02  0.3139E+03  0.3137E+03
     -2.599  0.1599E+02  0.1522E+02  0.3148E+03  0.3145E+03
     -2.546  0.4137E+02  0.4317E+02  0.3169E+03  0.3168E+03
     -2.494  0.1927E+02  0.1598E+02  0.3180E+03  0.3176E+03
     -2.441  0.6273E+02  0.6462E+02  0.3213E+03  0.3210E+03
     -2.388  0.2358E+02  0.2747E+02  0.3225E+03  0.3225E+03
     -2.336  0.2321E+02  0.1976E+02  0.3237E+03  0.3235E+03
     -2.283  0.2168E+02  0.2085E+02  0.3249E+03  0.3246E+03
     -2.231  0.2627E+02  0.2775E+02  0.3262E+03  0.3261E+03
     -2.178  0.2356E+02  0.2338E+02  0.3275E+03  0.3273E+03
     -2.125  0.1457E+02  0.1769E+02  0.3283E+03  0.3282E+03
     -2.073  0.2621E+02  0.2242E+02  0.3296E+03  0.3294E+03
     -2.020  0.4106E+02  0.4339E+02  0.3318E+03  0.3317E+03
     -1.968  0.3466E+02  0.3382E+02  0.3336E+03  0.3335E+03
     -1.915  0.3947E+02  0.3542E+02  0.3357E+03  0.3354E+03
     -1.862  0.1986E+02  0.2351E+02  0.3367E+03  0.3366E+03
     -1.810  0.5960E+02  0.6019E+02  0.3399E+03  0.3398E+03
     -1.757  0.2619E+01  0.4674E+01  0.3400E+03  0.3400E+03
     -1.705  0.2795E+02  0.2501E+02  0.3415E+03  0.3413E+03
     -1.652  0.1858E+02  0.2038E+02  0.3425E+03  0.3424E+03
     -1.599  0.1402E+02  0.1287E+02  0.3432E+03  0.3431E+03
     -1.547  0.1240E+02  0.1337E+02  0.3438E+03  0.3438E+03
     -1.494  0.3609E+02  0.3668E+02  0.3457E+03  0.3457E+03
     -1.442  0.1709E+02  0.1526E+02  0.3466E+03  0.3465E+03
     -1.389  0.1321E+02  0.1479E+02  0.3473E+03  0.3473E+03
     -1.336  0.1998E+02  0.1937E+02  0.3484E+03  0.3483E+03
     -1.284  0.2495E+02  0.2353E+02  0.3497E+03  0.3495E+03
     -1.231  0.2152E+02  0.2196E+02  0.3508E+03  0.3507E+03
     -1.179  0.2619E+02  0.2545E+02  0.3522E+03  0.3520E+03
     -1.126  0.6165E+01  0.9145E+01  0.3525E+03  0.3525E+03
     -1.073  0.8089E+02  0.7761E+02  0.3568E+03  0.3566E+03
     -1.021  0.8748E+02  0.8833E+02  0.3614E+03  0.3612E+03
     -0.968  0.8017E+02  0.7324E+02  0.3656E+03  0.3651E+03
     -0.916  0.1167E+03  0.1173E+03  0.3717E+03  0.3713E+03
     -0.863  0.1142E+03  0.1156E+03  0.3777E+03  0.3773E+03
     -0.810  0.5408E+02  0.5599E+02  0.3806E+03  0.3803E+03
     -0.758  0.8451E+02  0.8395E+02  0.3850E+03  0.3847E+03
     -0.705  0.1182E+03  0.1144E+03  0.3913E+03  0.3907E+03
     -0.653  0.1167E+03  0.1186E+03  0.3974E+03  0.3970E+03
     -0.600  0.9904E+02  0.1002E+03  0.4026E+03  0.4022E+03
     -0.547  0.1083E+03  0.1102E+03  0.4083E+03  0.4080E+03
     -0.495  0.9477E+02  0.9315E+02  0.4133E+03  0.4129E+03
     -0.442  0.9913E+02  0.9877E+02  0.4185E+03  0.4181E+03
     -0.390  0.8456E+02  0.8353E+02  0.4229E+03  0.4225E+03
     -0.337  0.6402E+02  0.6665E+02  0.4263E+03  0.4260E+03
     -0.284  0.8447E+02  0.8416E+02  0.4308E+03  0.4304E+03
     -0.232  0.9342E+02  0.9293E+02  0.4357E+03  0.4353E+03
     -0.179  0.1040E+03  0.9872E+02  0.4411E+03  0.4405E+03
     -0.127  0.1280E+03  0.1317E+03  0.4479E+03  0.4475E+03
     -0.074  0.1272E+03  0.1271E+03  0.4546E+03  0.4541E+03
     -0.022  0.1003E+03  0.9638E+02  0.4598E+03  0.4592E+03
      0.031  0.1299E+03  0.1325E+03  0.4667E+03  0.4662E+03
      0.084  0.1153E+03  0.1161E+03  0.4727E+03  0.4723E+03
      0.136  0.1318E+03  0.1255E+03  0.4797E+03  0.4789E+03
      0.189  0.1218E+03  0.1290E+03  0.4861E+03  0.4857E+03
      0.241  0.1375E+03  0.1347E+03  0.4933E+03  0.4928E+03
      0.294  0.1238E+03  0.1234E+03  0.4998E+03  0.4992E+03
      0.347  0.1109E+03  0.1111E+03  0.5056E+03  0.5051E+03
      0.399  0.1056E+03  0.1083E+03  0.5112E+03  0.5108E+03
      0.452  0.1402E+03  0.1378E+03  0.5186E+03  0.5180E+03
      0.504  0.1347E+03  0.1326E+03  0.5257E+03  0.5250E+03
      0.557  0.1078E+03  0.1099E+03  0.5313E+03  0.5308E+03
      0.610  0.1140E+03  0.1119E+03  0.5373E+03  0.5367E+03
      0.662  0.9480E+02  0.1028E+03  0.5423E+03  0.5421E+03
      0.715  0.9848E+02  0.9539E+02  0.5475E+03  0.5471E+03
      0.767  0.1200E+03  0.1212E+03  0.5538E+03  0.5535E+03
      0.820  0.1044E+03  0.1019E+03  0.5593E+03  0.5588E+03
      0.873  0.9894E+02  0.1027E+03  0.5645E+03  0.5642E+03
      0.925  0.1253E+03  0.1219E+03  0.5711E+03  0.5706E+03
      0.978  0.1177E+03  0.1188E+03  0.5773E+03  0.5769E+03
      1.030  0.1083E+03  0.1077E+03  0.5830E+03  0.5825E+03
      1.083  0.7448E+02  0.7236E+02  0.5869E+03  0.5864E+03
      1.136  0.1135E+03  0.1179E+03  0.5929E+03  0.5926E+03
      1.188  0.9657E+02  0.9497E+02  0.5979E+03  0.5976E+03
      1.241  0.1003E+03  0.9352E+02  0.6032E+03  0.6025E+03
      1.293  0.9024E+02  0.9580E+02  0.6080E+03  0.6075E+03
      1.346  0.1246E+03  0.1250E+03  0.6145E+03  0.6141E+03
      1.399  0.9885E+02  0.9645E+02  0.6197E+03  0.6192E+03
      1.451  0.6710E+02  0.7171E+02  0.6233E+03  0.6229E+03
      1.504  0.1099E+03  0.1029E+03  0.6290E+03  0.6283E+03
      1.556  0.7628E+02  0.7959E+02  0.6330E+03  0.6325E+03
      1.609  0.8311E+02  0.8246E+02  0.6374E+03  0.6369E+03
      1.662  0.7825E+02  0.8162E+02  0.6415E+03  0.6412E+03
      1.714  0.6487E+02  0.6428E+02  0.6449E+03  0.6445E+03
      1.767  0.8101E+02  0.8205E+02  0.6492E+03  0.6489E+03
      1.819  0.6311E+02  0.6060E+02  0.6525E+03  0.6520E+03
      1.872  0.7450E+02  0.7910E+02  0.6564E+03  0.6562E+03
      1.925  0.8042E+02  0.8102E+02  0.6607E+03  0.6605E+03
      1.977  0.6922E+02  0.6693E+02  0.6643E+03  0.6640E+03
      2.030  0.8537E+02  0.8518E+02  0.6688E+03  0.6685E+03
      2.082  0.7797E+02  0.7703E+02  0.6729E+03  0.6725E+03
      2.135  0.7518E+02  0.6927E+02  0.6769E+03  0.6762E+03
      2.188  0.8279E+02  0.8061E+02  0.6812E+03  0.6804E+03
      2.240  0.5486E+02  0.6043E+02  0.6841E+03  0.6836E+03
      2.293  0.5622E+02  0.5504E+02  0.6871E+03  0.6865E+03
      2.345  0.8924E+02  0.8984E+02  0.6918E+03  0.6912E+03
      2.398  0.6315E+02  0.5962E+02  0.6951E+03  0.6943E+03
      2.451  0.6401E+02  0.6606E+02  0.6984E+03  0.6978E+03
      2.503  0.7675E+02  0.7361E+02  0.7025E+03  0.7017E+03
      2.556  0.4508E+02  0.4388E+02  0.7049E+03  0.7040E+03
      2.608  0.7539E+02  0.8035E+02  0.7088E+03  0.7082E+03
      2.661  0.8174E+02  0.7935E+02  0.7131E+03  0.7124E+03
      2.714  0.7805E+02  0.8028E+02  0.7172E+03  0.7166E+03
      2.766  0.5454E+02  0.5806E+02  0.7201E+03  0.7197E+03
      2.819  0.5371E+02  0.5768E+02  0.7229E+03  0.7227E+03
      2.871  0.5569E+02  0.4469E+02  0.7258E+03  0.7250E+03
      2.924  0.5915E+02  0.6233E+02  0.7290E+03  0.7283E+03
      2.977  0.5160E+02  0.4905E+02  0.7317E+03  0.7309E+03
      3.029  0.6162E+02  0.7112E+02  0.7349E+03  0.7346E+03
      3.082  0.4941E+02  0.4102E+02  0.7375E+03  0.7368E+03
      3.134  0.5461E+02  0.5007E+02  0.7404E+03  0.7394E+03
      3.187  0.6236E+02  0.7087E+02  0.7437E+03  0.7432E+03
      3.240  0.4882E+02  0.5103E+02  0.7462E+03  0.7459E+03
      3.292  0.5568E+02  0.4899E+02  0.7492E+03  0.7484E+03
      3.345  0.5569E+02  0.5952E+02  0.7521E+03  0.7516E+03
      3.397  0.5966E+02  0.5893E+02  0.7552E+03  0.7547E+03
      3.450  0.2992E+02  0.3902E+02  0.7568E+03  0.7567E+03
      3.503  0.4771E+02  0.4503E+02  0.7593E+03  0.7591E+03
      3.555  0.4986E+02  0.4842E+02  0.7619E+03  0.7616E+03
      3.608  0.6190E+02  0.5959E+02  0.7652E+03  0.7648E+03
      3.660  0.7589E+02  0.7428E+02  0.7692E+03  0.7687E+03
      3.713  0.3992E+02  0.4198E+02  0.7713E+03  0.7709E+03
      3.766  0.5266E+02  0.5327E+02  0.7740E+03  0.7737E+03
      3.818  0.5013E+02  0.5119E+02  0.7767E+03  0.7764E+03
      3.871  0.6111E+02  0.6139E+02  0.7799E+03  0.7796E+03
      3.923  0.3332E+02  0.3122E+02  0.7817E+03  0.7812E+03
      3.976  0.6072E+02  0.6360E+02  0.7848E+03  0.7846E+03
      4.028  0.7899E+02  0.7326E+02  0.7890E+03  0.7884E+03
      4.081  0.6836E+02  0.7083E+02  0.7926E+03  0.7922E+03
      4.134  0.9619E+02  0.9811E+02  0.7977E+03  0.7973E+03
      4.186  0.7603E+02  0.7651E+02  0.8017E+03  0.8013E+03
      4.239  0.8219E+02  0.8474E+02  0.8060E+03  0.8058E+03
      4.291  0.7376E+02  0.7340E+02  0.8099E+03  0.8097E+03
      4.344  0.9040E+02  0.8601E+02  0.8146E+03  0.8142E+03
      4.397  0.1001E+03  0.1032E+03  0.8199E+03  0.8196E+03
      4.449  0.1082E+03  0.1060E+03  0.8256E+03  0.8252E+03
      4.502  0.8685E+02  0.8974E+02  0.8301E+03  0.8299E+03
      4.554  0.9946E+02  0.9642E+02  0.8354E+03  0.8350E+03
      4.607  0.1076E+03  0.1074E+03  0.8410E+03  0.8406E+03
      4.660  0.1248E+03  0.1258E+03  0.8476E+03  0.8472E+03
      4.712  0.1047E+03  0.1040E+03  0.8531E+03  0.8527E+03
      4.765  0.7908E+02  0.8267E+02  0.8573E+03  0.8571E+03
      4.817  0.8460E+02  0.8407E+02  0.8617E+03  0.8615E+03
      4.870  0.3225E+02  0.3751E+02  0.8634E+03  0.8635E+03
      4.923  0.1147E+02  0.1025E+02  0.8640E+03  0.8640E+03
      4.975  0.0000E+00  0.0000E+00  0.8640E+03  0.8640E+03
      5.028  0.0000E+00  0.0000E+00  0.8640E+03  0.8640E+03
      5.080  0.0000E+00  0.0000E+00  0.8640E+03  0.8640E+03
      5.133  0.0000E+00  0.0000E+00  0.8640E+03  0.8640E+03
      5.186  0.0000E+00  0.0000E+00  0.8640E+03  0.8640E+03
      5.238  0.0000E+00  0.0000E+00  0.8640E+03  0.8640E+03
      5.291  0.0000E+00  0.0000E+00  0.8640E+03  0.8640E+03
      5.343  0.0000E+00  0.0000E+00  0.8640E+03  0.8640E+03
      5.396  0.0000E+00  0.0000E+00  0.8640E+03  0.8640E+03
      5.449  0.0000E+00  0.0000E+00  0.8640E+03  0.8640E+03
      5.501  0.0000E+00  0.0000E+00  0.8640E+03  0.8640E+03
      5.554  0.0000E+00  0.0000E+00  0.8640E+03  0.8640E+03
      5.606  0.0000E+00  0.0000E+00  0.8640E+03  0.8640E+03
