 vasp.6.4.3 19Mar24 (build Oct 22 2024 11:23:12) complex                        
  
 executed on             LinuxIFC date 2025.06.09  17:14:23
 running   64 mpi-ranks, on    4 nodes
 distrk:  each k-point on   64 cores,    1 groups
 distr:  one band on NCORE=  16 cores,    4 groups


--------------------------------------------------------------------------------------------------------


 INCAR:
   SYSTEM = Si and Ge interface calculation
   ISTART = 0
   ICHARG = 2
   LWAVE = .FALSE.
   LREAL = AUTO
   ENCUT = 700
   ENAUG = 900
   ADDGRID = .TRUE.
   LMAXMIX = 6
   LASPH = .TRUE.
   LMIXTAU = .TRUE.
   NCORE = 16
   NELM = 100
   NBANDS = 548
   EDIFF = 1d-7
   AMIX = 0.6
   ISMEAR = 0
   SIGMA = 0.01
   NELECT = 912
   ISPIN = 2
   NUPDOWN = 1
   LVTOT = .FALSE.
   LVHAR = .TRUE.

 POTCAR:    PAW_PBE Si 05Jan2001                  
 POTCAR:    PAW_PBE Ge 05Jan2001                  
 -----------------------------------------------------------------------------
|                                                                             |
|           W    W    AA    RRRRR   N    N  II  N    N   GGGG   !!!           |
|           W    W   A  A   R    R  NN   N  II  NN   N  G    G  !!!           |
|           W    W  A    A  R    R  N N  N  II  N N  N  G       !!!           |
|           W WW W  AAAAAA  RRRRR   N  N N  II  N  N N  G  GGG   !            |
|           WW  WW  A    A  R   R   N   NN  II  N   NN  G    G                |
|           W    W  A    A  R    R  N    N  II  N    N   GGGG   !!!           |
|                                                                             |
|     You use a magnetic or noncollinear calculation, but did not specify     |
|     the initial magnetic moment with the MAGMOM tag. Note that a            |
|     default of 4.386e-3 will be used for all atoms. This ferromagnetic      |
|     setup may break the symmetry of the crystal, in particular it may       |
|     rule out finding an antiferromagnetic solution. Thence, we              |
|     recommend setting the initial magnetic moment manually or verifying     |
|     carefully that this magnetic setup is desired.                          |
|                                                                             |
 -----------------------------------------------------------------------------

 POTCAR:    PAW_PBE Si 05Jan2001                  
   VRHFIN =Si: s2p2                                                                                 
   LEXCH  = PE                                                                                      
   EATOM  =   103.0669 eV,    7.5752 Ry                                                             
                                                                                                    
   TITEL  = PAW_PBE Si 05Jan2001                                                                    
   LULTRA =        F    use ultrasoft PP ?                                                          
   IUNSCR =        1    unscreen: 0-lin 1-nonlin 2-no                                               
   RPACOR =    1.500    partial core radius                                                         
   POMASS =   28.085; ZVAL   =    4.000    mass and valenz                                          
   RCORE  =    1.900    outmost cutoff radius                                                       
   RWIGS  =    2.480; RWIGS  =    1.312    wigner-seitz radius (au A)                               
   ENMAX  =  245.345; ENMIN  =  184.009 eV                                                          
   ICORE  =        2    local potential                                                             
   LCOR   =        T    correct aug charges                                                         
   LPAW   =        T    paw PP                                                                      
   EAUG   =  322.069                                                                                
   DEXC   =    0.000                                                                                
   RMAX   =    1.950    core radius for proj-oper                                                   
   RAUG   =    1.300    factor for augmentation sphere                                              
   RDEP   =    1.993    radius for radial grids                                                     
   RDEPT  =    1.837    core radius for aug-charge                                                  
                                                                                                    
   Atomic configuration                                                                             
    6 entries                                                                                       
     n  l   j            E        occ.                                                              
     1  0  0.50     -1785.8828   2.0000                                                             
     2  0  0.50      -139.4969   2.0000                                                             
     2  1  1.50       -95.5546   6.0000                                                             
     3  0  0.50       -10.8127   2.0000                                                             
     3  1  0.50        -4.0811   2.0000                                                             
     3  2  1.50        -4.0817   0.0000                                                             
   Description                                                                                      
     l       E           TYP  RCUT    TYP  RCUT                                                     
     0    -10.8127223     23  1.900                                                                 
     0     -7.6451159     23  1.900                                                                 
     1     -4.0811372     23  1.900                                                                 
     1      2.4879257     23  1.900                                                                 
     2     -4.0817478      7  1.900                                                                 
  local pseudopotential read in
  partial core-charges read in
  partial kinetic energy density read in
  atomic valenz-charges read in
  non local Contribution for L=           0  read in
    real space projection operators read in
  non local Contribution for L=           0  read in
    real space projection operators read in
  non local Contribution for L=           1  read in
    real space projection operators read in
  non local Contribution for L=           1  read in
    real space projection operators read in
    PAW grid and wavefunctions read in
 
   number of l-projection  operators is LMAX  =           4
   number of lm-projection operators is LMMAX =           8
 
 POTCAR:    PAW_PBE Ge 05Jan2001                  
   VRHFIN =Ge: s2p2                                                                                 
   LEXCH  = PE                                                                                      
   EATOM  =   104.9960 eV,    7.7170 Ry                                                             
                                                                                                    
   TITEL  = PAW_PBE Ge 05Jan2001                                                                    
   LULTRA =        F    use ultrasoft PP ?                                                          
   IUNSCR =        1    unscreen: 0-lin 1-nonlin 2-no                                               
   RPACOR =    2.170    partial core radius                                                         
   POMASS =   72.610; ZVAL   =    4.000    mass and valenz                                          
   RCORE  =    2.300    outmost cutoff radius                                                       
   RWIGS  =    2.300; RWIGS  =    1.217    wigner-seitz radius (au A)                               
   ENMAX  =  173.807; ENMIN  =  130.355 eV                                                          
   ICORE  =        3    local potential                                                             
   LCOR   =        T    correct aug charges                                                         
   LPAW   =        T    paw PP                                                                      
   EAUG   =  385.843                                                                                
   DEXC   =    0.000                                                                                
   RMAX   =    2.342    core radius for proj-oper                                                   
   RAUG   =    1.300    factor for augmentation sphere                                              
   RDEP   =    2.318    radius for radial grids                                                     
   RDEPT  =    2.103    core radius for aug-charge                                                  
                                                                                                    
   Atomic configuration                                                                             
   10 entries                                                                                       
     n  l   j            E        occ.                                                              
     1  0  0.50    -10959.8463   2.0000                                                             
     2  0  0.50     -1371.6056   2.0000                                                             
     2  1  1.50     -1198.4791   6.0000                                                             
     3  0  0.50      -168.4733   2.0000                                                             
     3  1  1.50      -115.6019   6.0000                                                             
     3  2  2.50       -29.3106  10.0000                                                             
     4  0  0.50       -11.7309   2.0000                                                             
     4  1  0.50        -3.8952   2.0000                                                             
     4  2  1.50        -4.0817   0.0000                                                             
     4  3  2.50        -4.0817   0.0000                                                             
   Description                                                                                      
     l       E           TYP  RCUT    TYP  RCUT                                                     
     0    -11.7309493     23  2.300                                                                 
     0     -7.4578696     23  2.300                                                                 
     1     -3.8952261     23  2.300                                                                 
     1      6.1178114     23  2.300                                                                 
     2     -4.0817478     23  2.300                                                                 
     3     -1.3605826      7  2.300                                                                 
  local pseudopotential read in
  partial core-charges read in
  partial kinetic energy density read in
  atomic valenz-charges read in
  non local Contribution for L=           0  read in
    real space projection operators read in
  non local Contribution for L=           0  read in
    real space projection operators read in
  non local Contribution for L=           1  read in
    real space projection operators read in
  non local Contribution for L=           1  read in
    real space projection operators read in
  non local Contribution for L=           2  read in
    real space projection operators read in
    PAW grid and wavefunctions read in
 
   number of l-projection  operators is LMAX  =           5
   number of lm-projection operators is LMMAX =          13
 
 Optimization of the real space projectors (new method)

 maximal supplied QI-value         = 19.84
 optimisation between [QCUT,QGAM] = [ 13.49, 26.99] = [ 50.98,203.92] Ry 
 Optimized for a Real-space Cutoff    1.07 Angstroem

   l    n(q)    QCUT    max X(q) W(low)/X(q) W(high)/X(q)  e(spline) 
   0      9    13.493   159.560    0.22E-03    0.15E-03    0.72E-07
   0      9    13.493   115.863    0.21E-03    0.15E-03    0.71E-07
   1      8    13.493    88.339    0.15E-03    0.11E-03    0.13E-06
   1      8    13.493    48.592    0.15E-03    0.10E-03    0.13E-06
 Optimization of the real space projectors (new method)

 maximal supplied QI-value         = 16.25
 optimisation between [QCUT,QGAM] = [ 13.49, 26.98] = [ 50.95,203.80] Ry 
 Optimized for a Real-space Cutoff    1.25 Angstroem

   l    n(q)    QCUT    max X(q) W(low)/X(q) W(high)/X(q)  e(spline) 
   0     10    13.489    65.336    0.91E-04    0.11E-03    0.34E-06
   0     10    13.489    52.220    0.89E-04    0.11E-03    0.34E-06
   1     10    13.489    36.409    0.22E-03    0.27E-03    0.14E-06
   1     10    13.489    21.334    0.21E-03    0.27E-03    0.14E-06
   2      9    13.489     4.673    0.11E-03    0.12E-03    0.19E-06
  PAW_PBE Si 05Jan2001                  :
 energy of atom  1       EATOM= -103.0669
 kinetic energy error for atom=    0.0003 (will be added to EATOM!!)
  PAW_PBE Ge 05Jan2001                  :
 energy of atom  2       EATOM= -104.9960
 kinetic energy error for atom=    0.0001 (will be added to EATOM!!)
 
 
 POSCAR: Si+Ge
  positions in direct lattice
  No initial velocities read in


 exchange-correlation table for PE
   RHO(1)=    0.500       N(1)  =     2000
   RHO(2)=  100.500       N(2)  =     4000
 


--------------------------------------------------------------------------------------------------------


 ion  position               nearest neighbor table
   1  0.996  0.975  0.000- 204 2.08 118 2.35  34 2.35
   2  0.946  0.625  0.152-  58 2.35  35 2.35 119 2.35  91 2.35
   3  0.896  0.275  0.304-  59 2.35 120 2.35  36 2.35  92 2.35
   4  0.096  0.675  0.000-  37 2.35  91 2.35 207 2.55
   5  0.046  0.325  0.152-  31 2.35  94 2.35  92 2.35  38 2.35
   6  0.996  0.975  0.304-  93 2.35  32 2.35  39 2.35  95 2.35
   7  0.196  0.375  0.000-  94 2.35  40 2.35
   8  0.146  0.025  0.152-  34 2.35  95 2.35  41 2.35  97 2.35
   9  0.096  0.675  0.304-  35 2.35  42 2.35  96 2.35  98 2.35
  10  0.296  0.075  0.000-  97 2.35  43 2.35 213 2.42
  11  0.246  0.725  0.152-  37 2.35  98 2.35  44 2.35 100 2.35
  12  0.196  0.375  0.304-  38 2.35  45 2.35  99 2.35 101 2.35
  13  0.396  0.775  0.000- 100 2.35  46 2.35 216 2.83 171 2.95
  14  0.346  0.425  0.152-  40 2.35 101 2.35  47 2.35 103 2.35
  15  0.296  0.075  0.304-  41 2.35  48 2.35 102 2.35 104 2.35
  16  0.496  0.475  0.000- 174 2.08 103 2.35  49 2.35
  17  0.446  0.125  0.152-  43 2.35 104 2.35 106 2.35  50 2.35
  18  0.396  0.775  0.304-  44 2.35  51 2.35 105 2.35 107 2.35
  19  0.596  0.175  0.000- 106 2.35  52 2.35 168 2.55
  20  0.546  0.825  0.152-  46 2.35 107 2.35  53 2.35 109 2.35
  21  0.496  0.475  0.304-  47 2.35 108 2.35  54 2.35 110 2.35
  22  0.696  0.875  0.000-  55 2.35 109 2.35
  23  0.646  0.525  0.152-  56 2.35  49 2.35 112 2.35 110 2.35
  24  0.596  0.175  0.304-  57 2.35 111 2.35 113 2.35  50 2.35
  25  0.796  0.575  0.000- 112 2.35  58 2.35 156 2.42
  26  0.746  0.225  0.152-  52 2.35 113 2.35 115 2.35  59 2.35
  27  0.696  0.875  0.304-  53 2.35 114 2.35  60 2.35 116 2.35
  28  0.896  0.275  0.000-  31 2.35 115 2.35 150 2.83 210 2.95
  29  0.846  0.925  0.152-  55 2.35  32 2.35 118 2.35 116 2.35
  30  0.796  0.575  0.304-  33 2.35  56 2.35 119 2.35 117 2.35
  31  0.996  0.225  0.076-   5 2.35  28 2.35  64 2.35  62 2.35
  32  0.946  0.875  0.228-  29 2.35   6 2.35  65 2.35  63 2.35
  33  0.896  0.525  0.380-  30 2.35  66 2.35 199 2.68
  34  0.096  0.925  0.076-   8 2.35  65 2.35  67 2.35   1 2.35
  35  0.046  0.575  0.228-   9 2.35   2 2.35  68 2.35  66 2.35
  36  0.996  0.225  0.380-   3 2.35  69 2.35 127 2.60
  37  0.196  0.625  0.076-  11 2.35  70 2.35   4 2.35  68 2.35
  38  0.146  0.275  0.228-  12 2.35  71 2.35   5 2.35  69 2.35
  39  0.096  0.925  0.380- 121 2.01  72 2.35   6 2.35
  40  0.296  0.325  0.076-  14 2.35  73 2.35  71 2.35   7 2.35
  41  0.246  0.975  0.228-  15 2.35  74 2.35   8 2.35  72 2.35
  42  0.196  0.625  0.380-   9 2.35  75 2.35 124 2.80
  43  0.396  0.025  0.076-  17 2.35  74 2.35  76 2.35  10 2.35
  44  0.346  0.675  0.228-  18 2.35  77 2.35  11 2.35  75 2.35
  45  0.296  0.325  0.380-  12 2.35  78 2.35 181 2.72
  46  0.496  0.725  0.076-  20 2.35  79 2.35  13 2.35  77 2.35
  47  0.446  0.375  0.228-  21 2.35  80 2.35  14 2.35  78 2.35
  48  0.396  0.025  0.380-  81 2.35  15 2.35 130 2.68
  49  0.596  0.425  0.076-  80 2.35  82 2.35  23 2.35  16 2.35
  50  0.546  0.075  0.228-  83 2.35  17 2.35  81 2.35  24 2.35
  51  0.496  0.725  0.380-  84 2.35  18 2.35 187 2.60
  52  0.696  0.125  0.076-  26 2.35  85 2.35  19 2.35  83 2.35
  53  0.646  0.775  0.228-  27 2.35  86 2.35  20 2.35  84 2.35
  54  0.596  0.425  0.380- 190 2.01  87 2.35  21 2.35
  55  0.796  0.825  0.076-  29 2.35  22 2.35  88 2.35  86 2.35
  56  0.746  0.475  0.228-  30 2.35  23 2.35  89 2.35  87 2.35
  57  0.696  0.125  0.380-  24 2.35  90 2.35 184 2.80
  58  0.896  0.525  0.076-   2 2.35  61 2.35  89 2.35  25 2.35
  59  0.846  0.175  0.228-   3 2.35  62 2.35  26 2.35  90 2.35
  60  0.796  0.825  0.380-  63 2.35  27 2.35 139 2.72
  61  0.996  0.475  0.000-  58 2.35  94 2.35
  62  0.946  0.125  0.152- 118 2.35  59 2.35  95 2.35  31 2.35
  63  0.896  0.775  0.304-  96 2.35 119 2.35  60 2.35  32 2.35
  64  0.096  0.175  0.000-  31 2.35  97 2.35 159 2.38
  65  0.046  0.825  0.152-  91 2.35  34 2.35  32 2.35  98 2.35
  66  0.996  0.475  0.304-  92 2.35  33 2.35  99 2.35  35 2.35
  67  0.196  0.875  0.000- 162 2.13 100 2.35  34 2.35
  68  0.146  0.525  0.152-  94 2.35 101 2.35  35 2.35  37 2.35
  69  0.096  0.175  0.304-  95 2.35 102 2.35  36 2.35  38 2.35
  70  0.296  0.575  0.000- 103 2.35  37 2.35 216 2.72
  71  0.246  0.225  0.152-  97 2.35  38 2.35 104 2.35  40 2.35
  72  0.196  0.875  0.304-  98 2.35 105 2.35  39 2.35  41 2.35
  73  0.396  0.275  0.000- 106 2.35  40 2.35 219 2.51
  74  0.346  0.925  0.152- 100 2.35  41 2.35  43 2.35 107 2.35
  75  0.296  0.575  0.304- 108 2.35 101 2.35  42 2.35  44 2.35
  76  0.496  0.975  0.000-  43 2.35 109 2.35
  77  0.446  0.625  0.152- 103 2.35 110 2.35  44 2.35  46 2.35
  78  0.396  0.275  0.304- 104 2.35 111 2.35  45 2.35  47 2.35
  79  0.596  0.675  0.000-  46 2.35 112 2.35 225 2.38
  80  0.546  0.325  0.152- 106 2.35  47 2.35  49 2.35 113 2.35
  81  0.496  0.975  0.304-  48 2.35 107 2.35 114 2.35  50 2.35
  82  0.696  0.375  0.000- 228 2.13 115 2.35  49 2.35
  83  0.646  0.025  0.152- 109 2.35 116 2.35  50 2.35  52 2.35
  84  0.596  0.675  0.304- 110 2.35 117 2.35  51 2.35  53 2.35
  85  0.796  0.075  0.000-  52 2.35 118 2.35 150 2.72
  86  0.746  0.725  0.152- 112 2.35 119 2.35  53 2.35  55 2.35
  87  0.696  0.375  0.304- 113 2.35  54 2.35 120 2.35  56 2.35
  88  0.896  0.775  0.000-  91 2.35  55 2.35 153 2.51
  89  0.846  0.425  0.152-  92 2.35  58 2.35 115 2.35  56 2.35
  90  0.796  0.075  0.304-  93 2.35  57 2.35 116 2.35  59 2.35
  91  0.996  0.725  0.076-  65 2.35  88 2.35   4 2.35   2 2.35
  92  0.946  0.375  0.228-  66 2.35  89 2.35   5 2.35   3 2.35
  93  0.896  0.025  0.380- 193 2.34  90 2.35   6 2.35
  94  0.096  0.425  0.076-  68 2.35  61 2.35   5 2.35   7 2.35
  95  0.046  0.075  0.228-  69 2.35  62 2.35   8 2.35   6 2.35
  96  0.996  0.725  0.380-  63 2.35   9 2.35 196 2.45
  97  0.196  0.125  0.076-  71 2.35  10 2.35  64 2.35   8 2.35
  98  0.146  0.775  0.228-  72 2.35  11 2.35  65 2.35   9 2.35
  99  0.096  0.425  0.380-  12 2.35  66 2.35
 100  0.296  0.825  0.076-  74 2.35  67 2.35  13 2.35  11 2.35
 101  0.246  0.475  0.228-  75 2.35  68 2.35  14 2.35  12 2.35
 102  0.196  0.125  0.380- 175 2.31  69 2.35  15 2.35
 103  0.396  0.525  0.076-  77 2.35  70 2.35  16 2.35  14 2.35
 104  0.346  0.175  0.228-  78 2.35  17 2.35  71 2.35  15 2.35
 105  0.296  0.825  0.380-  72 2.35  18 2.35 178 2.42
 106  0.496  0.225  0.076-  80 2.35  19 2.35  73 2.35  17 2.35
 107  0.446  0.875  0.228-  81 2.35  20 2.35  74 2.35  18 2.35
 108  0.396  0.525  0.380- 133 2.34  75 2.35  21 2.35
 109  0.596  0.925  0.076-  83 2.35  76 2.35  22 2.35  20 2.35
 110  0.546  0.575  0.228-  84 2.35  77 2.35  23 2.35  21 2.35
 111  0.496  0.225  0.380-  78 2.35  24 2.35 136 2.45
 112  0.696  0.625  0.076-  86 2.35  25 2.35  23 2.35  79 2.35
 113  0.646  0.275  0.228-  87 2.35  26 2.35  24 2.35  80 2.35
 114  0.596  0.925  0.380-  27 2.35  81 2.35
 115  0.796  0.325  0.076-  26 2.35  82 2.35  89 2.35  28 2.35
 116  0.746  0.975  0.228-  83 2.35  90 2.35  27 2.35  29 2.35
 117  0.696  0.625  0.380- 142 2.31  84 2.35  30 2.35
 118  0.896  0.025  0.076-  62 2.35  29 2.35   1 2.35  85 2.35
 119  0.846  0.675  0.228-  63 2.35  86 2.35   2 2.35  30 2.35
 120  0.796  0.325  0.380-  87 2.35   3 2.35 145 2.42
 121  0.088  0.924  0.492-  39 2.01 220 2.47 151 2.47
 122  0.921  0.924  0.650- 152 2.47 221 2.47 220 2.47 169 2.47
 123  0.755  0.924  0.809- 222 2.47 153 2.47 221 2.47 170 2.47
 124  0.088  0.591  0.492- 223 2.47 154 2.47  42 2.80
 125  0.921  0.591  0.650- 155 2.47 172 2.47 224 2.47 223 2.47
 126  0.755  0.591  0.809- 156 2.47 225 2.47 224 2.47 173 2.47
 127  0.088  0.257  0.492- 226 2.47 148 2.47  36 2.60
 128  0.921  0.257  0.650- 149 2.47 227 2.47 226 2.47 166 2.47
 129  0.755  0.257  0.809- 228 2.47 150 2.47 227 2.47 167 2.47
 130  0.421  0.924  0.492- 160 2.47 202 2.47  48 2.68
 131  0.255  0.924  0.650- 161 2.47 151 2.47 202 2.47 203 2.47
 132  0.088  0.924  0.809- 162 2.47 203 2.47 204 2.47 152 2.47
 133  0.421  0.591  0.492- 108 2.34 163 2.47 205 2.47
 134  0.255  0.591  0.650- 164 2.47 154 2.47 205 2.47 206 2.47
 135  0.088  0.591  0.809- 165 2.47 206 2.47 207 2.47 155 2.47
 136  0.421  0.257  0.492- 111 2.45 208 2.47 157 2.47
 137  0.255  0.257  0.650- 208 2.47 158 2.47 148 2.47 209 2.47
 138  0.088  0.257  0.809- 159 2.47 209 2.47 210 2.47 149 2.47
 139  0.755  0.924  0.492- 211 2.47 169 2.47  60 2.72
 140  0.588  0.924  0.650- 212 2.47 160 2.47 170 2.47 211 2.47
 141  0.421  0.924  0.809- 213 2.47 171 2.47 161 2.47 212 2.47
 142  0.755  0.591  0.492- 117 2.31 214 2.47 172 2.47
 143  0.588  0.591  0.650- 163 2.47 173 2.47 215 2.47 214 2.47
 144  0.421  0.591  0.809- 216 2.47 174 2.47 164 2.47 215 2.47
 145  0.755  0.257  0.492- 120 2.42 217 2.47 166 2.47
 146  0.588  0.257  0.650- 218 2.47 157 2.47 167 2.47 217 2.47
 147  0.421  0.257  0.809- 219 2.47 168 2.47 158 2.47 218 2.47
 148  0.171  0.174  0.571- 175 2.47 127 2.47 137 2.47 176 2.47
 149  0.005  0.174  0.730- 128 2.47 177 2.47 176 2.47 138 2.47
 150  0.838  0.174  0.888- 177 2.47 129 2.47  85 2.72  28 2.83
 151  0.171  0.841  0.571- 121 2.47 131 2.47 178 2.47 179 2.47
 152  0.005  0.841  0.730- 122 2.47 132 2.47 180 2.47 179 2.47
 153  0.838  0.841  0.888- 123 2.47 180 2.47  88 2.51
 154  0.171  0.507  0.571- 124 2.47 134 2.47 181 2.47 182 2.47
 155  0.005  0.507  0.730- 125 2.47 183 2.47 135 2.47 182 2.47
 156  0.838  0.507  0.888-  25 2.42 183 2.47 126 2.47
 157  0.505  0.174  0.571- 184 2.47 136 2.47 146 2.47 185 2.47
 158  0.338  0.174  0.730- 137 2.47 185 2.47 147 2.47 186 2.47
 159  0.171  0.174  0.888-  64 2.38 138 2.47 186 2.47
 160  0.505  0.841  0.571- 130 2.47 140 2.47 187 2.47 188 2.47
 161  0.338  0.841  0.730- 131 2.47 141 2.47 188 2.47 189 2.47
 162  0.171  0.841  0.888-  67 2.13 132 2.47 189 2.47
 163  0.505  0.507  0.571- 190 2.47 133 2.47 143 2.47 191 2.47
 164  0.338  0.507  0.730- 134 2.47 144 2.47 191 2.47 192 2.47
 165  0.171  0.507  0.888- 135 2.47 192 2.47
 166  0.838  0.174  0.571- 193 2.47 145 2.47 194 2.47 128 2.47
 167  0.671  0.174  0.730- 195 2.47 146 2.47 194 2.47 129 2.47
 168  0.505  0.174  0.888- 147 2.47 195 2.47  19 2.55
 169  0.838  0.841  0.571- 139 2.47 122 2.47 196 2.47 197 2.47
 170  0.671  0.841  0.730- 140 2.47 123 2.47 198 2.47 197 2.47
 171  0.505  0.841  0.888- 141 2.47 198 2.47  13 2.95
 172  0.838  0.507  0.571- 199 2.47 142 2.47 125 2.47 200 2.47
 173  0.671  0.507  0.730- 143 2.47 201 2.47 126 2.47 200 2.47
 174  0.505  0.507  0.888-  16 2.08 144 2.47 201 2.47
 175  0.255  0.091  0.492- 102 2.31 202 2.47 148 2.47
 176  0.088  0.091  0.650- 220 2.47 203 2.47 148 2.47 149 2.47
 177  0.921  0.091  0.809- 150 2.47 204 2.47 221 2.47 149 2.47
 178  0.255  0.757  0.492- 105 2.42 205 2.47 151 2.47
 179  0.088  0.757  0.650- 223 2.47 206 2.47 151 2.47 152 2.47
 180  0.921  0.757  0.809- 207 2.47 224 2.47 153 2.47 152 2.47
 181  0.255  0.424  0.492- 208 2.47 154 2.47  45 2.72
 182  0.088  0.424  0.650- 226 2.47 209 2.47 154 2.47 155 2.47
 183  0.921  0.424  0.809- 156 2.47 210 2.47 227 2.47 155 2.47
 184  0.588  0.091  0.492- 157 2.47 211 2.47  57 2.80
 185  0.421  0.091  0.650- 202 2.47 158 2.47 212 2.47 157 2.47
 186  0.255  0.091  0.809- 159 2.47 203 2.47 213 2.47 158 2.47
 187  0.588  0.757  0.492- 160 2.47 214 2.47  51 2.60
 188  0.421  0.757  0.650- 205 2.47 215 2.47 161 2.47 160 2.47
 189  0.255  0.757  0.809- 206 2.47 216 2.47 162 2.47 161 2.47
 190  0.588  0.424  0.492-  54 2.01 163 2.47 217 2.47
 191  0.421  0.424  0.650- 208 2.47 164 2.47 218 2.47 163 2.47
 192  0.255  0.424  0.809- 165 2.47 209 2.47 219 2.47 164 2.47
 193  0.921  0.091  0.492-  93 2.34 166 2.47 220 2.47
 194  0.755  0.091  0.650- 211 2.47 221 2.47 166 2.47 167 2.47
 195  0.588  0.091  0.809- 222 2.47 168 2.47 212 2.47 167 2.47
 196  0.921  0.757  0.492-  96 2.45 169 2.47 223 2.47
 197  0.755  0.757  0.650- 214 2.47 224 2.47 169 2.47 170 2.47
 198  0.588  0.757  0.809- 225 2.47 215 2.47 171 2.47 170 2.47
 199  0.921  0.424  0.492- 172 2.47 226 2.47  33 2.68
 200  0.755  0.424  0.650- 217 2.47 227 2.47 172 2.47 173 2.47
 201  0.588  0.424  0.809- 228 2.47 174 2.47 218 2.47 173 2.47
 202  0.338  0.007  0.571- 130 2.47 131 2.47 175 2.47 185 2.47
 203  0.171  0.007  0.730- 132 2.47 131 2.47 176 2.47 186 2.47
 204  0.005  0.007  0.888-   1 2.08 132 2.47 177 2.47
 205  0.338  0.674  0.571- 178 2.47 188 2.47 133 2.47 134 2.47
 206  0.171  0.674  0.730- 179 2.47 135 2.47 189 2.47 134 2.47
 207  0.005  0.674  0.888- 180 2.47 135 2.47   4 2.55
 208  0.338  0.341  0.571- 181 2.47 191 2.47 136 2.47 137 2.47
 209  0.171  0.341  0.730- 182 2.47 192 2.47 138 2.47 137 2.47
 210  0.005  0.341  0.888- 183 2.47 138 2.47  28 2.95
 211  0.671  0.007  0.571- 139 2.47 194 2.47 140 2.47 184 2.47
 212  0.505  0.007  0.730- 140 2.47 141 2.47 195 2.47 185 2.47
 213  0.338  0.007  0.888-  10 2.42 141 2.47 186 2.47
 214  0.671  0.674  0.571- 142 2.47 197 2.47 187 2.47 143 2.47
 215  0.505  0.674  0.730- 198 2.47 143 2.47 188 2.47 144 2.47
 216  0.338  0.674  0.888- 144 2.47 189 2.47  70 2.72  13 2.83
 217  0.671  0.341  0.571- 200 2.47 145 2.47 190 2.47 146 2.47
 218  0.505  0.341  0.730- 201 2.47 146 2.47 191 2.47 147 2.47
 219  0.338  0.341  0.888- 147 2.47 192 2.47  73 2.51
 220  0.005  0.007  0.571- 121 2.47 122 2.47 176 2.47 193 2.47
 221  0.838  0.007  0.730- 122 2.47 123 2.47 177 2.47 194 2.47
 222  0.671  0.007  0.888- 123 2.47 195 2.47
 223  0.005  0.674  0.571- 124 2.47 179 2.47 125 2.47 196 2.47
 224  0.838  0.674  0.730- 180 2.47 197 2.47 125 2.47 126 2.47
 225  0.671  0.674  0.888-  79 2.38 198 2.47 126 2.47
 226  0.005  0.341  0.571- 182 2.47 127 2.47 199 2.47 128 2.47
 227  0.838  0.341  0.730- 183 2.47 200 2.47 128 2.47 129 2.47
 228  0.671  0.341  0.888-  82 2.13 201 2.47 129 2.47
 
  LATTYP: Found a simple tetragonal cell.
 ALAT       =    17.1743316650
 C/A-ratio  =     1.0399822485
  
  Lattice vectors:
  
 A1 = (  17.1743316650,   0.0000000000,   0.0000000000)
 A2 = (   0.0000000000,  17.1743297580,   0.0000000000)
 A3 = (   0.0000000000,   0.0000000000,  17.8610000610)


Analysis of symmetry for initial positions (statically):
=====================================================================
 Subroutine PRICEL returns following result:
 
  LATTYP: Found a simple tetragonal cell.
 ALAT       =    12.1440835225
 C/A-ratio  =     1.4707573468
  
  Lattice vectors:
  
 A1 = (   8.5871648020,  -8.5871628181,   0.0000000000)
 A2 = (   8.5871648020,   8.5871669399,   0.0000000000)
 A3 = (   0.0000000000,   0.0000000000,  17.8610000610)
 
   2 primitive cells build up your supercell.
 

 Routine SETGRP: Setting up the symmetry group for a 
 simple tetragonal supercell.


 Subroutine GETGRP returns: Found  1 space group operations
 (whereof  1 operations were pure point group operations)
 out of a pool of 16 trial point group operations.


The static configuration has the point symmetry C_1 .


Analysis of symmetry for dynamics (positions and initial velocities):
=====================================================================
 Subroutine PRICEL returns following result:
 
  LATTYP: Found a simple tetragonal cell.
 ALAT       =    12.1440835225
 C/A-ratio  =     1.4707573468
  
  Lattice vectors:
  
 A1 = (   8.5871648020,  -8.5871628181,   0.0000000000)
 A2 = (   8.5871648020,   8.5871669399,   0.0000000000)
 A3 = (   0.0000000000,   0.0000000000,  17.8610000610)
 
   2 primitive cells build up your supercell.
 

 Routine SETGRP: Setting up the symmetry group for a 
 simple tetragonal supercell.


 Subroutine GETGRP returns: Found  1 space group operations
 (whereof  1 operations were pure point group operations)
 out of a pool of 16 trial point group operations.


The dynamic configuration has the point symmetry C_1 .


Analysis of structural, dynamic, and magnetic symmetry:
=====================================================================
 Subroutine PRICEL returns following result:
 
  LATTYP: Found a simple tetragonal cell.
 ALAT       =    12.1440835225
 C/A-ratio  =     1.4707573468
  
  Lattice vectors:
  
 A1 = (   8.5871648020,  -8.5871628181,   0.0000000000)
 A2 = (   8.5871648020,   8.5871669399,   0.0000000000)
 A3 = (   0.0000000000,   0.0000000000,  17.8610000610)
 
   2 primitive cells build up your supercell.
 

 Routine SETGRP: Setting up the symmetry group for a 
 simple tetragonal supercell.


 Subroutine GETGRP returns: Found  1 space group operations
 (whereof  1 operations were pure point group operations)
 out of a pool of 16 trial point group operations.


The overall configuration has the point symmetry C_1 .


 Subroutine INISYM returns: Found  1 space group operations
 (whereof  1 operations are pure point group operations),
 and found     2 'primitive' translations


----------------------------------------------------------------------------------------

                                     Primitive cell                                     

  volume of cell :    2634.1189

  direct lattice vectors                    reciprocal lattice vectors
     8.587164802 -8.587162818  0.000000000     0.058226450 -0.058226435  0.000000000
     8.587164802  8.587166940  0.000000000     0.058226422  0.058226435  0.000000000
     0.000000000  0.000000000 17.861000061     0.000000000  0.000000000  0.055987906

  length of vectors
    12.144083523 12.144086437 17.861000061     0.082344625  0.082344605  0.055987906

  position of ions in fractional coordinates (direct lattice)
     0.021574022  0.971234917  0.000000000
     0.321574075  0.571234828  0.152035162
     0.621574128  0.171234619  0.304070383
     0.421573703  0.771235126  0.000000000
     0.721573702  0.371234981  0.152035162
     0.021574082  0.971234619  0.304070383
     0.821573986  0.571235215  0.000000000
     0.121573797  0.171234920  0.152035162
     0.421573860  0.771234687  0.304070383
     0.221573840  0.371235015  0.000000000
     0.521574006  0.971234873  0.152035162
     0.821574045  0.571234678  0.304070383
     0.621574129  0.171235096  0.000000000
     0.921574122  0.771234947  0.152035162
     0.221573951  0.371234724  0.304070383
     0.771574096  0.221234961  0.076017611
     0.071574075  0.821234708  0.228052765
     0.371573975  0.421234832  0.380087912
     0.171573785  0.021234970  0.076017611
     0.471573772  0.621234813  0.228052765
     0.771574201  0.221234500  0.380087912
     0.571574105  0.821235096  0.076017611
     0.871573844  0.421234873  0.228052765
     0.171573801  0.021234746  0.380087912
     0.971574057  0.621235096  0.076017611
     0.271573916  0.221234813  0.228052765
     0.571574105  0.821234738  0.380087912
     0.371573919  0.421235006  0.076017611
     0.671574138  0.021234813  0.228052765
     0.971574117  0.621234678  0.380087912
     0.521573961  0.471234976  0.000000000
     0.821574075  0.071234828  0.152035162
     0.121574128  0.671234619  0.304070383
     0.921573756  0.271235029  0.000000000
     0.221573738  0.871234899  0.152035162
     0.521574141  0.471234560  0.304070383
     0.321573820  0.071235051  0.000000000
     0.621573998  0.671234809  0.152035162
     0.921573860  0.271234687  0.304070383
     0.721574072  0.871234961  0.000000000
     0.021573811  0.471234888  0.152035162
     0.321573835  0.071234708  0.304070383
     0.121574129  0.671235096  0.000000000
     0.421573883  0.271234948  0.152035162
     0.721574169  0.871234746  0.304070383
     0.271573962  0.721234977  0.076017611
     0.571574015  0.321234768  0.228052765
     0.871574050  0.921234697  0.380087912
     0.671573973  0.521235036  0.076017611
     0.971573754  0.121234869  0.228052765
     0.271574082  0.721234619  0.380087912
     0.071573827  0.321235044  0.076017611
     0.371573814  0.921234903  0.228052765
     0.671573973  0.521234798  0.380087912
     0.471573788  0.121235067  0.076017611
     0.771574051  0.721234708  0.228052765
     0.071573835  0.321234708  0.380087912
     0.871574083  0.921234904  0.076017611
     0.171574063  0.521234768  0.228052765
     0.471573787  0.121234828  0.380087912
     0.163896235  0.011849274  0.492063731
     0.997229908  0.845182547  0.650447905
     0.830563102  0.678515821  0.808832109
     0.497229549  0.678515960  0.492063731
     0.330563222  0.511849233  0.650447905
     0.163896236  0.345182447  0.808832109
     0.830562833  0.345182676  0.492063731
     0.663896506  0.178515949  0.650447905
     0.497229549  0.011849134  0.808832109
     0.497229668  0.345182547  0.492063731
     0.330562951  0.178515910  0.650447905
     0.163896235  0.011849274  0.808832109
     0.830563222  0.011849113  0.492063731
     0.663896476  0.845182447  0.650447905
     0.497229549  0.678515960  0.808832109
     0.163896535  0.678515800  0.492063731
     0.997229789  0.511849134  0.650447905
     0.830562833  0.345182676  0.808832109
     0.830563102  0.678515821  0.492063731
     0.663896355  0.511849154  0.650447905
     0.497229608  0.345182487  0.808832109
     0.163896355  0.345182566  0.492063731
     0.997229609  0.178515900  0.650447905
     0.830563222  0.011849113  0.808832109
     0.497229668  0.011849253  0.492063731
     0.330562922  0.845182587  0.650447905
     0.163896535  0.678515800  0.808832109
     0.997229608  0.345182607  0.571255803
     0.830562832  0.178515911  0.729640007
     0.663896505  0.011849184  0.888024151
     0.330562862  0.011849353  0.571255803
     0.163896086  0.845182657  0.729640007
     0.997229759  0.678515930  0.888024151
     0.663896565  0.678515830  0.571255803
     0.497229459  0.511849284  0.729640007
     0.330563012  0.345182437  0.888024151
     0.330562951  0.678516030  0.571255803
     0.163896505  0.511849184  0.729640007
     0.997229489  0.345182488  0.888024151
     0.663896205  0.345182776  0.571255803
     0.497229519  0.178515930  0.729640007
     0.330562743  0.011849234  0.888024151
     0.997229698  0.011849283  0.571255803
     0.830563252  0.845182437  0.729640007
     0.663896445  0.678515710  0.888024151
     0.663896505  0.011849184  0.571255803
     0.497229548  0.845182547  0.729640007
     0.330562832  0.678515911  0.888024151
     0.997229759  0.678515930  0.571255803
     0.830562952  0.511849203  0.729640007
     0.663896086  0.345182657  0.888024151
     0.330563042  0.345182467  0.571255803
     0.163896295  0.178515800  0.729640007
     0.997229579  0.011849164  0.888024151

  ion indices of the primitive-cell ions
   primitive index   ion index
                 1           1
                 2           2
                 3           3
                 4           4
                 5           5
                 6           6
                 7          22
                 8           8
                 9           9
                10          10
                11          26
                12          27
                13          28
                14          29
                15          15
                16          31
                17          32
                18          48
                19          34
                20          35
                21          36
                22          52
                23          38
                24          39
                25          55
                26          41
                27          57
                28          43
                29          59
                30          60
                31          76
                32          62
                33          63
                34          64
                35          65
                36          66
                37          67
                38          83
                39          69
                40          85
                41          71
                42          72
                43          88
                44          74
                45          90
                46          91
                47          92
                48          93
                49         109
                50          95
                51          96
                52          97
                53          98
                54         114
                55         100
                56         116
                57         102
                58         118
                59         119
                60         105
                61         121
                62         122
                63         123
                64         124
                65         125
                66         186
                67         127
                68         128
                69         189
                70         130
                71         131
                72         132
                73         193
                74         194
                75         135
                76         196
                77         197
                78         138
                79         139
                80         140
                81         141
                82         175
                83         176
                84         177
                85         178
                86         179
                87         180
                88         148
                89         149
                90         150
                91         151
                92         152
                93         153
                94         211
                95         155
                96         213
                97         223
                98         224
                99         159
               100         226
               101         161
               102         162
               103         220
               104         221
               105         222
               106         166
               107         206
               108         207
               109         169
               110         170
               111         210
               112         202
               113         203
               114         204

----------------------------------------------------------------------------------------

 
 
 KPOINTS: Automatic KPOINTS generated             

Automatic generation of k-mesh.
 Grid dimensions read from file:
 generate k-points for:    2    2    2

 Generating k-lattice:

  Cartesian coordinates                     Fractional coordinates (reciprocal lattice)
     0.029113214  0.000000000  0.000000000     0.500000000  0.000000000  0.000000000
     0.000000000  0.029113218  0.000000000     0.000000000  0.500000000  0.000000000
     0.000000000  0.000000000  0.027993953     0.000000000  0.000000000  0.500000000

  Length of vectors
     0.029113214  0.029113218  0.027993953

  Shift w.r.t. Gamma in fractional coordinates (k-lattice)
     0.000000000  0.000000000  0.000000000

 
 Subroutine IBZKPT returns following result:
 ===========================================
 
 Found      8 irreducible k-points:
 
 Following reciprocal coordinates:
            Coordinates               Weight
  0.000000  0.000000  0.000000      1.000000
  0.500000  0.000000  0.000000      1.000000
  0.000000  0.500000  0.000000      1.000000
  0.500000  0.500000  0.000000      1.000000
  0.000000  0.000000  0.500000      1.000000
  0.500000  0.000000  0.500000      1.000000
  0.000000  0.500000  0.500000      1.000000
  0.500000  0.500000  0.500000      1.000000
 
 Following cartesian coordinates:
            Coordinates               Weight
  0.000000  0.000000  0.000000      1.000000
  0.029113  0.000000  0.000000      1.000000
  0.000000  0.029113  0.000000      1.000000
  0.029113  0.029113  0.000000      1.000000
  0.000000  0.000000  0.027994      1.000000
  0.029113  0.000000  0.027994      1.000000
  0.000000  0.029113  0.027994      1.000000
  0.029113  0.029113  0.027994      1.000000
 


--------------------------------------------------------------------------------------------------------




 Dimension of arrays:
   k-points           NKPTS =      8   k-points in BZ     NKDIM =      8   number of bands    NBANDS=    548
   number of dos      NEDOS =    301   number of ions     NIONS =    228
   non local maximal  LDIM  =      5   non local SUM 2l+1 LMDIM =     13
   total plane-waves  NPLWV = ******
   max r-space proj   IRMAX =   2365   max aug-charges    IRDMAX= 124420
   dimension x,y,z NGX =   112 NGY =  112 NGZ =  120
   dimension x,y,z NGXF=   224 NGYF=  224 NGZF=  240
   support grid    NGXF=   448 NGYF=  448 NGZF=  480
   ions per type =             120 108
   NGX,Y,Z   is equivalent  to a cutoff of  10.84, 10.84, 11.17 a.u.
   NGXF,Y,Z  is equivalent  to a cutoff of  21.68, 21.68, 22.34 a.u.

 SYSTEM =  Si and Ge interface calculation         
 POSCAR =  Si+Ge                                   

 Startparameter for this run:
   NWRITE =      2    write-flag & timer
   PREC   = normal    normal or accurate (medium, high low for compatibility)
   ISTART =      0    job   : 0-new  1-cont  2-samecut
   ICHARG =      2    charge: 1-file 2-atom 10-const
   ISPIN  =      2    spin polarized calculation?
   LNONCOLLINEAR =      F non collinear calculations
   LSORBIT =      F    spin-orbit coupling
   INIWAV =      1    electr: 0-lowe 1-rand  2-diag
   LASPH  =      T    aspherical Exc in radial PAW
 Electronic Relaxation 1
   ENCUT  =  700.0 eV  51.45 Ry    7.17 a.u.  37.05 37.05 38.53*2*pi/ulx,y,z
   ENINI  =  700.0     initial cutoff
   ENAUG  =  900.0 eV  augmentation charge cutoff
   NELM   =    100;   NELMIN=  2; NELMDL= -5     # of ELM steps 
   EDIFF  = 0.1E-06   stopping-criterion for ELM
   LREAL  =      T    real-space projection
   NLSPLINE    = F    spline interpolate recip. space projectors
   LCOMPAT=      F    compatible to vasp.4.4
   GGA_COMPAT  = T    GGA compatible to vasp.4.4-vasp.4.6
   LMAXPAW     = -100 max onsite density
   LMAXMIX     =    6 max onsite mixed and CHGCAR
   VOSKOWN=      0    Vosko Wilk Nusair interpolation
   ROPT   =   -0.00050  -0.00050
 Ionic relaxation
   EDIFFG = 0.1E-05   stopping-criterion for IOM
   NSW    =      0    number of steps for IOM
   NBLOCK =      1;   KBLOCK =      1    inner block; outer block 
   IBRION =     -1    ionic relax: 0-MD 1-quasi-New 2-CG
   NFREE  =      0    steps in history (QN), initial steepest desc. (CG)
   ISIF   =      2    stress and relaxation
   IWAVPR =     10    prediction:  0-non 1-charg 2-wave 3-comb
   ISYM   =      2    0-nonsym 1-usesym 2-fastsym
   LCORR  =      T    Harris-Foulkes like correction to forces

   POTIM  = 0.5000    time-step for ionic-motion
   TEIN   =    0.0    initial temperature
   TEBEG  =    0.0;   TEEND  =   0.0 temperature during run
   SMASS  =  -3.00    Nose mass-parameter (am)
   estimated Nose-frequenzy (Omega)   =  0.10E-29 period in steps = 0.13E+47 mass=  -0.674E-26a.u.
   SCALEE = 1.0000    scale energy and forces
   NPACO  =    256;   APACO  = 10.0  distance and # of slots for P.C.
   PSTRESS=    0.0 pullay stress

  Mass of Ions in am
   POMASS =  28.09 72.61
  Ionic Valenz
   ZVAL   =   4.00  4.00
  Atomic Wigner-Seitz radii
   RWIGS  =  -1.00 -1.00
  virtual crystal weights 
   VCA    =   1.00  1.00
   NELECT =     912.0000    total number of electrons
   NUPDOWN=       1.0000    fix difference up-down

 DOS related values:
   EMIN   =  10.00;   EMAX   =-10.00  energy-range for DOS
   EFERMI =   0.00;   METHOD = LEGACY      
   ISMEAR =     0;   SIGMA  =   0.01  broadening in eV -4-tet -1-fermi 0-gaus

 Electronic relaxation 2 (details)
   IALGO  =     38    algorithm
   LDIAG  =      T    sub-space diagonalisation (order eigenvalues)
   LSUBROT=      F    optimize rotation matrix (better conditioning)
   TURBO    =      0    0=normal 1=particle mesh
   IRESTART =      0    0=no restart 2=restart with 2 vectors
   NREBOOT  =      0    no. of reboots
   NMIN     =      0    reboot dimension
   EREF     =   0.00    reference energy to select bands
   IMIX   =      4    mixing-type and parameters
     AMIX     =   0.60;   BMIX     =  1.00
     AMIX_MAG =   2.40;   BMIX_MAG =  1.00
     AMIN     =   0.10
     WC   =   100.;   INIMIX=   1;  MIXPRE=   1;  MAXMIX= -45

 Intra band minimization:
   WEIMIN = 0.0000     energy-eigenvalue tresh-hold
   EBREAK =  0.46E-10  absolut break condition
   DEPER  =   0.30     relativ break condition  

   TIME   =   0.40     timestep for ELM

  volume/ion in A,a.u.               =      23.11       155.93
  Fermi-wavevector in a.u.,A,eV,Ry     =   0.912399  1.724183 11.326460  0.832471
  Thomas-Fermi vector in A             =   2.036790
 
 Write flags
   LWAVE        =      F    write WAVECAR
   LDOWNSAMPLE  =      F    k-point downsampling of WAVECAR
   LCHARG       =      T    write CHGCAR
   LVTOT        =      F    write LOCPOT, total local potential
   LVHAR        =      T    write LOCPOT, Hartree potential only
   WRT_POTENTIAL=  hartree ionic  ! write potential to hdf5 file
   LELF         =      F    write electronic localiz. function (ELF)
   LORBIT       =      0    0 simple, 1 ext, 2 COOP (PROOUT), +10 PAW based schemes


 Dipole corrections
   LMONO      =      F    monopole corrections only (constant potential shift)
   LDIPOL     =      F    correct potential (dipole corrections)
   IDIPOL     =      0    1-x, 2-y, 3-z, 4-all directions 
   EPSILON    =  1.0000000 bulk dielectric constant
   LVACPOTAV  =      F  vacuum potentials using an averaging scheme for the charge density
   VACPOTFLAT =  0.1000000 required flatness to determine vacuum potential
 Exchange correlation treatment:
   GGA     = PE    functional components
   XC_C    = 1    coefficients multiplying the functional components
   LIBXC   =     F    Libxc                    
   VOSKOWN =     0    Vosko Wilk Nusair interpolation
   LHFCALC =     F    Hartree Fock is set to
   LHFONE  =     F    Hartree Fock one center treatment
   AEXX    =    0.0000 exact exchange contribution

 Parameters of functionals:
   PE:
     No parameter
 
 Van der Waals corrections
   IVDW    =     0    specifies the selected vdW correction

 Linear response parameters
   LEPSILON=     F    determine dielectric tensor
   LRPA    =     F    only Hartree local field effects (RPA)
   LNABLA  =     F    use nabla operator in PAW spheres
   LVEL    =     F    velocity operator in full k-point grid
   CSHIFT  =0.1000    complex shift for real part using Kramers Kronig
   OMEGAMAX=  -1.0    maximum frequency
   DEG_THRESHOLD= 0.2000000E-02 threshold for treating states as degnerate
   RTIME   =   -0.100 relaxation time in fs
  (WPLASMAI=    0.000 imaginary part of plasma frequency in eV, 0.658/RTIME)
   DFIELD  = 0.0000000 0.0000000 0.0000000 field for delta impulse in time
 
  Optional k-point grid parameters
   LKPOINTS_OPT  =     F    use optional k-point grid
   KPOINTS_OPT_MODE=     1    mode for optional k-point grid
 
 Orbital magnetization related:
   ORBITALMAG=     F  switch on orbital magnetization
   LCHIMAG   =     F  perturbation theory with respect to B field
   DQ        =  0.001000  dq finite difference perturbation B field
   LLRAUG    =     F  two centre corrections for induced B field
   LBONE     =     F  B-component reconstruction in AE one-centre
   LVGVCALC  =     T  calculate vGv susceptibility
   LVGVAPPL  =     F  apply vGv susceptibility instead of pGv for G=0

 Random number generation:
   RANDOM_GENERATOR = DEFAULT
   PCG_SEED         = not used


--------------------------------------------------------------------------------------------------------


 Static calculation
 charge density and potential will be updated during run
 spin polarized calculation
 Variant of blocked Davidson
 Davidson routine will perform the subspace rotation
 perform sub-space diagonalisation
    after iterative eigenvector-optimisation
 modified Broyden-mixing scheme, WC =      100.0
 initial mixing is a Kerker type mixing with AMIX =  0.6000 and BMIX =      1.0000
 Hartree-type preconditioning will be used
 using additional bands           92
 real space projection scheme for non local part
 use partial core corrections
 calculate Harris-corrections to forces 
   (improved forces if not selfconsistent)
 use gradient corrections 
 use of overlap-Matrix (Vanderbilt PP)
 Gauss-broadening in eV      SIGMA  =   0.01


--------------------------------------------------------------------------------------------------------


  energy-cutoff  :      700.00
  volume of cell :     5268.24
      direct lattice vectors                 reciprocal lattice vectors
    17.174331665  0.000000000  0.000000000     0.058226429  0.000000000  0.000000000
     0.000000000 17.174329758  0.000000000     0.000000000  0.058226435  0.000000000
     0.000000000  0.000000000 17.861000061     0.000000000  0.000000000  0.055987906

  length of vectors
    17.174331665 17.174329758 17.861000061     0.058226429  0.058226435  0.055987906


 
 k-points in units of 2pi/SCALE and weight: Automatic KPOINTS generated             
   0.00000000  0.00000000  0.00000000       0.125
   0.02911321  0.00000000  0.00000000       0.125
   0.00000000  0.02911322  0.00000000       0.125
   0.02911321  0.02911322  0.00000000       0.125
   0.00000000  0.00000000  0.02799395       0.125
   0.02911321  0.00000000  0.02799395       0.125
   0.00000000  0.02911322  0.02799395       0.125
   0.02911321  0.02911322  0.02799395       0.125
 
 k-points in reciprocal lattice and weights: Automatic KPOINTS generated             
   0.00000000  0.00000000  0.00000000       0.125
   0.50000000  0.00000000  0.00000000       0.125
   0.00000000  0.50000000  0.00000000       0.125
   0.50000000  0.50000000  0.00000000       0.125
   0.00000000  0.00000000  0.50000000       0.125
   0.50000000  0.00000000  0.50000000       0.125
   0.00000000  0.50000000  0.50000000       0.125
   0.50000000  0.50000000  0.50000000       0.125
 
 position of ions in fractional coordinates (direct lattice) 
   0.99640435  0.97483069  0.00000000
   0.94640434  0.62483060  0.15203516
   0.89640427  0.27483046  0.30407038
   0.09640440  0.67483074  0.00000000
   0.04640434  0.32483065  0.15203516
   0.99640423  0.97483051  0.30407038
   0.19640441  0.37483066  0.00000000
   0.14640434  0.02483060  0.15203516
   0.09640426  0.67483044  0.30407038
   0.29640439  0.07483066  0.00000000
   0.24640430  0.72483063  0.15203516
   0.19640423  0.37483042  0.30407038
   0.39640445  0.77483070  0.00000000
   0.34640437  0.42483059  0.15203516
   0.29640430  0.07483046  0.30407038
   0.49640438  0.47483069  0.00000000
   0.44640431  0.12483060  0.15203516
   0.39640424  0.77483046  0.30407038
   0.59640437  0.17483065  0.00000000
   0.54640430  0.82483059  0.15203516
   0.49640426  0.47483045  0.30407038
   0.69640452  0.87483078  0.00000000
   0.64640445  0.52483064  0.15203516
   0.59640437  0.17483054  0.30407038
   0.79640442  0.57483071  0.00000000
   0.74640435  0.22483061  0.15203516
   0.69640428  0.87483048  0.30407038
   0.89640450  0.27483070  0.00000000
   0.84640443  0.92483062  0.15203516
   0.79640436  0.57483047  0.30407038
   0.99640441  0.22483067  0.07601761
   0.94640428  0.87483054  0.22805277
   0.89640427  0.52483046  0.38008791
   0.09640437  0.92483062  0.07601761
   0.04640429  0.57483053  0.22805277
   0.99640423  0.22483039  0.38008791
   0.19640441  0.62483066  0.07601761
   0.14640434  0.27483055  0.22805277
   0.09640426  0.92483050  0.38008791
   0.29640442  0.32483062  0.07601761
   0.24640434  0.97483051  0.22805277
   0.19640426  0.62483048  0.38008791
   0.39640441  0.02483064  0.07601761
   0.34640431  0.67483056  0.22805277
   0.29640424  0.32483047  0.38008791
   0.49640450  0.72483069  0.07601761
   0.44640443  0.37483057  0.22805277
   0.39640436  0.02483052  0.38008791
   0.59640437  0.42483059  0.07601761
   0.54640430  0.07483050  0.22805277
   0.49640426  0.72483045  0.38008791
   0.69640452  0.12483066  0.07601761
   0.64640439  0.77483058  0.22805277
   0.59640437  0.42483050  0.38008791
   0.79640448  0.82483071  0.07601761
   0.74640441  0.47483057  0.22805277
   0.69640434  0.12483048  0.38008791
   0.89640445  0.52483064  0.07601761
   0.84640437  0.17483054  0.22805277
   0.79640430  0.82483047  0.38008791
   0.99640441  0.47483069  0.00000000
   0.94640434  0.12483060  0.15203516
   0.89640427  0.77483046  0.30407038
   0.09640438  0.17483066  0.00000000
   0.04640431  0.82483059  0.15203516
   0.99640423  0.47483045  0.30407038
   0.19640441  0.87483066  0.00000000
   0.14640433  0.52483058  0.15203516
   0.09640426  0.17483044  0.30407038
   0.29640442  0.57483065  0.00000000
   0.24640432  0.22483060  0.15203516
   0.19640425  0.87483048  0.30407038
   0.39640445  0.27483067  0.00000000
   0.34640437  0.92483062  0.15203516
   0.29640430  0.57483047  0.30407038
   0.49640441  0.97483063  0.00000000
   0.44640434  0.62483054  0.15203516
   0.39640424  0.27483040  0.30407038
   0.59640437  0.67483068  0.00000000
   0.54640430  0.32483059  0.15203516
   0.49640423  0.97483045  0.30407038
   0.69640440  0.37483063  0.00000000
   0.64640433  0.02483056  0.15203516
   0.59640425  0.67483044  0.30407038
   0.79640442  0.07483064  0.00000000
   0.74640435  0.72483051  0.15203516
   0.69640428  0.37483042  0.30407038
   0.89640450  0.77483070  0.00000000
   0.84640443  0.42483062  0.15203516
   0.79640436  0.07483048  0.30407038
   0.99640435  0.72483075  0.07601761
   0.94640428  0.37483060  0.22805277
   0.89640427  0.02483054  0.38008791
   0.09640439  0.42483068  0.07601761
   0.04640431  0.07483057  0.22805277
   0.99640423  0.72483051  0.38008791
   0.19640441  0.12483066  0.07601761
   0.14640434  0.77483058  0.22805277
   0.09640427  0.42483050  0.38008791
   0.29640439  0.82483071  0.07601761
   0.24640432  0.47483057  0.22805277
   0.19640425  0.12483048  0.38008791
   0.39640441  0.52483076  0.07601761
   0.34640434  0.17483065  0.22805277
   0.29640427  0.82483059  0.38008791
   0.49640441  0.22483064  0.07601761
   0.44640434  0.87483054  0.22805277
   0.39640424  0.52483046  0.38008791
   0.59640443  0.92483068  0.07601761
   0.54640436  0.57483059  0.22805277
   0.49640429  0.22483051  0.38008791
   0.69640446  0.62483072  0.07601761
   0.64640439  0.27483058  0.22805277
   0.59640431  0.92483056  0.38008791
   0.79640436  0.32483062  0.07601761
   0.74640429  0.97483051  0.22805277
   0.69640422  0.62483048  0.38008791
   0.89640439  0.02483063  0.07601761
   0.84640431  0.67483056  0.22805277
   0.79640424  0.32483041  0.38008791
   0.08787274  0.92397654  0.49206373
   0.92120612  0.92397654  0.65044791
   0.75453937  0.92397654  0.80883211
   0.08787274  0.59064323  0.49206373
   0.92120612  0.59064323  0.65044791
   0.75453937  0.59064323  0.80883211
   0.08787274  0.25730994  0.49206373
   0.92120612  0.25730994  0.65044791
   0.75453937  0.25730994  0.80883211
   0.42120606  0.92397654  0.49206373
   0.25453940  0.92397654  0.65044791
   0.08787274  0.92397654  0.80883211
   0.42120606  0.59064323  0.49206373
   0.25453940  0.59064323  0.65044791
   0.08787274  0.59064323  0.80883211
   0.42120606  0.25730994  0.49206373
   0.25453940  0.25730994  0.65044791
   0.08787274  0.25730994  0.80883211
   0.75453937  0.92397654  0.49206373
   0.58787268  0.92397654  0.65044791
   0.42120600  0.92397654  0.80883211
   0.75453937  0.59064323  0.49206373
   0.58787268  0.59064323  0.65044791
   0.42120600  0.59064323  0.80883211
   0.75453937  0.25730994  0.49206373
   0.58787268  0.25730994  0.65044791
   0.42120600  0.25730994  0.80883211
   0.17120609  0.17397654  0.57125580
   0.00453937  0.17397654  0.72964001
   0.83787274  0.17397654  0.88802415
   0.17120609  0.84064329  0.57125580
   0.00453937  0.84064329  0.72964001
   0.83787274  0.84064329  0.88802415
   0.17120609  0.50730991  0.57125580
   0.00453937  0.50730991  0.72964001
   0.83787274  0.50730991  0.88802415
   0.50453937  0.17397654  0.57125580
   0.33787268  0.17397654  0.72964001
   0.17120597  0.17397654  0.88802415
   0.50453937  0.84064329  0.57125580
   0.33787268  0.84064329  0.72964001
   0.17120597  0.84064329  0.88802415
   0.50453937  0.50730991  0.57125580
   0.33787268  0.50730991  0.72964001
   0.17120597  0.50730991  0.88802415
   0.83787274  0.17397654  0.57125580
   0.67120600  0.17397654  0.72964001
   0.50453931  0.17397654  0.88802415
   0.83787274  0.84064329  0.57125580
   0.67120600  0.84064329  0.72964001
   0.50453931  0.84064329  0.88802415
   0.83787274  0.50730991  0.57125580
   0.67120600  0.50730991  0.72964001
   0.50453931  0.50730991  0.88802415
   0.25453943  0.09064317  0.49206373
   0.08787274  0.09064317  0.65044791
   0.92120606  0.09064317  0.80883211
   0.25453943  0.75730985  0.49206373
   0.08787274  0.75730985  0.65044791
   0.92120606  0.75730985  0.80883211
   0.25453943  0.42397660  0.49206373
   0.08787274  0.42397660  0.65044791
   0.92120606  0.42397660  0.80883211
   0.58787268  0.09064317  0.49206373
   0.42120600  0.09064317  0.65044791
   0.25453931  0.09064317  0.80883211
   0.58787268  0.75730985  0.49206373
   0.42120600  0.75730985  0.65044791
   0.25453931  0.75730985  0.80883211
   0.58787268  0.42397660  0.49206373
   0.42120600  0.42397660  0.65044791
   0.25453931  0.42397660  0.80883211
   0.92120606  0.09064317  0.49206373
   0.75453937  0.09064317  0.65044791
   0.58787268  0.09064317  0.80883211
   0.92120606  0.75730985  0.49206373
   0.75453937  0.75730985  0.65044791
   0.58787268  0.75730985  0.80883211
   0.92120606  0.42397660  0.49206373
   0.75453937  0.42397660  0.65044791
   0.58787268  0.42397660  0.80883211
   0.33787271  0.00730979  0.57125580
   0.17120603  0.00730979  0.72964001
   0.00453937  0.00730979  0.88802415
   0.33787271  0.67397654  0.57125580
   0.17120603  0.67397654  0.72964001
   0.00453937  0.67397654  0.88802415
   0.33787271  0.34064329  0.57125580
   0.17120603  0.34064329  0.72964001
   0.00453937  0.34064329  0.88802415
   0.67120612  0.00730979  0.57125580
   0.50453937  0.00730979  0.72964001
   0.33787268  0.00730979  0.88802415
   0.67120612  0.67397654  0.57125580
   0.50453937  0.67397654  0.72964001
   0.33787268  0.67397654  0.88802415
   0.67120612  0.34064329  0.57125580
   0.50453937  0.34064329  0.72964001
   0.33787268  0.34064329  0.88802415
   0.00453949  0.00730979  0.57125580
   0.83787274  0.00730979  0.72964001
   0.67120600  0.00730979  0.88802415
   0.00453949  0.67397654  0.57125580
   0.83787274  0.67397654  0.72964001
   0.67120600  0.67397654  0.88802415
   0.00453949  0.34064329  0.57125580
   0.83787274  0.34064329  0.72964001
   0.67120600  0.34064329  0.88802415
 
 position of ions in cartesian coordinates  (Angst):
  17.11257878 16.74206368  0.00000000
  16.25386199 10.73104684  2.71550004
  15.39514417  4.72002896  5.43100113
   1.65568119 11.58976557  0.00000000
   0.79696346  5.57874872  2.71550004
  17.11257674 16.74206060  5.43100113
   3.37311451  6.43746541  0.00000000
   2.51439671  0.42644886  2.71550004
   1.65567877 11.58976046  5.43100113
   5.09054734  1.28516641  0.00000000
   4.23182926 12.44848021  2.71550004
   3.37311146  6.43746132  5.43100113
   6.80798141 13.30719793  0.00000000
   5.94926361  7.29618058  2.71550004
   5.09054579  1.28516296  5.43100113
   8.52541346  8.15489880  0.00000000
   7.66669564  2.14388196  2.71550004
   6.80797784 13.30719384  5.43100113
  10.24284653  3.00259915  0.00000000
   9.38412871 14.16591258  2.71550004
   8.52541140  8.15489471  5.43100113
  11.96028215 15.02463233  0.00000000
  11.10156433  9.01361446  2.71550004
  10.24284653  3.00259736  5.43100113
  13.67771367  9.87233219  0.00000000
  12.81899586  3.86131509  2.71550004
  11.96027804 15.02462721  5.43100113
  15.39514827  4.72003305  0.00000000
  14.53643046 15.88334597  2.71550004
  13.67771265  9.87232808  5.43100113
  17.11257979  3.86131610  1.35775055
  16.25386096 15.02462825  4.07325045
  15.39514417  9.01361140  6.78875022
   1.65568056 15.88334597  1.35775055
   0.79696262  9.87232911  4.07325045
  17.11257674  3.86131124  6.78875022
   3.37311451 10.73104785  1.35775055
   2.51439671  4.72003049  4.07325045
   1.65567877 15.88334391  6.78875022
   5.09054783  5.57874820  1.35775055
   4.23182977 16.74206060  4.07325045
   3.37311195 10.73104478  6.78875022
   6.80798090  0.42644958  1.35775055
   5.94926258 11.58976250  4.07325045
   5.09054478  5.57874564  6.78875022
   8.52541551 12.44848124  1.35775055
   7.66669769  6.43746388  4.07325045
   6.80797988  0.42644761  6.78875022
  10.24284653  7.29618058  1.35775055
   9.38412871  1.28516360  4.07325045
   8.52541140 12.44847715  6.78875022
  11.96028215  2.14388297  1.35775055
  11.10156331 13.30719589  4.07325045
  10.24284653  7.29617903  6.78875022
  13.67771470 14.16591463  1.35775055
  12.81899688  8.15489675  4.07325045
  11.96027907  2.14387990  6.78875022
  15.39514724  9.01361446  1.35775055
  14.53642944  3.00259736  4.07325045
  13.67771162 14.16591052  6.78875022
  17.11257979  8.15489880  0.00000000
  16.25386199  2.14388196  2.71550004
  15.39514417 13.30719384  5.43100113
   1.65568081  3.00259941  0.00000000
   0.79696306 14.16591258  2.71550004
  17.11257674  8.15489471  5.43100113
   3.37311451 15.02463029  0.00000000
   2.51439645  9.01361345  2.71550004
   1.65567877  3.00259558  5.43100113
   5.09054783  9.87233116  0.00000000
   4.23182952  3.86131483  2.71550004
   3.37311170 15.02462721  5.43100113
   6.80798141  4.72003254  0.00000000
   5.94926361 15.88334597  2.71550004
   5.09054579  9.87232808  5.43100113
   8.52541396 16.74206265  0.00000000
   7.66669616 10.73104581  2.71550004
   6.80797784  4.72002793  5.43100113
  10.24284653 11.58976454  0.00000000
   9.38412871  5.57874770  2.71550004
   8.52541090 16.74205959  5.43100113
  11.96028009  6.43746489  0.00000000
  11.10156228  0.42644824  2.71550004
  10.24284446 11.58976046  5.43100113
  13.67771367  1.28516602  0.00000000
  12.81899586 12.44847816  2.71550004
  11.96027804  6.43746132  5.43100113
  15.39514827 13.30719793  0.00000000
  14.53643046  7.29618109  2.71550004
  13.67771265  1.28516334  5.43100113
  17.11257878 12.44848227  1.35775055
  16.25386096  6.43746440  4.07325045
  15.39514417  0.42644786  6.78875022
   1.65568095  7.29618210  1.35775055
   0.79696294  1.28516487  4.07325045
  17.11257674 12.44847816  6.78875022
   3.37311451  2.14388285  1.35775055
   2.51439671 13.30719589  4.07325045
   1.65567889  7.29617903  6.78875022
   5.09054734 14.16591463  1.35775055
   4.23182952  8.15489675  4.07325045
   3.37311170  2.14387990  6.78875022
   6.80798090  9.01361652  1.35775055
   5.94926309  3.00259915  4.07325045
   5.09054527 14.16591258  6.78875022
   8.52541396  3.86131559  1.35775055
   7.66669616 15.02462825  4.07325045
   6.80797784  9.01361140  6.78875022
  10.24284754 15.88334698  1.35775055
   9.38412974  9.87233014  4.07325045
   8.52541192  3.86131328  6.78875022
  11.96028112 10.73104888  1.35775055
  11.10156331  4.72003101  4.07325045
  10.24284550 15.88334494  6.78875022
  13.67771265  5.57874820  1.35775055
  12.81899483 16.74206060  4.07325045
  11.96027703 10.73104478  6.78875022
  15.39514623  0.42644936  1.35775055
  14.53642841 11.58976250  4.07325045
  13.67771061  5.57874463  6.78875022
   1.50915565 15.86867780  8.78875033
  15.82109939 15.86867780 11.61765007
  12.95870941 15.86867780 14.44655035
   1.50915565 10.14390155  8.78875033
  15.82109939 10.14390155 11.61765007
  12.95870941 10.14390155 14.44655035
   1.50915565  4.41912581  8.78875033
  15.82109939  4.41912581 11.61765007
  12.95870941  4.41912581 14.44655035
   7.23393252 15.86867780  8.78875033
   4.37154408 15.86867780 11.61765007
   1.50915565 15.86867780 14.44655035
   7.23393252 10.14390155  8.78875033
   4.37154408 10.14390155 11.61765007
   1.50915565 10.14390155 14.44655035
   7.23393252  4.41912581  8.78875033
   4.37154408  4.41912581 11.61765007
   1.50915565  4.41912581 14.44655035
  12.95870941 15.86867780  8.78875033
  10.09632045 15.86867780 11.61765007
   7.23393149 15.86867780 14.44655035
  12.95870941 10.14390155  8.78875033
  10.09632045 10.14390155 11.61765007
   7.23393149 10.14390155 14.44655035
  12.95870941  4.41912581  8.78875033
  10.09632045  4.41912581 11.61765007
   7.23393149  4.41912581 14.44655035
   2.94035012  2.98793049 10.20319993
   0.07796066  2.98793049 13.03210021
  14.38990440  2.98793049 15.86099942
   2.94035012 14.43748502 10.20319993
   0.07796066 14.43748502 13.03210021
  14.38990440 14.43748502 15.86099942
   2.94035012  8.71270775 10.20319993
   0.07796066  8.71270775 13.03210021
  14.38990440  8.71270775 15.86099942
   8.66512650  2.98793049 10.20319993
   5.80273754  2.98793049 13.03210021
   2.94034808  2.98793049 15.86099942
   8.66512650 14.43748502 10.20319993
   5.80273754 14.43748502 13.03210021
   2.94034808 14.43748502 15.86099942
   8.66512650  8.71270775 10.20319993
   5.80273754  8.71270775 13.03210021
   2.94034808  8.71270775 15.86099942
  14.38990440  2.98793049 10.20319993
  11.52751441  2.98793049 13.03210021
   8.66512547  2.98793049 15.86099942
  14.38990440 14.43748502 10.20319993
  11.52751441 14.43748502 13.03210021
   8.66512547 14.43748502 15.86099942
  14.38990440  8.71270775 10.20319993
  11.52751441  8.71270775 13.03210021
   8.66512547  8.71270775 15.86099942
   4.37154459  1.55673564  8.78875033
   1.50915565  1.55673564 11.61765007
  15.82109835  1.55673564 14.44655035
   4.37154459 13.00628916  8.78875033
   1.50915565 13.00628916 11.61765007
  15.82109835 13.00628916 14.44655035
   4.37154459  7.28151394  8.78875033
   1.50915565  7.28151394 11.61765007
  15.82109835  7.28151394 14.44655035
  10.09632045  1.55673564  8.78875033
   7.23393149  1.55673564 11.61765007
   4.37154255  1.55673564 14.44655035
  10.09632045 13.00628916  8.78875033
   7.23393149 13.00628916 11.61765007
   4.37154255 13.00628916 14.44655035
  10.09632045  7.28151394  8.78875033
   7.23393149  7.28151394 11.61765007
   4.37154255  7.28151394 14.44655035
  15.82109835  1.55673564  8.78875033
  12.95870941  1.55673564 11.61765007
  10.09632045  1.55673564 14.44655035
  15.82109835 13.00628916  8.78875033
  12.95870941 13.00628916 11.61765007
  10.09632045 13.00628916 14.44655035
  15.82109835  7.28151394  8.78875033
  12.95870941  7.28151394 11.61765007
  10.09632045  7.28151394 14.44655035
   5.80273805  0.12554081 10.20319993
   2.94034909  0.12554081 13.03210021
   0.07796066  0.12554081 15.86099942
   5.80273805 11.57509536 10.20319993
   2.94034909 11.57509536 13.03210021
   0.07796066 11.57509536 15.86099942
   5.80273805  5.85032014 10.20319993
   2.94034909  5.85032014 13.03210021
   0.07796066  5.85032014 15.86099942
  11.52751647  0.12554081 10.20319993
   8.66512650  0.12554081 13.03210021
   5.80273754  0.12554081 15.86099942
  11.52751647 11.57509536 10.20319993
   8.66512650 11.57509536 13.03210021
   5.80273754 11.57509536 15.86099942
  11.52751647  5.85032014 10.20319993
   8.66512650  5.85032014 13.03210021
   5.80273754  5.85032014 15.86099942
   0.07796271  0.12554081 10.20319993
  14.38990440  0.12554081 13.03210021
  11.52751441  0.12554081 15.86099942
   0.07796271 11.57509536 10.20319993
  14.38990440 11.57509536 13.03210021
  11.52751441 11.57509536 15.86099942
   0.07796271  5.85032014 10.20319993
  14.38990440  5.85032014 13.03210021
  11.52751441  5.85032014 15.86099942
 


--------------------------------------------------------------------------------------------------------


 k-point     1 :   0.0000 0.0000 0.0000  plane waves:  221561
 k-point     2 :   0.5000 0.0000 0.0000  plane waves:  221554
 k-point     3 :   0.0000 0.5000 0.0000  plane waves:  221554
 k-point     4 :   0.5000 0.5000 0.0000  plane waves:  221456
 k-point     5 :   0.0000 0.0000 0.5000  plane waves:  221270
 k-point     6 :   0.5000 0.0000 0.5000  plane waves:  221416
 k-point     7 :   0.0000 0.5000 0.5000  plane waves:  221416
 k-point     8 :   0.5000 0.5000 0.5000  plane waves:  221656

 maximum and minimum number of plane-waves per node :     13906    13774

 maximum number of plane-waves:    221656
 maximum index in each direction: 
   IXMAX=   37   IYMAX=   37   IZMAX=   38
   IXMIN=  -37   IYMIN=  -37   IZMIN=  -39


 real space projection operators:
  total allocation   :      35469.25 KBytes
  max/ min on nodes  :       2224.86       2209.99


 parallel 3D FFT for wavefunctions:
    minimum data exchange during FFTs selected (reduces bandwidth)
 parallel 3D FFT for charge:
    minimum data exchange during FFTs selected (reduces bandwidth)


 total amount of memory used by VASP MPI-rank0   589742. kBytes
=======================================================================

   base      :      30000. kBytes
   nonlr-proj:      11882. kBytes
   fftplans  :      30618. kBytes
   grid      :      24869. kBytes
   one-center:        243. kBytes
   wavefun   :     492130. kBytes
 
     INWAV:  cpu time      0.0001: real time      0.0004
 Broyden mixing: mesh for mixing (old mesh)
   NGX = 75   NGY = 75   NGZ = 77
  (NGX  =224   NGY  =224   NGZ  =240)
  gives a total of 433125 points

 initial charge density was supplied:
 charge density of overlapping atoms calculated
 number of electron     912.0000000 magnetization       1.0000000
 keeping initial charge density in first step


--------------------------------------------------------------------------------------------------------


 Maximum index for non-local projection operator          209
 Maximum index for augmentation-charges         2966 (set IRDMAX)


--------------------------------------------------------------------------------------------------------


 First call to EWALD:  gamma=   0.102
 Maximum number of real-space cells 3x 3x 3
 Maximum number of reciprocal cells 3x 3x 3

    FEWALD:  cpu time      0.0065: real time      0.0065


--------------------------------------- Ionic step        1  -------------------------------------------




--------------------------------------- Iteration      1(   1)  ---------------------------------------


    POTLOK:  cpu time      0.3791: real time      0.3820
    SETDIJ:  cpu time      2.0000: real time      2.0100
     EDDAV:  cpu time    112.5596: real time    113.5849
       DOS:  cpu time      0.0030: real time      0.0030
    --------------------------------------------
      LOOP:  cpu time    114.9418: real time    115.9799

 eigenvalue-minimisations  : 17536
 total energy-change (2. order) : 0.3786133E+04  (-0.4010618E+05)
 number of electron     912.0000000 magnetization       1.0000000
 augmentation part      912.0000000 magnetization       1.0000000

 Free energy of the ion-electron system (eV)
  ---------------------------------------------------
  alpha Z        PSCENC =      1068.18732198
  Ewald energy   TEWEN  =    -23896.66744422
  -Hartree energ DENC   =     -2313.66490514
  -exchange      EXHF   =         0.00000000
  -V(xc)+E(xc)   XCENC  =     -1955.76824451
  PAW double counting   =     20094.53666134   -16418.68521354
  entropy T*S    EENTRO =        -0.00158325
  eigenvalues    EBANDS =      3500.64372063
  atomic energy  EATOM  =     23707.55310521
  Solvation  Ediel_sol  =         0.00000000
  ---------------------------------------------------
  free energy    TOTEN  =      3786.13341850 eV

  energy without entropy =     3786.13500175  energy(sigma->0) =     3786.13421012


--------------------------------------------------------------------------------------------------------




--------------------------------------- Iteration      1(   2)  ---------------------------------------


     EDDAV:  cpu time    127.2224: real time    128.3651
       DOS:  cpu time      0.0028: real time      0.0028
    --------------------------------------------
      LOOP:  cpu time    127.2253: real time    128.3679

 eigenvalue-minimisations  : 20472
 total energy-change (2. order) :-0.4426038E+04  (-0.4273267E+04)
 number of electron     912.0000000 magnetization       1.0000000
 augmentation part      912.0000000 magnetization       1.0000000

 Free energy of the ion-electron system (eV)
  ---------------------------------------------------
  alpha Z        PSCENC =      1068.18732198
  Ewald energy   TEWEN  =    -23896.66744422
  -Hartree energ DENC   =     -2313.66490514
  -exchange      EXHF   =         0.00000000
  -V(xc)+E(xc)   XCENC  =     -1955.76824451
  PAW double counting   =     20094.53666134   -16418.68521354
  entropy T*S    EENTRO =        -0.00327571
  eigenvalues    EBANDS =      -925.39244141
  atomic energy  EATOM  =     23707.55310521
  Solvation  Ediel_sol  =         0.00000000
  ---------------------------------------------------
  free energy    TOTEN  =      -639.90443599 eV

  energy without entropy =     -639.90116028  energy(sigma->0) =     -639.90279814


--------------------------------------------------------------------------------------------------------




--------------------------------------- Iteration      1(   3)  ---------------------------------------


     EDDAV:  cpu time    133.8701: real time    135.0198
       DOS:  cpu time      0.0031: real time      0.0031
    --------------------------------------------
      LOOP:  cpu time    133.8731: real time    135.0228

 eigenvalue-minimisations  : 21768
 total energy-change (2. order) :-0.4256677E+03  (-0.4117292E+03)
 number of electron     912.0000000 magnetization       1.0000000
 augmentation part      912.0000000 magnetization       1.0000000

 Free energy of the ion-electron system (eV)
  ---------------------------------------------------
  alpha Z        PSCENC =      1068.18732198
  Ewald energy   TEWEN  =    -23896.66744422
  -Hartree energ DENC   =     -2313.66490514
  -exchange      EXHF   =         0.00000000
  -V(xc)+E(xc)   XCENC  =     -1955.76824451
  PAW double counting   =     20094.53666134   -16418.68521354
  entropy T*S    EENTRO =        -0.00310963
  eigenvalues    EBANDS =     -1351.06026467
  atomic energy  EATOM  =     23707.55310521
  Solvation  Ediel_sol  =         0.00000000
  ---------------------------------------------------
  free energy    TOTEN  =     -1065.57209317 eV

  energy without entropy =    -1065.56898354  energy(sigma->0) =    -1065.57053836


--------------------------------------------------------------------------------------------------------




--------------------------------------- Iteration      1(   4)  ---------------------------------------


     EDDAV:  cpu time    128.6287: real time    129.7761
       DOS:  cpu time      0.0028: real time      0.0028
    --------------------------------------------
      LOOP:  cpu time    128.6315: real time    129.7789

 eigenvalue-minimisations  : 20728
 total energy-change (2. order) :-0.1643515E+02  (-0.1613221E+02)
 number of electron     912.0000000 magnetization       1.0000000
 augmentation part      912.0000000 magnetization       1.0000000

 Free energy of the ion-electron system (eV)
  ---------------------------------------------------
  alpha Z        PSCENC =      1068.18732198
  Ewald energy   TEWEN  =    -23896.66744422
  -Hartree energ DENC   =     -2313.66490514
  -exchange      EXHF   =         0.00000000
  -V(xc)+E(xc)   XCENC  =     -1955.76824451
  PAW double counting   =     20094.53666134   -16418.68521354
  entropy T*S    EENTRO =        -0.00461210
  eigenvalues    EBANDS =     -1367.49391501
  atomic energy  EATOM  =     23707.55310521
  Solvation  Ediel_sol  =         0.00000000
  ---------------------------------------------------
  free energy    TOTEN  =     -1082.00724598 eV

  energy without entropy =    -1082.00263388  energy(sigma->0) =    -1082.00493993


--------------------------------------------------------------------------------------------------------




--------------------------------------- Iteration      1(   5)  ---------------------------------------


     EDDAV:  cpu time    144.7500: real time    146.0873
       DOS:  cpu time      0.0029: real time      0.0029
    CHARGE:  cpu time      4.8219: real time      4.8667
    MIXING:  cpu time      0.0181: real time      0.0182
    --------------------------------------------
      LOOP:  cpu time    149.5929: real time    150.9752

 eigenvalue-minimisations  : 23928
 total energy-change (2. order) :-0.6631202E+00  (-0.6583538E+00)
 number of electron     911.9999994 magnetization       1.0000000
 augmentation part      -99.5432916 magnetization      -0.0656759

 Broyden mixing:
  rms(total) = 0.41040E+01    rms(broyden)= 0.41040E+01
  rms(prec ) = 0.44336E+01
  weight for this iteration     100.00

 Free energy of the ion-electron system (eV)
  ---------------------------------------------------
  alpha Z        PSCENC =      1068.18732198
  Ewald energy   TEWEN  =    -23896.66744422
  -Hartree energ DENC   =     -2313.66490514
  -exchange      EXHF   =         0.00000000
  -V(xc)+E(xc)   XCENC  =     -1955.76824451
  PAW double counting   =     20094.53666134   -16418.68521354
  entropy T*S    EENTRO =        -0.00469674
  eigenvalues    EBANDS =     -1368.15695058
  atomic energy  EATOM  =     23707.55310521
  Solvation  Ediel_sol  =         0.00000000
  ---------------------------------------------------
  free energy    TOTEN  =     -1082.67036620 eV

  energy without entropy =    -1082.66566946  energy(sigma->0) =    -1082.66801783


--------------------------------------------------------------------------------------------------------




--------------------------------------- Iteration      1(   6)  ---------------------------------------


    POTLOK:  cpu time      0.4462: real time      0.4496
    SETDIJ:  cpu time      1.9816: real time      1.9916
     EDDAV:  cpu time    133.0446: real time    134.3304
       DOS:  cpu time      0.0027: real time      0.0027
    CHARGE:  cpu time      4.7444: real time      4.7891
    MIXING:  cpu time      0.0182: real time      0.0183
    --------------------------------------------
      LOOP:  cpu time    140.2376: real time    141.5817

 eigenvalue-minimisations  : 21728
 total energy-change (2. order) : 0.1735121E+02  (-0.3908064E+01)
 number of electron     911.9999994 magnetization       1.0000000
 augmentation part      -99.3830658 magnetization      -0.0527958

 Broyden mixing:
  rms(total) = 0.18359E+01    rms(broyden)= 0.18359E+01
[...]
      7.66670      2.14388      2.71550        -0.057827      0.014845      0.023852
      6.80798     13.30719      5.43100        -0.120973      0.086067      0.420737
     10.24285      3.00260      0.00000        -0.902296      0.395861     -0.503587
      9.38413     14.16591      2.71550         0.031359     -0.023611      0.064931
      8.52541      8.15489      5.43100         0.114123      0.026095      0.495202
     11.96028     15.02463      0.00000        -0.270131      0.084237     -0.697279
     11.10156      9.01361      2.71550         0.061201      0.003965      0.046602
     10.24285      3.00260      5.43100         0.414007      0.071134      0.223503
     13.67771      9.87233      0.00000         0.965877     -0.010236      0.083874
     12.81900      3.86132      2.71550        -0.088690      0.018154     -0.001456
     11.96028     15.02463      5.43100        -0.044035     -0.113558     -0.019466
     15.39515      4.72003      0.00000         0.567074     -0.430448     -1.666499
     14.53643     15.88335      2.71550        -0.039121      0.011756      0.061984
     13.67771      9.87233      5.43100        -0.363116     -0.036190      0.067918
     17.11258      3.86132      1.35775        -0.284598      0.047081     -0.389121
     16.25386     15.02463      4.07325        -0.077101     -0.006412     -0.072186
     15.39514      9.01361      6.78875         0.900265     -0.185156      0.603211
      1.65568     15.88335      1.35775         0.063033     -0.011365     -0.549036
      0.79696      9.87233      4.07325        -0.061695      0.029074     -0.054261
     17.11258      3.86131      6.78875         0.736474     -0.531387      1.074327
      3.37311     10.73105      1.35775         0.280716     -0.058628     -0.338395
      2.51440      4.72003      4.07325         0.091316     -0.021823     -0.059955
      1.65568     15.88334      6.78875         0.298182      0.102591     -5.791040
      5.09055      5.57875      1.35775         0.100871     -0.126435      0.084464
      4.23183     16.74206      4.07325         0.046137     -0.013580     -0.055626
      3.37311     10.73104      6.78875        -0.859802      0.529896      1.228717
      6.80798      0.42645      1.35775        -0.144882      0.095815     -0.022200
      5.94926     11.58976      4.07325         0.027884     -0.017035      0.013616
      5.09054      5.57875      6.78875        -0.639499      0.132339      0.509839
      8.52542     12.44848      1.35775        -0.284598      0.047081     -0.389121
      7.66670      6.43746      4.07325        -0.077101     -0.006412     -0.072186
      6.80798      0.42645      6.78875         0.900265     -0.185156      0.603211
     10.24285      7.29618      1.35775         0.063033     -0.011365     -0.549036
      9.38413      1.28516      4.07325        -0.061695      0.029074     -0.054261
      8.52541     12.44848      6.78875         0.736474     -0.531387      1.074327
     11.96028      2.14388      1.35775         0.280716     -0.058628     -0.338395
     11.10156     13.30720      4.07325         0.091316     -0.021823     -0.059955
     10.24285      7.29618      6.78875         0.298182      0.102591     -5.791040
     13.67771     14.16591      1.35775         0.100871     -0.126435      0.084464
     12.81900      8.15490      4.07325         0.046137     -0.013580     -0.055626
     11.96028      2.14388      6.78875        -0.859802      0.529896      1.228717
     15.39515      9.01361      1.35775        -0.144882      0.095815     -0.022200
     14.53643      3.00260      4.07325         0.027884     -0.017035      0.013616
     13.67771     14.16591      6.78875        -0.639499      0.132339      0.509839
     17.11258      8.15490      0.00000         0.558425     -0.162282     -0.801790
     16.25386      2.14388      2.71550         0.101498     -0.019657     -0.000897
     15.39514     13.30719      5.43100         0.316406      0.037729     -0.064807
      1.65568      3.00260      0.00000         0.631862     -0.399426      0.108937
      0.79696     14.16591      2.71550        -0.086036     -0.001121      0.068191
     17.11258      8.15489      5.43100        -0.021183      0.077159      0.040549
      3.37311     15.02463      0.00000         0.707605      0.896894      2.660886
      2.51440      9.01361      2.71550        -0.014824      0.021717      0.054903
      1.65568      3.00260      5.43100        -0.396283     -0.041806      0.311689
      5.09055      9.87233      0.00000        -0.742716      0.380926     -1.387608
      4.23183      3.86131      2.71550         0.091233     -0.017665      0.038678
      3.37311     15.02463      5.43100         0.003774     -0.025202      0.502692
      6.80798      4.72003      0.00000        -0.840326      0.066961     -0.115990
      5.94926     15.88335      2.71550         0.007898     -0.021591      0.054018
      5.09055      9.87233      5.43100         0.121095     -0.085384      0.376428
      8.52541     16.74206      0.00000         0.558425     -0.162282     -0.801790
      7.66670     10.73105      2.71550         0.101498     -0.019657     -0.000897
      6.80798      4.72003      5.43100         0.316406      0.037729     -0.064807
     10.24285     11.58976      0.00000         0.631862     -0.399426      0.108937
      9.38413      5.57875      2.71550        -0.086036     -0.001121      0.068191
      8.52541     16.74206      5.43100        -0.021183      0.077159      0.040549
     11.96028      6.43746      0.00000         0.707605      0.896894      2.660886
     11.10156      0.42645      2.71550        -0.014824      0.021717      0.054903
     10.24284     11.58976      5.43100        -0.396283     -0.041806      0.311689
     13.67771      1.28517      0.00000        -0.742716      0.380926     -1.387608
     12.81900     12.44848      2.71550         0.091233     -0.017665      0.038678
     11.96028      6.43746      5.43100         0.003774     -0.025202      0.502692
     15.39515     13.30720      0.00000        -0.840326      0.066961     -0.115990
     14.53643      7.29618      2.71550         0.007898     -0.021591      0.054018
     13.67771      1.28516      5.43100         0.121095     -0.085384      0.376428
     17.11258     12.44848      1.35775         0.448673      0.136721     -0.064946
     16.25386      6.43746      4.07325        -0.000048     -0.011801     -0.054856
     15.39514      0.42645      6.78875        -0.722035     -0.297934     -0.067842
      1.65568      7.29618      1.35775        -0.046807     -0.003718     -0.060327
      0.79696      1.28516      4.07325         0.079896     -0.012663     -0.026875
     17.11258     12.44848      6.78875        -0.834597      0.200428     -0.021840
      3.37311      2.14388      1.35775        -0.461338     -0.110820     -0.198739
      2.51440     13.30720      4.07325        -0.098067      0.021483     -0.034938
      1.65568      7.29618      6.78875         0.114769     -0.056942      0.747081
      5.09055     14.16591      1.35775         0.003774      0.038688     -0.454464
      4.23183      8.15490      4.07325        -0.016119      0.006697     -0.052016
      3.37311      2.14388      6.78875         0.664439     -0.087373     -0.696629
      6.80798      9.01362      1.35775         0.069183     -0.006511     -0.427527
      5.94926      3.00260      4.07325         0.024807     -0.006833     -0.024927
      5.09055     14.16591      6.78875         0.493329      0.178429      0.637060
      8.52541      3.86132      1.35775         0.448673      0.136721     -0.064946
      7.66670     15.02463      4.07325        -0.000048     -0.011801     -0.054856
      6.80798      9.01361      6.78875        -0.722035     -0.297934     -0.067842
     10.24285     15.88335      1.35775        -0.046807     -0.003718     -0.060327
      9.38413      9.87233      4.07325         0.079896     -0.012663     -0.026875
      8.52541      3.86131      6.78875        -0.834597      0.200428     -0.021840
     11.96028     10.73105      1.35775        -0.461338     -0.110820     -0.198739
     11.10156      4.72003      4.07325        -0.098067      0.021483     -0.034938
     10.24285     15.88334      6.78875         0.114769     -0.056942      0.747081
     13.67771      5.57875      1.35775         0.003774      0.038688     -0.454464
     12.81899     16.74206      4.07325        -0.016119      0.006697     -0.052016
     11.96028     10.73104      6.78875         0.664439     -0.087373     -0.696629
     15.39515      0.42645      1.35775         0.069183     -0.006511     -0.427527
     14.53643     11.58976      4.07325         0.024807     -0.006833     -0.024927
     13.67771      5.57874      6.78875         0.493329      0.178429      0.637060
      1.50916     15.86868      8.78875        -0.327378     -0.141677      5.566809
     15.82110     15.86868     11.61765         0.039103     -0.064764      0.153182
     12.95871     15.86868     14.44655        -0.120513      0.349110     -0.178559
      1.50916     10.14390      8.78875         0.568238     -0.656011     -1.550782
     15.82110     10.14390     11.61765         0.023990      0.000926      0.081661
     12.95871     10.14390     14.44655         0.059562     -0.509493     -0.063317
      1.50916      4.41913      8.78875        -0.623922      0.811909     -1.379939
     15.82110      4.41913     11.61765         0.025178      0.025515      0.008517
     12.95871      4.41913     14.44655        -0.168378     -0.007689      0.352377
      7.23393     15.86868      8.78875        -0.783298      0.537026     -1.475227
      4.37154     15.86868     11.61765        -0.062051      0.070206      0.084955
      1.50916     15.86868     14.44655        -0.052619      0.056669      0.372835
      7.23393     10.14390      8.78875         0.512625      0.457564     -0.500385
      4.37154     10.14390     11.61765        -0.005253     -0.044815      0.083554
      1.50916     10.14390     14.44655        -0.217418      0.154183     -0.257304
      7.23393      4.41913      8.78875         0.236258     -0.674575     -0.581837
      4.37154      4.41913     11.61765        -0.023959      0.027683      0.092587
      1.50916      4.41913     14.44655         0.257002     -0.196709     -0.145200
     12.95871     15.86868      8.78875         0.559057     -0.453017     -1.388418
     10.09632     15.86868     11.61765        -0.002318      0.010945      0.088196
      7.23393     15.86868     14.44655         0.221357     -0.319425      0.019303
     12.95871     10.14390      8.78875        -0.153404      0.544300      0.194213
     10.09632     10.14390     11.61765        -0.016332     -0.013332      0.070164
      7.23393     10.14390     14.44655         0.068547      0.074353      0.330955
     12.95871      4.41913      8.78875        -0.155774     -0.479392     -1.130444
     10.09632      4.41913     11.61765         0.002195      0.021581      0.071758
      7.23393      4.41913     14.44655        -0.035793      0.460472     -0.305131
      2.94035      2.98793     10.20320         0.162413     -0.406599      0.138843
      0.07796      2.98793     13.03210         0.018733     -0.030132     -0.045624
     14.38990      2.98793     15.86100         0.230737     -0.055382      2.123698
      2.94035     14.43749     10.20320        -0.171001      0.048591     -0.317265
      0.07796     14.43749     13.03210         0.031778     -0.001930     -0.131568
     14.38990     14.43749     15.86100         0.412758     -0.441933      0.807274
      2.94035      8.71271     10.20320        -0.235778      0.174544      0.195222
      0.07796      8.71271     13.03210         0.002237      0.010138     -0.079428
     14.38990      8.71271     15.86100        -0.561856      0.407168      0.555399
      8.66513      2.98793     10.20320        -0.164481      0.302974      0.279608
      5.80274      2.98793     13.03210        -0.006662      0.004219     -0.090240
      2.94035      2.98793     15.86100        -0.204401      0.861215      0.358562
      8.66513     14.43749     10.20320         0.309911     -0.153750      0.065914
      5.80274     14.43749     13.03210        -0.041419      0.070287     -0.043038
      2.94035     14.43749     15.86100        -0.628422     -0.984177     -2.325275
      8.66513      8.71271     10.20320         0.080286      0.029354     -0.341309
      5.80274      8.71271     13.03210         0.050585     -0.076991     -0.081193
      2.94035      8.71271     15.86100         0.575473     -0.529586      1.695469
     14.38990      2.98793     10.20320        -0.062356      0.030054     -0.363280
     11.52751      2.98793     13.03210        -0.019224      0.008576     -0.052769
      8.66513      2.98793     15.86100         0.374434     -0.812594      0.990906
     14.38990     14.43749     10.20320         0.019993      0.485270      0.236566
     11.52751     14.43749     13.03210        -0.010382      0.014820     -0.061676
      8.66513     14.43749     15.86100        -0.805352      0.681589      1.829758
     14.38990      8.71271     10.20320         0.066631     -0.467695      0.026445
     11.52751      8.71271     13.03210        -0.051740      0.033245     -0.110194
      8.66513      8.71271     15.86100         0.485905      0.977421     -3.415035
      4.37154      1.55674      8.78875        -0.153404      0.544300      0.194213
      1.50916      1.55674     11.61765        -0.016332     -0.013332      0.070164
     15.82110      1.55674     14.44655         0.068547      0.074353      0.330955
      4.37154     13.00629      8.78875        -0.155774     -0.479392     -1.130444
      1.50916     13.00629     11.61765         0.002195      0.021581      0.071758
     15.82110     13.00629     14.44655        -0.035793      0.460472     -0.305131
      4.37154      7.28151      8.78875         0.559057     -0.453017     -1.388418
      1.50916      7.28151     11.61765        -0.002318      0.010945      0.088196
     15.82110      7.28151     14.44655         0.221357     -0.319425      0.019303
     10.09632      1.55674      8.78875         0.568238     -0.656011     -1.550782
      7.23393      1.55674     11.61765         0.023990      0.000926      0.081661
      4.37154      1.55674     14.44655         0.059562     -0.509493     -0.063317
     10.09632     13.00629      8.78875        -0.623922      0.811909     -1.379939
      7.23393     13.00629     11.61765         0.025178      0.025515      0.008517
      4.37154     13.00629     14.44655        -0.168378     -0.007689      0.352377
     10.09632      7.28151      8.78875        -0.327378     -0.141677      5.566809
      7.23393      7.28151     11.61765         0.039103     -0.064764      0.153182
      4.37154      7.28151     14.44655        -0.120513      0.349110     -0.178559
     15.82110      1.55674      8.78875         0.512625      0.457564     -0.500385
     12.95871      1.55674     11.61765        -0.005253     -0.044815      0.083554
     10.09632      1.55674     14.44655        -0.217418      0.154183     -0.257304
     15.82110     13.00629      8.78875         0.236258     -0.674575     -0.581837
     12.95871     13.00629     11.61765        -0.023959      0.027683      0.092587
     10.09632     13.00629     14.44655         0.257002     -0.196709     -0.145200
     15.82110      7.28151      8.78875        -0.783298      0.537026     -1.475227
     12.95871      7.28151     11.61765        -0.062051      0.070206      0.084955
     10.09632      7.28151     14.44655        -0.052619      0.056669      0.372835
      5.80274      0.12554     10.20320         0.066631     -0.467695      0.026445
      2.94035      0.12554     13.03210        -0.051740      0.033245     -0.110194
      0.07796      0.12554     15.86100         0.485905      0.977421     -3.415035
      5.80274     11.57510     10.20320        -0.062356      0.030054     -0.363280
      2.94035     11.57510     13.03210        -0.019224      0.008576     -0.052769
      0.07796     11.57510     15.86100         0.374434     -0.812594      0.990906
      5.80274      5.85032     10.20320         0.019993      0.485270      0.236566
      2.94035      5.85032     13.03210        -0.010382      0.014820     -0.061676
      0.07796      5.85032     15.86100        -0.805352      0.681589      1.829758
     11.52752      0.12554     10.20320        -0.235778      0.174544      0.195222
      8.66513      0.12554     13.03210         0.002237      0.010138     -0.079428
      5.80274      0.12554     15.86100        -0.561856      0.407168      0.555399
     11.52752     11.57510     10.20320         0.162413     -0.406599      0.138843
      8.66513     11.57510     13.03210         0.018733     -0.030132     -0.045624
      5.80274     11.57510     15.86100         0.230737     -0.055382      2.123698
     11.52752      5.85032     10.20320        -0.171001      0.048591     -0.317265
      8.66513      5.85032     13.03210         0.031778     -0.001930     -0.131568
      5.80274      5.85032     15.86100         0.412758     -0.441933      0.807274
      0.07796      0.12554     10.20320         0.080286      0.029354     -0.341309
     14.38990      0.12554     13.03210         0.050585     -0.076991     -0.081193
     11.52751      0.12554     15.86100         0.575473     -0.529586      1.695469
      0.07796     11.57510     10.20320        -0.164481      0.302974      0.279608
     14.38990     11.57510     13.03210        -0.006662      0.004219     -0.090240
     11.52751     11.57510     15.86100        -0.204401      0.861215      0.358562
      0.07796      5.85032     10.20320         0.309911     -0.153750      0.065914
     14.38990      5.85032     13.03210        -0.041419      0.070287     -0.043038
     11.52751      5.85032     15.86100        -0.628422     -0.984177     -2.325275
 -----------------------------------------------------------------------------------
    total drift:                               -0.102925      0.038672      0.366469


--------------------------------------------------------------------------------------------------------



  FREE ENERGIE OF THE ION-ELECTRON SYSTEM (eV)
  ---------------------------------------------------
  free  energy   TOTEN  =     -1064.01666235 eV

  energy  without entropy=    -1064.01420569  energy(sigma->0) =    -1064.01543402
 


--------------------------------------------------------------------------------------------------------


    POTLOK:  cpu time      2.3160: real time      2.3282


--------------------------------------------------------------------------------------------------------


     LOOP+:  cpu time   2983.7598: real time   3012.9849
    4ORBIT:  cpu time      0.0000: real time      0.0000

 total amount of memory used by VASP MPI-rank0   589742. kBytes
=======================================================================

   base      :      30000. kBytes
   nonlr-proj:      11882. kBytes
   fftplans  :      30618. kBytes
   grid      :      24869. kBytes
   one-center:        243. kBytes
   wavefun   :     492130. kBytes
 
  
  
 General timing and accounting informations for this job:
 ========================================================
  
                  Total CPU time used (sec):     3188.715
                            User time (sec):     3064.274
                          System time (sec):      124.441
                         Elapsed time (sec):     3224.486
  
                   Maximum memory used (kb):      877700.
                   Average memory used (kb):          N/A
  
                          Minor page faults:       267440
                          Major page faults:           60
                 Voluntary context switches:         2220
