<?xml version="1.0" encoding="ISO-8859-1"?>
<modeling>
 <generator>
  <i name="program" type="string">vasp </i>
  <i name="version" type="string">6.4.3  </i>
  <i name="subversion" type="string">19Mar24 (build Oct 22 2024 11:23:12) complex                          parallel </i>
  <i name="platform" type="string">LinuxIFC </i>
  <i name="date" type="string">2025 06 09 </i>
  <i name="time" type="string">17:14:23 </i>
 </generator>
 <incar>
  <i type="string" name="SYSTEM">Si and Ge interface calculation</i>
  <i type="int" name="ISTART">     0</i>
  <i type="logical" name="ADDGRID"> T  </i>
  <i type="int" name="ISPIN">     2</i>
  <i name="AMIX">      0.60000000</i>
  <i type="int" name="ICHARG">     2</i>
  <i type="int" name="NELM">   100</i>
  <i name="EDIFF">      0.00000010</i>
  <i name="ENCUT">    700.00000000</i>
  <i name="ENAUG">    900.00000000</i>
  <i type="int" name="NBANDS">   548</i>
  <i name="NUPDOWN">      1.00000000</i>
  <i name="NELECT">    912.00000000</i>
  <i type="string" name="LREAL">AUTO</i>
  <i type="int" name="ISMEAR">     0</i>
  <i name="SIGMA">      0.01000000</i>
  <i type="int" name="LMAXMIX">     6</i>
  <i type="logical" name="LWAVE"> F  </i>
  <i type="logical" name="LVTOT"> F  </i>
  <i type="logical" name="LVHAR"> T  </i>
  <i type="logical" name="LASPH"> T  </i>
  <i type="logical" name="LMIXTAU"> T  </i>
 </incar>
 <primitive_cell>
  <structure name="primitive_cell" >
   <crystal>
    <varray name="basis" >
     <v>       8.58716480      -8.58716282       0.00000000 </v>
     <v>       8.58716480       8.58716694       0.00000000 </v>
     <v>       0.00000000       0.00000000      17.86100006 </v>
    </varray>
    <i name="volume">   2634.11885573 </i>
    <varray name="rec_basis" >
     <v>       0.05822645      -0.05822644       0.00000000 </v>
     <v>       0.05822642       0.05822644       0.00000000 </v>
     <v>       0.00000000       0.00000000       0.05598791 </v>
    </varray>
   </crystal>
   <varray name="positions" >
    <v>       0.02157402       0.97123492       0.00000000 </v>
    <v>       0.32157407       0.57123483       0.15203516 </v>
    <v>       0.62157413       0.17123462       0.30407038 </v>
    <v>       0.42157370       0.77123513       0.00000000 </v>
    <v>       0.72157370       0.37123498       0.15203516 </v>
    <v>       0.02157408       0.97123462       0.30407038 </v>
    <v>       0.82157399       0.57123522       0.00000000 </v>
    <v>       0.12157380       0.17123492       0.15203516 </v>
    <v>       0.42157386       0.77123469       0.30407038 </v>
    <v>       0.22157384       0.37123502       0.00000000 </v>
    <v>       0.52157401       0.97123487       0.15203516 </v>
    <v>       0.82157404       0.57123468       0.30407038 </v>
    <v>       0.62157413       0.17123510       0.00000000 </v>
    <v>       0.92157412       0.77123495       0.15203516 </v>
    <v>       0.22157395       0.37123472       0.30407038 </v>
    <v>       0.77157410       0.22123496       0.07601761 </v>
    <v>       0.07157407       0.82123471       0.22805277 </v>
    <v>       0.37157397       0.42123483       0.38008791 </v>
    <v>       0.17157378       0.02123497       0.07601761 </v>
    <v>       0.47157377       0.62123481       0.22805277 </v>
    <v>       0.77157420       0.22123450       0.38008791 </v>
    <v>       0.57157410       0.82123510       0.07601761 </v>
    <v>       0.87157384       0.42123487       0.22805277 </v>
    <v>       0.17157380       0.02123475       0.38008791 </v>
    <v>       0.97157406       0.62123510       0.07601761 </v>
    <v>       0.27157392       0.22123481       0.22805277 </v>
    <v>       0.57157410       0.82123474       0.38008791 </v>
    <v>       0.37157392       0.42123501       0.07601761 </v>
    <v>       0.67157414       0.02123481       0.22805277 </v>
    <v>       0.97157412       0.62123468       0.38008791 </v>
    <v>       0.52157396       0.47123498       0.00000000 </v>
    <v>       0.82157407       0.07123483       0.15203516 </v>
    <v>       0.12157413       0.67123462       0.30407038 </v>
    <v>       0.92157376       0.27123503       0.00000000 </v>
    <v>       0.22157374       0.87123490       0.15203516 </v>
    <v>       0.52157414       0.47123456       0.30407038 </v>
    <v>       0.32157382       0.07123505       0.00000000 </v>
    <v>       0.62157400       0.67123481       0.15203516 </v>
    <v>       0.92157386       0.27123469       0.30407038 </v>
    <v>       0.72157407       0.87123496       0.00000000 </v>
    <v>       0.02157381       0.47123489       0.15203516 </v>
    <v>       0.32157383       0.07123471       0.30407038 </v>
    <v>       0.12157413       0.67123510       0.00000000 </v>
    <v>       0.42157388       0.27123495       0.15203516 </v>
    <v>       0.72157417       0.87123475       0.30407038 </v>
    <v>       0.27157396       0.72123498       0.07601761 </v>
    <v>       0.57157401       0.32123477       0.22805277 </v>
    <v>       0.87157405       0.92123470       0.38008791 </v>
    <v>       0.67157397       0.52123504       0.07601761 </v>
    <v>       0.97157375       0.12123487       0.22805277 </v>
    <v>       0.27157408       0.72123462       0.38008791 </v>
    <v>       0.07157383       0.32123504       0.07601761 </v>
    <v>       0.37157381       0.92123490       0.22805277 </v>
    <v>       0.67157397       0.52123480       0.38008791 </v>
    <v>       0.47157379       0.12123507       0.07601761 </v>
    <v>       0.77157405       0.72123471       0.22805277 </v>
    <v>       0.07157383       0.32123471       0.38008791 </v>
    <v>       0.87157408       0.92123490       0.07601761 </v>
    <v>       0.17157406       0.52123477       0.22805277 </v>
    <v>       0.47157379       0.12123483       0.38008791 </v>
    <v>       0.16389623       0.01184927       0.49206373 </v>
    <v>       0.99722991       0.84518255       0.65044791 </v>
    <v>       0.83056310       0.67851582       0.80883211 </v>
    <v>       0.49722955       0.67851596       0.49206373 </v>
    <v>       0.33056322       0.51184923       0.65044791 </v>
    <v>       0.16389624       0.34518245       0.80883211 </v>
    <v>       0.83056283       0.34518268       0.49206373 </v>
    <v>       0.66389651       0.17851595       0.65044791 </v>
    <v>       0.49722955       0.01184913       0.80883211 </v>
    <v>       0.49722967       0.34518255       0.49206373 </v>
    <v>       0.33056295       0.17851591       0.65044791 </v>
    <v>       0.16389623       0.01184927       0.80883211 </v>
    <v>       0.83056322       0.01184911       0.49206373 </v>
    <v>       0.66389648       0.84518245       0.65044791 </v>
    <v>       0.49722955       0.67851596       0.80883211 </v>
    <v>       0.16389653       0.67851580       0.49206373 </v>
    <v>       0.99722979       0.51184913       0.65044791 </v>
    <v>       0.83056283       0.34518268       0.80883211 </v>
    <v>       0.83056310       0.67851582       0.49206373 </v>
    <v>       0.66389635       0.51184915       0.65044791 </v>
    <v>       0.49722961       0.34518249       0.80883211 </v>
    <v>       0.16389635       0.34518257       0.49206373 </v>
    <v>       0.99722961       0.17851590       0.65044791 </v>
    <v>       0.83056322       0.01184911       0.80883211 </v>
    <v>       0.49722967       0.01184925       0.49206373 </v>
    <v>       0.33056292       0.84518259       0.65044791 </v>
    <v>       0.16389653       0.67851580       0.80883211 </v>
    <v>       0.99722961       0.34518261       0.57125580 </v>
    <v>       0.83056283       0.17851591       0.72964001 </v>
    <v>       0.66389650       0.01184918       0.88802415 </v>
    <v>       0.33056286       0.01184935       0.57125580 </v>
    <v>       0.16389609       0.84518266       0.72964001 </v>
    <v>       0.99722976       0.67851593       0.88802415 </v>
    <v>       0.66389656       0.67851583       0.57125580 </v>
    <v>       0.49722946       0.51184928       0.72964001 </v>
    <v>       0.33056301       0.34518244       0.88802415 </v>
    <v>       0.33056295       0.67851603       0.57125580 </v>
    <v>       0.16389650       0.51184918       0.72964001 </v>
    <v>       0.99722949       0.34518249       0.88802415 </v>
    <v>       0.66389620       0.34518278       0.57125580 </v>
    <v>       0.49722952       0.17851593       0.72964001 </v>
    <v>       0.33056274       0.01184923       0.88802415 </v>
    <v>       0.99722970       0.01184928       0.57125580 </v>
    <v>       0.83056325       0.84518244       0.72964001 </v>
    <v>       0.66389644       0.67851571       0.88802415 </v>
    <v>       0.66389650       0.01184918       0.57125580 </v>
    <v>       0.49722955       0.84518255       0.72964001 </v>
    <v>       0.33056283       0.67851591       0.88802415 </v>
    <v>       0.99722976       0.67851593       0.57125580 </v>
    <v>       0.83056295       0.51184920       0.72964001 </v>
    <v>       0.66389609       0.34518266       0.88802415 </v>
    <v>       0.33056304       0.34518247       0.57125580 </v>
    <v>       0.16389629       0.17851580       0.72964001 </v>
    <v>       0.99722958       0.01184916       0.88802415 </v>
   </varray>
  </structure>
  <varray name="primitive_index" >
   <v type="int" >        1 </v>
   <v type="int" >        2 </v>
   <v type="int" >        3 </v>
   <v type="int" >        4 </v>
   <v type="int" >        5 </v>
   <v type="int" >        6 </v>
   <v type="int" >       22 </v>
   <v type="int" >        8 </v>
   <v type="int" >        9 </v>
   <v type="int" >       10 </v>
   <v type="int" >       26 </v>
   <v type="int" >       27 </v>
   <v type="int" >       28 </v>
   <v type="int" >       29 </v>
   <v type="int" >       15 </v>
   <v type="int" >       31 </v>
   <v type="int" >       32 </v>
   <v type="int" >       48 </v>
   <v type="int" >       34 </v>
   <v type="int" >       35 </v>
   <v type="int" >       36 </v>
   <v type="int" >       52 </v>
   <v type="int" >       38 </v>
   <v type="int" >       39 </v>
   <v type="int" >       55 </v>
   <v type="int" >       41 </v>
   <v type="int" >       57 </v>
   <v type="int" >       43 </v>
   <v type="int" >       59 </v>
   <v type="int" >       60 </v>
   <v type="int" >       76 </v>
   <v type="int" >       62 </v>
   <v type="int" >       63 </v>
   <v type="int" >       64 </v>
   <v type="int" >       65 </v>
   <v type="int" >       66 </v>
   <v type="int" >       67 </v>
   <v type="int" >       83 </v>
   <v type="int" >       69 </v>
   <v type="int" >       85 </v>
   <v type="int" >       71 </v>
   <v type="int" >       72 </v>
   <v type="int" >       88 </v>
   <v type="int" >       74 </v>
   <v type="int" >       90 </v>
   <v type="int" >       91 </v>
   <v type="int" >       92 </v>
   <v type="int" >       93 </v>
   <v type="int" >      109 </v>
   <v type="int" >       95 </v>
   <v type="int" >       96 </v>
   <v type="int" >       97 </v>
   <v type="int" >       98 </v>
   <v type="int" >      114 </v>
   <v type="int" >      100 </v>
   <v type="int" >      116 </v>
   <v type="int" >      102 </v>
   <v type="int" >      118 </v>
   <v type="int" >      119 </v>
   <v type="int" >      105 </v>
   <v type="int" >      121 </v>
   <v type="int" >      122 </v>
   <v type="int" >      123 </v>
   <v type="int" >      124 </v>
   <v type="int" >      125 </v>
   <v type="int" >      186 </v>
   <v type="int" >      127 </v>
   <v type="int" >      128 </v>
   <v type="int" >      189 </v>
   <v type="int" >      130 </v>
   <v type="int" >      131 </v>
   <v type="int" >      132 </v>
   <v type="int" >      193 </v>
   <v type="int" >      194 </v>
   <v type="int" >      135 </v>
   <v type="int" >      196 </v>
   <v type="int" >      197 </v>
   <v type="int" >      138 </v>
   <v type="int" >      139 </v>
   <v type="int" >      140 </v>
   <v type="int" >      141 </v>
   <v type="int" >      175 </v>
   <v type="int" >      176 </v>
   <v type="int" >      177 </v>
   <v type="int" >      178 </v>
   <v type="int" >      179 </v>
   <v type="int" >      180 </v>
   <v type="int" >      148 </v>
   <v type="int" >      149 </v>
   <v type="int" >      150 </v>
   <v type="int" >      151 </v>
   <v type="int" >      152 </v>
   <v type="int" >      153 </v>
   <v type="int" >      211 </v>
   <v type="int" >      155 </v>
   <v type="int" >      213 </v>
   <v type="int" >      223 </v>
   <v type="int" >      224 </v>
   <v type="int" >      159 </v>
   <v type="int" >      226 </v>
   <v type="int" >      161 </v>
   <v type="int" >      162 </v>
   <v type="int" >      220 </v>
   <v type="int" >      221 </v>
   <v type="int" >      222 </v>
   <v type="int" >      166 </v>
   <v type="int" >      206 </v>
   <v type="int" >      207 </v>
   <v type="int" >      169 </v>
   <v type="int" >      170 </v>
   <v type="int" >      210 </v>
   <v type="int" >      202 </v>
   <v type="int" >      203 </v>
   <v type="int" >      204 </v>
  </varray>
 </primitive_cell>
 <kpoints>
  <generation param="Gamma">
   <v type="int" name="divisions">       2        2        2 </v>
   <v name="usershift">      0.00000000       0.00000000       0.00000000 </v>
   <v name="genvec1">      0.50000000       0.00000000       0.00000000 </v>
   <v name="genvec2">      0.00000000       0.50000000       0.00000000 </v>
   <v name="genvec3">      0.00000000       0.00000000       0.50000000 </v>
   <v name="shift">      0.00000000       0.00000000       0.00000000 </v>
  </generation>
  <varray name="kpointlist" >
   <v>       0.00000000       0.00000000       0.00000000 </v>
   <v>       0.50000000       0.00000000       0.00000000 </v>
   <v>       0.00000000       0.50000000       0.00000000 </v>
   <v>       0.50000000       0.50000000       0.00000000 </v>
   <v>       0.00000000       0.00000000       0.50000000 </v>
   <v>       0.50000000       0.00000000       0.50000000 </v>
   <v>       0.00000000       0.50000000       0.50000000 </v>
   <v>       0.50000000       0.50000000       0.50000000 </v>
  </varray>
  <varray name="weights" >
   <v>       0.12500000 </v>
   <v>       0.12500000 </v>
   <v>       0.12500000 </v>
   <v>       0.12500000 </v>
   <v>       0.12500000 </v>
   <v>       0.12500000 </v>
   <v>       0.12500000 </v>
   <v>       0.12500000 </v>
  </varray>
 </kpoints>
 <parameters>
  <separator name="general" >
   <i type="string" name="SYSTEM">Si and Ge interface calculation</i>
   <i type="logical" name="LCOMPAT"> F  </i>
  </separator>
  <separator name="electronic" >
   <i type="string" name="PREC">normal</i>
   <i name="ENMAX">    700.00000000</i>
   <i name="ENAUG">    900.00000000</i>
   <i name="EDIFF">      0.00000010</i>
   <i type="int" name="IALGO">    38</i>
   <i type="int" name="IWAVPR">    10</i>
   <i type="int" name="NBANDS">   548</i>
   <i type="int" name="NBANDSLOW">    -1</i>
   <i type="int" name="NBANDSHIGH">    -1</i>
   <i name="NELECT">    912.00000000</i>
   <i type="int" name="TURBO">     0</i>
   <i type="int" name="IRESTART">     0</i>
   <i type="int" name="NREBOOT">     0</i>
   <i type="int" name="NMIN">     0</i>
   <i name="EREF">      0.00000000</i>
   <separator name="electronic smearing" >
    <i type="int" name="ISMEAR">     0</i>
    <i name="SIGMA">      0.01000000</i>
    <i name="KSPACING">      0.50000000</i>
    <i type="logical" name="KGAMMA"> T  </i>
    <i type="logical" name="KBLOWUP"> T  </i>
   </separator>
   <separator name="electronic projectors" >
    <i type="logical" name="LREAL"> T  </i>
    <v name="ROPT">     -0.00050000     -0.00050000</v>
    <i type="int" name="LMAXPAW">  -100</i>
    <i type="int" name="LMAXMIX">     6</i>
    <i type="logical" name="NLSPLINE"> F  </i>
   </separator>
   <separator name="electronic startup" >
    <i type="int" name="ISTART">     0</i>
    <i type="int" name="ICHARG">     2</i>
    <i type="int" name="INIWAV">     1</i>
   </separator>
   <separator name="electronic spin" >
    <i type="int" name="ISPIN">     2</i>
    <i type="logical" name="LNONCOLLINEAR"> F  </i>
    <v name="MAGMOM">      0.00438596      0.00438596      0.00438596      0.00438596      0.00438596      0.00438596      0.00438596      0.00438596      0.00438596      0.00438596      0.00438596      0.00438596      0.00438596      0.00438596      0.00438596      0.00438596      0.00438596      0.00438596      0.00438596      0.00438596
      0.00438596      0.00438596      0.00438596      0.00438596      0.00438596      0.00438596      0.00438596      0.00438596      0.00438596      0.00438596      0.00438596      0.00438596      0.00438596      0.00438596      0.00438596      0.00438596      0.00438596      0.00438596      0.00438596      0.00438596
      0.00438596      0.00438596      0.00438596      0.00438596      0.00438596      0.00438596      0.00438596      0.00438596      0.00438596      0.00438596      0.00438596      0.00438596      0.00438596      0.00438596      0.00438596      0.00438596      0.00438596      0.00438596      0.00438596      0.00438596
      0.00438596      0.00438596      0.00438596      0.00438596      0.00438596      0.00438596      0.00438596      0.00438596      0.00438596      0.00438596      0.00438596      0.00438596      0.00438596      0.00438596      0.00438596      0.00438596      0.00438596      0.00438596      0.00438596      0.00438596
      0.00438596      0.00438596      0.00438596      0.00438596      0.00438596      0.00438596      0.00438596      0.00438596      0.00438596      0.00438596      0.00438596      0.00438596      0.00438596      0.00438596      0.00438596      0.00438596      0.00438596      0.00438596      0.00438596      0.00438596
      0.00438596      0.00438596      0.00438596      0.00438596      0.00438596      0.00438596      0.00438596      0.00438596      0.00438596      0.00438596      0.00438596      0.00438596      0.00438596      0.00438596      0.00438596      0.00438596      0.00438596      0.00438596      0.00438596      0.00438596
      0.00438596      0.00438596      0.00438596      0.00438596      0.00438596      0.00438596      0.00438596      0.00438596      0.00438596      0.00438596      0.00438596      0.00438596      0.00438596      0.00438596      0.00438596      0.00438596      0.00438596      0.00438596      0.00438596      0.00438596
      0.00438596      0.00438596      0.00438596      0.00438596      0.00438596      0.00438596      0.00438596      0.00438596      0.00438596      0.00438596      0.00438596      0.00438596      0.00438596      0.00438596      0.00438596      0.00438596      0.00438596      0.00438596      0.00438596      0.00438596
      0.00438596      0.00438596      0.00438596      0.00438596      0.00438596      0.00438596      0.00438596      0.00438596      0.00438596      0.00438596      0.00438596      0.00438596      0.00438596      0.00438596      0.00438596      0.00438596      0.00438596      0.00438596      0.00438596      0.00438596
      0.00438596      0.00438596      0.00438596      0.00438596      0.00438596      0.00438596      0.00438596      0.00438596      0.00438596      0.00438596      0.00438596      0.00438596      0.00438596      0.00438596      0.00438596      0.00438596      0.00438596      0.00438596      0.00438596      0.00438596
      0.00438596      0.00438596      0.00438596      0.00438596      0.00438596      0.00438596      0.00438596      0.00438596      0.00438596      0.00438596      0.00438596      0.00438596      0.00438596      0.00438596      0.00438596      0.00438596      0.00438596      0.00438596      0.00438596      0.00438596
      0.00438596      0.00438596      0.00438596      0.00438596      0.00438596      0.00438596      0.00438596      0.00438596</v>
    <i name="NUPDOWN">      1.00000000</i>
    <i type="logical" name="LSORBIT"> F  </i>
    <v name="SAXIS">      0.00000000      0.00000000      1.00000000</v>
    <i type="logical" name="LSPIRAL"> F  </i>
    <v name="QSPIRAL">      0.00000000      0.00000000      0.00000000</v>
    <i type="logical" name="LZEROZ"> F  </i>
   </separator>
   <separator name="electronic exchange-correlation" >
    <i type="logical" name="LASPH"> T  </i>
   </separator>
   <separator name="electronic convergence" >
    <i type="int" name="NELM">   100</i>
    <i type="int" name="NELMDL">    -5</i>
    <i type="int" name="NELMIN">     2</i>
    <i name="ENINI">    700.00000000</i>
    <separator name="electronic convergence detail" >
     <i type="logical" name="LDIAG"> T  </i>
     <i type="logical" name="LSUBROT"> F  </i>
     <i name="WEIMIN">      0.00000000</i>
     <i name="EBREAK">      0.00000000</i>
     <i name="DEPER">      0.30000000</i>
     <i type="int" name="NRMM">     4</i>
     <i name="TIME">      0.40000000</i>
    </separator>
   </separator>
   <separator name="electronic mixer" >
    <i name="AMIX">      0.60000000</i>
    <i name="BMIX">      1.00000000</i>
    <i name="AMIN">      0.10000000</i>
    <i name="AMIX_MAG">      2.40000000</i>
    <i name="BMIX_MAG">      1.00000000</i>
    <separator name="electronic mixer details" >
     <i type="int" name="IMIX">     4</i>
     <i type="logical" name="MIXFIRST"> F  </i>
     <i type="int" name="MAXMIX">   -45</i>
     <i name="WC">    100.00000000</i>
     <i type="int" name="INIMIX">     1</i>
     <i type="int" name="MIXPRE">     1</i>
     <i type="int" name="MREMOVE">     5</i>
    </separator>
   </separator>
   <separator name="electronic dipolcorrection" >
    <i type="logical" name="LDIPOL"> F  </i>
    <i type="logical" name="LMONO"> F  </i>
    <i type="int" name="IDIPOL">     0</i>
    <i name="EPSILON">      1.00000000</i>
    <v name="DIPOL">   -100.00000000   -100.00000000   -100.00000000</v>
    <i name="EFIELD">      0.00000000</i>
    <i type="logical" name="LVACPOTAV"> F  </i>
   </separator>
  </separator>
  <separator name="grids" >
   <i type="int" name="NGX">   112</i>
   <i type="int" name="NGY">   112</i>
   <i type="int" name="NGZ">   120</i>
   <i type="int" name="NGXF">   224</i>
   <i type="int" name="NGYF">   224</i>
   <i type="int" name="NGZF">   240</i>
   <i type="logical" name="ADDGRID"> T  </i>
  </separator>
  <separator name="ionic" >
   <i type="int" name="NSW">     0</i>
   <i type="int" name="IBRION">    -1</i>
   <i type="int" name="MDALGO">     0</i>
   <i type="int" name="ISIF">     2</i>
   <i name="PSTRESS">      0.00000000</i>
   <i name="EDIFFG">      0.00000100</i>
   <i type="int" name="NFREE">     0</i>
   <i name="POTIM">      0.50000000</i>
   <i name="SMASS">     -3.00000000</i>
   <i name="SCALEE">      1.00000000</i>
  </separator>
  <separator name="ionic md" >
   <i name="TEBEG">      0.00010000</i>
   <i name="TEEND">      0.00010000</i>
   <i type="int" name="NBLOCK">     1</i>
   <i type="int" name="KBLOCK">     1</i>
   <i type="int" name="NPACO">   256</i>
   <i name="APACO">     10.00000000</i>
  </separator>
  <separator name="symmetry" >
   <i type="int" name="ISYM">     2</i>
   <i name="SYMPREC">      0.00001000</i>
  </separator>
  <separator name="dos" >
   <i type="int" name="LORBIT">     0</i>
   <v name="RWIGS">     -1.00000000     -1.00000000</v>
   <i type="int" name="NEDOS">   301</i>
   <i name="EMIN">     10.00000000</i>
   <i name="EMAX">    -10.00000000</i>
   <i name="EFERMI">      0.00000000</i>
  </separator>
  <separator name="writing" >
   <i type="int" name="NWRITE">     2</i>
   <i type="logical" name="LWAVE"> F  </i>
   <i type="logical" name="LDOWNSAMPLE"> F  </i>
   <i type="logical" name="LCHARG"> T  </i>
   <i type="logical" name="LPARD"> F  </i>
   <i type="logical" name="LVTOT"> F  </i>
   <i type="logical" name="LVHAR"> T  </i>
   <i type="logical" name="LELF"> F  </i>
   <i type="logical" name="LOPTICS"> F  </i>
   <v name="STM">      0.00000000      0.00000000      0.00000000      0.00000000      0.00000000      0.00000000      0.00000000</v>
  </separator>
  <separator name="performance" >
   <i type="int" name="NPAR">     4</i>
   <i type="int" name="NSIM">     4</i>
   <i type="int" name="NBLK">    -1</i>
   <i type="logical" name="LPLANE"> T  </i>
   <i type="logical" name="LSCALAPACK"> T  </i>
   <i type="logical" name="LSCAAWARE"> F  </i>
   <i type="logical" name="LSCALU"> F  </i>
   <i type="logical" name="LASYNC"> F  </i>
   <i type="logical" name="LORBITALREAL"> F  </i>
  </separator>
  <separator name="miscellaneous" >
   <i type="int" name="IDIOT">     3</i>
   <i type="int" name="PHON_NSTRUCT">    -1</i>
   <i type="logical" name="LMUSIC"> F  </i>
   <v name="POMASS">     28.08500000     72.61000000</v>
   <v name="DARWINR">      0.00000000      0.00000000</v>
   <v name="DARWINV">      1.00000000      1.00000000</v>
   <i type="logical" name="LCORR"> T  </i>
  </separator>
  <i type="logical" name="GGA_COMPAT"> T  </i>
  <i type="logical" name="LBERRY"> F  </i>
  <i type="int" name="ICORELEVEL">     0</i>
  <i type="logical" name="LDAU"> F  </i>
  <i type="int" name="I_CONSTRAINED_M">     0</i>
  <separator name="electronic exchange-correlation" >
   <i type="string" name="GGA    ">PE</i>
   <i type="string" name="XC_C">1</i>
   <i type="int" name="VOSKOWN">     0</i>
   <i type="logical" name="LHFCALC"> F  </i>
   <i type="string" name="PRECFOCK"></i>
   <i type="logical" name="LSYMGRAD"> F  </i>
   <i type="logical" name="LHFONE"> F  </i>
   <i type="logical" name="LRHFCALC"> F  </i>
   <i type="logical" name="LTHOMAS"> F  </i>
   <i type="logical" name="LMODELHF"> F  </i>
   <i type="logical" name="LFOCKACE"> F  </i>
   <i name="ENCUT4O">     -1.00000000</i>
   <i type="int" name="EXXOEP">     0</i>
   <i type="int" name="FOURORBIT">     0</i>
   <i name="AEXX">      0.00000000</i>
   <i name="HFALPHA">      0.00000000</i>
   <i name="MCALPHA">      0.00000000</i>
   <i name="ALDAX">      1.00000000</i>
   <i name="AGGAX">      1.00000000</i>
   <i name="AMGGAX">      1.00000000</i>
   <i name="ALDAC">      1.00000000</i>
   <i name="AGGAC">      1.00000000</i>
   <i name="AMGGAC">      1.00000000</i>
   <i type="int" name="NKREDX">     1</i>
   <i type="int" name="NKREDY">     1</i>
   <i type="int" name="NKREDZ">     1</i>
   <i type="logical" name="SHIFTRED"> F  </i>
   <i type="logical" name="ODDONLY"> F  </i>
   <i type="logical" name="EVENONLY"> F  </i>
   <i type="int" name="LMAXFOCK">     0</i>
   <i type="int" name="NMAXFOCKAE">     0</i>
   <i type="logical" name="LFOCKAEDFT"> F  </i>
   <i name="HFSCREEN">      0.00000000</i>
   <i name="HFSCREENC">      0.00000000</i>
   <i type="int" name="NBANDSGWLOW">     0</i>
  </separator>
  <separator name="vdW DFT" >
   <i type="logical" name="LUSE_VDW"> F  </i>
   <i type="int" name="IVDW_NL">    -1</i>
   <i type="logical" name="LSPIN_VDW"> F  </i>
   <i name="ZAB_VDW">     -0.84910000</i>
   <i name="GAMMA_VDW">      1.39626340</i>
   <i name="ALPHA_VDW">      0.00000000</i>
   <i name="PARAM1">      0.12340000</i>
   <i name="PARAM2">      1.00000000</i>
   <i name="BPARAM">      6.30000000</i>
   <i name="CPARAM">      0.00930000</i>
  </separator>
  <separator name="model GW" >
   <i type="int" name="MODEL_GW">     0</i>
   <i name="MODEL_EPS0">     13.86378511</i>
   <i name="MODEL_ALPHA">      1.00000000</i>
  </separator>
  <separator name="linear response parameters" >
   <i type="logical" name="LEPSILON"> F  </i>
   <i type="logical" name="LRPA"> F  </i>
   <i type="logical" name="LNABLA"> F  </i>
   <i type="logical" name="LVEL"> F  </i>
   <i name="CSHIFT">      0.10000000</i>
   <i name="OMEGAMAX">     -1.00000000</i>
   <i name="DEG_THRESHOLD">      0.00200000</i>
   <i name="RTIME">     -0.10000000</i>
   <i name="WPLASMAI">      0.00000000</i>
   <v name="DFIELD">      0.00000000      0.00000000      0.00000000</v>
   <v name="WPLASMA">      0.00000000      0.00000000      0.00000000      0.00000000      0.00000000      0.00000000      0.00000000      0.00000000      0.00000000</v>
  </separator>
  <separator name="orbital magnetization" >
   <i type="logical" name="NUCIND"> F  </i>
   <v name="MAGPOS">      0.00000000      0.00000000      0.00000000</v>
   <i type="logical" name="LNICSALL"> T  </i>
   <i type="logical" name="ORBITALMAG"> F  </i>
   <i type="logical" name="LMAGBLOCH"> F  </i>
   <i type="logical" name="LCHIMAG"> F  </i>
   <i type="logical" name="LGAUGE"> T  </i>
   <i type="int" name="MAGATOM">     0</i>
   <v name="MAGDIPOL">      0.00000000      0.00000000      0.00000000</v>
   <v name="AVECCONST">      0.00000000      0.00000000      0.00000000</v>
  </separator>
  <separator name="response functions" >
   <i type="logical" name="LALL_IN_ONE"> F  </i>
   <i type="int" name="IALL_IN_ONE">    -1</i>
   <i type="int" name="NBANDS_WAVE">    -1</i>
   <i type="logical" name="LFINITE_TEMPERATURE"> F  </i>
   <i type="logical" name="LADDER"> F  </i>
   <i type="logical" name="LRPAFORCE"> F  </i>
   <i type="logical" name="LFXC"> F  </i>
   <i type="logical" name="LHARTREE"> T  </i>
   <i type="int" name="IBSE">     0</i>
   <v type="int" name="KPOINT">    -1     0     0     0</v>
   <i type="logical" name="LTCTC"> F  </i>
   <i type="logical" name="LTCTE"> F  </i>
   <i type="logical" name="LTETE"> F  </i>
   <i type="logical" name="LTRIPLET"> F  </i>
   <i type="logical" name="LFXCEPS"> F  </i>
   <i type="logical" name="LFXHEG"> F  </i>
   <i type="int" name="NATURALO">     2</i>
   <i type="logical" name="LHOLEGF"> F  </i>
   <i type="logical" name="L2ORDER"> F  </i>
   <i type="logical" name="LDMP1"> F  </i>
   <i type="logical" name="LMP2LT"> F  </i>
   <i type="logical" name="LSMP2LT"> F  </i>
   <i type="logical" name="LGWLF"> F  </i>
   <i name="ENCUTGW">     -1.60000002</i>
   <i name="ENCUTGWSOFT">     -1.60000002</i>
   <i name="ENCUTLF">     -1.00000000</i>
   <i type="logical" name="ESF_SPLINES"> F  </i>
   <i name="ESF_CONV">      0.01000000</i>
   <i type="int" name="ESF_NINTER">    15</i>
   <i type="int" name="LMAXMP2">    -1</i>
   <i name="SCISSOR">      0.00000000</i>
   <i type="int" name="NOMEGA">     0</i>
   <i type="int" name="NOMEGAR">     0</i>
   <i type="int" name="NBANDSGW">    -1</i>
   <i type="int" name="NBANDSO">    -1</i>
   <i type="int" name="NBANDSV">    -1</i>
   <i type="int" name="NELMGW">     1</i>
   <i type="int" name="NELMHF">     1</i>
   <i type="int" name="DIM">     3</i>
   <i type="int" name="IESPILON">     4</i>
   <i type="int" name="ANTIRES">     0</i>
   <i name="OMEGAMAX">    -30.00000000</i>
   <i name="OMEGAMIN">    -30.00000000</i>
   <i name="OMEGATL">   -200.00000000</i>
   <i type="int" name="OMEGAGRID">     0</i>
   <i name="CSHIFT">     -0.10000000</i>
   <i type="logical" name="LSELFENERGY"> F  </i>
   <i type="logical" name="LSPECTRAL"> F  </i>
   <i type="logical" name="LSPECTRALGW"> F  </i>
   <i type="logical" name="LSINGLES"> F  </i>
   <i type="logical" name="LFERMIGW"> F  </i>
   <i type="logical" name="ODDONLYGW"> F  </i>
   <i type="logical" name="EVENONLYGW"> F  </i>
   <i type="int" name="NKREDLFX">     1</i>
   <i type="int" name="NKREDLFY">     1</i>
   <i type="int" name="NKREDLFZ">     1</i>
   <i type="int" name="MAXMEM">  2800</i>
   <i type="int" name="TELESCOPE">     0</i>
   <i type="int" name="NTAUPAR">    -1</i>
   <i type="int" name="NOMEGAPAR">    -1</i>
   <i name="DAMP_NEWTON">      0.80000001</i>
   <i name="LAMBDA">      1.00000000</i>
  </separator>
  <separator name="External order field" >
   <i name="OFIELD_KAPPA">      0.00000000</i>
   <v name="OFIELD_K">      0.00000000      0.00000000      0.00000000</v>
   <i name="OFIELD_Q6_NEAR">      0.00000000</i>
   <i name="OFIELD_Q6_FAR">      0.00000000</i>
   <i name="OFIELD_A">      0.00000000</i>
  </separator>
  <separator name="optional k-points parameters" >
   <i type="int" name="KPOINTS_OPT_MODE">     1</i>
   <i type="logical" name="LKPOINTS_OPT"> F  </i>
  </separator>
 </parameters>
 <atominfo>
  <atoms>     228 </atoms>
  <types>       2 </types>
  <array name="atoms" >
   <dimension dim="1">ion</dimension>
   <field type="string">element</field>
   <field type="int">atomtype</field>
   <set>
    <rc><c>Si</c><c>   1</c></rc>
    <rc><c>Si</c><c>   1</c></rc>
    <rc><c>Si</c><c>   1</c></rc>
    <rc><c>Si</c><c>   1</c></rc>
    <rc><c>Si</c><c>   1</c></rc>
    <rc><c>Si</c><c>   1</c></rc>
    <rc><c>Si</c><c>   1</c></rc>
    <rc><c>Si</c><c>   1</c></rc>
    <rc><c>Si</c><c>   1</c></rc>
    <rc><c>Si</c><c>   1</c></rc>
    <rc><c>Si</c><c>   1</c></rc>
    <rc><c>Si</c><c>   1</c></rc>
    <rc><c>Si</c><c>   1</c></rc>
    <rc><c>Si</c><c>   1</c></rc>
    <rc><c>Si</c><c>   1</c></rc>
    <rc><c>Si</c><c>   1</c></rc>
    <rc><c>Si</c><c>   1</c></rc>
    <rc><c>Si</c><c>   1</c></rc>
    <rc><c>Si</c><c>   1</c></rc>
    <rc><c>Si</c><c>   1</c></rc>
    <rc><c>Si</c><c>   1</c></rc>
    <rc><c>Si</c><c>   1</c></rc>
    <rc><c>Si</c><c>   1</c></rc>
    <rc><c>Si</c><c>   1</c></rc>
    <rc><c>Si</c><c>   1</c></rc>
    <rc><c>Si</c><c>   1</c></rc>
    <rc><c>Si</c><c>   1</c></rc>
    <rc><c>Si</c><c>   1</c></rc>
    <rc><c>Si</c><c>   1</c></rc>
    <rc><c>Si</c><c>   1</c></rc>
    <rc><c>Si</c><c>   1</c></rc>
    <rc><c>Si</c><c>   1</c></rc>
    <rc><c>Si</c><c>   1</c></rc>
    <rc><c>Si</c><c>   1</c></rc>
    <rc><c>Si</c><c>   1</c></rc>
    <rc><c>Si</c><c>   1</c></rc>
    <rc><c>Si</c><c>   1</c></rc>
    <rc><c>Si</c><c>   1</c></rc>
    <rc><c>Si</c><c>   1</c></rc>
    <rc><c>Si</c><c>   1</c></rc>
    <rc><c>Si</c><c>   1</c></rc>
    <rc><c>Si</c><c>   1</c></rc>
    <rc><c>Si</c><c>   1</c></rc>
    <rc><c>Si</c><c>   1</c></rc>
    <rc><c>Si</c><c>   1</c></rc>
    <rc><c>Si</c><c>   1</c></rc>
    <rc><c>Si</c><c>   1</c></rc>
    <rc><c>Si</c><c>   1</c></rc>
    <rc><c>Si</c><c>   1</c></rc>
    <rc><c>Si</c><c>   1</c></rc>
    <rc><c>Si</c><c>   1</c></rc>
    <rc><c>Si</c><c>   1</c></rc>
    <rc><c>Si</c><c>   1</c></rc>
    <rc><c>Si</c><c>   1</c></rc>
    <rc><c>Si</c><c>   1</c></rc>
    <rc><c>Si</c><c>   1</c></rc>
    <rc><c>Si</c><c>   1</c></rc>
    <rc><c>Si</c><c>   1</c></rc>
    <rc><c>Si</c><c>   1</c></rc>
    <rc><c>Si</c><c>   1</c></rc>
    <rc><c>Si</c><c>   1</c></rc>
    <rc><c>Si</c><c>   1</c></rc>
    <rc><c>Si</c><c>   1</c></rc>
    <rc><c>Si</c><c>   1</c></rc>
    <rc><c>Si</c><c>   1</c></rc>
    <rc><c>Si</c><c>   1</c></rc>
    <rc><c>Si</c><c>   1</c></rc>
    <rc><c>Si</c><c>   1</c></rc>
    <rc><c>Si</c><c>   1</c></rc>
    <rc><c>Si</c><c>   1</c></rc>
    <rc><c>Si</c><c>   1</c></rc>
    <rc><c>Si</c><c>   1</c></rc>
    <rc><c>Si</c><c>   1</c></rc>
    <rc><c>Si</c><c>   1</c></rc>
    <rc><c>Si</c><c>   1</c></rc>
    <rc><c>Si</c><c>   1</c></rc>
    <rc><c>Si</c><c>   1</c></rc>
    <rc><c>Si</c><c>   1</c></rc>
    <rc><c>Si</c><c>   1</c></rc>
    <rc><c>Si</c><c>   1</c></rc>
    <rc><c>Si</c><c>   1</c></rc>
    <rc><c>Si</c><c>   1</c></rc>
    <rc><c>Si</c><c>   1</c></rc>
    <rc><c>Si</c><c>   1</c></rc>
    <rc><c>Si</c><c>   1</c></rc>
    <rc><c>Si</c><c>   1</c></rc>
    <rc><c>Si</c><c>   1</c></rc>
    <rc><c>Si</c><c>   1</c></rc>
    <rc><c>Si</c><c>   1</c></rc>
    <rc><c>Si</c><c>   1</c></rc>
    <rc><c>Si</c><c>   1</c></rc>
    <rc><c>Si</c><c>   1</c></rc>
    <rc><c>Si</c><c>   1</c></rc>
    <rc><c>Si</c><c>   1</c></rc>
    <rc><c>Si</c><c>   1</c></rc>
    <rc><c>Si</c><c>   1</c></rc>
    <rc><c>Si</c><c>   1</c></rc>
    <rc><c>Si</c><c>   1</c></rc>
    <rc><c>Si</c><c>   1</c></rc>
    <rc><c>Si</c><c>   1</c></rc>
    <rc><c>Si</c><c>   1</c></rc>
    <rc><c>Si</c><c>   1</c></rc>
    <rc><c>Si</c><c>   1</c></rc>
    <rc><c>Si</c><c>   1</c></rc>
    <rc><c>Si</c><c>   1</c></rc>
    <rc><c>Si</c><c>   1</c></rc>
    <rc><c>Si</c><c>   1</c></rc>
    <rc><c>Si</c><c>   1</c></rc>
    <rc><c>Si</c><c>   1</c></rc>
    <rc><c>Si</c><c>   1</c></rc>
    <rc><c>Si</c><c>   1</c></rc>
    <rc><c>Si</c><c>   1</c></rc>
    <rc><c>Si</c><c>   1</c></rc>
    <rc><c>Si</c><c>   1</c></rc>
    <rc><c>Si</c><c>   1</c></rc>
    <rc><c>Si</c><c>   1</c></rc>
    <rc><c>Si</c><c>   1</c></rc>
    <rc><c>Si</c><c>   1</c></rc>
    <rc><c>Si</c><c>   1</c></rc>
    <rc><c>Si</c><c>   1</c></rc>
    <rc><c>Ge</c><c>   2</c></rc>
    <rc><c>Ge</c><c>   2</c></rc>
    <rc><c>Ge</c><c>   2</c></rc>
    <rc><c>Ge</c><c>   2</c></rc>
    <rc><c>Ge</c><c>   2</c></rc>
    <rc><c>Ge</c><c>   2</c></rc>
    <rc><c>Ge</c><c>   2</c></rc>
    <rc><c>Ge</c><c>   2</c></rc>
    <rc><c>Ge</c><c>   2</c></rc>
    <rc><c>Ge</c><c>   2</c></rc>
    <rc><c>Ge</c><c>   2</c></rc>
    <rc><c>Ge</c><c>   2</c></rc>
    <rc><c>Ge</c><c>   2</c></rc>
    <rc><c>Ge</c><c>   2</c></rc>
    <rc><c>Ge</c><c>   2</c></rc>
    <rc><c>Ge</c><c>   2</c></rc>
    <rc><c>Ge</c><c>   2</c></rc>
    <rc><c>Ge</c><c>   2</c></rc>
    <rc><c>Ge</c><c>   2</c></rc>
    <rc><c>Ge</c><c>   2</c></rc>
    <rc><c>Ge</c><c>   2</c></rc>
    <rc><c>Ge</c><c>   2</c></rc>
    <rc><c>Ge</c><c>   2</c></rc>
    <rc><c>Ge</c><c>   2</c></rc>
    <rc><c>Ge</c><c>   2</c></rc>
    <rc><c>Ge</c><c>   2</c></rc>
    <rc><c>Ge</c><c>   2</c></rc>
    <rc><c>Ge</c><c>   2</c></rc>
    <rc><c>Ge</c><c>   2</c></rc>
    <rc><c>Ge</c><c>   2</c></rc>
    <rc><c>Ge</c><c>   2</c></rc>
    <rc><c>Ge</c><c>   2</c></rc>
    <rc><c>Ge</c><c>   2</c></rc>
    <rc><c>Ge</c><c>   2</c></rc>
    <rc><c>Ge</c><c>   2</c></rc>
    <rc><c>Ge</c><c>   2</c></rc>
    <rc><c>Ge</c><c>   2</c></rc>
    <rc><c>Ge</c><c>   2</c></rc>
    <rc><c>Ge</c><c>   2</c></rc>
    <rc><c>Ge</c><c>   2</c></rc>
    <rc><c>Ge</c><c>   2</c></rc>
    <rc><c>Ge</c><c>   2</c></rc>
    <rc><c>Ge</c><c>   2</c></rc>
    <rc><c>Ge</c><c>   2</c></rc>
    <rc><c>Ge</c><c>   2</c></rc>
    <rc><c>Ge</c><c>   2</c></rc>
    <rc><c>Ge</c><c>   2</c></rc>
    <rc><c>Ge</c><c>   2</c></rc>
    <rc><c>Ge</c><c>   2</c></rc>
    <rc><c>Ge</c><c>   2</c></rc>
    <rc><c>Ge</c><c>   2</c></rc>
    <rc><c>Ge</c><c>   2</c></rc>
    <rc><c>Ge</c><c>   2</c></rc>
    <rc><c>Ge</c><c>   2</c></rc>
    <rc><c>Ge</c><c>   2</c></rc>
    <rc><c>Ge</c><c>   2</c></rc>
    <rc><c>Ge</c><c>   2</c></rc>
    <rc><c>Ge</c><c>   2</c></rc>
    <rc><c>Ge</c><c>   2</c></rc>
    <rc><c>Ge</c><c>   2</c></rc>
    <rc><c>Ge</c><c>   2</c></rc>
    <rc><c>Ge</c><c>   2</c></rc>
    <rc><c>Ge</c><c>   2</c></rc>
    <rc><c>Ge</c><c>   2</c></rc>
    <rc><c>Ge</c><c>   2</c></rc>
    <rc><c>Ge</c><c>   2</c></rc>
    <rc><c>Ge</c><c>   2</c></rc>
    <rc><c>Ge</c><c>   2</c></rc>
    <rc><c>Ge</c><c>   2</c></rc>
    <rc><c>Ge</c><c>   2</c></rc>
    <rc><c>Ge</c><c>   2</c></rc>
    <rc><c>Ge</c><c>   2</c></rc>
    <rc><c>Ge</c><c>   2</c></rc>
    <rc><c>Ge</c><c>   2</c></rc>
    <rc><c>Ge</c><c>   2</c></rc>
    <rc><c>Ge</c><c>   2</c></rc>
    <rc><c>Ge</c><c>   2</c></rc>
    <rc><c>Ge</c><c>   2</c></rc>
    <rc><c>Ge</c><c>   2</c></rc>
    <rc><c>Ge</c><c>   2</c></rc>
    <rc><c>Ge</c><c>   2</c></rc>
    <rc><c>Ge</c><c>   2</c></rc>
    <rc><c>Ge</c><c>   2</c></rc>
    <rc><c>Ge</c><c>   2</c></rc>
    <rc><c>Ge</c><c>   2</c></rc>
    <rc><c>Ge</c><c>   2</c></rc>
    <rc><c>Ge</c><c>   2</c></rc>
    <rc><c>Ge</c><c>   2</c></rc>
    <rc><c>Ge</c><c>   2</c></rc>
    <rc><c>Ge</c><c>   2</c></rc>
    <rc><c>Ge</c><c>   2</c></rc>
    <rc><c>Ge</c><c>   2</c></rc>
    <rc><c>Ge</c><c>   2</c></rc>
    <rc><c>Ge</c><c>   2</c></rc>
    <rc><c>Ge</c><c>   2</c></rc>
    <rc><c>Ge</c><c>   2</c></rc>
    <rc><c>Ge</c><c>   2</c></rc>
    <rc><c>Ge</c><c>   2</c></rc>
    <rc><c>Ge</c><c>   2</c></rc>
    <rc><c>Ge</c><c>   2</c></rc>
    <rc><c>Ge</c><c>   2</c></rc>
    <rc><c>Ge</c><c>   2</c></rc>
    <rc><c>Ge</c><c>   2</c></rc>
    <rc><c>Ge</c><c>   2</c></rc>
    <rc><c>Ge</c><c>   2</c></rc>
    <rc><c>Ge</c><c>   2</c></rc>
    <rc><c>Ge</c><c>   2</c></rc>
    <rc><c>Ge</c><c>   2</c></rc>
   </set>
  </array>
  <array name="atomtypes" >
   <dimension dim="1">type</dimension>
   <field type="int">atomspertype</field>
   <field type="string">element</field>
   <field>mass</field>
   <field>valence</field>
   <field type="string">pseudopotential</field>
   <set>
    <rc><c> 120</c><c>Si</c><c>     28.08500000</c><c>      4.00000000</c><c>  PAW_PBE Si 05Jan2001                  </c></rc>
    <rc><c> 108</c><c>Ge</c><c>     72.61000000</c><c>      4.00000000</c><c>  PAW_PBE Ge 05Jan2001                  </c></rc>
   </set>
  </array>
 </atominfo>
 <structure name="initialpos" >
  <crystal>
   <varray name="basis" >
    <v>      17.17433167       0.00000000       0.00000000 </v>
    <v>       0.00000000      17.17432976       0.00000000 </v>
    <v>       0.00000000       0.00000000      17.86100006 </v>
   </varray>
   <i name="volume">   5268.23834366 </i>
   <varray name="rec_basis" >
    <v>       0.05822643       0.00000000       0.00000000 </v>
    <v>       0.00000000       0.05822644       0.00000000 </v>
    <v>       0.00000000       0.00000000       0.05598791 </v>
   </varray>
  </crystal>
  <varray name="positions" >
   <v>       0.99640435       0.97483069       0.00000000 </v>
   <v>       0.94640434       0.62483060       0.15203516 </v>
   <v>       0.89640427       0.27483046       0.30407038 </v>
   <v>       0.09640440       0.67483074       0.00000000 </v>
   <v>       0.04640434       0.32483065       0.15203516 </v>
   <v>       0.99640423       0.97483051       0.30407038 </v>
   <v>       0.19640441       0.37483066       0.00000000 </v>
   <v>       0.14640434       0.02483060       0.15203516 </v>
   <v>       0.09640426       0.67483044       0.30407038 </v>
   <v>       0.29640439       0.07483066       0.00000000 </v>
   <v>       0.24640430       0.72483063       0.15203516 </v>
   <v>       0.19640423       0.37483042       0.30407038 </v>
   <v>       0.39640445       0.77483070       0.00000000 </v>
   <v>       0.34640437       0.42483059       0.15203516 </v>
   <v>       0.29640430       0.07483046       0.30407038 </v>
   <v>       0.49640438       0.47483069       0.00000000 </v>
   <v>       0.44640431       0.12483060       0.15203516 </v>
   <v>       0.39640424       0.77483046       0.30407038 </v>
   <v>       0.59640437       0.17483065       0.00000000 </v>
   <v>       0.54640430       0.82483059       0.15203516 </v>
   <v>       0.49640426       0.47483045       0.30407038 </v>
   <v>       0.69640452       0.87483078       0.00000000 </v>
   <v>       0.64640445       0.52483064       0.15203516 </v>
   <v>       0.59640437       0.17483054       0.30407038 </v>
   <v>       0.79640442       0.57483071       0.00000000 </v>
   <v>       0.74640435       0.22483061       0.15203516 </v>
   <v>       0.69640428       0.87483048       0.30407038 </v>
   <v>       0.89640450       0.27483070       0.00000000 </v>
   <v>       0.84640443       0.92483062       0.15203516 </v>
   <v>       0.79640436       0.57483047       0.30407038 </v>
   <v>       0.99640441       0.22483067       0.07601761 </v>
   <v>       0.94640428       0.87483054       0.22805277 </v>
   <v>       0.89640427       0.52483046       0.38008791 </v>
   <v>       0.09640437       0.92483062       0.07601761 </v>
   <v>       0.04640429       0.57483053       0.22805277 </v>
   <v>       0.99640423       0.22483039       0.38008791 </v>
   <v>       0.19640441       0.62483066       0.07601761 </v>
   <v>       0.14640434       0.27483055       0.22805277 </v>
   <v>       0.09640426       0.92483050       0.38008791 </v>
   <v>       0.29640442       0.32483062       0.07601761 </v>
   <v>       0.24640434       0.97483051       0.22805277 </v>
   <v>       0.19640426       0.62483048       0.38008791 </v>
   <v>       0.39640441       0.02483064       0.07601761 </v>
   <v>       0.34640431       0.67483056       0.22805277 </v>
   <v>       0.29640424       0.32483047       0.38008791 </v>
   <v>       0.49640450       0.72483069       0.07601761 </v>
   <v>       0.44640443       0.37483057       0.22805277 </v>
   <v>       0.39640436       0.02483052       0.38008791 </v>
   <v>       0.59640437       0.42483059       0.07601761 </v>
   <v>       0.54640430       0.07483050       0.22805277 </v>
   <v>       0.49640426       0.72483045       0.38008791 </v>
   <v>       0.69640452       0.12483066       0.07601761 </v>
   <v>       0.64640439       0.77483058       0.22805277 </v>
   <v>       0.59640437       0.42483050       0.38008791 </v>
   <v>       0.79640448       0.82483071       0.07601761 </v>
   <v>       0.74640441       0.47483057       0.22805277 </v>
   <v>       0.69640434       0.12483048       0.38008791 </v>
   <v>       0.89640445       0.52483064       0.07601761 </v>
   <v>       0.84640437       0.17483054       0.22805277 </v>
   <v>       0.79640430       0.82483047       0.38008791 </v>
   <v>       0.99640441       0.47483069       0.00000000 </v>
   <v>       0.94640434       0.12483060       0.15203516 </v>
   <v>       0.89640427       0.77483046       0.30407038 </v>
   <v>       0.09640438       0.17483066       0.00000000 </v>
   <v>       0.04640431       0.82483059       0.15203516 </v>
   <v>       0.99640423       0.47483045       0.30407038 </v>
   <v>       0.19640441       0.87483066       0.00000000 </v>
   <v>       0.14640433       0.52483058       0.15203516 </v>
   <v>       0.09640426       0.17483044       0.30407038 </v>
   <v>       0.29640442       0.57483065       0.00000000 </v>
   <v>       0.24640432       0.22483060       0.15203516 </v>
   <v>       0.19640425       0.87483048       0.30407038 </v>
   <v>       0.39640445       0.27483067       0.00000000 </v>
   <v>       0.34640437       0.92483062       0.15203516 </v>
   <v>       0.29640430       0.57483047       0.30407038 </v>
   <v>       0.49640441       0.97483063       0.00000000 </v>
   <v>       0.44640434       0.62483054       0.15203516 </v>
   <v>       0.39640424       0.27483040       0.30407038 </v>
   <v>       0.59640437       0.67483068       0.00000000 </v>
   <v>       0.54640430       0.32483059       0.15203516 </v>
   <v>       0.49640423       0.97483045       0.30407038 </v>
   <v>       0.69640440       0.37483063       0.00000000 </v>
   <v>       0.64640433       0.02483056       0.15203516 </v>
   <v>       0.59640425       0.67483044       0.30407038 </v>
   <v>       0.79640442       0.07483064       0.00000000 </v>
   <v>       0.74640435       0.72483051       0.15203516 </v>
   <v>       0.69640428       0.37483042       0.30407038 </v>
   <v>       0.89640450       0.77483070       0.00000000 </v>
   <v>       0.84640443       0.42483062       0.15203516 </v>
   <v>       0.79640436       0.07483048       0.30407038 </v>
   <v>       0.99640435       0.72483075       0.07601761 </v>
   <v>       0.94640428       0.37483060       0.22805277 </v>
   <v>       0.89640427       0.02483054       0.38008791 </v>
   <v>       0.09640439       0.42483068       0.07601761 </v>
   <v>       0.04640431       0.07483057       0.22805277 </v>
   <v>       0.99640423       0.72483051       0.38008791 </v>
   <v>       0.19640441       0.12483066       0.07601761 </v>
   <v>       0.14640434       0.77483058       0.22805277 </v>
   <v>       0.09640427       0.42483050       0.38008791 </v>
   <v>       0.29640439       0.82483071       0.07601761 </v>
   <v>       0.24640432       0.47483057       0.22805277 </v>
   <v>       0.19640425       0.12483048       0.38008791 </v>
   <v>       0.39640441       0.52483076       0.07601761 </v>
   <v>       0.34640434       0.17483065       0.22805277 </v>
   <v>       0.29640427       0.82483059       0.38008791 </v>
   <v>       0.49640441       0.22483064       0.07601761 </v>
   <v>       0.44640434       0.87483054       0.22805277 </v>
   <v>       0.39640424       0.52483046       0.38008791 </v>
   <v>       0.59640443       0.92483068       0.07601761 </v>
   <v>       0.54640436       0.57483059       0.22805277 </v>
   <v>       0.49640429       0.22483051       0.38008791 </v>
   <v>       0.69640446       0.62483072       0.07601761 </v>
   <v>       0.64640439       0.27483058       0.22805277 </v>
   <v>       0.59640431       0.92483056       0.38008791 </v>
   <v>       0.79640436       0.32483062       0.07601761 </v>
   <v>       0.74640429       0.97483051       0.22805277 </v>
   <v>       0.69640422       0.62483048       0.38008791 </v>
   <v>       0.89640439       0.02483063       0.07601761 </v>
   <v>       0.84640431       0.67483056       0.22805277 </v>
   <v>       0.79640424       0.32483041       0.38008791 </v>
   <v>       0.08787274       0.92397654       0.49206373 </v>
   <v>       0.92120612       0.92397654       0.65044791 </v>
   <v>       0.75453937       0.92397654       0.80883211 </v>
   <v>       0.08787274       0.59064323       0.49206373 </v>
   <v>       0.92120612       0.59064323       0.65044791 </v>
   <v>       0.75453937       0.59064323       0.80883211 </v>
   <v>       0.08787274       0.25730994       0.49206373 </v>
   <v>       0.92120612       0.25730994       0.65044791 </v>
   <v>       0.75453937       0.25730994       0.80883211 </v>
   <v>       0.42120606       0.92397654       0.49206373 </v>
   <v>       0.25453940       0.92397654       0.65044791 </v>
   <v>       0.08787274       0.92397654       0.80883211 </v>
   <v>       0.42120606       0.59064323       0.49206373 </v>
   <v>       0.25453940       0.59064323       0.65044791 </v>
   <v>       0.08787274       0.59064323       0.80883211 </v>
   <v>       0.42120606       0.25730994       0.49206373 </v>
   <v>       0.25453940       0.25730994       0.65044791 </v>
   <v>       0.08787274       0.25730994       0.80883211 </v>
   <v>       0.75453937       0.92397654       0.49206373 </v>
   <v>       0.58787268       0.92397654       0.65044791 </v>
   <v>       0.42120600       0.92397654       0.80883211 </v>
   <v>       0.75453937       0.59064323       0.49206373 </v>
   <v>       0.58787268       0.59064323       0.65044791 </v>
   <v>       0.42120600       0.59064323       0.80883211 </v>
   <v>       0.75453937       0.25730994       0.49206373 </v>
   <v>       0.58787268       0.25730994       0.65044791 </v>
   <v>       0.42120600       0.25730994       0.80883211 </v>
   <v>       0.17120609       0.17397654       0.57125580 </v>
   <v>       0.00453937       0.17397654       0.72964001 </v>
   <v>       0.83787274       0.17397654       0.88802415 </v>
   <v>       0.17120609       0.84064329       0.57125580 </v>
   <v>       0.00453937       0.84064329       0.72964001 </v>
   <v>       0.83787274       0.84064329       0.88802415 </v>
   <v>       0.17120609       0.50730991       0.57125580 </v>
   <v>       0.00453937       0.50730991       0.72964001 </v>
   <v>       0.83787274       0.50730991       0.88802415 </v>
   <v>       0.50453937       0.17397654       0.57125580 </v>
   <v>       0.33787268       0.17397654       0.72964001 </v>
   <v>       0.17120597       0.17397654       0.88802415 </v>
   <v>       0.50453937       0.84064329       0.57125580 </v>
   <v>       0.33787268       0.84064329       0.72964001 </v>
   <v>       0.17120597       0.84064329       0.88802415 </v>
   <v>       0.50453937       0.50730991       0.57125580 </v>
   <v>       0.33787268       0.50730991       0.72964001 </v>
   <v>       0.17120597       0.50730991       0.88802415 </v>
   <v>       0.83787274       0.17397654       0.57125580 </v>
   <v>       0.67120600       0.17397654       0.72964001 </v>
   <v>       0.50453931       0.17397654       0.88802415 </v>
   <v>       0.83787274       0.84064329       0.57125580 </v>
   <v>       0.67120600       0.84064329       0.72964001 </v>
   <v>       0.50453931       0.84064329       0.88802415 </v>
   <v>       0.83787274       0.50730991       0.57125580 </v>
   <v>       0.67120600       0.50730991       0.72964001 </v>
   <v>       0.50453931       0.50730991       0.88802415 </v>
   <v>       0.25453943       0.09064317       0.49206373 </v>
   <v>       0.08787274       0.09064317       0.65044791 </v>
   <v>       0.92120606       0.09064317       0.80883211 </v>
   <v>       0.25453943       0.75730985       0.49206373 </v>
   <v>       0.08787274       0.75730985       0.65044791 </v>
   <v>       0.92120606       0.75730985       0.80883211 </v>
   <v>       0.25453943       0.42397660       0.49206373 </v>
   <v>       0.08787274       0.42397660       0.65044791 </v>
   <v>       0.92120606       0.42397660       0.80883211 </v>
   <v>       0.58787268       0.09064317       0.49206373 </v>
   <v>       0.42120600       0.09064317       0.65044791 </v>
   <v>       0.25453931       0.09064317       0.80883211 </v>
   <v>       0.58787268       0.75730985       0.49206373 </v>
   <v>       0.42120600       0.75730985       0.65044791 </v>
   <v>       0.25453931       0.75730985       0.80883211 </v>
   <v>       0.58787268       0.42397660       0.49206373 </v>
   <v>       0.42120600       0.42397660       0.65044791 </v>
   <v>       0.25453931       0.42397660       0.80883211 </v>
   <v>       0.92120606       0.09064317       0.49206373 </v>
   <v>       0.75453937       0.09064317       0.65044791 </v>
   <v>       0.58787268       0.09064317       0.80883211 </v>
   <v>       0.92120606       0.75730985       0.49206373 </v>
   <v>       0.75453937       0.75730985       0.65044791 </v>
   <v>       0.58787268       0.75730985       0.80883211 </v>
   <v>       0.92120606       0.42397660       0.49206373 </v>
   <v>       0.75453937       0.42397660       0.65044791 </v>
   <v>       0.58787268       0.42397660       0.80883211 </v>
   <v>       0.33787271       0.00730979       0.57125580 </v>
   <v>       0.17120603       0.00730979       0.72964001 </v>
   <v>       0.00453937       0.00730979       0.88802415 </v>
   <v>       0.33787271       0.67397654       0.57125580 </v>
   <v>       0.17120603       0.67397654       0.72964001 </v>
   <v>       0.00453937       0.67397654       0.88802415 </v>
   <v>       0.33787271       0.34064329       0.57125580 </v>
   <v>       0.17120603       0.34064329       0.72964001 </v>
   <v>       0.00453937       0.34064329       0.88802415 </v>
   <v>       0.67120612       0.00730979       0.57125580 </v>
   <v>       0.50453937       0.00730979       0.72964001 </v>
   <v>       0.33787268       0.00730979       0.88802415 </v>
   <v>       0.67120612       0.67397654       0.57125580 </v>
   <v>       0.50453937       0.67397654       0.72964001 </v>
   <v>       0.33787268       0.67397654       0.88802415 </v>
   <v>       0.67120612       0.34064329       0.57125580 </v>
   <v>       0.50453937       0.34064329       0.72964001 </v>
   <v>       0.33787268       0.34064329       0.88802415 </v>
   <v>       0.00453949       0.00730979       0.57125580 </v>
   <v>       0.83787274       0.00730979       0.72964001 </v>
   <v>       0.67120600       0.00730979       0.88802415 </v>
   <v>       0.00453949       0.67397654       0.57125580 </v>
   <v>       0.83787274       0.67397654       0.72964001 </v>
   <v>       0.67120600       0.67397654       0.88802415 </v>
   <v>       0.00453949       0.34064329       0.57125580 </v>
   <v>       0.83787274       0.34064329       0.72964001 </v>
   <v>       0.67120600       0.34064329       0.88802415 </v>
  </varray>
 </structure>
 <calculation>
  <scstep>
   <time name="dav">  112.56  113.58</time>
   <time name="total">  114.94  115.98</time>
   <energy>
    <i name="alphaZ">   1068.18732198 </i>
    <i name="ewald"> -23896.66744422 </i>
    <i name="hartreedc">  -2313.66490514 </i>
    <i name="XCdc">  -1955.76824451 </i>
    <i name="pawpsdc">  20094.53666134 </i>
    <i name="pawaedc"> -16418.68521354 </i>
    <i name="eentropy">     -0.00158325 </i>
    <i name="bandstr">   3500.64372063 </i>
    <i name="atom">  23707.55310521 </i>
    <i name="e_fr_energy">   3786.13341850 </i>
    <i name="e_wo_entrp">   3786.13500175 </i>
    <i name="e_0_energy">   3786.13421012 </i>
   </energy>
  </scstep>
  <scstep>
   <time name="dav">  127.22  128.37</time>
   <time name="total">  127.23  128.37</time>
   <energy>
    <i name="e_fr_energy">   -639.90443599 </i>
    <i name="e_wo_entrp">   -639.90116028 </i>
    <i name="e_0_energy">   -639.90279814 </i>
   </energy>
  </scstep>
  <scstep>
   <time name="dav">  133.87  135.02</time>
   <time name="total">  133.87  135.02</time>
   <energy>
    <i name="e_fr_energy">  -1065.57209317 </i>
    <i name="e_wo_entrp">  -1065.56898354 </i>
    <i name="e_0_energy">  -1065.57053836 </i>
   </energy>
  </scstep>
  <scstep>
   <time name="dav">  128.63  129.78</time>
   <time name="total">  128.63  129.78</time>
   <energy>
    <i name="e_fr_energy">  -1082.00724598 </i>
    <i name="e_wo_entrp">  -1082.00263388 </i>
    <i name="e_0_energy">  -1082.00493993 </i>
   </energy>
  </scstep>
  <scstep>
   <time name="dav">  144.75  146.09</time>
   <time name="total">  149.59  150.98</time>
   <energy>
    <i name="e_fr_energy">  -1082.67036620 </i>
    <i name="e_wo_entrp">  -1082.66566946 </i>
    <i name="e_0_energy">  -1082.66801783 </i>
   </energy>
  </scstep>
  <scstep>
   <time name="dav">  133.04  134.33</time>
   <time name="total">  140.24  141.58</time>
   <energy>
    <i name="e_fr_energy">  -1065.31915772 </i>
    <i name="e_wo_entrp">  -1065.31513469 </i>
    <i name="e_0_energy">  -1065.31714620 </i>
   </energy>
  </scstep>
  <scstep>
   <time name="dav">  129.54  130.79</time>
   <time name="total">  136.62  137.93</time>
   <energy>
    <i name="e_fr_energy">  -1064.90018831 </i>
    <i name="e_wo_entrp">  -1064.89621039 </i>
    <i name="e_0_energy">  -1064.89819935 </i>
   </energy>
  </scstep>
  <scstep>
   <time name="dav">  127.43  128.70</time>
   <time name="total">  134.55  135.87</time>
   <energy>
    <i name="e_fr_energy">  -1064.02977825 </i>
    <i name="e_wo_entrp">  -1064.02768397 </i>
    <i name="e_0_energy">  -1064.02873111 </i>
   </energy>
  </scstep>
  <scstep>
   <time name="dav">  131.38  132.74</time>
   <time name="total">  138.49  139.92</time>
   <energy>
    <i name="e_fr_energy">  -1064.03426230 </i>
    <i name="e_wo_entrp">  -1064.03192821 </i>
    <i name="e_0_energy">  -1064.03309525 </i>
   </energy>
  </scstep>
  <scstep>
   <time name="dav">  128.40  129.72</time>
   <time name="total">  135.38  136.76</time>
   <energy>
    <i name="e_fr_energy">  -1064.01692999 </i>
    <i name="e_wo_entrp">  -1064.01451368 </i>
    <i name="e_0_energy">  -1064.01572183 </i>
   </energy>
  </scstep>
  <scstep>
   <time name="dav">  130.82  132.02</time>
   <time name="total">  137.81  139.06</time>
   <energy>
    <i name="e_fr_energy">  -1064.01901956 </i>
    <i name="e_wo_entrp">  -1064.01653190 </i>
    <i name="e_0_energy">  -1064.01777573 </i>
   </energy>
  </scstep>
  <scstep>
   <time name="dav">  132.81  134.01</time>
   <time name="total">  139.80  141.06</time>
   <energy>
    <i name="e_fr_energy">  -1064.01645802 </i>
    <i name="e_wo_entrp">  -1064.01402851 </i>
    <i name="e_0_energy">  -1064.01524327 </i>
   </energy>
  </scstep>
  <scstep>
   <time name="dav">  122.77  123.91</time>
   <time name="total">  129.75  130.94</time>
   <energy>
    <i name="e_fr_energy">  -1064.01656208 </i>
    <i name="e_wo_entrp">  -1064.01410333 </i>
    <i name="e_0_energy">  -1064.01533271 </i>
   </energy>
  </scstep>
  <scstep>
   <time name="dav">  123.43  124.63</time>
   <time name="total">  130.38  131.63</time>
   <energy>
    <i name="e_fr_energy">  -1064.01662990 </i>
    <i name="e_wo_entrp">  -1064.01417483 </i>
    <i name="e_0_energy">  -1064.01540236 </i>
   </energy>
  </scstep>
  <scstep>
   <time name="dav">  125.73  126.99</time>
   <time name="total">  132.67  133.99</time>
   <energy>
    <i name="e_fr_energy">  -1064.01664887 </i>
    <i name="e_wo_entrp">  -1064.01419161 </i>
    <i name="e_0_energy">  -1064.01542024 </i>
   </energy>
  </scstep>
  <scstep>
   <time name="dav">  125.22  126.36</time>
   <time name="total">  132.16  133.35</time>
   <energy>
    <i name="e_fr_energy">  -1064.01665446 </i>
    <i name="e_wo_entrp">  -1064.01419690 </i>
    <i name="e_0_energy">  -1064.01542568 </i>
   </energy>
  </scstep>
  <scstep>
   <time name="dav">  121.39  122.53</time>
   <time name="total">  128.32  129.52</time>
   <energy>
    <i name="e_fr_energy">  -1064.01665664 </i>
    <i name="e_wo_entrp">  -1064.01420012 </i>
    <i name="e_0_energy">  -1064.01542838 </i>
   </energy>
  </scstep>
  <scstep>
   <time name="dav">  121.51  122.70</time>
   <time name="total">  128.43  129.68</time>
   <energy>
    <i name="e_fr_energy">  -1064.01665866 </i>
    <i name="e_wo_entrp">  -1064.01420142 </i>
    <i name="e_0_energy">  -1064.01543004 </i>
   </energy>
  </scstep>
  <scstep>
   <time name="dav">  124.72  125.88</time>
   <time name="total">  131.67  132.89</time>
   <energy>
    <i name="e_fr_energy">  -1064.01666050 </i>
    <i name="e_wo_entrp">  -1064.01420349 </i>
    <i name="e_0_energy">  -1064.01543199 </i>
   </energy>
  </scstep>
  <scstep>
   <time name="dav">   83.51   84.33</time>
   <time name="total">   90.47   91.34</time>
   <energy>
    <i name="e_fr_energy">  -1064.01666168 </i>
    <i name="e_wo_entrp">  -1064.01420500 </i>
    <i name="e_0_energy">  -1064.01543334 </i>
   </energy>
  </scstep>
  <scstep>
   <time name="dav">   76.88   77.64</time>
   <time name="total">   83.82   84.64</time>
   <energy>
    <i name="e_fr_energy">  -1064.01666214 </i>
    <i name="e_wo_entrp">  -1064.01420541 </i>
    <i name="e_0_energy">  -1064.01543377 </i>
   </energy>
  </scstep>
  <scstep>
   <time name="dav">   76.40   77.13</time>
   <time name="total">   83.34   84.13</time>
   <energy>
    <i name="e_fr_energy">  -1064.01666232 </i>
    <i name="e_wo_entrp">  -1064.01420560 </i>
    <i name="e_0_energy">  -1064.01543396 </i>
   </energy>
  </scstep>
  <scstep>
   <time name="dav">   75.87   76.57</time>
   <time name="total">   78.20   78.90</time>
   <energy>
    <i name="alphaZ">   1068.18732198 </i>
    <i name="ewald"> -23896.66744422 </i>
    <i name="hartreedc">  -2667.69908545 </i>
    <i name="XCdc">  -1897.13156172 </i>
    <i name="pawpsdc">  67691.93150381 </i>
    <i name="pawaedc"> -64042.20181889 </i>
    <i name="eentropy">     -0.00245666 </i>
    <i name="bandstr">  -1027.98622640 </i>
    <i name="atom">  23707.55310521 </i>
    <i name="e_fr_energy">  -1064.01666235 </i>
    <i name="e_wo_entrp">  -1064.01420569 </i>
    <i name="e_0_energy">  -1064.01543402 </i>
   </energy>
  </scstep>
  <structure>
   <crystal>
    <varray name="basis" >
     <v>      17.17433167       0.00000000       0.00000000 </v>
     <v>       0.00000000      17.17432976       0.00000000 </v>
     <v>       0.00000000       0.00000000      17.86100006 </v>
    </varray>
    <i name="volume">   5268.23834366 </i>
    <varray name="rec_basis" >
     <v>       0.05822643       0.00000000       0.00000000 </v>
     <v>       0.00000000       0.05822644       0.00000000 </v>
     <v>       0.00000000       0.00000000       0.05598791 </v>
    </varray>
   </crystal>
   <varray name="positions" >
    <v>       0.99640435       0.97483069       0.00000000 </v>
    <v>       0.94640434       0.62483060       0.15203516 </v>
    <v>       0.89640427       0.27483046       0.30407038 </v>
    <v>       0.09640440       0.67483074       0.00000000 </v>
    <v>       0.04640434       0.32483065       0.15203516 </v>
    <v>       0.99640423       0.97483051       0.30407038 </v>
    <v>       0.19640441       0.37483066       0.00000000 </v>
    <v>       0.14640434       0.02483060       0.15203516 </v>
    <v>       0.09640426       0.67483044       0.30407038 </v>
    <v>       0.29640439       0.07483066       0.00000000 </v>
    <v>       0.24640430       0.72483063       0.15203516 </v>
    <v>       0.19640423       0.37483042       0.30407038 </v>
    <v>       0.39640445       0.77483070       0.00000000 </v>
    <v>       0.34640437       0.42483059       0.15203516 </v>
    <v>       0.29640430       0.07483046       0.30407038 </v>
    <v>       0.49640438       0.47483069       0.00000000 </v>
    <v>       0.44640431       0.12483060       0.15203516 </v>
    <v>       0.39640424       0.77483046       0.30407038 </v>
    <v>       0.59640437       0.17483065       0.00000000 </v>
    <v>       0.54640430       0.82483059       0.15203516 </v>
    <v>       0.49640426       0.47483045       0.30407038 </v>
    <v>       0.69640452       0.87483078       0.00000000 </v>
    <v>       0.64640445       0.52483064       0.15203516 </v>
    <v>       0.59640437       0.17483054       0.30407038 </v>
    <v>       0.79640442       0.57483071       0.00000000 </v>
    <v>       0.74640435       0.22483061       0.15203516 </v>
    <v>       0.69640428       0.87483048       0.30407038 </v>
    <v>       0.89640450       0.27483070       0.00000000 </v>
    <v>       0.84640443       0.92483062       0.15203516 </v>
    <v>       0.79640436       0.57483047       0.30407038 </v>
    <v>       0.99640441       0.22483067       0.07601761 </v>
    <v>       0.94640428       0.87483054       0.22805277 </v>
    <v>       0.89640427       0.52483046       0.38008791 </v>
    <v>       0.09640437       0.92483062       0.07601761 </v>
    <v>       0.04640429       0.57483053       0.22805277 </v>
    <v>       0.99640423       0.22483039       0.38008791 </v>
    <v>       0.19640441       0.62483066       0.07601761 </v>
    <v>       0.14640434       0.27483055       0.22805277 </v>
    <v>       0.09640426       0.92483050       0.38008791 </v>
    <v>       0.29640442       0.32483062       0.07601761 </v>
    <v>       0.24640434       0.97483051       0.22805277 </v>
    <v>       0.19640426       0.62483048       0.38008791 </v>
    <v>       0.39640441       0.02483064       0.07601761 </v>
    <v>       0.34640431       0.67483056       0.22805277 </v>
    <v>       0.29640424       0.32483047       0.38008791 </v>
    <v>       0.49640450       0.72483069       0.07601761 </v>
    <v>       0.44640443       0.37483057       0.22805277 </v>
    <v>       0.39640436       0.02483052       0.38008791 </v>
    <v>       0.59640437       0.42483059       0.07601761 </v>
    <v>       0.54640430       0.07483050       0.22805277 </v>
    <v>       0.49640426       0.72483045       0.38008791 </v>
    <v>       0.69640452       0.12483066       0.07601761 </v>
    <v>       0.64640439       0.77483058       0.22805277 </v>
    <v>       0.59640437       0.42483050       0.38008791 </v>
    <v>       0.79640448       0.82483071       0.07601761 </v>
    <v>       0.74640441       0.47483057       0.22805277 </v>
    <v>       0.69640434       0.12483048       0.38008791 </v>
    <v>       0.89640445       0.52483064       0.07601761 </v>
    <v>       0.84640437       0.17483054       0.22805277 </v>
    <v>       0.79640430       0.82483047       0.38008791 </v>
    <v>       0.99640441       0.47483069       0.00000000 </v>
    <v>       0.94640434       0.12483060       0.15203516 </v>
    <v>       0.89640427       0.77483046       0.30407038 </v>
    <v>       0.09640438       0.17483066       0.00000000 </v>
    <v>       0.04640431       0.82483059       0.15203516 </v>
    <v>       0.99640423       0.47483045       0.30407038 </v>
    <v>       0.19640441       0.87483066       0.00000000 </v>
    <v>       0.14640433       0.52483058       0.15203516 </v>
    <v>       0.09640426       0.17483044       0.30407038 </v>
    <v>       0.29640442       0.57483065       0.00000000 </v>
    <v>       0.24640432       0.22483060       0.15203516 </v>
    <v>       0.19640425       0.87483048       0.30407038 </v>
    <v>       0.39640445       0.27483067       0.00000000 </v>
    <v>       0.34640437       0.92483062       0.15203516 </v>
    <v>       0.29640430       0.57483047       0.30407038 </v>
    <v>       0.49640441       0.97483063       0.00000000 </v>
    <v>       0.44640434       0.62483054       0.15203516 </v>
    <v>       0.39640424       0.27483040       0.30407038 </v>
    <v>       0.59640437       0.67483068       0.00000000 </v>
    <v>       0.54640430       0.32483059       0.15203516 </v>
    <v>       0.49640423       0.97483045       0.30407038 </v>
    <v>       0.69640440       0.37483063       0.00000000 </v>
    <v>       0.64640433       0.02483056       0.15203516 </v>
    <v>       0.59640425       0.67483044       0.30407038 </v>
    <v>       0.79640442       0.07483064       0.00000000 </v>
    <v>       0.74640435       0.72483051       0.15203516 </v>
    <v>       0.69640428       0.37483042       0.30407038 </v>
    <v>       0.89640450       0.77483070       0.00000000 </v>
    <v>       0.84640443       0.42483062       0.15203516 </v>
    <v>       0.79640436       0.07483048       0.30407038 </v>
    <v>       0.99640435       0.72483075       0.07601761 </v>
    <v>       0.94640428       0.37483060       0.22805277 </v>
    <v>       0.89640427       0.02483054       0.38008791 </v>
    <v>       0.09640439       0.42483068       0.07601761 </v>
    <v>       0.04640431       0.07483057       0.22805277 </v>
    <v>       0.99640423       0.72483051       0.38008791 </v>
    <v>       0.19640441       0.12483066       0.07601761 </v>
    <v>       0.14640434       0.77483058       0.22805277 </v>
    <v>       0.09640427       0.42483050       0.38008791 </v>
    <v>       0.29640439       0.82483071       0.07601761 </v>
    <v>       0.24640432       0.47483057       0.22805277 </v>
    <v>       0.19640425       0.12483048       0.38008791 </v>
    <v>       0.39640441       0.52483076       0.07601761 </v>
    <v>       0.34640434       0.17483065       0.22805277 </v>
    <v>       0.29640427       0.82483059       0.38008791 </v>
    <v>       0.49640441       0.22483064       0.07601761 </v>
    <v>       0.44640434       0.87483054       0.22805277 </v>
    <v>       0.39640424       0.52483046       0.38008791 </v>
    <v>       0.59640443       0.92483068       0.07601761 </v>
    <v>       0.54640436       0.57483059       0.22805277 </v>
    <v>       0.49640429       0.22483051       0.38008791 </v>
    <v>       0.69640446       0.62483072       0.07601761 </v>
    <v>       0.64640439       0.27483058       0.22805277 </v>
    <v>       0.59640431       0.92483056       0.38008791 </v>
    <v>       0.79640436       0.32483062       0.07601761 </v>
    <v>       0.74640429       0.97483051       0.22805277 </v>
    <v>       0.69640422       0.62483048       0.38008791 </v>
    <v>       0.89640439       0.02483063       0.07601761 </v>
    <v>       0.84640431       0.67483056       0.22805277 </v>
    <v>       0.79640424       0.32483041       0.38008791 </v>
    <v>       0.08787274       0.92397654       0.49206373 </v>
    <v>       0.92120612       0.92397654       0.65044791 </v>
    <v>       0.75453937       0.92397654       0.80883211 </v>
    <v>       0.08787274       0.59064323       0.49206373 </v>
    <v>       0.92120612       0.59064323       0.65044791 </v>
    <v>       0.75453937       0.59064323       0.80883211 </v>
    <v>       0.08787274       0.25730994       0.49206373 </v>
    <v>       0.92120612       0.25730994       0.65044791 </v>
    <v>       0.75453937       0.25730994       0.80883211 </v>
    <v>       0.42120606       0.92397654       0.49206373 </v>
    <v>       0.25453940       0.92397654       0.65044791 </v>
    <v>       0.08787274       0.92397654       0.80883211 </v>
    <v>       0.42120606       0.59064323       0.49206373 </v>
    <v>       0.25453940       0.59064323       0.65044791 </v>
    <v>       0.08787274       0.59064323       0.80883211 </v>
    <v>       0.42120606       0.25730994       0.49206373 </v>
    <v>       0.25453940       0.25730994       0.65044791 </v>
    <v>       0.08787274       0.25730994       0.80883211 </v>
    <v>       0.75453937       0.92397654       0.49206373 </v>
    <v>       0.58787268       0.92397654       0.65044791 </v>
    <v>       0.42120600       0.92397654       0.80883211 </v>
    <v>       0.75453937       0.59064323       0.49206373 </v>
    <v>       0.58787268       0.59064323       0.65044791 </v>
    <v>       0.42120600       0.59064323       0.80883211 </v>
    <v>       0.75453937       0.25730994       0.49206373 </v>
    <v>       0.58787268       0.25730994       0.65044791 </v>
    <v>       0.42120600       0.25730994       0.80883211 </v>
    <v>       0.17120609       0.17397654       0.57125580 </v>
    <v>       0.00453937       0.17397654       0.72964001 </v>
    <v>       0.83787274       0.17397654       0.88802415 </v>
    <v>       0.17120609       0.84064329       0.57125580 </v>
    <v>       0.00453937       0.84064329       0.72964001 </v>
    <v>       0.83787274       0.84064329       0.88802415 </v>
    <v>       0.17120609       0.50730991       0.57125580 </v>
    <v>       0.00453937       0.50730991       0.72964001 </v>
    <v>       0.83787274       0.50730991       0.88802415 </v>
    <v>       0.50453937       0.17397654       0.57125580 </v>
    <v>       0.33787268       0.17397654       0.72964001 </v>
    <v>       0.17120597       0.17397654       0.88802415 </v>
    <v>       0.50453937       0.84064329       0.57125580 </v>
    <v>       0.33787268       0.84064329       0.72964001 </v>
    <v>       0.17120597       0.84064329       0.88802415 </v>
    <v>       0.50453937       0.50730991       0.57125580 </v>
    <v>       0.33787268       0.50730991       0.72964001 </v>
    <v>       0.17120597       0.50730991       0.88802415 </v>
    <v>       0.83787274       0.17397654       0.57125580 </v>
    <v>       0.67120600       0.17397654       0.72964001 </v>
    <v>       0.50453931       0.17397654       0.88802415 </v>
    <v>       0.83787274       0.84064329       0.57125580 </v>
    <v>       0.67120600       0.84064329       0.72964001 </v>
    <v>       0.50453931       0.84064329       0.88802415 </v>
    <v>       0.83787274       0.50730991       0.57125580 </v>
    <v>       0.67120600       0.50730991       0.72964001 </v>
    <v>       0.50453931       0.50730991       0.88802415 </v>
    <v>       0.25453943       0.09064317       0.49206373 </v>
    <v>       0.08787274       0.09064317       0.65044791 </v>
    <v>       0.92120606       0.09064317       0.80883211 </v>
    <v>       0.25453943       0.75730985       0.49206373 </v>
    <v>       0.08787274       0.75730985       0.65044791 </v>
    <v>       0.92120606       0.75730985       0.80883211 </v>
    <v>       0.25453943       0.42397660       0.49206373 </v>
    <v>       0.08787274       0.42397660       0.65044791 </v>
    <v>       0.92120606       0.42397660       0.80883211 </v>
    <v>       0.58787268       0.09064317       0.49206373 </v>
    <v>       0.42120600       0.09064317       0.65044791 </v>
    <v>       0.25453931       0.09064317       0.80883211 </v>
    <v>       0.58787268       0.75730985       0.49206373 </v>
    <v>       0.42120600       0.75730985       0.65044791 </v>
    <v>       0.25453931       0.75730985       0.80883211 </v>
    <v>       0.58787268       0.42397660       0.49206373 </v>
    <v>       0.42120600       0.42397660       0.65044791 </v>
    <v>       0.25453931       0.42397660       0.80883211 </v>
    <v>       0.92120606       0.09064317       0.49206373 </v>
    <v>       0.75453937       0.09064317       0.65044791 </v>
    <v>       0.58787268       0.09064317       0.80883211 </v>
    <v>       0.92120606       0.75730985       0.49206373 </v>
    <v>       0.75453937       0.75730985       0.65044791 </v>
    <v>       0.58787268       0.75730985       0.80883211 </v>
    <v>       0.92120606       0.42397660       0.49206373 </v>
    <v>       0.75453937       0.42397660       0.65044791 </v>
    <v>       0.58787268       0.42397660       0.80883211 </v>
    <v>       0.33787271       0.00730979       0.57125580 </v>
    <v>       0.17120603       0.00730979       0.72964001 </v>
    <v>       0.00453937       0.00730979       0.88802415 </v>
    <v>       0.33787271       0.67397654       0.57125580 </v>
    <v>       0.17120603       0.67397654       0.72964001 </v>
    <v>       0.00453937       0.67397654       0.88802415 </v>
    <v>       0.33787271       0.34064329       0.57125580 </v>
    <v>       0.17120603       0.34064329       0.72964001 </v>
    <v>       0.00453937       0.34064329       0.88802415 </v>
    <v>       0.67120612       0.00730979       0.57125580 </v>
    <v>       0.50453937       0.00730979       0.72964001 </v>
    <v>       0.33787268       0.00730979       0.88802415 </v>
    <v>       0.67120612       0.67397654       0.57125580 </v>
    <v>       0.50453937       0.67397654       0.72964001 </v>
    <v>       0.33787268       0.67397654       0.88802415 </v>
    <v>       0.67120612       0.34064329       0.57125580 </v>
    <v>       0.50453937       0.34064329       0.72964001 </v>
    <v>       0.33787268       0.34064329       0.88802415 </v>
    <v>       0.00453949       0.00730979       0.57125580 </v>
    <v>       0.83787274       0.00730979       0.72964001 </v>
    <v>       0.67120600       0.00730979       0.88802415 </v>
    <v>       0.00453949       0.67397654       0.57125580 </v>
    <v>       0.83787274       0.67397654       0.72964001 </v>
    <v>       0.67120600       0.67397654       0.88802415 </v>
    <v>       0.00453949       0.34064329       0.57125580 </v>
    <v>       0.83787274       0.34064329       0.72964001 </v>
    <v>       0.67120600       0.34064329       0.88802415 </v>
   </varray>
  </structure>
  <varray name="forces" >
   <v>      -0.58654286      -0.97838606       3.71294397 </v>
   <v>      -0.05782661       0.01484538       0.02385226 </v>
   <v>      -0.12097261       0.08606677       0.42073708 </v>
   <v>      -0.90229553       0.39586139      -0.50358728 </v>
   <v>       0.03135939      -0.02361118       0.06493144 </v>
   <v>       0.11412253       0.02609520       0.49520218 </v>
   <v>      -0.27013052       0.08423716      -0.69727928 </v>
   <v>       0.06120147       0.00396550       0.04660195 </v>
   <v>       0.41400699       0.07113360       0.22350262 </v>
   <v>       0.96587664      -0.01023628       0.08387437 </v>
   <v>      -0.08869018       0.01815404      -0.00145579 </v>
   <v>      -0.04403521      -0.11355826      -0.01946589 </v>
   <v>       0.56707370      -0.43044810      -1.66649869 </v>
   <v>      -0.03912091       0.01175623       0.06198382 </v>
   <v>      -0.36311557      -0.03619045       0.06791790 </v>
   <v>      -0.58654286      -0.97838606       3.71294397 </v>
   <v>      -0.05782661       0.01484538       0.02385226 </v>
   <v>      -0.12097261       0.08606677       0.42073708 </v>
   <v>      -0.90229553       0.39586139      -0.50358728 </v>
   <v>       0.03135939      -0.02361118       0.06493144 </v>
   <v>       0.11412253       0.02609520       0.49520218 </v>
   <v>      -0.27013052       0.08423716      -0.69727928 </v>
   <v>       0.06120147       0.00396550       0.04660195 </v>
   <v>       0.41400699       0.07113360       0.22350262 </v>
   <v>       0.96587664      -0.01023628       0.08387437 </v>
   <v>      -0.08869018       0.01815404      -0.00145579 </v>
   <v>      -0.04403521      -0.11355826      -0.01946589 </v>
   <v>       0.56707370      -0.43044810      -1.66649869 </v>
   <v>      -0.03912091       0.01175623       0.06198382 </v>
   <v>      -0.36311557      -0.03619045       0.06791790 </v>
   <v>      -0.28459769       0.04708078      -0.38912123 </v>
[...]
       <r>     1.6857   166.0979   680.5326 </r>
       <r>     1.7383   137.5514   687.7699 </r>
       <r>     1.7910   129.1685   694.5660 </r>
       <r>     1.8436   120.5556   700.9091 </r>
       <r>     1.8962   100.4641   706.1950 </r>
       <r>     1.9488   102.8293   711.6053 </r>
       <r>     2.0014   176.6237   720.8984 </r>
       <r>     2.0540   164.4045   729.5485 </r>
       <r>     2.1066   125.0413   736.1275 </r>
       <r>     2.1593    99.7575   741.3763 </r>
       <r>     2.2119   159.3507   749.7605 </r>
       <r>     2.2645   121.9225   756.1755 </r>
       <r>     2.3171   134.4917   763.2517 </r>
       <r>     2.3697   109.0690   768.9904 </r>
       <r>     2.4223   134.8643   776.0863 </r>
       <r>     2.4749   111.9840   781.9783 </r>
       <r>     2.5276   103.6289   787.4308 </r>
       <r>     2.5802   129.2338   794.2304 </r>
       <r>     2.6328   157.8250   802.5343 </r>
       <r>     2.6854   147.5733   810.2989 </r>
       <r>     2.7380    94.5609   815.2742 </r>
       <r>     2.7906   115.1292   821.3317 </r>
       <r>     2.8433   101.6894   826.6821 </r>
       <r>     2.8959    90.8370   831.4615 </r>
       <r>     2.9485    76.5624   835.4898 </r>
       <r>     3.0011    65.1396   838.9171 </r>
       <r>     3.0537    84.5510   843.3658 </r>
       <r>     3.1063    62.8337   846.6718 </r>
       <r>     3.1589    99.3458   851.8988 </r>
       <r>     3.2116    90.0293   856.6357 </r>
       <r>     3.2642   111.4094   862.4975 </r>
       <r>     3.3168    73.6290   866.3715 </r>
       <r>     3.3694    75.4927   870.3436 </r>
       <r>     3.4220    89.4274   875.0488 </r>
       <r>     3.4746    37.3659   877.0148 </r>
       <r>     3.5272    43.3730   879.2968 </r>
       <r>     3.5799    75.5459   883.2717 </r>
       <r>     3.6325    67.1007   886.8022 </r>
       <r>     3.6851    56.7767   889.7895 </r>
       <r>     3.7377    21.9181   890.9427 </r>
       <r>     3.7903    51.7851   893.6674 </r>
       <r>     3.8429    69.2839   897.3128 </r>
       <r>     3.8955    38.0406   899.3143 </r>
       <r>     3.9482    27.9588   900.7853 </r>
       <r>     4.0008    42.6024   903.0268 </r>
       <r>     4.0534    51.5653   905.7399 </r>
       <r>     4.1060    92.9030   910.6280 </r>
       <r>     4.1586    42.8307   912.8816 </r>
       <r>     4.2112    90.1106   917.6227 </r>
       <r>     4.2639    42.6288   919.8656 </r>
       <r>     4.3165    73.1481   923.7143 </r>
       <r>     4.3691    45.0053   926.0823 </r>
       <r>     4.4217    89.2628   930.7788 </r>
       <r>     4.4743    56.0193   933.7263 </r>
       <r>     4.5269    88.1548   938.3645 </r>
       <r>     4.5795    63.9444   941.7290 </r>
       <r>     4.6322    91.4329   946.5397 </r>
       <r>     4.6848    83.9781   950.9582 </r>
       <r>     4.7374    57.5392   953.9856 </r>
       <r>     4.7900    99.1410   959.2019 </r>
       <r>     4.8426   102.5757   964.5989 </r>
       <r>     4.8952    91.4241   969.4092 </r>
       <r>     4.9478   103.5699   974.8585 </r>
       <r>     5.0005   106.7965   980.4776 </r>
       <r>     5.0531    67.5599   984.0322 </r>
       <r>     5.1057    76.0030   988.0311 </r>
       <r>     5.1583    95.5530   993.0586 </r>
       <r>     5.2109   100.7924   998.3618 </r>
       <r>     5.2635   105.5266  1003.9141 </r>
       <r>     5.3161   124.2410  1010.4510 </r>
       <r>     5.3688    85.9494  1014.9732 </r>
       <r>     5.4214   136.6909  1022.1652 </r>
       <r>     5.4740   102.8169  1027.5750 </r>
       <r>     5.5266    84.8757  1032.0407 </r>
       <r>     5.5792   109.5607  1037.8052 </r>
       <r>     5.6318   104.2917  1043.2925 </r>
       <r>     5.6845   122.0991  1049.7167 </r>
       <r>     5.7371   148.7083  1057.5410 </r>
       <r>     5.7897    95.1058  1062.5450 </r>
       <r>     5.8423   102.1204  1067.9180 </r>
       <r>     5.8949    90.2590  1072.6670 </r>
       <r>     5.9475    98.0904  1077.8280 </r>
       <r>     6.0001    87.9285  1082.4544 </r>
       <r>     6.0528   116.3913  1088.5783 </r>
       <r>     6.1054    74.0442  1092.4742 </r>
       <r>     6.1580    52.4365  1095.2331 </r>
       <r>     6.2106    14.5755  1096.0000 </r>
       <r>     6.2632     0.0000  1096.0000 </r>
       <r>     6.3158     0.0000  1096.0000 </r>
       <r>     6.3684     0.0000  1096.0000 </r>
       <r>     6.4211     0.0000  1096.0000 </r>
       <r>     6.4737     0.0000  1096.0000 </r>
       <r>     6.5263     0.0000  1096.0000 </r>
       <r>     6.5789     0.0000  1096.0000 </r>
       <r>     6.6315     0.0000  1096.0000 </r>
       <r>     6.6841     0.0000  1096.0000 </r>
       <r>     6.7367     0.0000  1096.0000 </r>
       <r>     6.7894     0.0000  1096.0000 </r>
       <r>     6.8420     0.0000  1096.0000 </r>
       <r>     6.8946     0.0000  1096.0000 </r>
      </set>
     </set>
    </array>
   </total>
  </dos>
 </calculation>
 <structure name="finalpos" >
  <crystal>
   <varray name="basis" >
    <v>      17.17433167       0.00000000       0.00000000 </v>
    <v>       0.00000000      17.17432976       0.00000000 </v>
    <v>       0.00000000       0.00000000      17.86100006 </v>
   </varray>
   <i name="volume">   5268.23834366 </i>
   <varray name="rec_basis" >
    <v>       0.05822643       0.00000000       0.00000000 </v>
    <v>       0.00000000       0.05822644       0.00000000 </v>
    <v>       0.00000000       0.00000000       0.05598791 </v>
   </varray>
  </crystal>
  <varray name="positions" >
   <v>       0.99640435       0.97483069       0.00000000 </v>
   <v>       0.94640434       0.62483060       0.15203516 </v>
   <v>       0.89640427       0.27483046       0.30407038 </v>
   <v>       0.09640440       0.67483074       0.00000000 </v>
   <v>       0.04640434       0.32483065       0.15203516 </v>
   <v>       0.99640423       0.97483051       0.30407038 </v>
   <v>       0.19640441       0.37483066       0.00000000 </v>
   <v>       0.14640434       0.02483060       0.15203516 </v>
   <v>       0.09640426       0.67483044       0.30407038 </v>
   <v>       0.29640439       0.07483066       0.00000000 </v>
   <v>       0.24640430       0.72483063       0.15203516 </v>
   <v>       0.19640423       0.37483042       0.30407038 </v>
   <v>       0.39640445       0.77483070       0.00000000 </v>
   <v>       0.34640437       0.42483059       0.15203516 </v>
   <v>       0.29640430       0.07483046       0.30407038 </v>
   <v>       0.49640438       0.47483069       0.00000000 </v>
   <v>       0.44640431       0.12483060       0.15203516 </v>
   <v>       0.39640424       0.77483046       0.30407038 </v>
   <v>       0.59640437       0.17483065       0.00000000 </v>
   <v>       0.54640430       0.82483059       0.15203516 </v>
   <v>       0.49640426       0.47483045       0.30407038 </v>
   <v>       0.69640452       0.87483078       0.00000000 </v>
   <v>       0.64640445       0.52483064       0.15203516 </v>
   <v>       0.59640437       0.17483054       0.30407038 </v>
   <v>       0.79640442       0.57483071       0.00000000 </v>
   <v>       0.74640435       0.22483061       0.15203516 </v>
   <v>       0.69640428       0.87483048       0.30407038 </v>
   <v>       0.89640450       0.27483070       0.00000000 </v>
   <v>       0.84640443       0.92483062       0.15203516 </v>
   <v>       0.79640436       0.57483047       0.30407038 </v>
   <v>       0.99640441       0.22483067       0.07601761 </v>
   <v>       0.94640428       0.87483054       0.22805277 </v>
   <v>       0.89640427       0.52483046       0.38008791 </v>
   <v>       0.09640437       0.92483062       0.07601761 </v>
   <v>       0.04640429       0.57483053       0.22805277 </v>
   <v>       0.99640423       0.22483039       0.38008791 </v>
   <v>       0.19640441       0.62483066       0.07601761 </v>
   <v>       0.14640434       0.27483055       0.22805277 </v>
   <v>       0.09640426       0.92483050       0.38008791 </v>
   <v>       0.29640442       0.32483062       0.07601761 </v>
   <v>       0.24640434       0.97483051       0.22805277 </v>
   <v>       0.19640426       0.62483048       0.38008791 </v>
   <v>       0.39640441       0.02483064       0.07601761 </v>
   <v>       0.34640431       0.67483056       0.22805277 </v>
   <v>       0.29640424       0.32483047       0.38008791 </v>
   <v>       0.49640450       0.72483069       0.07601761 </v>
   <v>       0.44640443       0.37483057       0.22805277 </v>
   <v>       0.39640436       0.02483052       0.38008791 </v>
   <v>       0.59640437       0.42483059       0.07601761 </v>
   <v>       0.54640430       0.07483050       0.22805277 </v>
   <v>       0.49640426       0.72483045       0.38008791 </v>
   <v>       0.69640452       0.12483066       0.07601761 </v>
   <v>       0.64640439       0.77483058       0.22805277 </v>
   <v>       0.59640437       0.42483050       0.38008791 </v>
   <v>       0.79640448       0.82483071       0.07601761 </v>
   <v>       0.74640441       0.47483057       0.22805277 </v>
   <v>       0.69640434       0.12483048       0.38008791 </v>
   <v>       0.89640445       0.52483064       0.07601761 </v>
   <v>       0.84640437       0.17483054       0.22805277 </v>
   <v>       0.79640430       0.82483047       0.38008791 </v>
   <v>       0.99640441       0.47483069       0.00000000 </v>
   <v>       0.94640434       0.12483060       0.15203516 </v>
   <v>       0.89640427       0.77483046       0.30407038 </v>
   <v>       0.09640438       0.17483066       0.00000000 </v>
   <v>       0.04640431       0.82483059       0.15203516 </v>
   <v>       0.99640423       0.47483045       0.30407038 </v>
   <v>       0.19640441       0.87483066       0.00000000 </v>
   <v>       0.14640433       0.52483058       0.15203516 </v>
   <v>       0.09640426       0.17483044       0.30407038 </v>
   <v>       0.29640442       0.57483065       0.00000000 </v>
   <v>       0.24640432       0.22483060       0.15203516 </v>
   <v>       0.19640425       0.87483048       0.30407038 </v>
   <v>       0.39640445       0.27483067       0.00000000 </v>
   <v>       0.34640437       0.92483062       0.15203516 </v>
   <v>       0.29640430       0.57483047       0.30407038 </v>
   <v>       0.49640441       0.97483063       0.00000000 </v>
   <v>       0.44640434       0.62483054       0.15203516 </v>
   <v>       0.39640424       0.27483040       0.30407038 </v>
   <v>       0.59640437       0.67483068       0.00000000 </v>
   <v>       0.54640430       0.32483059       0.15203516 </v>
   <v>       0.49640423       0.97483045       0.30407038 </v>
   <v>       0.69640440       0.37483063       0.00000000 </v>
   <v>       0.64640433       0.02483056       0.15203516 </v>
   <v>       0.59640425       0.67483044       0.30407038 </v>
   <v>       0.79640442       0.07483064       0.00000000 </v>
   <v>       0.74640435       0.72483051       0.15203516 </v>
   <v>       0.69640428       0.37483042       0.30407038 </v>
   <v>       0.89640450       0.77483070       0.00000000 </v>
   <v>       0.84640443       0.42483062       0.15203516 </v>
   <v>       0.79640436       0.07483048       0.30407038 </v>
   <v>       0.99640435       0.72483075       0.07601761 </v>
   <v>       0.94640428       0.37483060       0.22805277 </v>
   <v>       0.89640427       0.02483054       0.38008791 </v>
   <v>       0.09640439       0.42483068       0.07601761 </v>
   <v>       0.04640431       0.07483057       0.22805277 </v>
   <v>       0.99640423       0.72483051       0.38008791 </v>
   <v>       0.19640441       0.12483066       0.07601761 </v>
   <v>       0.14640434       0.77483058       0.22805277 </v>
   <v>       0.09640427       0.42483050       0.38008791 </v>
   <v>       0.29640439       0.82483071       0.07601761 </v>
   <v>       0.24640432       0.47483057       0.22805277 </v>
   <v>       0.19640425       0.12483048       0.38008791 </v>
   <v>       0.39640441       0.52483076       0.07601761 </v>
   <v>       0.34640434       0.17483065       0.22805277 </v>
   <v>       0.29640427       0.82483059       0.38008791 </v>
   <v>       0.49640441       0.22483064       0.07601761 </v>
   <v>       0.44640434       0.87483054       0.22805277 </v>
   <v>       0.39640424       0.52483046       0.38008791 </v>
   <v>       0.59640443       0.92483068       0.07601761 </v>
   <v>       0.54640436       0.57483059       0.22805277 </v>
   <v>       0.49640429       0.22483051       0.38008791 </v>
   <v>       0.69640446       0.62483072       0.07601761 </v>
   <v>       0.64640439       0.27483058       0.22805277 </v>
   <v>       0.59640431       0.92483056       0.38008791 </v>
   <v>       0.79640436       0.32483062       0.07601761 </v>
   <v>       0.74640429       0.97483051       0.22805277 </v>
   <v>       0.69640422       0.62483048       0.38008791 </v>
   <v>       0.89640439       0.02483063       0.07601761 </v>
   <v>       0.84640431       0.67483056       0.22805277 </v>
   <v>       0.79640424       0.32483041       0.38008791 </v>
   <v>       0.08787274       0.92397654       0.49206373 </v>
   <v>       0.92120612       0.92397654       0.65044791 </v>
   <v>       0.75453937       0.92397654       0.80883211 </v>
   <v>       0.08787274       0.59064323       0.49206373 </v>
   <v>       0.92120612       0.59064323       0.65044791 </v>
   <v>       0.75453937       0.59064323       0.80883211 </v>
   <v>       0.08787274       0.25730994       0.49206373 </v>
   <v>       0.92120612       0.25730994       0.65044791 </v>
   <v>       0.75453937       0.25730994       0.80883211 </v>
   <v>       0.42120606       0.92397654       0.49206373 </v>
   <v>       0.25453940       0.92397654       0.65044791 </v>
   <v>       0.08787274       0.92397654       0.80883211 </v>
   <v>       0.42120606       0.59064323       0.49206373 </v>
   <v>       0.25453940       0.59064323       0.65044791 </v>
   <v>       0.08787274       0.59064323       0.80883211 </v>
   <v>       0.42120606       0.25730994       0.49206373 </v>
   <v>       0.25453940       0.25730994       0.65044791 </v>
   <v>       0.08787274       0.25730994       0.80883211 </v>
   <v>       0.75453937       0.92397654       0.49206373 </v>
   <v>       0.58787268       0.92397654       0.65044791 </v>
   <v>       0.42120600       0.92397654       0.80883211 </v>
   <v>       0.75453937       0.59064323       0.49206373 </v>
   <v>       0.58787268       0.59064323       0.65044791 </v>
   <v>       0.42120600       0.59064323       0.80883211 </v>
   <v>       0.75453937       0.25730994       0.49206373 </v>
   <v>       0.58787268       0.25730994       0.65044791 </v>
   <v>       0.42120600       0.25730994       0.80883211 </v>
   <v>       0.17120609       0.17397654       0.57125580 </v>
   <v>       0.00453937       0.17397654       0.72964001 </v>
   <v>       0.83787274       0.17397654       0.88802415 </v>
   <v>       0.17120609       0.84064329       0.57125580 </v>
   <v>       0.00453937       0.84064329       0.72964001 </v>
   <v>       0.83787274       0.84064329       0.88802415 </v>
   <v>       0.17120609       0.50730991       0.57125580 </v>
   <v>       0.00453937       0.50730991       0.72964001 </v>
   <v>       0.83787274       0.50730991       0.88802415 </v>
   <v>       0.50453937       0.17397654       0.57125580 </v>
   <v>       0.33787268       0.17397654       0.72964001 </v>
   <v>       0.17120597       0.17397654       0.88802415 </v>
   <v>       0.50453937       0.84064329       0.57125580 </v>
   <v>       0.33787268       0.84064329       0.72964001 </v>
   <v>       0.17120597       0.84064329       0.88802415 </v>
   <v>       0.50453937       0.50730991       0.57125580 </v>
   <v>       0.33787268       0.50730991       0.72964001 </v>
   <v>       0.17120597       0.50730991       0.88802415 </v>
   <v>       0.83787274       0.17397654       0.57125580 </v>
   <v>       0.67120600       0.17397654       0.72964001 </v>
   <v>       0.50453931       0.17397654       0.88802415 </v>
   <v>       0.83787274       0.84064329       0.57125580 </v>
   <v>       0.67120600       0.84064329       0.72964001 </v>
   <v>       0.50453931       0.84064329       0.88802415 </v>
   <v>       0.83787274       0.50730991       0.57125580 </v>
   <v>       0.67120600       0.50730991       0.72964001 </v>
   <v>       0.50453931       0.50730991       0.88802415 </v>
   <v>       0.25453943       0.09064317       0.49206373 </v>
   <v>       0.08787274       0.09064317       0.65044791 </v>
   <v>       0.92120606       0.09064317       0.80883211 </v>
   <v>       0.25453943       0.75730985       0.49206373 </v>
   <v>       0.08787274       0.75730985       0.65044791 </v>
   <v>       0.92120606       0.75730985       0.80883211 </v>
   <v>       0.25453943       0.42397660       0.49206373 </v>
   <v>       0.08787274       0.42397660       0.65044791 </v>
   <v>       0.92120606       0.42397660       0.80883211 </v>
   <v>       0.58787268       0.09064317       0.49206373 </v>
   <v>       0.42120600       0.09064317       0.65044791 </v>
   <v>       0.25453931       0.09064317       0.80883211 </v>
   <v>       0.58787268       0.75730985       0.49206373 </v>
   <v>       0.42120600       0.75730985       0.65044791 </v>
   <v>       0.25453931       0.75730985       0.80883211 </v>
   <v>       0.58787268       0.42397660       0.49206373 </v>
   <v>       0.42120600       0.42397660       0.65044791 </v>
   <v>       0.25453931       0.42397660       0.80883211 </v>
   <v>       0.92120606       0.09064317       0.49206373 </v>
   <v>       0.75453937       0.09064317       0.65044791 </v>
   <v>       0.58787268       0.09064317       0.80883211 </v>
   <v>       0.92120606       0.75730985       0.49206373 </v>
   <v>       0.75453937       0.75730985       0.65044791 </v>
   <v>       0.58787268       0.75730985       0.80883211 </v>
   <v>       0.92120606       0.42397660       0.49206373 </v>
   <v>       0.75453937       0.42397660       0.65044791 </v>
   <v>       0.58787268       0.42397660       0.80883211 </v>
   <v>       0.33787271       0.00730979       0.57125580 </v>
   <v>       0.17120603       0.00730979       0.72964001 </v>
   <v>       0.00453937       0.00730979       0.88802415 </v>
   <v>       0.33787271       0.67397654       0.57125580 </v>
   <v>       0.17120603       0.67397654       0.72964001 </v>
   <v>       0.00453937       0.67397654       0.88802415 </v>
   <v>       0.33787271       0.34064329       0.57125580 </v>
   <v>       0.17120603       0.34064329       0.72964001 </v>
   <v>       0.00453937       0.34064329       0.88802415 </v>
   <v>       0.67120612       0.00730979       0.57125580 </v>
   <v>       0.50453937       0.00730979       0.72964001 </v>
   <v>       0.33787268       0.00730979       0.88802415 </v>
   <v>       0.67120612       0.67397654       0.57125580 </v>
   <v>       0.50453937       0.67397654       0.72964001 </v>
   <v>       0.33787268       0.67397654       0.88802415 </v>
   <v>       0.67120612       0.34064329       0.57125580 </v>
   <v>       0.50453937       0.34064329       0.72964001 </v>
   <v>       0.33787268       0.34064329       0.88802415 </v>
   <v>       0.00453949       0.00730979       0.57125580 </v>
   <v>       0.83787274       0.00730979       0.72964001 </v>
   <v>       0.67120600       0.00730979       0.88802415 </v>
   <v>       0.00453949       0.67397654       0.57125580 </v>
   <v>       0.83787274       0.67397654       0.72964001 </v>
   <v>       0.67120600       0.67397654       0.88802415 </v>
   <v>       0.00453949       0.34064329       0.57125580 </v>
   <v>       0.83787274       0.34064329       0.72964001 </v>
   <v>       0.67120600       0.34064329       0.88802415 </v>
  </varray>
 </structure>
</modeling>
