 168 168   0   0
  0.2680331E+02  0.1600268E-08  0.1600268E-08  0.2030401E-08  0.5000000E-15
  1.000000000000000E-004
  CAR 
 Si and Ge interface calculation         
      6.61351193     -9.48788578  301      3.63522585      1.00000000
     -9.488  0.0000E+00  0.0000E+00  0.0000E+00  0.0000E+00
     -9.434  0.0000E+00  0.0000E+00  0.0000E+00  0.0000E+00
     -9.381  0.0000E+00  0.0000E+00  0.0000E+00  0.0000E+00
     -9.327  0.0000E+00  0.0000E+00  0.0000E+00  0.0000E+00
     -9.273  0.0000E+00  0.0000E+00  0.0000E+00  0.0000E+00
     -9.220  0.0000E+00  0.0000E+00  0.0000E+00  0.0000E+00
     -9.166  0.0000E+00  0.0000E+00  0.0000E+00  0.0000E+00
     -9.112  0.0000E+00  0.0000E+00  0.0000E+00  0.0000E+00
     -9.059  0.0000E+00  0.0000E+00  0.0000E+00  0.0000E+00
     -9.005  0.0000E+00  0.0000E+00  0.0000E+00  0.0000E+00
     -8.951  0.0000E+00  0.0000E+00  0.0000E+00  0.0000E+00
     -8.898  0.0000E+00  0.0000E+00  0.0000E+00  0.0000E+00
     -8.844  0.0000E+00  0.0000E+00  0.0000E+00  0.0000E+00
     -8.790  0.5796E-05  0.1334E-06  0.3111E-06  0.7159E-08
     -8.736  0.9287E+01  0.9123E+01  0.4985E+00  0.4896E+00
     -8.683  0.2858E-01  0.1929E+00  0.5000E+00  0.5000E+00
     -8.629  0.2541E-07  0.2509E-09  0.5000E+00  0.5000E+00
     -8.575  0.5190E+02  0.4351E+02  0.3285E+01  0.2835E+01
     -8.522  0.3999E+01  0.1238E+02  0.3500E+01  0.3500E+01
     -8.468  0.0000E+00  0.0000E+00  0.3500E+01  0.3500E+01
     -8.414  0.0000E+00  0.0000E+00  0.3500E+01  0.3500E+01
     -8.361  0.8832E-02  0.3928E-03  0.3500E+01  0.3500E+01
     -8.307  0.9307E+01  0.9314E+01  0.4000E+01  0.4000E+01
     -8.253  0.2196E+02  0.9455E+01  0.5179E+01  0.4507E+01
     -8.200  0.3393E+02  0.4644E+02  0.7000E+01  0.7000E+01
     -8.146  0.5582E+02  0.5508E+02  0.9996E+01  0.9956E+01
     -8.092  0.2550E+02  0.2218E+02  0.1136E+02  0.1115E+02
     -8.039  0.3047E+02  0.3453E+02  0.1300E+02  0.1300E+02
     -7.985  0.0000E+00  0.0000E+00  0.1300E+02  0.1300E+02
     -7.931  0.0000E+00  0.0000E+00  0.1300E+02  0.1300E+02
     -7.878  0.1675E-07  0.9249E-10  0.1300E+02  0.1300E+02
     -7.824  0.5114E+02  0.4054E+02  0.1574E+02  0.1518E+02
     -7.770  0.4755E+01  0.1536E+02  0.1600E+02  0.1600E+02
     -7.717  0.4236E-03  0.5017E-04  0.1600E+02  0.1600E+02
     -7.663  0.2832E+02  0.2761E+02  0.1752E+02  0.1748E+02
     -7.609  0.8321E+02  0.7846E+02  0.2199E+02  0.2169E+02
     -7.556  0.5615E+02  0.6162E+02  0.2500E+02  0.2500E+02
     -7.502  0.8291E+01  0.7056E+01  0.2544E+02  0.2538E+02
     -7.448  0.1025E+01  0.2260E+01  0.2550E+02  0.2550E+02
     -7.395  0.3062E-08  0.1322E-09  0.2550E+02  0.2550E+02
     -7.341  0.4026E+02  0.3117E+02  0.2766E+02  0.2717E+02
     -7.287  0.7153E+02  0.8061E+02  0.3150E+02  0.3150E+02
     -7.234  0.1165E+00  0.3356E-01  0.3151E+02  0.3150E+02
     -7.180  0.6341E+02  0.5683E+02  0.3491E+02  0.3455E+02
     -7.126  0.4827E+02  0.5494E+02  0.3750E+02  0.3750E+02
     -7.073  0.0000E+00  0.0000E+00  0.3750E+02  0.3750E+02
     -7.019  0.1113E+00  0.1271E-01  0.3751E+02  0.3750E+02
     -6.965  0.5578E+02  0.5587E+02  0.4050E+02  0.4050E+02
     -6.912  0.8216E+02  0.7775E+02  0.4491E+02  0.4467E+02
     -6.858  0.2858E+02  0.2307E+02  0.4644E+02  0.4591E+02
     -6.804  0.8950E+02  0.9545E+02  0.5125E+02  0.5103E+02
     -6.751  0.3285E+02  0.3192E+02  0.5301E+02  0.5275E+02
     -6.697  0.6502E+02  0.6994E+02  0.5650E+02  0.5650E+02
     -6.643  0.8054E+01  0.5092E+01  0.5693E+02  0.5677E+02
     -6.590  0.1394E+02  0.1219E+02  0.5768E+02  0.5743E+02
     -6.536  0.3323E+02  0.3288E+02  0.5946E+02  0.5919E+02
     -6.482  0.4616E+02  0.4942E+02  0.6194E+02  0.6184E+02
     -6.429  0.1992E+02  0.2116E+02  0.6301E+02  0.6298E+02
     -6.375  0.9292E+02  0.8449E+02  0.6800E+02  0.6752E+02
     -6.321  0.1109E+03  0.1033E+03  0.7395E+02  0.7306E+02
     -6.268  0.4750E+02  0.6409E+02  0.7650E+02  0.7650E+02
     -6.214  0.2116E+02  0.1358E+02  0.7764E+02  0.7723E+02
     -6.160  0.4413E+02  0.5165E+02  0.8001E+02  0.8000E+02
     -6.107  0.4591E+01  0.4640E+01  0.8025E+02  0.8025E+02
     -6.053  0.7627E+02  0.7036E+02  0.8435E+02  0.8403E+02
     -5.999  0.8034E+01  0.1362E+02  0.8478E+02  0.8476E+02
     -5.946  0.1046E+03  0.8375E+02  0.9039E+02  0.8925E+02
     -5.892  0.2548E+02  0.4657E+02  0.9176E+02  0.9175E+02
     -5.838  0.3197E+02  0.2883E+02  0.9347E+02  0.9330E+02
     -5.785  0.7752E+02  0.7085E+02  0.9764E+02  0.9710E+02
     -5.731  0.6269E+02  0.7263E+02  0.1010E+03  0.1010E+03
     -5.677  0.2116E+02  0.1474E+02  0.1021E+03  0.1018E+03
     -5.624  0.6783E+01  0.1321E+02  0.1025E+03  0.1025E+03
     -5.570  0.7460E+01  0.2377E+01  0.1029E+03  0.1026E+03
     -5.516  0.8281E+02  0.7967E+02  0.1073E+03  0.1069E+03
     -5.463  0.7180E+02  0.7037E+02  0.1112E+03  0.1107E+03
     -5.409  0.6709E+02  0.7049E+02  0.1148E+03  0.1145E+03
     -5.355  0.2206E+02  0.2321E+02  0.1160E+03  0.1157E+03
     -5.302  0.7993E+02  0.7409E+02  0.1203E+03  0.1197E+03
     -5.248  0.5478E+02  0.6340E+02  0.1232E+03  0.1231E+03
     -5.194  0.2405E+02  0.2630E+02  0.1245E+03  0.1245E+03
     -5.141  0.5580E+02  0.5478E+02  0.1275E+03  0.1274E+03
     -5.087  0.5676E+02  0.5452E+02  0.1305E+03  0.1304E+03
     -5.033  0.3807E+02  0.3822E+02  0.1326E+03  0.1324E+03
     -4.979  0.8016E+02  0.7050E+02  0.1369E+03  0.1362E+03
     -4.926  0.6061E+02  0.6665E+02  0.1401E+03  0.1398E+03
     -4.872  0.6677E+02  0.6509E+02  0.1437E+03  0.1433E+03
     -4.818  0.7071E+02  0.7368E+02  0.1475E+03  0.1472E+03
     -4.765  0.8983E+02  0.9235E+02  0.1523E+03  0.1522E+03
     -4.711  0.4154E+02  0.3694E+02  0.1546E+03  0.1542E+03
     -4.657  0.2757E+02  0.3436E+02  0.1561E+03  0.1560E+03
     -4.604  0.4093E+02  0.4169E+02  0.1582E+03  0.1582E+03
     -4.550  0.3676E+02  0.3248E+02  0.1602E+03  0.1600E+03
     -4.496  0.2496E+02  0.2710E+02  0.1616E+03  0.1614E+03
     -4.443  0.2602E+02  0.2486E+02  0.1630E+03  0.1628E+03
     -4.389  0.4993E+02  0.4535E+02  0.1656E+03  0.1652E+03
     -4.335  0.9466E+02  0.9834E+02  0.1707E+03  0.1705E+03
     -4.282  0.3612E+02  0.3359E+02  0.1727E+03  0.1723E+03
     -4.228  0.4860E+02  0.5176E+02  0.1753E+03  0.1751E+03
     -4.174  0.3229E+02  0.3590E+02  0.1770E+03  0.1770E+03
     -4.121  0.3087E+02  0.2313E+02  0.1787E+03  0.1782E+03
     -4.067  0.6467E+02  0.6212E+02  0.1821E+03  0.1816E+03
     -4.013  0.1627E+02  0.2654E+02  0.1830E+03  0.1830E+03
     -3.960  0.1398E+02  0.1389E+02  0.1838E+03  0.1837E+03
     -3.906  0.2863E+02  0.2737E+02  0.1853E+03  0.1852E+03
     -3.852  0.5932E+02  0.5793E+02  0.1885E+03  0.1883E+03
     -3.799  0.6045E+02  0.6008E+02  0.1917E+03  0.1915E+03
     -3.745  0.5541E+02  0.5064E+02  0.1947E+03  0.1943E+03
     -3.691  0.5918E+02  0.6111E+02  0.1979E+03  0.1975E+03
     -3.638  0.7099E+02  0.6394E+02  0.2017E+03  0.2010E+03
     -3.584  0.1068E+02  0.2371E+02  0.2023E+03  0.2023E+03
     -3.530  0.6070E+02  0.5044E+02  0.2055E+03  0.2050E+03
     -3.477  0.6330E+02  0.6912E+02  0.2089E+03  0.2087E+03
     -3.423  0.5758E+02  0.6173E+02  0.2120E+03  0.2120E+03
     -3.369  0.6461E+01  0.3328E+01  0.2123E+03  0.2122E+03
     -3.316  0.4950E+02  0.5293E+02  0.2150E+03  0.2150E+03
     -3.262  0.1962E+02  0.1562E+02  0.2161E+03  0.2158E+03
     -3.208  0.8940E+02  0.9228E+02  0.2209E+03  0.2208E+03
     -3.155  0.1080E+03  0.9725E+02  0.2266E+03  0.2260E+03
     -3.101  0.2978E+02  0.4144E+02  0.2282E+03  0.2282E+03
     -3.047  0.4368E+02  0.2871E+02  0.2306E+03  0.2298E+03
     -2.994  0.7348E+02  0.8601E+02  0.2345E+03  0.2344E+03
     -2.940  0.7565E+02  0.7684E+02  0.2386E+03  0.2385E+03
     -2.886  0.9133E+02  0.9254E+02  0.2435E+03  0.2435E+03
     -2.833  0.2791E+02  0.2761E+02  0.2450E+03  0.2450E+03
     -2.779  0.4561E+02  0.3887E+02  0.2474E+03  0.2471E+03
     -2.725  0.8822E+02  0.8597E+02  0.2522E+03  0.2517E+03
     -2.672  0.3614E+02  0.4010E+02  0.2541E+03  0.2538E+03
     -2.618  0.3975E+02  0.4534E+02  0.2562E+03  0.2562E+03
     -2.564  0.2739E-01  0.3981E-02  0.2563E+03  0.2563E+03
     -2.511  0.8275E+02  0.8057E+02  0.2607E+03  0.2606E+03
     -2.457  0.2921E+02  0.3028E+02  0.2623E+03  0.2622E+03
     -2.403  0.6722E+02  0.6304E+02  0.2659E+03  0.2656E+03
     -2.350  0.6145E+02  0.5486E+02  0.2692E+03  0.2685E+03
     -2.296  0.1069E+03  0.1096E+03  0.2749E+03  0.2744E+03
     -2.242  0.6800E+01  0.1575E+02  0.2753E+03  0.2753E+03
     -2.189  0.5560E+02  0.5577E+02  0.2783E+03  0.2782E+03
     -2.135  0.2789E+02  0.2781E+02  0.2797E+03  0.2797E+03
     -2.081  0.1139E+02  0.9037E+01  0.2804E+03  0.2802E+03
     -2.028  0.3057E+02  0.3309E+02  0.2820E+03  0.2820E+03
     -1.974  0.3465E+01  0.1269E+01  0.2822E+03  0.2821E+03
     -1.920  0.5265E+02  0.5463E+02  0.2850E+03  0.2850E+03
     -1.867  0.4740E+02  0.4165E+02  0.2876E+03  0.2872E+03
     -1.813  0.5020E+02  0.5616E+02  0.2903E+03  0.2902E+03
     -1.759  0.5534E+02  0.5323E+02  0.2932E+03  0.2931E+03
     -1.706  0.1557E+01  0.2916E+01  0.2933E+03  0.2933E+03
     -1.652  0.7996E+02  0.5953E+02  0.2976E+03  0.2965E+03
     -1.598  0.6974E+02  0.8697E+02  0.3013E+03  0.3011E+03
     -1.545  0.6335E+02  0.6684E+02  0.3047E+03  0.3047E+03
     -1.491  0.4873E+01  0.5330E+01  0.3050E+03  0.3050E+03
     -1.437  0.1366E+02  0.9619E+01  0.3057E+03  0.3055E+03
     -1.384  0.2821E+02  0.3206E+02  0.3072E+03  0.3072E+03
     -1.330  0.5875E-01  0.2416E+00  0.3072E+03  0.3072E+03
     -1.276  0.3637E+00  0.1832E-01  0.3073E+03  0.3073E+03
     -1.223  0.2820E+02  0.2809E+02  0.3088E+03  0.3088E+03
     -1.169  0.2733E+02  0.2779E+02  0.3102E+03  0.3102E+03
     -1.115  0.1748E-12  0.0000E+00  0.3102E+03  0.3102E+03
     -1.061  0.1255E+02  0.5120E+01  0.3109E+03  0.3105E+03
     -1.008  0.1540E+02  0.2283E+02  0.3117E+03  0.3117E+03
     -0.954  0.0000E+00  0.0000E+00  0.3118E+03  0.3118E+03
     -0.900  0.1164E-03  0.8598E-05  0.3118E+03  0.3118E+03
     -0.847  0.2291E+02  0.1888E+02  0.3130E+03  0.3128E+03
     -0.793  0.4383E+02  0.4178E+02  0.3153E+03  0.3150E+03
     -0.739  0.2984E+02  0.3454E+02  0.3169E+03  0.3169E+03
     -0.686  0.3247E+02  0.2698E+02  0.3187E+03  0.3183E+03
     -0.632  0.5997E+02  0.6084E+02  0.3219E+03  0.3216E+03
     -0.578  0.3156E+02  0.3079E+02  0.3236E+03  0.3232E+03
     -0.525  0.3005E+01  0.9776E+01  0.3238E+03  0.3238E+03
     -0.471  0.0000E+00  0.0000E+00  0.3238E+03  0.3238E+03
     -0.417  0.2240E+00  0.6723E-01  0.3238E+03  0.3238E+03
     -0.364  0.1331E+02  0.8295E+01  0.3245E+03  0.3242E+03
     -0.310  0.5171E+02  0.5683E+02  0.3273E+03  0.3272E+03
     -0.256  0.1343E+03  0.1155E+03  0.3345E+03  0.3334E+03
     -0.203  0.1069E+03  0.1190E+03  0.3402E+03  0.3398E+03
     -0.149  0.4039E+02  0.3321E+02  0.3424E+03  0.3416E+03
     -0.095  0.1034E+03  0.1105E+03  0.3479E+03  0.3475E+03
     -0.042  0.8879E+02  0.8952E+02  0.3527E+03  0.3523E+03
      0.012  0.1169E+03  0.1107E+03  0.3590E+03  0.3583E+03
      0.066  0.3506E+02  0.4512E+02  0.3608E+03  0.3607E+03
      0.119  0.3414E+02  0.3115E+02  0.3627E+03  0.3624E+03
      0.173  0.5248E+02  0.5178E+02  0.3655E+03  0.3652E+03
      0.227  0.1509E+03  0.1353E+03  0.3736E+03  0.3724E+03
      0.280  0.1081E+03  0.1226E+03  0.3794E+03  0.3790E+03
      0.334  0.1256E+03  0.1181E+03  0.3861E+03  0.3853E+03
      0.388  0.6868E+02  0.7322E+02  0.3898E+03  0.3893E+03
      0.441  0.1100E+03  0.1032E+03  0.3957E+03  0.3948E+03
      0.495  0.9434E+02  0.1095E+03  0.4008E+03  0.4007E+03
      0.549  0.4319E+02  0.4336E+02  0.4031E+03  0.4030E+03
      0.602  0.7997E+02  0.7509E+02  0.4074E+03  0.4070E+03
      0.656  0.3701E+02  0.3499E+02  0.4094E+03  0.4089E+03
      0.710  0.4757E+02  0.5268E+02  0.4119E+03  0.4118E+03
      0.763  0.1235E+03  0.1147E+03  0.4186E+03  0.4179E+03
      0.817  0.1215E+03  0.1155E+03  0.4251E+03  0.4241E+03
      0.871  0.1050E+03  0.1160E+03  0.4307E+03  0.4303E+03
      0.924  0.1773E+03  0.1734E+03  0.4402E+03  0.4396E+03
      0.978  0.1232E+03  0.1215E+03  0.4468E+03  0.4462E+03
      1.032  0.1124E+03  0.1149E+03  0.4529E+03  0.4523E+03
      1.085  0.8082E+02  0.8585E+02  0.4572E+03  0.4569E+03
      1.139  0.1501E+03  0.1458E+03  0.4653E+03  0.4648E+03
      1.193  0.9751E+02  0.8353E+02  0.4705E+03  0.4692E+03
      1.246  0.1053E+03  0.1234E+03  0.4762E+03  0.4759E+03
      1.300  0.1125E+03  0.1082E+03  0.4822E+03  0.4817E+03
      1.354  0.1010E+03  0.9926E+02  0.4876E+03  0.4870E+03
      1.407  0.1190E+03  0.1175E+03  0.4940E+03  0.4933E+03
      1.461  0.6193E+02  0.6925E+02  0.4973E+03  0.4970E+03
      1.515  0.1821E+03  0.1667E+03  0.5071E+03  0.5060E+03
      1.568  0.1250E+03  0.1409E+03  0.5138E+03  0.5135E+03
      1.622  0.1304E+03  0.1189E+03  0.5208E+03  0.5199E+03
      1.676  0.7431E+02  0.9005E+02  0.5248E+03  0.5248E+03
      1.729  0.1520E+03  0.1381E+03  0.5330E+03  0.5322E+03
      1.783  0.1056E+03  0.1073E+03  0.5386E+03  0.5379E+03
      1.837  0.8273E+02  0.8628E+02  0.5431E+03  0.5426E+03
      1.890  0.8053E+02  0.8475E+02  0.5474E+03  0.5471E+03
      1.944  0.9032E+02  0.8953E+02  0.5522E+03  0.5519E+03
      1.998  0.8269E+02  0.7986E+02  0.5567E+03  0.5562E+03
      2.051  0.6662E+02  0.6703E+02  0.5602E+03  0.5598E+03
      2.105  0.9703E+02  0.9186E+02  0.5655E+03  0.5647E+03
      2.159  0.1475E+03  0.1539E+03  0.5734E+03  0.5730E+03
      2.212  0.1033E+03  0.9471E+02  0.5789E+03  0.5781E+03
      2.266  0.8297E+02  0.8718E+02  0.5834E+03  0.5827E+03
      2.320  0.7653E+02  0.8484E+02  0.5875E+03  0.5873E+03
      2.373  0.5170E+02  0.5002E+02  0.5902E+03  0.5900E+03
      2.427  0.1057E+03  0.1041E+03  0.5959E+03  0.5956E+03
      2.481  0.5647E+02  0.5960E+02  0.5989E+03  0.5988E+03
      2.534  0.8148E+02  0.7954E+02  0.6033E+03  0.6030E+03
      2.588  0.4097E+02  0.4280E+02  0.6055E+03  0.6053E+03
      2.642  0.9259E+02  0.9143E+02  0.6105E+03  0.6102E+03
      2.696  0.1273E+03  0.1252E+03  0.6173E+03  0.6170E+03
      2.749  0.5747E+02  0.5202E+02  0.6204E+03  0.6198E+03
      2.803  0.1029E+03  0.1019E+03  0.6259E+03  0.6252E+03
      2.857  0.6065E+02  0.6496E+02  0.6292E+03  0.6287E+03
      2.910  0.5446E+02  0.6151E+02  0.6321E+03  0.6320E+03
      2.964  0.1231E+02  0.1384E+02  0.6328E+03  0.6328E+03
      3.018  0.8717E+02  0.6817E+02  0.6374E+03  0.6364E+03
      3.071  0.3831E+02  0.5745E+02  0.6395E+03  0.6395E+03
      3.125  0.3486E+02  0.2820E+02  0.6414E+03  0.6410E+03
      3.179  0.1072E+03  0.1074E+03  0.6471E+03  0.6468E+03
      3.232  0.4946E+02  0.5348E+02  0.6498E+03  0.6496E+03
      3.286  0.4602E+02  0.3740E+02  0.6523E+03  0.6517E+03
      3.340  0.8316E+02  0.5758E+02  0.6567E+03  0.6547E+03
      3.393  0.4810E+02  0.8012E+02  0.6593E+03  0.6590E+03
      3.447  0.5060E+02  0.4663E+02  0.6620E+03  0.6615E+03
      3.501  0.4177E+02  0.4472E+02  0.6643E+03  0.6639E+03
      3.554  0.3947E+02  0.2535E+02  0.6664E+03  0.6653E+03
      3.608  0.7322E+02  0.7037E+02  0.6703E+03  0.6691E+03
      3.662  0.4112E+02  0.6160E+02  0.6725E+03  0.6724E+03
      3.715  0.4160E+02  0.3679E+02  0.6747E+03  0.6744E+03
      3.769  0.2452E+02  0.8122E+01  0.6761E+03  0.6748E+03
      3.823  0.2216E+02  0.4549E+02  0.6772E+03  0.6772E+03
      3.876  0.2785E+02  0.1558E+02  0.6787E+03  0.6781E+03
      3.930  0.4906E+01  0.1721E+02  0.6790E+03  0.6790E+03
      3.984  0.1539E+02  0.1175E+02  0.6798E+03  0.6796E+03
      4.037  0.5434E+02  0.5785E+02  0.6827E+03  0.6827E+03
      4.091  0.1938E+02  0.1153E+02  0.6838E+03  0.6834E+03
      4.145  0.6672E+02  0.5871E+02  0.6874E+03  0.6865E+03
      4.198  0.4913E+02  0.6511E+02  0.6900E+03  0.6900E+03
      4.252  0.2421E+02  0.2008E+02  0.6913E+03  0.6911E+03
      4.306  0.5824E+02  0.5725E+02  0.6944E+03  0.6942E+03
      4.359  0.3014E+02  0.3251E+02  0.6961E+03  0.6959E+03
      4.413  0.4083E+02  0.4323E+02  0.6982E+03  0.6982E+03
      4.467  0.1887E+02  0.1282E+02  0.6993E+03  0.6989E+03
      4.520  0.8430E+02  0.7584E+02  0.7038E+03  0.7030E+03
      4.574  0.5532E+02  0.7021E+02  0.7067E+03  0.7067E+03
      4.628  0.1808E+02  0.1157E+02  0.7077E+03  0.7074E+03
      4.681  0.7300E+02  0.7360E+02  0.7116E+03  0.7113E+03
      4.735  0.8748E+02  0.8643E+02  0.7163E+03  0.7160E+03
      4.789  0.9197E+02  0.9679E+02  0.7213E+03  0.7211E+03
      4.842  0.7701E+02  0.7264E+02  0.7254E+03  0.7250E+03
      4.896  0.4011E+02  0.4495E+02  0.7276E+03  0.7275E+03
      4.950  0.3126E+02  0.2877E+02  0.7292E+03  0.7290E+03
      5.003  0.7422E+02  0.6914E+02  0.7332E+03  0.7327E+03
      5.057  0.4777E+02  0.5644E+02  0.7358E+03  0.7357E+03
      5.111  0.7556E+02  0.7025E+02  0.7398E+03  0.7395E+03
      5.164  0.1425E+03  0.1346E+03  0.7475E+03  0.7467E+03
      5.218  0.7412E+02  0.8643E+02  0.7515E+03  0.7514E+03
      5.272  0.1251E+03  0.1148E+03  0.7582E+03  0.7575E+03
      5.325  0.6276E+02  0.6465E+02  0.7615E+03  0.7610E+03
      5.379  0.7181E+02  0.7188E+02  0.7654E+03  0.7649E+03
      5.433  0.6118E+02  0.6829E+02  0.7687E+03  0.7685E+03
      5.486  0.1012E+03  0.1016E+03  0.7741E+03  0.7740E+03
      5.540  0.1232E+03  0.1120E+03  0.7807E+03  0.7800E+03
      5.594  0.7426E+02  0.7644E+02  0.7847E+03  0.7841E+03
      5.647  0.9045E+02  0.9571E+02  0.7896E+03  0.7892E+03
      5.701  0.1041E+03  0.1001E+03  0.7952E+03  0.7946E+03
      5.755  0.1060E+03  0.1133E+03  0.8008E+03  0.8007E+03
      5.808  0.7618E+02  0.7330E+02  0.8049E+03  0.8046E+03
      5.862  0.5412E+02  0.5457E+02  0.8078E+03  0.8075E+03
      5.916  0.3046E+01  0.8395E+01  0.8080E+03  0.8080E+03
      5.969  0.0000E+00  0.0000E+00  0.8080E+03  0.8080E+03
      6.023  0.0000E+00  0.0000E+00  0.8080E+03  0.8080E+03
      6.077  0.0000E+00  0.0000E+00  0.8080E+03  0.8080E+03
      6.130  0.0000E+00  0.0000E+00  0.8080E+03  0.8080E+03
      6.184  0.0000E+00  0.0000E+00  0.8080E+03  0.8080E+03
      6.238  0.0000E+00  0.0000E+00  0.8080E+03  0.8080E+03
      6.291  0.0000E+00  0.0000E+00  0.8080E+03  0.8080E+03
      6.345  0.0000E+00  0.0000E+00  0.8080E+03  0.8080E+03
      6.399  0.0000E+00  0.0000E+00  0.8080E+03  0.8080E+03
      6.452  0.0000E+00  0.0000E+00  0.8080E+03  0.8080E+03
      6.506  0.0000E+00  0.0000E+00  0.8080E+03  0.8080E+03
      6.560  0.0000E+00  0.0000E+00  0.8080E+03  0.8080E+03
      6.614  0.0000E+00  0.0000E+00  0.8080E+03  0.8080E+03
