       N       E                     dE             d eps       ncg     rms          rms(c)
DAV:   1     0.208681591663E+04    0.20868E+04   -0.20362E+05  4608   0.168E+03
DAV:   2    -0.319005897361E+03   -0.24058E+04   -0.23234E+04  5416   0.206E+02
DAV:   3    -0.554722115653E+03   -0.23572E+03   -0.22875E+03  5904   0.578E+01
DAV:   4    -0.563900096268E+03   -0.91780E+01   -0.89896E+01  5712   0.124E+01
DAV:   5    -0.564295592266E+03   -0.39550E+00   -0.39261E+00  6128   0.252E+00    0.327E+01
DAV:   6    -0.554973575288E+03    0.93220E+01   -0.59521E+01  7520   0.173E+01    0.157E+01
DAV:   7    -0.556042108322E+03   -0.10685E+01   -0.77276E+01  7520   0.216E+01    0.130E+01
DAV:   8    -0.553821708349E+03    0.22204E+01   -0.37859E+01  7528   0.137E+01    0.596E+00
DAV:   9    -0.550388674499E+03    0.34330E+01   -0.15890E+01  6200   0.851E+00    0.281E+00
DAV:  10    -0.550240484522E+03    0.14819E+00   -0.46414E+00  5328   0.313E+00    0.177E+00
DAV:  11    -0.550245122406E+03   -0.46379E-02   -0.92017E-01  5936   0.126E+00    0.966E-01
DAV:  12    -0.550238057436E+03    0.70650E-02   -0.12573E-01  5712   0.618E-01    0.617E-01
DAV:  13    -0.550240235258E+03   -0.21778E-02   -0.40565E-02  5416   0.299E-01    0.364E-01
DAV:  14    -0.550240828411E+03   -0.59315E-03   -0.10759E-02  5280   0.174E-01    0.234E-01
DAV:  15    -0.550241214690E+03   -0.38628E-03   -0.25831E-03  6032   0.820E-02    0.149E-01
DAV:  16    -0.550241276573E+03   -0.61882E-04   -0.14138E-03  5392   0.598E-02    0.772E-02
DAV:  17    -0.550241350905E+03   -0.74332E-04   -0.44387E-04  5448   0.356E-02    0.414E-02
DAV:  18    -0.550241372330E+03   -0.21425E-04   -0.14350E-04  5536   0.175E-02    0.354E-02
DAV:  19    -0.550241389473E+03   -0.17143E-04   -0.23478E-05  5592   0.747E-03    0.301E-02
DAV:  20    -0.550241417569E+03   -0.28096E-04   -0.10517E-05  5368   0.539E-03    0.221E-02
DAV:  21    -0.550241451024E+03   -0.33456E-04   -0.25025E-05  5376   0.799E-03    0.186E-02
DAV:  22    -0.550241461356E+03   -0.10332E-04   -0.97306E-06  5560   0.508E-03    0.175E-02
DAV:  23    -0.550241469921E+03   -0.85645E-05   -0.92196E-06  5296   0.587E-03    0.956E-03
DAV:  24    -0.550241474155E+03   -0.42337E-05   -0.61889E-06  5512   0.433E-03    0.545E-03
DAV:  25    -0.550241474503E+03   -0.34791E-06   -0.13220E-06  5376   0.180E-03    0.393E-03
DAV:  26    -0.550241474536E+03   -0.32996E-07   -0.13349E-07  2880   0.698E-04
   1 F= -.55024147E+03 E0= -.55024109E+03  d E =-.769977E-03  mag=     1.0000
