 vasp.6.4.3 19Mar24 (build Oct 22 2024 11:23:12) complex                        
  
 executed on             LinuxIFC date 2025.06.08  16:16:38
 running   64 mpi-ranks, on    4 nodes
 distrk:  each k-point on   64 cores,    1 groups
 distr:  one band on NCORE=  16 cores,    4 groups


--------------------------------------------------------------------------------------------------------


 INCAR:
   SYSTEM = Si and Ge interface calculation
   ISTART = 0
   ICHARG = 2
   LWAVE = .FALSE.
   LREAL = AUTO
   ENCUT = 700
   ENAUG = 900
   ADDGRID = .TRUE.
   LMAXMIX = 6
   LASPH = .TRUE.
   LMIXTAU = .TRUE.
   NCORE = 16
   NELM = 100
   NBANDS = 288
   EDIFF = 1d-7
   AMIX = 0.6
   ISMEAR = 0
   SIGMA = 0.01
   NELECT = 480
   ISPIN = 2
   NUPDOWN = 1
   LVTOT = .FALSE.
   LVHAR = .TRUE.

 POTCAR:    PAW_PBE Si 05Jan2001                  
 POTCAR:    PAW_PBE Sn 08Apr2002                  
 -----------------------------------------------------------------------------
|                                                                             |
|           W    W    AA    RRRRR   N    N  II  N    N   GGGG   !!!           |
|           W    W   A  A   R    R  NN   N  II  NN   N  G    G  !!!           |
|           W    W  A    A  R    R  N N  N  II  N N  N  G       !!!           |
|           W WW W  AAAAAA  RRRRR   N  N N  II  N  N N  G  GGG   !            |
|           WW  WW  A    A  R   R   N   NN  II  N   NN  G    G                |
|           W    W  A    A  R    R  N    N  II  N    N   GGGG   !!!           |
|                                                                             |
|     You use a magnetic or noncollinear calculation, but did not specify     |
|     the initial magnetic moment with the MAGMOM tag. Note that a            |
|     default of 8.333e-3 will be used for all atoms. This ferromagnetic      |
|     setup may break the symmetry of the crystal, in particular it may       |
|     rule out finding an antiferromagnetic solution. Thence, we              |
|     recommend setting the initial magnetic moment manually or verifying     |
|     carefully that this magnetic setup is desired.                          |
|                                                                             |
 -----------------------------------------------------------------------------

 POTCAR:    PAW_PBE Si 05Jan2001                  
   VRHFIN =Si: s2p2                                                                                 
   LEXCH  = PE                                                                                      
   EATOM  =   103.0669 eV,    7.5752 Ry                                                             
                                                                                                    
   TITEL  = PAW_PBE Si 05Jan2001                                                                    
   LULTRA =        F    use ultrasoft PP ?                                                          
   IUNSCR =        1    unscreen: 0-lin 1-nonlin 2-no                                               
   RPACOR =    1.500    partial core radius                                                         
   POMASS =   28.085; ZVAL   =    4.000    mass and valenz                                          
   RCORE  =    1.900    outmost cutoff radius                                                       
   RWIGS  =    2.480; RWIGS  =    1.312    wigner-seitz radius (au A)                               
   ENMAX  =  245.345; ENMIN  =  184.009 eV                                                          
   ICORE  =        2    local potential                                                             
   LCOR   =        T    correct aug charges                                                         
   LPAW   =        T    paw PP                                                                      
   EAUG   =  322.069                                                                                
   DEXC   =    0.000                                                                                
   RMAX   =    1.950    core radius for proj-oper                                                   
   RAUG   =    1.300    factor for augmentation sphere                                              
   RDEP   =    1.993    radius for radial grids                                                     
   RDEPT  =    1.837    core radius for aug-charge                                                  
                                                                                                    
   Atomic configuration                                                                             
    6 entries                                                                                       
     n  l   j            E        occ.                                                              
     1  0  0.50     -1785.8828   2.0000                                                             
     2  0  0.50      -139.4969   2.0000                                                             
     2  1  1.50       -95.5546   6.0000                                                             
     3  0  0.50       -10.8127   2.0000                                                             
     3  1  0.50        -4.0811   2.0000                                                             
     3  2  1.50        -4.0817   0.0000                                                             
   Description                                                                                      
     l       E           TYP  RCUT    TYP  RCUT                                                     
     0    -10.8127223     23  1.900                                                                 
     0     -7.6451159     23  1.900                                                                 
     1     -4.0811372     23  1.900                                                                 
     1      2.4879257     23  1.900                                                                 
     2     -4.0817478      7  1.900                                                                 
  local pseudopotential read in
  partial core-charges read in
  partial kinetic energy density read in
  atomic valenz-charges read in
  non local Contribution for L=           0  read in
    real space projection operators read in
  non local Contribution for L=           0  read in
    real space projection operators read in
  non local Contribution for L=           1  read in
    real space projection operators read in
  non local Contribution for L=           1  read in
    real space projection operators read in
    PAW grid and wavefunctions read in
 
   number of l-projection  operators is LMAX  =           4
   number of lm-projection operators is LMMAX =           8
 
 POTCAR:    PAW_PBE Sn 08Apr2002                  
   VRHFIN =Sn: s2p2                                                                                 
   LEXCH  = PE                                                                                      
   EATOM  =    94.0860 eV,    6.9151 Ry                                                             
                                                                                                    
   TITEL  = PAW_PBE Sn 08Apr2002                                                                    
   LULTRA =        F    use ultrasoft PP ?                                                          
   IUNSCR =        1    unscreen: 0-lin 1-nonlin 2-no                                               
   RPACOR =    2.000    partial core radius                                                         
   POMASS =  118.710; ZVAL   =    4.000    mass and valenz                                          
   RCORE  =    3.000    outmost cutoff radius                                                       
   RWIGS  =    2.960; RWIGS  =    1.566    wigner-seitz radius (au A)                               
   ENMAX  =  103.236; ENMIN  =   77.427 eV                                                          
   ICORE  =        3    local potential                                                             
   LCOR   =        T    correct aug charges                                                         
   LPAW   =        T    paw PP                                                                      
   EAUG   =  263.585                                                                                
   DEXC   =    0.000                                                                                
   RMAX   =    3.078    core radius for proj-oper                                                   
   RAUG   =    1.300    factor for augmentation sphere                                              
   RDEP   =    3.022    radius for radial grids                                                     
   RDEPT  =    2.655    core radius for aug-charge                                                  
                                                                                                    
   Atomic configuration                                                                             
   13 entries                                                                                       
     n  l   j            E        occ.                                                              
     1  0  0.50    -29007.2859   2.0000                                                             
     2  0  0.50     -4378.8056   2.0000                                                             
     2  1  1.50     -3930.4293   6.0000                                                             
     3  0  0.50      -845.0264   2.0000                                                             
     3  1  1.50      -698.5725   6.0000                                                             
     3  2  2.50      -473.2839  10.0000                                                             
     4  0  0.50      -133.9036   2.0000                                                             
     4  1  1.50       -89.6752   6.0000                                                             
     4  2  2.50       -25.8375  10.0000                                                             
     5  0  0.50       -10.5484   2.0000                                                             
     5  1  0.50        -3.6940   2.0000                                                             
     5  2  1.50        -1.3606   0.0000                                                             
     4  3  2.50        -4.0817   0.0000                                                             
   Description                                                                                      
     l       E           TYP  RCUT    TYP  RCUT                                                     
     0    -10.5483727     23  3.000                                                                 
     0     27.2116520     23  3.000                                                                 
     1     -3.6939829     23  3.000                                                                 
     1      1.9821976     23  3.000                                                                 
     2     -1.3605826     23  3.000                                                                 
     3     -2.7211652     23  3.000                                                                 
  local pseudopotential read in
  partial core-charges read in
  partial kinetic energy density read in
  atomic valenz-charges read in
  non local Contribution for L=           0  read in
    real space projection operators read in
  non local Contribution for L=           0  read in
    real space projection operators read in
  non local Contribution for L=           1  read in
    real space projection operators read in
  non local Contribution for L=           1  read in
    real space projection operators read in
  non local Contribution for L=           2  read in
    real space projection operators read in
    PAW grid and wavefunctions read in
 
   number of l-projection  operators is LMAX  =           5
   number of lm-projection operators is LMMAX =          13
 
 Optimization of the real space projectors (new method)

 maximal supplied QI-value         = 19.84
 optimisation between [QCUT,QGAM] = [ 13.49, 26.99] = [ 50.98,203.92] Ry 
 Optimized for a Real-space Cutoff    1.07 Angstroem

   l    n(q)    QCUT    max X(q) W(low)/X(q) W(high)/X(q)  e(spline) 
   0      9    13.493   159.560    0.22E-03    0.15E-03    0.72E-07
   0      9    13.493   115.863    0.21E-03    0.15E-03    0.71E-07
   1      8    13.493    88.339    0.15E-03    0.11E-03    0.13E-06
   1      8    13.493    48.592    0.15E-03    0.10E-03    0.13E-06
 Optimization of the real space projectors (new method)

 maximal supplied QI-value         = 12.47
 optimisation between [QCUT,QGAM] = [ 12.47, 27.06] = [ 43.56,205.12] Ry 
 Optimized for a Real-space Cutoff    1.58 Angstroem

   l    n(q)    QCUT    max X(q) W(low)/X(q) W(high)/X(q)  e(spline) 
   0     13    12.472    14.688    0.45E-04    0.45E-04    0.25E-05
   0     13    12.472     7.308    0.94E-04    0.11E-03    0.61E-05
   1     12    12.472    45.102    0.34E-03    0.14E-03    0.21E-05
   1     12    12.472    30.691    0.31E-03    0.13E-03    0.20E-05
   2     12    12.472     7.156    0.86E-04    0.11E-03    0.17E-05
 WARNING: PSMAXN for non-local potential too small
          PSMAXN should be >   13.5545592237991       NTYP=           2
  PAW_PBE Si 05Jan2001                  :
 energy of atom  1       EATOM= -103.0669
 kinetic energy error for atom=    0.0003 (will be added to EATOM!!)
  PAW_PBE Sn 08Apr2002                  :
 energy of atom  2       EATOM=  -94.0860
 kinetic energy error for atom=    0.0000 (will be added to EATOM!!)
 
 
 POSCAR: Si+Sn
  positions in direct lattice
  No initial velocities read in


 exchange-correlation table for PE
   RHO(1)=    0.500       N(1)  =     2000
   RHO(2)=  100.500       N(2)  =     4000
 


--------------------------------------------------------------------------------------------------------


 ion  position               nearest neighbor table
   1  0.667  0.645  0.000-  61 2.35  37 2.35  62 2.35 108 3.07
   2  0.667  0.395  0.076-  62 2.35  43 2.35  38 2.35  63 2.35
   3  0.667  0.145  0.151-  63 2.35  44 2.35  64 2.35  39 2.35
   4  0.667  0.895  0.227-  64 2.35  45 2.35  65 2.35  40 2.35
   5  0.667  0.645  0.302-  65 2.35  46 2.35  41 2.35  66 2.35
   6  0.667  0.395  0.378-  66 2.35  47 2.35  42 2.35  97 2.42
   7  0.333  0.312  0.000-  67 2.35  43 2.35  68 2.35  96 2.49 102 2.75
   8  0.333  0.062  0.076-  49 2.35  44 2.35  68 2.35  69 2.35
   9  0.333  0.812  0.151-  69 2.35  50 2.35  45 2.35  70 2.35
  10  0.333  0.562  0.227-  70 2.35  46 2.35  51 2.35  71 2.35
  11  0.333  0.312  0.302-  52 2.35  71 2.35  47 2.35  72 2.35
  12  0.333  0.062  0.378-  72 2.35  48 2.35  53 2.35  85 2.51 115 2.74
  13  0.000  0.979  0.000-  55 2.35  49 2.35  56 2.35  90 3.42
  14  1.000  0.729  0.076-  37 2.35  56 2.35  50 2.35  57 2.35
  15  1.000  0.479  0.151-  38 2.35  51 2.35  58 2.35  57 2.35
  16  1.000  0.229  0.227-  39 2.35  52 2.35  58 2.35  59 2.35
  17  1.000  0.979  0.302-  40 2.35  53 2.35  59 2.35  60 2.35
  18  1.000  0.729  0.378-  60 2.35  54 2.35  41 2.35  79 2.82
  19  0.667  0.145  0.000-  44 2.35  55 2.35  43 2.35 102 3.07
  20  0.667  0.895  0.076-  56 2.35  61 2.35  45 2.35  44 2.35
  21  0.667  0.645  0.151-  57 2.35  62 2.35  46 2.35  45 2.35
  22  0.667  0.395  0.227-  63 2.35  58 2.35  46 2.35  47 2.35
  23  0.667  0.145  0.302-  59 2.35  64 2.35  47 2.35  48 2.35
  24  0.667  0.895  0.378-  60 2.35  48 2.35  65 2.35 103 2.42
  25  0.333  0.812  0.000-  61 2.35  49 2.35  50 2.35  90 2.49 108 2.75
  26  0.333  0.562  0.076-  50 2.35  62 2.35  67 2.35  51 2.35
  27  0.333  0.312  0.151-  63 2.35  51 2.35  68 2.35  52 2.35
  28  0.333  0.062  0.227-  64 2.35  52 2.35  69 2.35  53 2.35
  29  0.333  0.812  0.302-  53 2.35  65 2.35  70 2.35  54 2.35
  30  0.333  0.562  0.378-  54 2.35  66 2.35  71 2.35  91 2.51 109 2.74
  31  0.000  0.479  0.000-  37 2.35  67 2.35  38 2.35  96 3.42
  32  1.000  0.229  0.076-  38 2.35  55 2.35  68 2.35  39 2.35
  33  1.000  0.979  0.151-  56 2.35  39 2.35  69 2.35  40 2.35
  34  1.000  0.729  0.227-  57 2.35  40 2.35  70 2.35  41 2.35
  35  1.000  0.479  0.302-  41 2.35  58 2.35  71 2.35  42 2.35
  36  1.000  0.229  0.378-  42 2.35  72 2.35  59 2.35  73 2.82
  37  0.917  0.645  0.000-  14 2.35  31 2.35   1 2.35 120 2.42
  38  0.917  0.395  0.076-  32 2.35  15 2.35   2 2.35  31 2.35
  39  0.917  0.145  0.151-  16 2.35  33 2.35  32 2.35   3 2.35
  40  0.917  0.895  0.227-  17 2.35  34 2.35  33 2.35   4 2.35
  41  0.917  0.645  0.302-  35 2.35   5 2.35  18 2.35  34 2.35
  42  0.917  0.395  0.378-  36 2.35   6 2.35  35 2.35  97 3.07
  43  0.583  0.312  0.000-   2 2.35   7 2.35  19 2.35  84 2.51 102 2.74
  44  0.583  0.062  0.076-   3 2.35   8 2.35  19 2.35  20 2.35
  45  0.583  0.812  0.151-   4 2.35   9 2.35  21 2.35  20 2.35
  46  0.583  0.562  0.227-   5 2.35  10 2.35  21 2.35  22 2.35
  47  0.583  0.312  0.302-  23 2.35  11 2.35   6 2.35  22 2.35
  48  0.583  0.062  0.378-  12 2.35  24 2.35  23 2.35  85 2.49 103 2.75
  49  0.250  0.979  0.000-   8 2.35  25 2.35  13 2.35  90 2.82
  50  0.250  0.729  0.076-  26 2.35   9 2.35  14 2.35  25 2.35
  51  0.250  0.479  0.151-  27 2.35  15 2.35  10 2.35  26 2.35
  52  0.250  0.229  0.227-  11 2.35  28 2.35  16 2.35  27 2.35
  53  0.250  0.979  0.302-  29 2.35  17 2.35  12 2.35  28 2.35
  54  0.250  0.729  0.378-  30 2.35  18 2.35  29 2.35  91 3.42
  55  0.917  0.145  0.000-  32 2.35  13 2.35  19 2.35 114 2.42
  56  0.917  0.895  0.076-  33 2.35  20 2.35  14 2.35  13 2.35
  57  0.917  0.645  0.151-  34 2.35  21 2.35  15 2.35  14 2.35
  58  0.917  0.395  0.227-  35 2.35  22 2.35  15 2.35  16 2.35
  59  0.917  0.145  0.302-  23 2.35  17 2.35  16 2.35  36 2.35
  60  0.917  0.895  0.378-  18 2.35  24 2.35  17 2.35 103 3.07
  61  0.583  0.812  0.000-   1 2.35  25 2.35  20 2.35  78 2.51 108 2.74
  62  0.583  0.562  0.076-  26 2.35   2 2.35  21 2.35   1 2.35
  63  0.583  0.312  0.151-  27 2.35   3 2.35  22 2.35   2 2.35
  64  0.583  0.062  0.227-  28 2.35   4 2.35  23 2.35   3 2.35
  65  0.583  0.812  0.302-   5 2.35  29 2.35  24 2.35   4 2.35
  66  0.583  0.562  0.378-  30 2.35   6 2.35   5 2.35  91 2.49  97 2.75
  67  0.250  0.479  0.000-  31 2.35   7 2.35  26 2.35  96 2.82
  68  0.250  0.229  0.076-  32 2.35   8 2.35  27 2.35   7 2.35
  69  0.250  0.979  0.151-   9 2.35  33 2.35   8 2.35  28 2.35
  70  0.250  0.729  0.227-  10 2.35  34 2.35  29 2.35   9 2.35
  71  0.250  0.479  0.302-  11 2.35  35 2.35  10 2.35  30 2.35
  72  0.250  0.229  0.378-  12 2.35  36 2.35  11 2.35  85 3.42
  73  0.961  0.096  0.463-  36 2.82 110 2.83 115 2.88 103 2.88
  74  0.711  0.846  0.554- 103 2.83 111 2.83 116 2.88 104 2.88
  75  0.461  0.596  0.644- 112 2.83 104 2.83 105 2.88 117 2.88
  76  0.211  0.346  0.734- 113 2.83 105 2.83 106 2.88 118 2.88
  77  0.961  0.096  0.824- 106 2.83 114 2.83 107 2.88 119 2.88
  78  0.711  0.846  0.915-  61 2.51 107 2.83 108 2.88 120 2.88
  79  0.961  0.596  0.463-  18 2.82 116 2.83 109 2.88  97 2.88
  80  0.711  0.346  0.554- 117 2.83  97 2.83 110 2.88  98 2.88
  81  0.461  0.096  0.644- 118 2.83  98 2.83 111 2.88  99 2.88
  82  0.211  0.846  0.734-  99 2.83 119 2.83 112 2.88 100 2.88
  83  0.961  0.596  0.824- 120 2.83 100 2.83 113 2.88 101 2.88
  84  0.711  0.346  0.915-  43 2.51 101 2.83 102 2.88 114 2.88
  85  0.461  0.096  0.463-  48 2.49  12 2.51  98 2.83 103 2.88 115 2.88  72 3.42
  86  0.211  0.846  0.554- 115 2.83  99 2.83 104 2.88 116 2.88
  87  0.961  0.596  0.644- 100 2.83 116 2.83 105 2.88 117 2.88
  88  0.711  0.346  0.734- 101 2.83 117 2.83 106 2.88 118 2.88
  89  0.461  0.096  0.824- 102 2.83 118 2.83 107 2.88 119 2.88
  90  0.211  0.846  0.915-  25 2.49  49 2.82 119 2.83 108 2.88 120 2.88  13 3.42
  91  0.461  0.596  0.463-  66 2.49  30 2.51 104 2.83  97 2.88 109 2.88  54 3.42
  92  0.211  0.346  0.554- 105 2.83 109 2.83  98 2.88 110 2.88
  93  0.961  0.096  0.644- 106 2.83 110 2.83  99 2.88 111 2.88
  94  0.711  0.846  0.734- 111 2.83 107 2.83 100 2.88 112 2.88
  95  0.461  0.596  0.824- 108 2.83 112 2.83 101 2.88 113 2.88
  96  0.211  0.346  0.915-   7 2.49  67 2.82 113 2.83 102 2.88 114 2.88  31 3.42
  97  0.711  0.471  0.463-   6 2.42  66 2.75  80 2.83  91 2.88  79 2.88  42 3.07
  98  0.461  0.221  0.554-  85 2.83  81 2.83  92 2.88  80 2.88
  99  0.211  0.971  0.644-  82 2.83  86 2.83  81 2.88  93 2.88
 100  0.961  0.721  0.734-  87 2.83  83 2.83  82 2.88  94 2.88
 101  0.711  0.471  0.824-  88 2.83  84 2.83  83 2.88  95 2.88
 102  0.461  0.221  0.915-  43 2.74   7 2.75  89 2.83  84 2.88  96 2.88  19 3.07
 103  0.711  0.971  0.463-  24 2.42  48 2.75  74 2.83  85 2.88  73 2.88  60 3.07
 104  0.461  0.721  0.554-  91 2.83  75 2.83  86 2.88  74 2.88
 105  0.211  0.471  0.644-  76 2.83  92 2.83  87 2.88  75 2.88
 106  0.961  0.221  0.734-  93 2.83  77 2.83  88 2.88  76 2.88
 107  0.711  0.971  0.824-  78 2.83  94 2.83  89 2.88  77 2.88
 108  0.461  0.721  0.915-  61 2.74  25 2.75  95 2.83  90 2.88  78 2.88   1 3.07
 109  0.211  0.471  0.463-  30 2.74  92 2.83  91 2.88  79 2.88
 110  0.961  0.221  0.554-  73 2.83  93 2.83  92 2.88  80 2.88
 111  0.711  0.971  0.644-  94 2.83  74 2.83  93 2.88  81 2.88
 112  0.461  0.721  0.734-  75 2.83  95 2.83  94 2.88  82 2.88
 113  0.211  0.471  0.824-  76 2.83  96 2.83  95 2.88  83 2.88
 114  0.961  0.221  0.915-  55 2.42  77 2.83  84 2.88  96 2.88
 115  0.211  0.971  0.463-  12 2.74  86 2.83  85 2.88  73 2.88
 116  0.961  0.721  0.554-  79 2.83  87 2.83  86 2.88  74 2.88
 117  0.711  0.471  0.644-  88 2.83  80 2.83  87 2.88  75 2.88
 118  0.461  0.221  0.734-  81 2.83  89 2.83  88 2.88  76 2.88
 119  0.211  0.971  0.824-  82 2.83  90 2.83  89 2.88  77 2.88
 120  0.961  0.721  0.915-  37 2.42  83 2.83  78 2.88  90 2.88
 
  LATTYP: Found a simple orthorhombic cell.
 ALAT       =     9.4067678450
 B/A-ratio  =     1.4142136768
 C/A-ratio  =     2.7001845452
  
  Lattice vectors:
  
 A1 = (   9.4067678450,   0.0000000000,   0.0000000000)
 A2 = (   0.0000000000,  13.3031797410,   0.0000000000)
 A3 = (   0.0000000000,   0.0000000000,  25.4000091550)


Analysis of symmetry for initial positions (statically):
=====================================================================
 Subroutine PRICEL returns following result:
 
  LATTYP: Found a simple orthorhombic cell.
 ALAT       =     6.6515898705
 B/A-ratio  =     1.4142134479
 C/A-ratio  =     3.8186372957
  
  Lattice vectors:
  
 A1 = (   0.0000000000,  -6.6515898705,   0.0000000000)
 A2 = (   9.4067678450,   0.0000000000,   0.0000000000)
 A3 = (   0.0000000000,   0.0000000000,  25.4000091550)
 
   2 primitive cells build up your supercell.
 

 Routine SETGRP: Setting up the symmetry group for a 
 simple orthorhombic supercell.


 Subroutine GETGRP returns: Found  1 space group operations
 (whereof  1 operations were pure point group operations)
 out of a pool of  8 trial point group operations.


The static configuration has the point symmetry C_1 .


Analysis of symmetry for dynamics (positions and initial velocities):
=====================================================================
 Subroutine PRICEL returns following result:
 
  LATTYP: Found a simple orthorhombic cell.
 ALAT       =     6.6515898705
 B/A-ratio  =     1.4142134479
 C/A-ratio  =     3.8186372957
  
  Lattice vectors:
  
 A1 = (   0.0000000000,  -6.6515898705,   0.0000000000)
 A2 = (   9.4067678450,   0.0000000000,   0.0000000000)
 A3 = (   0.0000000000,   0.0000000000,  25.4000091550)
 
   2 primitive cells build up your supercell.
 

 Routine SETGRP: Setting up the symmetry group for a 
 simple orthorhombic supercell.


 Subroutine GETGRP returns: Found  1 space group operations
 (whereof  1 operations were pure point group operations)
 out of a pool of  8 trial point group operations.


The dynamic configuration has the point symmetry C_1 .


Analysis of structural, dynamic, and magnetic symmetry:
=====================================================================
 Subroutine PRICEL returns following result:
 
  LATTYP: Found a simple orthorhombic cell.
 ALAT       =     6.6515898705
 B/A-ratio  =     1.4142134479
 C/A-ratio  =     3.8186372957
  
  Lattice vectors:
  
 A1 = (   0.0000000000,  -6.6515898705,   0.0000000000)
 A2 = (   9.4067678450,   0.0000000000,   0.0000000000)
 A3 = (   0.0000000000,   0.0000000000,  25.4000091550)
 
   2 primitive cells build up your supercell.
 

 Routine SETGRP: Setting up the symmetry group for a 
 simple orthorhombic supercell.


 Subroutine GETGRP returns: Found  1 space group operations
 (whereof  1 operations were pure point group operations)
 out of a pool of  8 trial point group operations.


The overall configuration has the point symmetry C_1 .


 Subroutine INISYM returns: Found  1 space group operations
 (whereof  1 operations are pure point group operations),
 and found     2 'primitive' translations


----------------------------------------------------------------------------------------

                                     Primitive cell                                     

  volume of cell :    1589.2776

  direct lattice vectors                    reciprocal lattice vectors
     0.000000000 -6.651589871  0.000000000     0.000000000 -0.150339997  0.000000000
     9.406767845  0.000000000  0.000000000     0.106306440  0.000000000  0.000000000
     0.000000000  0.000000000 25.400009155     0.000000000  0.000000000  0.039370065

  length of vectors
     6.651589871  9.406767845 25.400009155     0.150339997  0.106306440  0.039370065

  position of ions in fractional coordinates (direct lattice)
     0.709632040  0.666666687  0.000000001
     0.209632278  0.666666687  0.075596377
     0.709632396  0.666666627  0.151192755
     0.209632516  0.666666567  0.226789147
     0.709632636  0.666666567  0.302385509
     0.209632874  0.666666508  0.377981931
     0.376298666  0.333333373  0.000000000
     0.876298786  0.333333343  0.075596377
     0.376299024  0.333333284  0.151192755
     0.876299142  0.333333254  0.226789147
     0.376299142  0.333333194  0.302385509
     0.876299382  0.333333164  0.377981931
     0.042965412  0.000000000  0.000000000
     0.542965650  0.999999940  0.075596377
     0.042965770  0.999999940  0.151192755
     0.542965888  0.999999881  0.226789117
     0.042966128  0.999999821  0.302385509
     0.542966366  0.999999821  0.377981961
     0.709632158  0.916666746  0.000000001
     0.209632278  0.916666687  0.075596377
     0.709632396  0.916666627  0.151192755
     0.209632636  0.916666687  0.226789147
     0.709632874  0.916666627  0.302385509
     0.209633112  0.916666508  0.377981931
     0.376298904  0.583333313  0.000000000
     0.876299024  0.583333254  0.075596377
     0.376299024  0.583333313  0.151192755
     0.876299142  0.583333254  0.226789117
     0.376299500  0.583333194  0.302385509
     0.876299738  0.583333135  0.377981931
     0.042965472  0.249999985  0.000000001
     0.542965650  0.249999970  0.075596377
     0.042965650  0.249999925  0.151192755
     0.542965888  0.249999866  0.226789117
     0.042966128  0.249999851  0.302385509
     0.542966366  0.249999791  0.377981931
     0.808686256  0.960515141  0.463176161
     0.308686256  0.710515141  0.553502083
     0.808686376  0.460515022  0.643828034
     0.308686494  0.210515022  0.734153926
     0.808686494  0.960515022  0.824479818
     0.308686494  0.710515022  0.914805710
     0.808686256  0.460515141  0.463176161
     0.308686256  0.210515141  0.553502083
     0.808686376  0.960515022  0.643828034
     0.308686494  0.710515022  0.734153926
     0.808686494  0.460515022  0.824479818
     0.308686494  0.210515022  0.914805710
     0.058686256  0.710515022  0.463176161
     0.558686376  0.460515022  0.553502083
     0.058686494  0.210515022  0.643828034
     0.558686494  0.960515022  0.734153926
     0.058686614  0.710515022  0.824479818
     0.558686734  0.460515022  0.914805710
     0.058686256  0.210515141  0.463176161
     0.558686376  0.960515141  0.553502083
     0.058686494  0.710515022  0.643828034
     0.558686494  0.460515022  0.734153926
     0.058686614  0.210515022  0.824479818
     0.558686734  0.960515022  0.914805710

  ion indices of the primitive-cell ions
   primitive index   ion index
                 1           1
                 2          20
                 3          21
                 4           4
                 5           5
                 6          24
                 7          25
                 8          26
                 9           9
                10          10
                11          29
                12          30
                13          31
                14          14
                15          15
                16          34
                17          35
                18          18
                19          37
                20          56
                21          57
                22          40
                23          41
                24          60
                25          61
                26          62
                27          45
                28          46
                29          65
                30          66
                31          67
                32          50
                33          51
                34          70
                35          71
                36          54
                37          79
                38          74
                39          75
                40          82
                41          83
                42          78
                43          91
                44          86
                45          87
                46          94
                47          95
                48          90
                49          97
                50         104
                51         105
                52         100
                53         101
                54         108
                55         109
                56         116
                57         117
                58         112
                59         113
                60         120

----------------------------------------------------------------------------------------

 
 
 KPOINTS: Automatic KPOINTS generated             

Automatic generation of k-mesh.
 Grid dimensions read from file:
 generate k-points for:    3    2    1

 Generating k-lattice:

  Cartesian coordinates                     Fractional coordinates (reciprocal lattice)
     0.035435480  0.000000000  0.000000000     0.333333333  0.000000000  0.000000000
     0.000000000  0.037584999  0.000000000     0.000000000  0.500000000  0.000000000
     0.000000000  0.000000000  0.039370065     0.000000000  0.000000000  1.000000000

  Length of vectors
     0.035435480  0.037584999  0.039370065

  Shift w.r.t. Gamma in fractional coordinates (k-lattice)
     0.000000000  0.000000000  0.000000000

 
 Subroutine IBZKPT returns following result:
 ===========================================
 
 Found      4 irreducible k-points:
 
 Following reciprocal coordinates:
            Coordinates               Weight
  0.000000  0.000000  0.000000      1.000000
  0.333333  0.000000  0.000000      2.000000
  0.000000  0.500000  0.000000      1.000000
  0.333333  0.500000  0.000000      2.000000
 
 Following cartesian coordinates:
            Coordinates               Weight
  0.000000  0.000000  0.000000      1.000000
  0.035435  0.000000  0.000000      2.000000
  0.000000  0.037585  0.000000      1.000000
  0.035435  0.037585  0.000000      2.000000
 


--------------------------------------------------------------------------------------------------------




 Dimension of arrays:
   k-points           NKPTS =      4   k-points in BZ     NKDIM =      4   number of bands    NBANDS=    288
   number of dos      NEDOS =    301   number of ions     NIONS =    120
   non local maximal  LDIM  =      5   non local SUM 2l+1 LMDIM =     13
   total plane-waves  NPLWV = 967680
   max r-space proj   IRMAX =   5065   max aug-charges    IRDMAX= 234610
   dimension x,y,z NGX =    64 NGY =   90 NGZ =  168
   dimension x,y,z NGXF=   128 NGYF=  180 NGZF=  336
   support grid    NGXF=   256 NGYF=  360 NGZF=  672
   ions per type =              72  48
   NGX,Y,Z   is equivalent  to a cutoff of  11.31, 11.25, 11.00 a.u.
   NGXF,Y,Z  is equivalent  to a cutoff of  22.62, 22.49, 21.99 a.u.

 SYSTEM =  Si and Ge interface calculation         
 POSCAR =  Si+Sn                                   

 Startparameter for this run:
   NWRITE =      2    write-flag & timer
   PREC   = normal    normal or accurate (medium, high low for compatibility)
   ISTART =      0    job   : 0-new  1-cont  2-samecut
   ICHARG =      2    charge: 1-file 2-atom 10-const
   ISPIN  =      2    spin polarized calculation?
   LNONCOLLINEAR =      F non collinear calculations
   LSORBIT =      F    spin-orbit coupling
   INIWAV =      1    electr: 0-lowe 1-rand  2-diag
   LASPH  =      T    aspherical Exc in radial PAW
 Electronic Relaxation 1
   ENCUT  =  700.0 eV  51.45 Ry    7.17 a.u.  20.29 28.70 54.79*2*pi/ulx,y,z
   ENINI  =  700.0     initial cutoff
   ENAUG  =  900.0 eV  augmentation charge cutoff
   NELM   =    100;   NELMIN=  2; NELMDL= -5     # of ELM steps 
   EDIFF  = 0.1E-06   stopping-criterion for ELM
   LREAL  =      T    real-space projection
   NLSPLINE    = F    spline interpolate recip. space projectors
   LCOMPAT=      F    compatible to vasp.4.4
   GGA_COMPAT  = T    GGA compatible to vasp.4.4-vasp.4.6
   LMAXPAW     = -100 max onsite density
   LMAXMIX     =    6 max onsite mixed and CHGCAR
   VOSKOWN=      0    Vosko Wilk Nusair interpolation
   ROPT   =   -0.00050  -0.00050
 Ionic relaxation
   EDIFFG = 0.1E-05   stopping-criterion for IOM
   NSW    =      0    number of steps for IOM
   NBLOCK =      1;   KBLOCK =      1    inner block; outer block 
   IBRION =     -1    ionic relax: 0-MD 1-quasi-New 2-CG
   NFREE  =      0    steps in history (QN), initial steepest desc. (CG)
   ISIF   =      2    stress and relaxation
   IWAVPR =     10    prediction:  0-non 1-charg 2-wave 3-comb
   ISYM   =      2    0-nonsym 1-usesym 2-fastsym
   LCORR  =      T    Harris-Foulkes like correction to forces

   POTIM  = 0.5000    time-step for ionic-motion
   TEIN   =    0.0    initial temperature
   TEBEG  =    0.0;   TEEND  =   0.0 temperature during run
   SMASS  =  -3.00    Nose mass-parameter (am)
   estimated Nose-frequenzy (Omega)   =  0.10E-29 period in steps = 0.13E+47 mass=  -0.202E-26a.u.
   SCALEE = 1.0000    scale energy and forces
   NPACO  =    256;   APACO  = 10.0  distance and # of slots for P.C.
   PSTRESS=    0.0 pullay stress

  Mass of Ions in am
   POMASS =  28.09118.71
  Ionic Valenz
   ZVAL   =   4.00  4.00
  Atomic Wigner-Seitz radii
   RWIGS  =  -1.00 -1.00
  virtual crystal weights 
   VCA    =   1.00  1.00
   NELECT =     480.0000    total number of electrons
   NUPDOWN=       1.0000    fix difference up-down

 DOS related values:
   EMIN   =  10.00;   EMAX   =-10.00  energy-range for DOS
   EFERMI =   0.00;   METHOD = LEGACY      
   ISMEAR =     0;   SIGMA  =   0.01  broadening in eV -4-tet -1-fermi 0-gaus

 Electronic relaxation 2 (details)
   IALGO  =     38    algorithm
   LDIAG  =      T    sub-space diagonalisation (order eigenvalues)
   LSUBROT=      F    optimize rotation matrix (better conditioning)
   TURBO    =      0    0=normal 1=particle mesh
   IRESTART =      0    0=no restart 2=restart with 2 vectors
   NREBOOT  =      0    no. of reboots
   NMIN     =      0    reboot dimension
   EREF     =   0.00    reference energy to select bands
   IMIX   =      4    mixing-type and parameters
     AMIX     =   0.60;   BMIX     =  1.00
     AMIX_MAG =   2.40;   BMIX_MAG =  1.00
     AMIN     =   0.10
     WC   =   100.;   INIMIX=   1;  MIXPRE=   1;  MAXMIX= -45

 Intra band minimization:
   WEIMIN = 0.0000     energy-eigenvalue tresh-hold
   EBREAK =  0.87E-10  absolut break condition
   DEPER  =   0.30     relativ break condition  

   TIME   =   0.40     timestep for ELM

  volume/ion in A,a.u.               =      26.49       178.75
  Fermi-wavevector in a.u.,A,eV,Ry     =   0.871790  1.647445 10.340675  0.760018
  Thomas-Fermi vector in A             =   1.990948
 
 Write flags
   LWAVE        =      F    write WAVECAR
   LDOWNSAMPLE  =      F    k-point downsampling of WAVECAR
   LCHARG       =      T    write CHGCAR
   LVTOT        =      F    write LOCPOT, total local potential
   LVHAR        =      T    write LOCPOT, Hartree potential only
   WRT_POTENTIAL=  hartree ionic  ! write potential to hdf5 file
   LELF         =      F    write electronic localiz. function (ELF)
   LORBIT       =      0    0 simple, 1 ext, 2 COOP (PROOUT), +10 PAW based schemes


 Dipole corrections
   LMONO      =      F    monopole corrections only (constant potential shift)
   LDIPOL     =      F    correct potential (dipole corrections)
   IDIPOL     =      0    1-x, 2-y, 3-z, 4-all directions 
   EPSILON    =  1.0000000 bulk dielectric constant
   LVACPOTAV  =      F  vacuum potentials using an averaging scheme for the charge density
   VACPOTFLAT =  0.1000000 required flatness to determine vacuum potential
 Exchange correlation treatment:
   GGA     = PE    functional components
   XC_C    = 1    coefficients multiplying the functional components
   LIBXC   =     F    Libxc                    
   VOSKOWN =     0    Vosko Wilk Nusair interpolation
   LHFCALC =     F    Hartree Fock is set to
   LHFONE  =     F    Hartree Fock one center treatment
   AEXX    =    0.0000 exact exchange contribution

 Parameters of functionals:
   PE:
     No parameter
 
 Van der Waals corrections
   IVDW    =     0    specifies the selected vdW correction

 Linear response parameters
   LEPSILON=     F    determine dielectric tensor
   LRPA    =     F    only Hartree local field effects (RPA)
   LNABLA  =     F    use nabla operator in PAW spheres
   LVEL    =     F    velocity operator in full k-point grid
   CSHIFT  =0.1000    complex shift for real part using Kramers Kronig
   OMEGAMAX=  -1.0    maximum frequency
   DEG_THRESHOLD= 0.2000000E-02 threshold for treating states as degnerate
   RTIME   =   -0.100 relaxation time in fs
  (WPLASMAI=    0.000 imaginary part of plasma frequency in eV, 0.658/RTIME)
   DFIELD  = 0.0000000 0.0000000 0.0000000 field for delta impulse in time
 
  Optional k-point grid parameters
   LKPOINTS_OPT  =     F    use optional k-point grid
   KPOINTS_OPT_MODE=     1    mode for optional k-point grid
 
 Orbital magnetization related:
   ORBITALMAG=     F  switch on orbital magnetization
   LCHIMAG   =     F  perturbation theory with respect to B field
   DQ        =  0.001000  dq finite difference perturbation B field
   LLRAUG    =     F  two centre corrections for induced B field
   LBONE     =     F  B-component reconstruction in AE one-centre
   LVGVCALC  =     T  calculate vGv susceptibility
   LVGVAPPL  =     F  apply vGv susceptibility instead of pGv for G=0

 Random number generation:
   RANDOM_GENERATOR = DEFAULT
   PCG_SEED         = not used


--------------------------------------------------------------------------------------------------------


 Static calculation
 charge density and potential will be updated during run
 spin polarized calculation
 Variant of blocked Davidson
 Davidson routine will perform the subspace rotation
 perform sub-space diagonalisation
    after iterative eigenvector-optimisation
 modified Broyden-mixing scheme, WC =      100.0
 initial mixing is a Kerker type mixing with AMIX =  0.6000 and BMIX =      1.0000
 Hartree-type preconditioning will be used
 using additional bands           48
 real space projection scheme for non local part
 use partial core corrections
 calculate Harris-corrections to forces 
   (improved forces if not selfconsistent)
 use gradient corrections 
 use of overlap-Matrix (Vanderbilt PP)
 Gauss-broadening in eV      SIGMA  =   0.01


--------------------------------------------------------------------------------------------------------


  energy-cutoff  :      700.00
  volume of cell :     3178.56
      direct lattice vectors                 reciprocal lattice vectors
     9.406767845  0.000000000  0.000000000     0.106306440  0.000000000  0.000000000
     0.000000000 13.303179741  0.000000000     0.000000000  0.075169998  0.000000000
     0.000000000  0.000000000 25.400009155     0.000000000  0.000000000  0.039370065

  length of vectors
     9.406767845 13.303179741 25.400009155     0.106306440  0.075169998  0.039370065


 
 k-points in units of 2pi/SCALE and weight: Automatic KPOINTS generated             
   0.00000000  0.00000000  0.00000000       0.167
   0.03543548  0.00000000  0.00000000       0.333
   0.00000000  0.03758500  0.00000000       0.167
   0.03543548  0.03758500  0.00000000       0.333
 
 k-points in reciprocal lattice and weights: Automatic KPOINTS generated             
   0.00000000  0.00000000  0.00000000       0.167
   0.33333333  0.00000000  0.00000000       0.333
   0.00000000  0.50000000  0.00000000       0.167
   0.33333333  0.50000000  0.00000000       0.333
 
 position of ions in fractional coordinates (direct lattice) 
   0.66666669  0.64518398  0.00000000
   0.66666663  0.39518389  0.07559638
   0.66666663  0.14518382  0.15119275
   0.66666657  0.89518374  0.22678915
   0.66666657  0.64518368  0.30238551
   0.66666651  0.39518350  0.37798196
   0.33333331  0.31185061  0.00000000
   0.33333331  0.06185054  0.07559638
   0.33333328  0.81185049  0.15119275
   0.33333325  0.56185043  0.22678915
   0.33333319  0.31185031  0.30238551
   0.33333316  0.06185019  0.37798196
   0.00000000  0.97851729  0.00000000
   0.99999994  0.72851718  0.07559638
   0.99999994  0.47851712  0.15119275
   0.99999988  0.22851706  0.22678915
   0.99999982  0.97851694  0.30238551
   0.99999982  0.72851682  0.37798196
   0.66666669  0.14518392  0.00000000
   0.66666669  0.89518386  0.07559638
   0.66666663  0.64518380  0.15119275
   0.66666657  0.39518374  0.22678912
   0.66666651  0.14518362  0.30238551
   0.66666651  0.89518356  0.37798193
   0.33333337  0.81185067  0.00000000
   0.33333334  0.56185061  0.07559638
   0.33333331  0.31185058  0.15119275
   0.33333328  0.06185051  0.22678915
   0.33333319  0.81185043  0.30238551
   0.33333316  0.56185031  0.37798193
   0.00000000  0.47851729  0.00000000
   0.99999994  0.22851721  0.07559638
   0.99999994  0.97851712  0.15119275
   0.99999988  0.72851706  0.22678912
   0.99999982  0.47851694  0.30238551
   0.99999982  0.22851688  0.37798196
   0.91666675  0.64518392  0.00000000
   0.91666675  0.39518380  0.07559638
   0.91666675  0.14518379  0.15119275
   0.91666669  0.89518368  0.22678915
   0.91666663  0.64518356  0.30238551
   0.91666663  0.39518344  0.37798196
   0.58333337  0.31185064  0.00000000
   0.58333331  0.06185056  0.07559637
   0.58333331  0.81185049  0.15119275
   0.58333325  0.56185043  0.22678912
   0.58333325  0.31185031  0.30238551
   0.58333319  0.06185025  0.37798193
   0.25000000  0.97851729  0.00000000
   0.24999997  0.72851718  0.07559638
   0.24999992  0.47851718  0.15119275
   0.24999991  0.22851712  0.22678912
   0.24999982  0.97851694  0.30238551
   0.24999979  0.72851682  0.37798193
   0.91666675  0.14518394  0.00000001
   0.91666669  0.89518386  0.07559638
   0.91666663  0.64518380  0.15119275
   0.91666657  0.39518374  0.22678912
   0.91666651  0.14518362  0.30238551
   0.91666651  0.89518344  0.37798193
   0.58333331  0.81185055  0.00000000
   0.58333325  0.56185049  0.07559638
   0.58333325  0.31185043  0.15119275
   0.58333319  0.06185036  0.22678912
   0.58333319  0.81185025  0.30238551
   0.58333313  0.56185013  0.37798193
   0.24999999  0.47851726  0.00000000
   0.24999995  0.22851721  0.07559638
   0.24999992  0.97851712  0.15119275
   0.24999987  0.72851706  0.22678912
   0.24999985  0.47851694  0.30238551
   0.24999982  0.22851682  0.37798196
   0.96051514  0.09565687  0.46317616
   0.71051514  0.84565687  0.55350208
   0.46051502  0.59565681  0.64382803
   0.21051502  0.34565681  0.73415393
   0.96051502  0.09565675  0.82447982
   0.71051502  0.84565675  0.91480571
   0.96051514  0.59565687  0.46317616
   0.71051514  0.34565684  0.55350208
   0.46051502  0.09565675  0.64382803
   0.21051502  0.84565675  0.73415393
   0.96051502  0.59565675  0.82447982
   0.71051502  0.34565669  0.91480571
   0.46051514  0.09565687  0.46317616
   0.21051514  0.84565687  0.55350208
   0.96051502  0.59565681  0.64382803
   0.71051502  0.34565681  0.73415393
   0.46051502  0.09565675  0.82447982
   0.21051502  0.84565675  0.91480571
   0.46051514  0.59565687  0.46317616
   0.21051514  0.34565684  0.55350208
   0.96051502  0.09565675  0.64382803
   0.71051502  0.84565675  0.73415393
   0.46051502  0.59565675  0.82447982
   0.21051502  0.34565669  0.91480571
   0.71051502  0.47065687  0.46317616
   0.46051502  0.22065684  0.55350208
   0.21051502  0.97065675  0.64382803
   0.96051502  0.72065675  0.73415393
   0.71051502  0.47065669  0.82447982
   0.46051502  0.22065669  0.91480571
   0.71051502  0.97065681  0.46317616
   0.46051502  0.72065681  0.55350208
   0.21051502  0.47065675  0.64382803
   0.96051502  0.22065669  0.73415393
   0.71051502  0.97065675  0.82447982
   0.46051502  0.72065663  0.91480571
   0.21051514  0.47065687  0.46317616
   0.96051514  0.22065684  0.55350208
   0.71051502  0.97065675  0.64382803
   0.46051502  0.72065675  0.73415393
   0.21051502  0.47065669  0.82447982
   0.96051502  0.22065669  0.91480571
   0.21051514  0.97065681  0.46317616
   0.96051514  0.72065681  0.55350208
   0.71051502  0.47065675  0.64382803
   0.46051502  0.22065669  0.73415393
   0.21051502  0.97065675  0.82447982
   0.96051502  0.72065663  0.91480571
 
 position of ions in cartesian coordinates  (Angst):
   6.27117875  8.58299845  0.00000003
   6.27117819  5.25720233  1.92014867
   6.27117819  1.93140641  3.84029736
   6.27117763 11.90879022  5.76044641
   6.27117763  8.58299449  7.68059470
   6.27117707  5.25719718  9.60074527
   3.13558909  4.14860468  0.00000003
   3.13558909  0.82280881  1.92014867
   3.13558882 10.80019296  3.84029736
   3.13558854  7.47439724  5.76044641
   3.13558797  4.14860071  7.68059470
   3.13558769  0.82280419  9.60074527
   0.00000000 13.01739144  0.00000003
   9.40676728  9.69159492  1.92014867
   9.40676728  6.36579919  3.84029736
   9.40676673  3.04000347  5.76044641
   9.40676616 13.01738668  7.68059470
   9.40676616  9.69159016  9.60074527
   6.27117875  1.93140780  0.00000005
   6.27117875 11.90879180  1.92014867
   6.27117819  8.58299608  3.84029736
   6.27117763  5.25720035  5.76044565
   6.27117707  1.93140383  7.68059470
   6.27117707 11.90878784  9.60074451
   3.13558965 10.80019535  0.00000000
   3.13558937  7.47439961  1.92014867
   3.13558909  4.14860429  3.84029736
   3.13558882  0.82280841  5.76044641
   3.13558797 10.80019218  7.68059470
   3.13558769  7.47439565  9.60074451
   0.00000000  6.36580157  0.00000000
   9.40676728  3.04000545  1.92014867
   9.40676728 13.01738906  3.84029736
   9.40676673  9.69159334  5.76044565
   9.40676616  6.36579681  7.68059470
   9.40676616  3.04000109  9.60074527
   8.62287127  8.58299767  0.00000003
   8.62287127  5.25720115  1.92014887
   8.62287127  1.93140601  3.84029736
   8.62287072 11.90878942  5.76044641
   8.62287015  8.58299290  7.68059470
   8.62287015  5.25719639  9.60074527
   5.48728162  4.14860508  0.00000005
   5.48728105  0.82280910  1.92014849
   5.48728105 10.80019296  3.84029736
   5.48728050  7.47439724  5.76044565
   5.48728050  4.14860071  7.68059470
   5.48727993  0.82280499  9.60074451
   2.35169196 13.01739144  0.00000005
   2.35169168  9.69159492  1.92014867
   2.35169126  6.36579999  3.84029736
   2.35169112  3.04000425  5.76044565
   2.35169028 13.01738668  7.68059470
   2.35169000  9.69159016  9.60074451
   8.62287127  1.93140800  0.00000023
   8.62287072 11.90879180  1.92014867
   8.62287015  8.58299608  3.84029736
   8.62286959  5.25720035  5.76044565
   8.62286903  1.93140383  7.68059470
   8.62286903 11.90878626  9.60074451
   5.48728105 10.80019376  0.00000000
   5.48728050  7.47439803  1.92014867
   5.48728050  4.14860231  3.84029736
   5.48727993  0.82280652  5.76044565
   5.48727993 10.80018980  7.68059470
   5.48727938  7.47439328  9.60074451
   2.35169182  6.36580117  0.00000003
   2.35169154  3.04000545  1.92014867
   2.35169126 13.01738906  3.84029736
   2.35169070  9.69159334  5.76044565
   2.35169056  6.36579681  7.68059470
   2.35169028  3.04000029  9.60074527
   9.03534294  1.27254056 11.76467873
   6.68365098 11.24992537 14.05895798
   4.33195790  7.92412963 16.35323796
   1.98026594  4.59833470 18.64751644
   9.03534182  1.27253898 20.94179493
   6.68364986 11.24992378 23.23607341
   9.03534294  7.92413043 11.76467873
   6.68365098  4.59833510 14.05895798
   4.33195790  1.27253898 16.35323796
   1.98026594 11.24992378 18.64751644
   9.03534182  7.92412885 20.94179493
   6.68364986  4.59833312 23.23607341
   4.33195902  1.27254056 11.76467873
   1.98026706 11.24992537 14.05895798
   9.03534182  7.92412963 16.35323796
   6.68364986  4.59833470 18.64751644
   4.33195790  1.27253898 20.94179493
   1.98026594 11.24992378 23.23607341
   4.33195902  7.92413043 11.76467873
   1.98026706  4.59833510 14.05895798
   9.03534182  1.27253898 16.35323796
   6.68364986 11.24992378 18.64751644
   4.33195790  7.92412885 20.94179493
   1.98026594  4.59833312 23.23607341
   6.68364986  6.26123296 11.76467873
   4.33195790  2.93543763 14.05895798
   1.98026594 12.91282125 16.35323796
   9.03534182  9.58702632 18.64751644
   6.68364986  6.26123058 20.94179493
   4.33195790  2.93543565 23.23607341
   6.68364986 12.91282204 11.76467873
   4.33195790  9.58702710 14.05895798
   1.98026594  6.26123138 16.35323796
   9.03534182  2.93543565 18.64751644
   6.68364986 12.91282125 20.94179493
   4.33195790  9.58702472 23.23607341
   1.98026706  6.26123296 11.76467873
   9.03534294  2.93543763 14.05895798
   6.68364986 12.91282125 16.35323796
   4.33195790  9.58702632 18.64751644
   1.98026594  6.26123058 20.94179493
   9.03534182  2.93543565 23.23607341
   1.98026706 12.91282204 11.76467873
   9.03534294  9.58702710 14.05895798
   6.68364986  6.26123138 16.35323796
   4.33195790  2.93543565 18.64751644
   1.98026594 12.91282125 20.94179493
   9.03534182  9.58702472 23.23607341
 


--------------------------------------------------------------------------------------------------------


 k-point     1 :   0.0000 0.0000 0.0000  plane waves:  133593
 k-point     2 :   0.3333 0.0000 0.0000  plane waves:  133702
 k-point     3 :   0.0000 0.5000 0.0000  plane waves:  133790
 k-point     4 :   0.3333 0.5000 0.0000  plane waves:  133634

 maximum and minimum number of plane-waves per node :      8393     8315

 maximum number of plane-waves:    133790
 maximum index in each direction: 
   IXMAX=   20   IYMAX=   28   IZMAX=   54
   IXMIN=  -20   IYMIN=  -29   IZMIN=  -54


 real space projection operators:
  total allocation   :      30603.47 KBytes
  max/ min on nodes  :       2086.38       1677.81


 parallel 3D FFT for wavefunctions:
    minimum data exchange during FFTs selected (reduces bandwidth)
 parallel 3D FFT for charge:
    minimum data exchange during FFTs selected (reduces bandwidth)


 total amount of memory used by VASP MPI-rank0   155065. kBytes
=======================================================================

   base      :      30000. kBytes
   nonlr-proj:      12794. kBytes
   fftplans  :      19539. kBytes
   grid      :      14747. kBytes
   one-center:        129. kBytes
   wavefun   :      77856. kBytes
 
     INWAV:  cpu time      0.0000: real time      0.0002
 Broyden mixing: mesh for mixing (old mesh)
   NGX = 41   NGY = 57   NGZ =109
  (NGX  =128   NGY  =180   NGZ  =336)
  gives a total of 254733 points

 initial charge density was supplied:
 charge density of overlapping atoms calculated
 number of electron     480.0000000 magnetization       1.0000000
 keeping initial charge density in first step


--------------------------------------------------------------------------------------------------------


 Maximum index for non-local projection operator          326
 Maximum index for augmentation-charges         4153 (set IRDMAX)


--------------------------------------------------------------------------------------------------------


 First call to EWALD:  gamma=   0.121
 Maximum number of real-space cells 4x 3x 2
 Maximum number of reciprocal cells 2x 3x 4

    FEWALD:  cpu time      0.0035: real time      0.0035


--------------------------------------- Ionic step        1  -------------------------------------------




--------------------------------------- Iteration      1(   1)  ---------------------------------------


    POTLOK:  cpu time      0.2331: real time      0.2351
    SETDIJ:  cpu time      1.2832: real time      1.2914
     EDDAV:  cpu time     14.6276: real time     14.7565
       DOS:  cpu time      0.0015: real time      0.0015
    --------------------------------------------
      LOOP:  cpu time     16.1455: real time     16.2845

 eigenvalue-minimisations  :  4608
 total energy-change (2. order) : 0.2086816E+04  (-0.2036218E+05)
 number of electron     480.0000000 magnetization       1.0000000
 augmentation part      480.0000000 magnetization       1.0000000

 Free energy of the ion-electron system (eV)
  ---------------------------------------------------
  alpha Z        PSCENC =       318.18852309
  Ewald energy   TEWEN  =     -5122.94809298
  -Hartree energ DENC   =     -8018.97562504
  -exchange      EXHF   =         0.00000000
  -V(xc)+E(xc)   XCENC  =     -6352.47086594
  PAW double counting   =     15436.84863564    -8225.15040161
  entropy T*S    EENTRO =        -0.00201536
  eigenvalues    EBANDS =      2114.40167172
  atomic energy  EATOM  =     11936.92408711
  Solvation  Ediel_sol  =         0.00000000
  ---------------------------------------------------
  free energy    TOTEN  =      2086.81591663 eV

  energy without entropy =     2086.81793199  energy(sigma->0) =     2086.81692431


--------------------------------------------------------------------------------------------------------




--------------------------------------- Iteration      1(   2)  ---------------------------------------


     EDDAV:  cpu time     16.5481: real time     16.6941
       DOS:  cpu time      0.0028: real time      0.0028
    --------------------------------------------
      LOOP:  cpu time     16.5509: real time     16.6969

 eigenvalue-minimisations  :  5416
 total energy-change (2. order) :-0.2405822E+04  (-0.2323403E+04)
 number of electron     480.0000000 magnetization       1.0000000
 augmentation part      480.0000000 magnetization       1.0000000

 Free energy of the ion-electron system (eV)
  ---------------------------------------------------
  alpha Z        PSCENC =       318.18852309
  Ewald energy   TEWEN  =     -5122.94809298
  -Hartree energ DENC   =     -8018.97562504
  -exchange      EXHF   =         0.00000000
  -V(xc)+E(xc)   XCENC  =     -6352.47086594
  PAW double counting   =     15436.84863564    -8225.15040161
  entropy T*S    EENTRO =        -0.00270361
  eigenvalues    EBANDS =      -291.41945401
  atomic energy  EATOM  =     11936.92408711
  Solvation  Ediel_sol  =         0.00000000
  ---------------------------------------------------
  free energy    TOTEN  =      -319.00589736 eV

  energy without entropy =     -319.00319375  energy(sigma->0) =     -319.00454555


--------------------------------------------------------------------------------------------------------




--------------------------------------- Iteration      1(   3)  ---------------------------------------


     EDDAV:  cpu time     17.6625: real time     17.8172
       DOS:  cpu time      0.0017: real time      0.0018
    --------------------------------------------
      LOOP:  cpu time     17.6642: real time     17.8189

 eigenvalue-minimisations  :  5904
 total energy-change (2. order) :-0.2357162E+03  (-0.2287491E+03)
 number of electron     480.0000000 magnetization       1.0000000
 augmentation part      480.0000000 magnetization       1.0000000

 Free energy of the ion-electron system (eV)
  ---------------------------------------------------
  alpha Z        PSCENC =       318.18852309
  Ewald energy   TEWEN  =     -5122.94809298
  -Hartree energ DENC   =     -8018.97562504
  -exchange      EXHF   =         0.00000000
  -V(xc)+E(xc)   XCENC  =     -6352.47086594
  PAW double counting   =     15436.84863564    -8225.15040161
  entropy T*S    EENTRO =        -0.00163226
  eigenvalues    EBANDS =      -527.13674365
  atomic energy  EATOM  =     11936.92408711
  Solvation  Ediel_sol  =         0.00000000
  ---------------------------------------------------
  free energy    TOTEN  =      -554.72211565 eV

  energy without entropy =     -554.72048339  energy(sigma->0) =     -554.72129952


--------------------------------------------------------------------------------------------------------




--------------------------------------- Iteration      1(   4)  ---------------------------------------


     EDDAV:  cpu time     17.1858: real time     17.3393
       DOS:  cpu time      0.0029: real time      0.0029
    --------------------------------------------
      LOOP:  cpu time     17.1888: real time     17.3422

 eigenvalue-minimisations  :  5712
 total energy-change (2. order) :-0.9177981E+01  (-0.8989593E+01)
 number of electron     480.0000000 magnetization       1.0000000
 augmentation part      480.0000000 magnetization       1.0000000

 Free energy of the ion-electron system (eV)
  ---------------------------------------------------
  alpha Z        PSCENC =       318.18852309
  Ewald energy   TEWEN  =     -5122.94809298
  -Hartree energ DENC   =     -8018.97562504
  -exchange      EXHF   =         0.00000000
  -V(xc)+E(xc)   XCENC  =     -6352.47086594
  PAW double counting   =     15436.84863564    -8225.15040161
  entropy T*S    EENTRO =        -0.00177157
  eigenvalues    EBANDS =      -536.31458497
  atomic energy  EATOM  =     11936.92408711
  Solvation  Ediel_sol  =         0.00000000
  ---------------------------------------------------
  free energy    TOTEN  =      -563.90009627 eV

  energy without entropy =     -563.89832470  energy(sigma->0) =     -563.89921049


--------------------------------------------------------------------------------------------------------




--------------------------------------- Iteration      1(   5)  ---------------------------------------


     EDDAV:  cpu time     18.1264: real time     18.2990
       DOS:  cpu time      0.0023: real time      0.0023
    CHARGE:  cpu time      1.1624: real time      1.1798
    MIXING:  cpu time      0.0098: real time      0.0098
    --------------------------------------------
      LOOP:  cpu time     19.3009: real time     19.4910

 eigenvalue-minimisations  :  6128
 total energy-change (2. order) :-0.3954960E+00  (-0.3926132E+00)
 number of electron     479.9999996 magnetization       1.0000000
 augmentation part      -68.3488655 magnetization      -0.0997551

 Broyden mixing:
  rms(total) = 0.32678E+01    rms(broyden)= 0.32678E+01
  rms(prec ) = 0.35114E+01
  weight for this iteration     100.00

 Free energy of the ion-electron system (eV)
  ---------------------------------------------------
  alpha Z        PSCENC =       318.18852309
  Ewald energy   TEWEN  =     -5122.94809298
  -Hartree energ DENC   =     -8018.97562504
  -exchange      EXHF   =         0.00000000
  -V(xc)+E(xc)   XCENC  =     -6352.47086594
  PAW double counting   =     15436.84863564    -8225.15040161
  entropy T*S    EENTRO =        -0.00181660
  eigenvalues    EBANDS =      -536.71003594
  atomic energy  EATOM  =     11936.92408711
  Solvation  Ediel_sol  =         0.00000000
  ---------------------------------------------------
  free energy    TOTEN  =      -564.29559227 eV

  energy without entropy =     -564.29377567  energy(sigma->0) =     -564.29468397


--------------------------------------------------------------------------------------------------------




--------------------------------------- Iteration      1(   6)  ---------------------------------------


    POTLOK:  cpu time      0.2324: real time      0.2338
    SETDIJ:  cpu time      1.2853: real time      1.2958
     EDDAV:  cpu time     21.5411: real time     21.7499
       DOS:  cpu time      0.0022: real time      0.0022
    CHARGE:  cpu time      1.1577: real time      1.1681
    MIXING:  cpu time      0.0117: real time      0.0118
    --------------------------------------------
      LOOP:  cpu time     24.2304: real time     24.4616

 eigenvalue-minimisations  :  7520
 total energy-change (2. order) : 0.9322017E+01  (-0.5952063E+01)
 number of electron     479.9999996 magnetization       1.0000000
 augmentation part      -70.2117717 magnetization      -0.0911831

 Broyden mixing:
  rms(total) = 0.15673E+01    rms(broyden)= 0.15673E+01
  rms(prec ) = 0.21579E+01
  weight for this iteration     100.00

 eigenvalues of (default mixing * dielectric matrix)
  average eigenvalue GAMMA=   1.5131
  1.5131

 Free energy of the ion-electron system (eV)
  ---------------------------------------------------
  alpha Z        PSCENC =       318.18852309
  Ewald energy   TEWEN  =     -5122.94809298
  -Hartree energ DENC   =     -8292.21959725
  -exchange      EXHF   =         0.00000000
  -V(xc)+E(xc)   XCENC  =     -6330.43645113
  PAW double counting   =     27087.37083461   -19888.58738819
  entropy T*S    EENTRO =        -0.00180096
  eigenvalues    EBANDS =      -263.26368957
  atomic energy  EATOM  =     11936.92408711
  Solvation  Ediel_sol  =         0.00000000
  ---------------------------------------------------
  free energy    TOTEN  =      -554.97357529 eV

  energy without entropy =     -554.97177433  energy(sigma->0) =     -554.97267481


--------------------------------------------------------------------------------------------------------




--------------------------------------- Iteration      1(   7)  ---------------------------------------


    POTLOK:  cpu time      0.2252: real time      0.2280
    SETDIJ:  cpu time      1.2834: real time      1.2921
     EDDAV:  cpu time     21.5691: real time     21.8516
       DOS:  cpu time      0.0020: real time      0.0020
    CHARGE:  cpu time      1.1681: real time      1.1782
    MIXING:  cpu time      0.0093: real time      0.0094
    --------------------------------------------
      LOOP:  cpu time     24.2572: real time     24.5612

 eigenvalue-minimisations  :  7520
 total energy-change (2. order) :-0.1068533E+01  (-0.7727644E+01)
 number of electron     479.9999996 magnetization       1.0000000
 augmentation part      -67.9667618 magnetization      -0.0985627

 Broyden mixing:
  rms(total) = 0.12980E+01    rms(broyden)= 0.12980E+01
  rms(prec ) = 0.20763E+01
  weight for this iteration     100.00

 eigenvalues of (default mixing * dielectric matrix)
  average eigenvalue GAMMA=   1.1153
  1.8567  0.3739

 Free energy of the ion-electron system (eV)
  ---------------------------------------------------
  alpha Z        PSCENC =       318.18852309
  Ewald energy   TEWEN  =     -5122.94809298
  -Hartree energ DENC   =     -8153.62951882
  -exchange      EXHF   =         0.00000000
  -V(xc)+E(xc)   XCENC  =     -6323.80921016
  PAW double counting   =     32963.22674051   -25769.87706588
  entropy T*S    EENTRO =        -0.00421739
  eigenvalues    EBANDS =      -404.11335379
  atomic energy  EATOM  =     11936.92408711
  Solvation  Ediel_sol  =         0.00000000
  ---------------------------------------------------
  free energy    TOTEN  =      -556.04210832 eV

  energy without entropy =     -556.03789093  energy(sigma->0) =     -556.03999963


--------------------------------------------------------------------------------------------------------




--------------------------------------- Iteration      1(   8)  ---------------------------------------


    POTLOK:  cpu time      0.2275: real time      0.2293
    SETDIJ:  cpu time      1.2824: real time      1.2909
     EDDAV:  cpu time     21.7058: real time     21.8957
       DOS:  cpu time      0.0017: real time      0.0017
    CHARGE:  cpu time      1.1650: real time      1.1748
    MIXING:  cpu time      0.0102: real time      0.0102
    --------------------------------------------
      LOOP:  cpu time     24.3927: real time     24.6026

 eigenvalue-minimisations  :  7528
 total energy-change (2. order) : 0.2220400E+01  (-0.3785878E+01)
 number of electron     479.9999996 magnetization       1.0000000
 augmentation part      -68.5108673 magnetization      -0.0856351

 Broyden mixing:
  rms(total) = 0.59649E+00    rms(broyden)= 0.59649E+00
  rms(prec ) = 0.14684E+01
  weight for this iteration     100.00

 eigenvalues of (default mixing * dielectric matrix)
  average eigenvalue GAMMA=   0.9332
  1.9037  0.4479  0.4479

 Free energy of the ion-electron system (eV)
  ---------------------------------------------------
  alpha Z        PSCENC =       318.18852309
  Ewald energy   TEWEN  =     -5122.94809298
  -Hartree energ DENC   =     -8266.42007326
  -exchange      EXHF   =         0.00000000
  -V(xc)+E(xc)   XCENC  =     -6315.42897649
  PAW double counting   =     42856.11319892   -35667.87572126
  entropy T*S    EENTRO =        -0.00272487
  eigenvalues    EBANDS =      -292.37192860
  atomic energy  EATOM  =     11936.92408711
  Solvation  Ediel_sol  =         0.00000000
  ---------------------------------------------------
  free energy    TOTEN  =      -553.82170835 eV

  energy without entropy =     -553.81898347  energy(sigma->0) =     -553.82034591


--------------------------------------------------------------------------------------------------------




--------------------------------------- Iteration      1(   9)  ---------------------------------------


    POTLOK:  cpu time      0.2256: real time      0.2280
    SETDIJ:  cpu time      1.2849: real time      1.2932
     EDDAV:  cpu time     18.4853: real time     18.6477
       DOS:  cpu time      0.0022: real time      0.0022
    CHARGE:  cpu time      1.1596: real time      1.1698
    MIXING:  cpu time      0.0097: real time      0.0098
    --------------------------------------------
      LOOP:  cpu time     21.1673: real time     21.3508

 eigenvalue-minimisations  :  6200
 total energy-change (2. order) : 0.3433034E+01  (-0.1588977E+01)
 number of electron     479.9999996 magnetization       1.0000000
 augmentation part      -68.4426882 magnetization      -0.1113117

 Broyden mixing:
  rms(total) = 0.28051E+00    rms(broyden)= 0.28051E+00
  rms(prec ) = 0.39245E+00
  weight for this iteration     100.00

 eigenvalues of (default mixing * dielectric matrix)
  average eigenvalue GAMMA=   0.8528
  1.8900  0.8260  0.4665  0.2288

 Free energy of the ion-electron system (eV)
  ---------------------------------------------------
  alpha Z        PSCENC =       318.18852309
  Ewald energy   TEWEN  =     -5122.94809298
  -Hartree energ DENC   =     -8281.42557428
  -exchange      EXHF   =         0.00000000
  -V(xc)+E(xc)   XCENC  =     -6314.42709887
  PAW double counting   =     44261.27187180   -37073.64949483
  entropy T*S    EENTRO =        -0.00087924
  eigenvalues    EBANDS =      -274.32201628
  atomic energy  EATOM  =     11936.92408711
  Solvation  Ediel_sol  =         0.00000000
  ---------------------------------------------------
  free energy    TOTEN  =      -550.38867450 eV

  energy without entropy =     -550.38779526  energy(sigma->0) =     -550.38823488


--------------------------------------------------------------------------------------------------------




--------------------------------------- Iteration      1(  10)  ---------------------------------------


    POTLOK:  cpu time      0.2268: real time      0.2282
    SETDIJ:  cpu time      1.2831: real time      1.2921
     EDDAV:  cpu time     16.2837: real time     16.4262
       DOS:  cpu time      0.0056: real time      0.0056
    CHARGE:  cpu time      1.1617: real time      1.1722
    MIXING:  cpu time      0.0106: real time      0.0106
    --------------------------------------------
      LOOP:  cpu time     18.9715: real time     19.1350

 eigenvalue-minimisations  :  5328
 total energy-change (2. order) : 0.1481900E+00  (-0.4641409E+00)
 number of electron     479.9999996 magnetization       1.0000000
 augmentation part      -68.5503090 magnetization      -0.1117655

 Broyden mixing:
  rms(total) = 0.17659E+00    rms(broyden)= 0.17659E+00
  rms(prec ) = 0.20186E+00
  weight for this iteration     100.00

 eigenvalues of (default mixing * dielectric matrix)
  average eigenvalue GAMMA=   0.8067
  1.8332  0.9902  0.5807  0.2804  0.3488

 Free energy of the ion-electron system (eV)
  ---------------------------------------------------
  alpha Z        PSCENC =       318.18852309
  Ewald energy   TEWEN  =     -5122.94809298
  -Hartree energ DENC   =     -8274.05403325
  -exchange      EXHF   =         0.00000000
  -V(xc)+E(xc)   XCENC  =     -6314.57864511
  PAW double counting   =     44475.54953480   -37287.87316309
  entropy T*S    EENTRO =        -0.00097826
  eigenvalues    EBANDS =      -281.44771684
  atomic energy  EATOM  =     11936.92408711
  Solvation  Ediel_sol  =         0.00000000
  ---------------------------------------------------
  free energy    TOTEN  =      -550.24048452 eV

  energy without entropy =     -550.23950626  energy(sigma->0) =     -550.23999539


--------------------------------------------------------------------------------------------------------




--------------------------------------- Iteration      1(  11)  ---------------------------------------


    POTLOK:  cpu time      0.2243: real time      0.2272
    SETDIJ:  cpu time      1.2818: real time      1.2899
     EDDAV:  cpu time     17.7110: real time     17.8686
       DOS:  cpu time      0.0021: real time      0.0021
    CHARGE:  cpu time      1.1589: real time      1.1694
    MIXING:  cpu time      0.0087: real time      0.0087
    --------------------------------------------
      LOOP:  cpu time     20.3867: real time     20.5660

 eigenvalue-minimisations  :  5936
 total energy-change (2. order) :-0.4637884E-02  (-0.9201658E-01)
 number of electron     479.9999996 magnetization       1.0000000
 augmentation part      -68.5572027 magnetization      -0.1053799

 Broyden mixing:
  rms(total) = 0.96603E-01    rms(broyden)= 0.96603E-01
  rms(prec ) = 0.10932E+00
  weight for this iteration     100.00

 eigenvalues of (default mixing * dielectric matrix)
  average eigenvalue GAMMA=   0.8133
  1.7596  0.8935  0.8935  0.6046  0.4637  0.2649

 Free energy of the ion-electron system (eV)
  ---------------------------------------------------
  alpha Z        PSCENC =       318.18852309
  Ewald energy   TEWEN  =     -5122.94809298
  -Hartree energ DENC   =     -8269.79517089
  -exchange      EXHF   =         0.00000000
  -V(xc)+E(xc)   XCENC  =     -6315.02066275
  PAW double counting   =     44564.28438021   -37376.37002721
  entropy T*S    EENTRO =        -0.00051366
  eigenvalues    EBANDS =      -285.50764531
  atomic energy  EATOM  =     11936.92408711
  Solvation  Ediel_sol  =         0.00000000
  ---------------------------------------------------
  free energy    TOTEN  =      -550.24512241 eV

  energy without entropy =     -550.24460875  energy(sigma->0) =     -550.24486558


--------------------------------------------------------------------------------------------------------




--------------------------------------- Iteration      1(  12)  ---------------------------------------


    POTLOK:  cpu time      0.2260: real time      0.2277
    SETDIJ:  cpu time      1.2826: real time      1.2916
     EDDAV:  cpu time     17.2790: real time     17.4503
       DOS:  cpu time      0.0019: real time      0.0019
    CHARGE:  cpu time      1.1598: real time      1.1701
    MIXING:  cpu time      0.0089: real time      0.0090
    --------------------------------------------
      LOOP:  cpu time     19.9583: real time     20.1506

 eigenvalue-minimisations  :  5712
 total energy-change (2. order) : 0.7064970E-02  (-0.1257286E-01)
 number of electron     479.9999996 magnetization       1.0000000
 augmentation part      -68.5524878 magnetization      -0.1051446

 Broyden mixing:
  rms(total) = 0.61684E-01    rms(broyden)= 0.61684E-01
  rms(prec ) = 0.66861E-01
  weight for this iteration     100.00

 eigenvalues of (default mixing * dielectric matrix)
  average eigenvalue GAMMA=   0.8693
  1.6914  1.1704  1.1704  0.6706  0.6706  0.2660  0.4456

 Free energy of the ion-electron system (eV)
  ---------------------------------------------------
  alpha Z        PSCENC =       318.18852309
  Ewald energy   TEWEN  =     -5122.94809298
  -Hartree energ DENC   =     -8271.98373555
  -exchange      EXHF   =         0.00000000
  -V(xc)+E(xc)   XCENC  =     -6315.10619360
  PAW double counting   =     44273.76719224   -37085.78634007
  entropy T*S    EENTRO =        -0.00062105
  eigenvalues    EBANDS =      -283.29287661
  atomic energy  EATOM  =     11936.92408711
  Solvation  Ediel_sol  =         0.00000000
  ---------------------------------------------------
  free energy    TOTEN  =      -550.23805744 eV

  energy without entropy =     -550.23743638  energy(sigma->0) =     -550.23774691


--------------------------------------------------------------------------------------------------------




--------------------------------------- Iteration      1(  13)  ---------------------------------------


    POTLOK:  cpu time      0.2250: real time      0.2269
    SETDIJ:  cpu time      1.2838: real time      1.2927
     EDDAV:  cpu time     16.5419: real time     16.6898
       DOS:  cpu time      0.0013: real time      0.0013
    CHARGE:  cpu time      1.1649: real time      1.1756
    MIXING:  cpu time      0.0099: real time      0.0099
    --------------------------------------------
      LOOP:  cpu time     19.2269: real time     19.3963

 eigenvalue-minimisations  :  5416
 total energy-change (2. order) :-0.2177822E-02  (-0.4056451E-02)
 number of electron     479.9999996 magnetization       1.0000000
 augmentation part      -68.5670746 magnetization      -0.1018484

 Broyden mixing:
  rms(total) = 0.36415E-01    rms(broyden)= 0.36415E-01
  rms(prec ) = 0.41673E-01
  weight for this iteration     100.00

 eigenvalues of (default mixing * dielectric matrix)
  average eigenvalue GAMMA=   0.9181
  1.6351  1.5404  1.5404  0.2662  0.6640  0.6640  0.4482  0.5869

 Free energy of the ion-electron system (eV)
  ---------------------------------------------------
  alpha Z        PSCENC =       318.18852309
  Ewald energy   TEWEN  =     -5122.94809298
  -Hartree energ DENC   =     -8272.09704284
  -exchange      EXHF   =         0.00000000
  -V(xc)+E(xc)   XCENC  =     -6315.13271582
  PAW double counting   =     44016.26286643   -36828.25536480
  entropy T*S    EENTRO =        -0.00065738
  eigenvalues    EBANDS =      -283.18183807
  atomic energy  EATOM  =     11936.92408711
  Solvation  Ediel_sol  =         0.00000000
  ---------------------------------------------------
  free energy    TOTEN  =      -550.24023526 eV

  energy without entropy =     -550.23957788  energy(sigma->0) =     -550.23990657


--------------------------------------------------------------------------------------------------------




--------------------------------------- Iteration      1(  14)  ---------------------------------------


    POTLOK:  cpu time      0.2271: real time      0.2286
    SETDIJ:  cpu time      1.2828: real time      1.2911
     EDDAV:  cpu time     16.2328: real time     16.3766
       DOS:  cpu time      0.0021: real time      0.0021
    CHARGE:  cpu time      1.1639: real time      1.1743
    MIXING:  cpu time      0.0102: real time      0.0103
    --------------------------------------------
      LOOP:  cpu time     18.9189: real time     19.0829

 eigenvalue-minimisations  :  5280
 total energy-change (2. order) :-0.5931528E-03  (-0.1075926E-02)
 number of electron     479.9999996 magnetization       1.0000000
 augmentation part      -68.5670960 magnetization      -0.1004929

 Broyden mixing:
  rms(total) = 0.23397E-01    rms(broyden)= 0.23397E-01
  rms(prec ) = 0.24380E-01
  weight for this iteration     100.00

 eigenvalues of (default mixing * dielectric matrix)
  average eigenvalue GAMMA=   0.9375
  1.7783  1.6421  1.6421  0.7453  0.7453  0.2662  0.6779  0.4511  0.4890

 Free energy of the ion-electron system (eV)
  ---------------------------------------------------
  alpha Z        PSCENC =       318.18852309
  Ewald energy   TEWEN  =     -5122.94809298
  -Hartree energ DENC   =     -8272.56352039
  -exchange      EXHF   =         0.00000000
  -V(xc)+E(xc)   XCENC  =     -6315.05593891
  PAW double counting   =     43963.15950080   -36775.18853210
  entropy T*S    EENTRO =        -0.00076496
  eigenvalues    EBANDS =      -282.75609006
  atomic energy  EATOM  =     11936.92408711
  Solvation  Ediel_sol  =         0.00000000
  ---------------------------------------------------
  free energy    TOTEN  =      -550.24082841 eV

  energy without entropy =     -550.24006345  energy(sigma->0) =     -550.24044593


--------------------------------------------------------------------------------------------------------




--------------------------------------- Iteration      1(  15)  ---------------------------------------


    POTLOK:  cpu time      0.2201: real time      0.2232
    SETDIJ:  cpu time      1.2843: real time      1.2927
     EDDAV:  cpu time     18.0626: real time     18.2220
       DOS:  cpu time      0.0020: real time      0.0020
    CHARGE:  cpu time      1.1628: real time      1.1731
    MIXING:  cpu time      0.0103: real time      0.0103
    --------------------------------------------
      LOOP:  cpu time     20.7421: real time     20.9233

 eigenvalue-minimisations  :  6032
 total energy-change (2. order) :-0.3862799E-03  (-0.2583098E-03)
 number of electron     479.9999996 magnetization       1.0000000
 augmentation part      -68.5650685 magnetization      -0.1010315

 Broyden mixing:
  rms(total) = 0.14890E-01    rms(broyden)= 0.14890E-01
  rms(prec ) = 0.16589E-01
  weight for this iteration     100.00

 eigenvalues of (default mixing * dielectric matrix)
  average eigenvalue GAMMA=   0.9566
  1.8250  1.6968  1.6968  0.8919  0.8919  0.2661  0.7174  0.6232  0.4436  0.5130

 Free energy of the ion-electron system (eV)
  ---------------------------------------------------
  alpha Z        PSCENC =       318.18852309
  Ewald energy   TEWEN  =     -5122.94809298
  -Hartree energ DENC   =     -8272.82350816
  -exchange      EXHF   =         0.00000000
  -V(xc)+E(xc)   XCENC  =     -6315.01172562
  PAW double counting   =     43987.36250666   -36799.41492896
  entropy T*S    EENTRO =        -0.00074420
  eigenvalues    EBANDS =      -282.51733162
  atomic energy  EATOM  =     11936.92408711
  Solvation  Ediel_sol  =         0.00000000
  ---------------------------------------------------
  free energy    TOTEN  =      -550.24121469 eV

  energy without entropy =     -550.24047049  energy(sigma->0) =     -550.24084259


--------------------------------------------------------------------------------------------------------




--------------------------------------- Iteration      1(  16)  ---------------------------------------


[...]
   0.267E-01 -.312E+00 0.330E+02   0.787E-01 0.237E+00 -.333E+02   -.131E+00 0.173E-01 0.255E+00   0.408E-04 0.752E-04 0.142E-03
   -.150E+00 -.324E+00 -.336E+02   0.877E-01 0.237E+00 0.333E+02   -.307E-03 0.245E-01 0.297E+00   -.196E-04 0.483E-04 -.106E-03
   0.274E+00 0.130E+01 -.107E+03   -.892E+00 -.201E+01 0.106E+03   0.375E+00 0.490E+00 0.107E+01   -.700E-04 -.395E-04 -.726E-04
   -.131E+02 -.194E+02 -.149E+03   0.130E+02 0.186E+02 0.146E+03   0.509E+00 0.112E+01 -.140E+00   -.114E-03 -.200E-03 0.170E-03
   -.127E+02 -.254E+02 0.171E+03   0.112E+02 0.258E+02 -.169E+03   0.130E+01 -.590E-01 -.166E+01   -.981E-04 -.248E-04 0.611E-03
   0.847E+00 0.216E+01 0.102E+03   -.893E+00 -.284E+01 -.102E+03   0.471E-02 0.305E+00 -.625E+00   -.199E-03 -.114E-03 0.540E-03
   -.109E+00 -.282E+00 0.338E+02   0.869E-01 0.338E+00 -.341E+02   -.884E-01 -.188E+00 0.125E+00   0.303E-04 0.121E-03 0.143E-04
   0.109E-01 -.273E+00 -.340E+02   0.796E-01 0.326E+00 0.341E+02   -.142E+00 -.173E+00 -.141E+00   0.804E-04 0.611E-04 -.164E-03
   0.606E+00 0.259E+01 -.101E+03   -.711E+00 -.257E+01 0.101E+03   -.593E-01 -.352E+00 -.385E+00   0.614E-04 -.747E-04 0.131E-04
   -.903E+01 -.203E+02 -.175E+03   0.854E+01 0.206E+02 0.174E+03   0.608E+00 -.488E-02 0.109E+01   -.101E-03 -.139E-03 0.186E-03
   0.352E+01 -.385E+01 -.158E+03   -.294E+01 0.423E+01 0.158E+03   -.364E+00 0.185E+00 -.106E+01   0.187E-03 -.993E-05 0.553E-03
   0.729E+00 0.340E+01 -.983E+02   -.500E+00 -.311E+01 0.978E+02   -.102E+00 -.590E+00 0.730E+00   -.152E-04 -.123E-04 0.359E-03
   0.355E-01 0.112E+01 -.330E+02   0.163E-01 -.118E+01 0.330E+02   -.643E-01 -.263E+00 -.786E-01   -.201E-04 0.791E-05 -.315E-03
   0.114E-01 0.127E+01 0.331E+02   -.352E-01 -.125E+01 -.330E+02   0.365E-01 -.344E+00 -.549E-01   -.129E-04 0.260E-04 -.691E-03
   -.305E+00 0.205E+01 0.981E+02   0.258E+00 -.201E+01 -.983E+02   0.496E-01 -.328E+00 0.212E+00   0.700E-04 -.120E-03 -.644E-03
   -.103E+02 -.201E+02 0.166E+03   0.106E+02 0.200E+02 -.166E+03   0.496E+00 0.787E+00 -.920E+00   0.140E-03 0.702E-04 -.115E-03
   0.352E+01 -.385E+01 -.158E+03   -.294E+01 0.423E+01 0.158E+03   -.364E+00 0.185E+00 -.106E+01   0.186E-03 -.337E-04 0.558E-03
   0.729E+00 0.340E+01 -.983E+02   -.500E+00 -.311E+01 0.978E+02   -.102E+00 -.590E+00 0.730E+00   -.168E-04 0.142E-05 0.349E-03
   0.355E-01 0.112E+01 -.330E+02   0.163E-01 -.118E+01 0.330E+02   -.643E-01 -.263E+00 -.786E-01   -.243E-04 -.913E-06 -.315E-03
   0.114E-01 0.127E+01 0.331E+02   -.352E-01 -.125E+01 -.330E+02   0.365E-01 -.344E+00 -.549E-01   -.128E-04 0.261E-04 -.655E-03
   -.305E+00 0.205E+01 0.981E+02   0.258E+00 -.201E+01 -.983E+02   0.496E-01 -.328E+00 0.212E+00   0.551E-04 -.340E-04 -.685E-03
   -.103E+02 -.201E+02 0.166E+03   0.106E+02 0.200E+02 -.166E+03   0.496E+00 0.787E+00 -.920E+00   0.115E-03 0.808E-05 -.155E-03
   -.242E+01 -.182E+02 -.181E+03   0.268E+01 0.177E+02 0.183E+03   0.144E+00 0.181E+01 0.187E+01   -.246E-03 -.440E-04 0.414E-03
   -.596E+00 0.119E+01 -.963E+02   0.501E+00 -.157E+01 0.969E+02   0.208E+00 -.168E-01 -.540E+00   0.230E-05 0.501E-04 0.198E-03
   -.362E-01 0.131E+01 -.330E+02   -.163E-01 -.123E+01 0.329E+02   0.947E-01 -.266E+00 0.964E-01   0.232E-04 0.235E-04 -.293E-03
   -.592E-02 0.120E+01 0.329E+02   0.352E-01 -.115E+01 -.329E+02   -.341E-01 -.278E+00 0.806E-01   0.222E-04 0.436E-04 -.701E-03
   0.230E+00 0.297E+01 0.970E+02   -.257E+00 -.268E+01 -.964E+02   -.162E+00 -.769E+00 -.664E+00   -.503E-04 -.727E-04 -.747E-03
   0.102E+02 -.204E+01 0.174E+03   -.108E+02 0.189E+01 -.175E+03   -.814E+00 0.788E+00 -.751E+00   -.117E-03 -.460E-04 -.142E-03
   -.242E+01 -.182E+02 -.181E+03   0.268E+01 0.177E+02 0.183E+03   0.144E+00 0.181E+01 0.187E+01   -.248E-03 -.587E-04 0.421E-03
   -.596E+00 0.119E+01 -.963E+02   0.501E+00 -.157E+01 0.969E+02   0.208E+00 -.168E-01 -.540E+00   0.290E-05 0.619E-04 0.183E-03
   -.362E-01 0.131E+01 -.330E+02   -.163E-01 -.123E+01 0.329E+02   0.947E-01 -.266E+00 0.964E-01   0.250E-04 0.185E-04 -.283E-03
   -.591E-02 0.120E+01 0.329E+02   0.352E-01 -.115E+01 -.329E+02   -.341E-01 -.278E+00 0.806E-01   0.201E-04 0.365E-04 -.675E-03
   0.230E+00 0.297E+01 0.970E+02   -.257E+00 -.268E+01 -.964E+02   -.162E+00 -.769E+00 -.664E+00   -.410E-04 0.158E-04 -.770E-03
   0.102E+02 -.204E+01 0.174E+03   -.108E+02 0.189E+01 -.175E+03   -.814E+00 0.788E+00 -.751E+00   -.906E-04 -.161E-03 -.223E-03
   -.636E+01 0.298E+01 -.181E+03   0.582E+01 -.344E+01 0.181E+03   0.959E+00 0.286E+00 0.172E+01   0.273E-04 -.405E-04 0.349E-03
   -.384E+00 -.297E+01 -.967E+02   0.537E+00 0.308E+01 0.968E+02   -.118E-01 0.424E+00 -.198E+00   -.125E-03 0.166E-04 0.286E-03
   -.781E-01 -.104E+01 -.329E+02   -.166E-01 0.118E+01 0.329E+02   0.106E+00 0.197E+00 -.938E-02   0.124E-04 -.511E-04 -.359E-03
   -.707E-03 -.122E+01 0.327E+02   0.348E-01 0.125E+01 -.329E+02   0.390E-01 0.133E+00 0.200E+00   -.145E-04 -.199E-04 -.635E-03
   0.176E+00 -.177E+01 0.960E+02   -.230E+00 0.201E+01 -.964E+02   -.435E-01 0.112E+00 0.562E+00   0.720E-04 0.755E-04 -.798E-03
   0.747E+01 0.226E+02 0.171E+03   -.672E+01 -.226E+02 -.172E+03   -.209E+00 -.156E+01 0.429E+00   -.179E-03 0.157E-04 -.151E-03
   -.636E+01 0.298E+01 -.181E+03   0.582E+01 -.344E+01 0.181E+03   0.959E+00 0.286E+00 0.172E+01   0.397E-05 -.326E-04 0.362E-03
   -.384E+00 -.297E+01 -.967E+02   0.537E+00 0.308E+01 0.968E+02   -.118E-01 0.424E+00 -.198E+00   -.122E-03 0.128E-04 0.305E-03
   -.781E-01 -.104E+01 -.329E+02   -.166E-01 0.118E+01 0.329E+02   0.106E+00 0.197E+00 -.938E-02   0.121E-04 -.315E-04 -.370E-03
   -.703E-03 -.122E+01 0.327E+02   0.348E-01 0.125E+01 -.329E+02   0.390E-01 0.133E+00 0.200E+00   -.174E-04 -.435E-04 -.642E-03
   0.176E+00 -.177E+01 0.960E+02   -.230E+00 0.201E+01 -.964E+02   -.435E-01 0.112E+00 0.562E+00   0.861E-04 0.369E-04 -.738E-03
   0.747E+01 0.226E+02 0.171E+03   -.672E+01 -.226E+02 -.172E+03   -.209E+00 -.156E+01 0.429E+00   -.194E-03 0.148E-03 -.168E-03
   0.420E+01 0.164E+02 -.159E+03   -.510E+01 -.168E+02 0.159E+03   0.358E+00 -.432E-01 -.757E+00   0.163E-04 0.499E-04 0.617E-03
   0.156E+00 -.201E+01 -.983E+02   -.539E+00 0.161E+01 0.978E+02   0.186E+00 0.677E+00 0.592E+00   0.141E-03 0.624E-06 0.273E-03
   0.177E-01 -.136E+01 -.333E+02   0.165E-01 0.123E+01 0.330E+02   -.284E-01 0.324E+00 0.225E+00   -.143E-04 -.419E-04 -.228E-03
   -.101E-01 -.117E+01 0.330E+02   -.348E-01 0.115E+01 -.330E+02   -.183E-01 0.325E+00 0.249E-01   0.323E-05 -.157E-04 -.663E-03
   -.709E-01 -.226E+01 0.979E+02   0.228E+00 0.268E+01 -.983E+02   0.880E-02 -.359E-01 0.131E+00   -.971E-04 0.885E-04 -.704E-03
   -.762E+01 -.278E+01 0.169E+03   0.744E+01 0.237E+01 -.168E+03   0.373E+00 0.131E+01 -.185E+01   0.122E-03 -.145E-03 -.992E-04
   0.420E+01 0.164E+02 -.159E+03   -.510E+01 -.168E+02 0.159E+03   0.358E+00 -.432E-01 -.757E+00   0.349E-04 0.607E-04 0.628E-03
   0.156E+00 -.201E+01 -.983E+02   -.539E+00 0.161E+01 0.978E+02   0.186E+00 0.677E+00 0.592E+00   0.137E-03 -.106E-04 0.278E-03
   0.177E-01 -.136E+01 -.333E+02   0.165E-01 0.123E+01 0.330E+02   -.284E-01 0.324E+00 0.225E+00   -.167E-04 -.219E-04 -.232E-03
   -.101E-01 -.117E+01 0.330E+02   -.348E-01 0.115E+01 -.330E+02   -.183E-01 0.325E+00 0.249E-01   0.541E-05 -.247E-04 -.681E-03
   -.709E-01 -.226E+01 0.979E+02   0.228E+00 0.268E+01 -.983E+02   0.880E-02 -.359E-01 0.131E+00   -.119E-03 0.407E-04 -.613E-03
   -.762E+01 -.278E+01 0.169E+03   0.744E+01 0.237E+01 -.168E+03   0.373E+00 0.131E+01 -.185E+01   0.134E-03 0.569E-04 -.105E-03
 -----------------------------------------------------------------------------------------------
   0.116E+01 0.336E+01 -.404E+01   -.977E-14 -.711E-14 0.105E-11   -.998E+00 -.343E+01 0.404E+01   -.336E-03 -.496E-03 0.583E-02
 
 
 POSITION                                       TOTAL-FORCE (eV/Angst)
 -----------------------------------------------------------------------------------
      6.27118      8.58300      0.00000        -0.670681     -0.039137     -0.178742
      6.27118      5.25720      1.92015        -0.093897      0.245751      0.082906
      6.27118      1.93141      3.84030         0.019750      0.124899     -0.023323
      6.27118     11.90879      5.76045         0.056108      0.128060      0.148153
      6.27118      8.58299      7.68059        -0.099744      0.400850      0.103383
      6.27118      5.25720      9.60075        -0.049083     -0.749427     -1.645856
      3.13559      4.14860      0.00000         0.321688      0.060962      2.131514
      3.13559      0.82281      1.92015         0.321336      0.101739     -0.032491
      3.13559     10.80019      3.84030         0.098801      0.119711     -0.006152
      3.13559      7.47440      5.76045         0.099634      0.091509      0.085804
      3.13559      4.14860      7.68059         0.023760     -0.038405      0.114855
      3.13559      0.82280      9.60075        -1.279845     -0.486168     -2.153412
      0.00000     13.01739      0.00000         0.037346     -0.375666     -0.119426
      9.40677      9.69159      1.92015        -0.057693      0.192189     -0.017062
      9.40677      6.36580      3.84030         0.026091      0.050453      0.017698
      9.40677      3.04000      5.76045        -0.021828      0.044946      0.041744
      9.40677     13.01739      7.68059         0.161916     -0.027879      0.181902
      9.40677      9.69159      9.60075         0.026290     -0.571218      0.514084
      6.27118      1.93141      0.00000        -0.670681     -0.039137     -0.178742
      6.27118     11.90879      1.92015        -0.093897      0.245751      0.082906
      6.27118      8.58300      3.84030         0.019750      0.124899     -0.023323
      6.27118      5.25720      5.76045         0.056108      0.128060      0.148153
      6.27118      1.93140      7.68059        -0.099744      0.400850      0.103383
      6.27118     11.90879      9.60074        -0.049083     -0.749427     -1.645856
      3.13559     10.80020      0.00000         0.321688      0.060962      2.131514
      3.13559      7.47440      1.92015         0.321336      0.101739     -0.032491
      3.13559      4.14860      3.84030         0.098801      0.119711     -0.006152
      3.13559      0.82281      5.76045         0.099634      0.091509      0.085804
      3.13559     10.80019      7.68059         0.023760     -0.038405      0.114855
      3.13559      7.47440      9.60074        -1.279845     -0.486168     -2.153412
      0.00000      6.36580      0.00000         0.037346     -0.375666     -0.119426
      9.40677      3.04001      1.92015        -0.057693      0.192189     -0.017062
      9.40677     13.01739      3.84030         0.026091      0.050453      0.017698
      9.40677      9.69159      5.76045        -0.021828      0.044946      0.041744
      9.40677      6.36580      7.68059         0.161916     -0.027879      0.181902
      9.40677      3.04000      9.60075         0.026290     -0.571218      0.514084
      8.62287      8.58300      0.00000        -0.265850     -1.145521      1.281385
      8.62287      5.25720      1.92015        -0.062542     -0.008970     -0.233776
      8.62287      1.93141      3.84030        -0.003212     -0.073021     -0.071583
      8.62287     11.90879      5.76045        -0.011798     -0.077908     -0.015394
      8.62287      8.58299      7.68059         0.028092     -0.063370      0.096454
      8.62287      5.25720      9.60075         0.261627      0.117055     -0.149972
      5.48728      4.14861      0.00000         0.752482      0.532456      1.950679
      5.48728      0.82281      1.92015        -0.025984     -0.009306     -0.045374
      5.48728     10.80019      3.84030        -0.026909     -0.056852     -0.024618
      5.48728      7.47440      5.76045        -0.063932     -0.061713     -0.001983
      5.48728      4.14860      7.68059        -0.245454     -0.216793      0.022367
      5.48728      0.82280      9.60074         0.489570      0.308537     -2.174673
      2.35169     13.01739      0.00000        -0.213392      0.343697      0.048861
      2.35169      9.69159      1.92015        -0.042464     -0.372776     -0.188844
      2.35169      6.36580      3.84030        -0.111555     -0.131078     -0.111685
      2.35169      3.04000      5.76045        -0.052328     -0.118476     -0.031215
      2.35169     13.01739      7.68059        -0.165568     -0.335048     -0.119360
      2.35169      9.69159      9.60074         0.114048      0.280108      0.336491
      8.62287      1.93141      0.00000        -0.265850     -1.145521      1.281385
      8.62287     11.90879      1.92015        -0.062542     -0.008970     -0.233776
      8.62287      8.58300      3.84030        -0.003212     -0.073021     -0.071583
      8.62287      5.25720      5.76045        -0.011798     -0.077908     -0.015394
      8.62287      1.93140      7.68059         0.028092     -0.063370      0.096454
      8.62287     11.90879      9.60074         0.261627      0.117055     -0.149972
      5.48728     10.80019      0.00000         0.752482      0.532456      1.950679
      5.48728      7.47440      1.92015        -0.025984     -0.009306     -0.045374
      5.48728      4.14860      3.84030        -0.026909     -0.056852     -0.024618
      5.48728      0.82281      5.76045        -0.063932     -0.061713     -0.001983
      5.48728     10.80019      7.68059        -0.245454     -0.216793      0.022367
      5.48728      7.47439      9.60074         0.489570      0.308537     -2.174673
      2.35169      6.36580      0.00000        -0.213392      0.343697      0.048861
      2.35169      3.04001      1.92015        -0.042464     -0.372776     -0.188844
      2.35169     13.01739      3.84030        -0.111555     -0.131078     -0.111685
      2.35169      9.69159      5.76045        -0.052328     -0.118476     -0.031215
      2.35169      6.36580      7.68059        -0.165568     -0.335048     -0.119360
      2.35169      3.04000      9.60075         0.114048      0.280108      0.336491
      9.03534      1.27254     11.76468         0.218095      0.565843     -0.750345
      6.68365     11.24993     14.05896         0.126480     -0.301246      0.220318
      4.33196      7.92413     16.35324        -0.013926     -0.326510      0.007594
      1.98027      4.59833     18.64752         0.011439     -0.329736      0.030884
      9.03534      1.27254     20.94179         0.000823     -0.288136      0.091624
      6.68365     11.24992     23.23607         0.797842      0.672854     -0.622631
      9.03534      7.92413     11.76468         0.218095      0.565843     -0.750345
      6.68365      4.59834     14.05896         0.126480     -0.301246      0.220318
      4.33196      1.27254     16.35324        -0.013926     -0.326510      0.007594
      1.98027     11.24992     18.64752         0.011439     -0.329736      0.030884
      9.03534      7.92413     20.94179         0.000823     -0.288136      0.091624
      6.68365      4.59833     23.23607         0.797842      0.672854     -0.622631
      4.33196      1.27254     11.76468         0.400353      1.236363      3.079858
      1.98027     11.24993     14.05896         0.111547     -0.395770      0.067653
      9.03534      7.92413     16.35324         0.040852     -0.184077      0.020382
      6.68365      4.59833     18.64752        -0.006207     -0.229758      0.041604
      4.33196      1.27254     20.94179        -0.190442     -0.474409     -0.056507
      1.98027     11.24992     23.23607        -1.416429      0.646778     -1.408059
      4.33196      7.92413     11.76468         0.400353      1.236363      3.079858
      1.98027      4.59834     14.05896         0.111547     -0.395770      0.067653
      9.03534      1.27254     16.35324         0.040852     -0.184077      0.020382
      6.68365     11.24992     18.64752        -0.006207     -0.229758      0.041604
      4.33196      7.92413     20.94179        -0.190442     -0.474409     -0.056507
      1.98027      4.59833     23.23607        -1.416429      0.646778     -1.408059
      6.68365      6.26123     11.76468         0.419331     -0.173532      2.563110
      4.33196      2.93544     14.05896         0.140412      0.531461     -0.026472
      1.98027     12.91282     16.35324         0.009512      0.339797      0.038487
      9.03534      9.58703     18.64752         0.071700      0.170479     -0.019273
      6.68365      6.26123     20.94179        -0.098432      0.349192      0.154418
      4.33196      2.93544     23.23607         0.538724     -1.627283     -0.962392
      6.68365     12.91282     11.76468         0.419331     -0.173532      2.563110
      4.33196      9.58703     14.05896         0.140412      0.531461     -0.026472
      1.98027      6.26123     16.35324         0.009512      0.339797      0.038487
      9.03534      2.93544     18.64752         0.071700      0.170479     -0.019273
      6.68365     12.91282     20.94179        -0.098432      0.349192      0.154418
      4.33196      9.58702     23.23607         0.538724     -1.627283     -0.962392
      1.98027      6.26123     11.76468        -0.538422     -0.431294     -0.814235
      9.03534      2.93544     14.05896        -0.197725      0.278175      0.094000
      6.68365     12.91282     16.35324         0.004459      0.196987     -0.019274
      4.33196      9.58703     18.64752        -0.064564      0.305844     -0.006513
      1.98027      6.26123     20.94179         0.164784      0.380693     -0.223458
      9.03534      2.93544     23.23607         0.195013      0.903092     -1.314115
      1.98027     12.91282     11.76468        -0.538422     -0.431294     -0.814235
      9.03534      9.58703     14.05896        -0.197725      0.278175      0.094000
      6.68365      6.26123     16.35324         0.004459      0.196987     -0.019274
      4.33196      2.93544     18.64752        -0.064564      0.305844     -0.006513
      1.98027     12.91282     20.94179         0.164784      0.380693     -0.223458
      9.03534      9.58702     23.23607         0.195013      0.903092     -1.314115
 -----------------------------------------------------------------------------------
    total drift:                                0.161198     -0.067392      0.002703


--------------------------------------------------------------------------------------------------------



  FREE ENERGIE OF THE ION-ELECTRON SYSTEM (eV)
  ---------------------------------------------------
  free  energy   TOTEN  =      -550.24147454 eV

  energy  without entropy=     -550.24070456  energy(sigma->0) =     -550.24108955
 


--------------------------------------------------------------------------------------------------------


    POTLOK:  cpu time      1.5027: real time      1.5120


--------------------------------------------------------------------------------------------------------


     LOOP+:  cpu time    548.1177: real time    553.7315
    4ORBIT:  cpu time      0.0000: real time      0.0000

 total amount of memory used by VASP MPI-rank0   155065. kBytes
=======================================================================

   base      :      30000. kBytes
   nonlr-proj:      12794. kBytes
   fftplans  :      19539. kBytes
   grid      :      14747. kBytes
   one-center:        129. kBytes
   wavefun   :      77856. kBytes
 
  
  
 General timing and accounting informations for this job:
 ========================================================
  
                  Total CPU time used (sec):      607.703
                            User time (sec):      569.739
                          System time (sec):       37.964
                         Elapsed time (sec):      616.146
  
                   Maximum memory used (kb):      444740.
                   Average memory used (kb):          N/A
  
                          Minor page faults:       373413
                          Major page faults:           31
                 Voluntary context switches:         1868
