Si and Ge interface calculation         
           1
    13.303180    0.000000    0.000000
     6.651589   14.873406    0.000000
     0.000000    0.000000    8.192406
   Si   C 
    36    84
Direct configuration=     1
   0.98290563  0.65811950  0.00000000
   0.78290558  0.55811930  0.14823596
   0.58290541  0.45811909  0.29647192
   0.98290563  0.32478613  0.00000000
   0.78290558  0.22478597  0.14823596
   0.58290541  0.12478580  0.29647192
   0.98290563  0.99145281  0.00000000
   0.78290558  0.89145267  0.14823596
   0.58290541  0.79145253  0.29647192
   0.63290566  0.69145268  0.07411782
   0.43290559  0.59145248  0.22235380
   0.23290552  0.49145243  0.37058973
   0.63290566  0.35811943  0.07411782
   0.43290559  0.25811928  0.22235380
   0.23290552  0.15811914  0.37058973
   0.63290566  0.02478614  0.07411782
   0.43290559  0.92478597  0.22235380
   0.23290552  0.82478583  0.37058973
   0.48290563  0.65811950  0.00000000
   0.28290555  0.55811930  0.14823596
   0.08290544  0.45811909  0.29647192
   0.48290563  0.32478613  0.00000000
   0.28290555  0.22478595  0.14823596
   0.08290544  0.12478581  0.29647192
   0.48290563  0.99145281  0.00000000
   0.28290555  0.89145267  0.14823596
   0.08290544  0.79145253  0.29647192
   0.13290568  0.69145274  0.07411784
   0.93290555  0.59145248  0.22235380
   0.73290551  0.49145240  0.37058973
   0.13290568  0.35811949  0.07411784
   0.93290555  0.25811928  0.22235380
   0.73290551  0.15811913  0.37058973
   0.13290568  0.02478614  0.07411784
   0.93290555  0.92478597  0.22235380
   0.73290551  0.82478583  0.37058973
   0.71885443  0.83328432  0.75831026
   0.06171143  0.86185598  0.56360275
   0.39028287  0.84757018  0.66095644
   0.00456858  0.69042724  0.75831026
   0.34742570  0.71899885  0.56360275
   0.67599726  0.70471305  0.66095644
   0.29028285  0.54757011  0.75831026
   0.63313997  0.57614171  0.56360275
   0.96171141  0.56185591  0.66095644
   0.57599723  0.40471294  0.75831020
   0.91885436  0.43328455  0.56360269
   0.24742579  0.41899878  0.66095644
   0.86171150  0.26185581  0.75831020
   0.20456862  0.29042742  0.56360269
   0.53313994  0.27614164  0.66095644
   0.14742577  0.11899869  0.75831020
   0.49028277  0.14757030  0.56360269
   0.81885433  0.13328452  0.66095644
   0.43314016  0.97614157  0.75831026
   0.77599716  0.00471318  0.56360269
   0.10456872  0.99042738  0.66095650
   0.16885424  0.93328434  0.80698705
   0.51171136  0.96185595  0.61227953
   0.84028280  0.94757009  0.70963329
   0.45456850  0.79042721  0.80698705
   0.79742563  0.81899881  0.61227953
   0.12599707  0.80471295  0.70963329
   0.74028277  0.64757007  0.80698711
   0.08313990  0.67614168  0.61227948
   0.41171145  0.66185588  0.70963323
   0.02599716  0.50471300  0.80698699
   0.36885428  0.53328455  0.61227948
   0.69742560  0.51899880  0.70963323
   0.31171155  0.36185589  0.80698711
   0.65456867  0.39042747  0.61227948
   0.98313999  0.37614170  0.70963317
   0.59742570  0.21899870  0.80698711
   0.94028288  0.24757029  0.61227953
   0.26885438  0.23328449  0.70963323
   0.88314009  0.07614157  0.80698699
   0.22599721  0.10471316  0.61227953
   0.55456853  0.09042737  0.70963323
   0.21885431  0.83328438  0.75831020
   0.56171143  0.86185587  0.56360269
   0.89028275  0.84757018  0.66095650
   0.50456881  0.69042724  0.75831026
   0.84742582  0.71899885  0.56360269
   0.17599726  0.70471305  0.66095644
   0.79028308  0.54757011  0.75831026
   0.13314009  0.57614171  0.56360269
   0.46171153  0.56185591  0.66095644
   0.07599723  0.40471300  0.75831026
   0.41885424  0.43328458  0.56360269
   0.74742568  0.41899881  0.66095644
   0.36171138  0.26185593  0.75831026
   0.70456862  0.29042745  0.56360269
   0.03314006  0.27614164  0.66095644
   0.64742589  0.11899872  0.75831026
   0.99028289  0.14757027  0.56360275
   0.31885433  0.13328448  0.66095650
   0.93314004  0.97614163  0.75831026
   0.27599716  0.00471318  0.56360275
   0.60456860  0.99042738  0.66095650
   0.66885424  0.93328446  0.80698705
   0.01171136  0.96185601  0.61227953
   0.34028280  0.94757015  0.70963323
   0.95456862  0.79042727  0.80698705
   0.29742575  0.81899887  0.61227953
   0.62599707  0.80471301  0.70963323
   0.24028289  0.64757007  0.80698705
   0.58314014  0.67614168  0.61227953
   0.91171157  0.66185582  0.70963323
   0.52599704  0.50471300  0.80698699
   0.86885428  0.53328449  0.61227948
   0.19742572  0.51899874  0.70963323
   0.81171155  0.36185584  0.80698699
   0.15456867  0.39042741  0.61227948
   0.48314011  0.37614164  0.70963323
   0.09742558  0.21899866  0.80698705
   0.44028282  0.24757026  0.61227948
   0.76885414  0.23328449  0.70963323
   0.38313997  0.07614164  0.80698699
   0.72599721  0.10471314  0.61227953
   0.05456853  0.09042737  0.70963323
