 264 264   0   0
  0.2774202E+02  0.1958175E-08  0.1958175E-08  0.1910025E-08  0.5000000E-15
  1.000000000000000E-004
  CAR 
 Si and Ge interface calculation         
      6.63432142     -9.26208699  301      4.03939544      1.00000000
     -9.262  0.0000E+00  0.0000E+00  0.0000E+00  0.0000E+00
     -9.209  0.0000E+00  0.0000E+00  0.0000E+00  0.0000E+00
     -9.156  0.0000E+00  0.0000E+00  0.0000E+00  0.0000E+00
     -9.103  0.0000E+00  0.0000E+00  0.0000E+00  0.0000E+00
     -9.050  0.0000E+00  0.0000E+00  0.0000E+00  0.0000E+00
     -8.997  0.0000E+00  0.0000E+00  0.0000E+00  0.0000E+00
     -8.944  0.0000E+00  0.0000E+00  0.0000E+00  0.0000E+00
     -8.891  0.0000E+00  0.0000E+00  0.0000E+00  0.0000E+00
     -8.838  0.0000E+00  0.0000E+00  0.0000E+00  0.0000E+00
     -8.785  0.0000E+00  0.0000E+00  0.0000E+00  0.0000E+00
     -8.732  0.0000E+00  0.0000E+00  0.0000E+00  0.0000E+00
     -8.679  0.0000E+00  0.0000E+00  0.0000E+00  0.0000E+00
     -8.626  0.0000E+00  0.0000E+00  0.0000E+00  0.0000E+00
     -8.573  0.8705E-05  0.3066E-05  0.4612E-06  0.1625E-06
     -8.520  0.1808E+02  0.1761E+02  0.9578E+00  0.9333E+00
     -8.467  0.1967E+02  0.2013E+02  0.2000E+01  0.2000E+01
     -8.414  0.1952E+01  0.1474E+01  0.2103E+01  0.2078E+01
     -8.361  0.1692E+02  0.1740E+02  0.3000E+01  0.3000E+01
     -8.308  0.1842E+02  0.1820E+02  0.3976E+01  0.3964E+01
     -8.255  0.4499E+00  0.6761E+00  0.4000E+01  0.4000E+01
     -8.202  0.5816E-01  0.3181E-01  0.4003E+01  0.4002E+01
     -8.149  0.1915E+02  0.1905E+02  0.5018E+01  0.5011E+01
     -8.096  0.3096E+02  0.3021E+02  0.6658E+01  0.6612E+01
     -8.043  0.1591E+02  0.1677E+02  0.7501E+01  0.7500E+01
     -7.990  0.1035E+02  0.1009E+02  0.8050E+01  0.8035E+01
     -7.937  0.2473E+02  0.2419E+02  0.9360E+01  0.9317E+01
     -7.884  0.2647E+01  0.3460E+01  0.9500E+01  0.9500E+01
     -7.831  0.1394E+02  0.1304E+02  0.1024E+02  0.1019E+02
     -7.778  0.3305E+02  0.3383E+02  0.1199E+02  0.1198E+02
     -7.725  0.5554E+00  0.5516E+00  0.1202E+02  0.1201E+02
     -7.672  0.2542E+02  0.2481E+02  0.1337E+02  0.1333E+02
     -7.619  0.1218E+02  0.1279E+02  0.1401E+02  0.1401E+02
     -7.566  0.3116E+02  0.3079E+02  0.1566E+02  0.1564E+02
     -7.513  0.1579E+02  0.1628E+02  0.1650E+02  0.1650E+02
     -7.460  0.7270E+01  0.6692E+01  0.1688E+02  0.1685E+02
     -7.408  0.3446E+01  0.3618E+01  0.1707E+02  0.1705E+02
     -7.355  0.2593E+02  0.2560E+02  0.1844E+02  0.1840E+02
     -7.302  0.3455E+02  0.3390E+02  0.2027E+02  0.2020E+02
     -7.249  0.1501E+02  0.1532E+02  0.2107E+02  0.2101E+02
     -7.196  0.3320E+02  0.3320E+02  0.2283E+02  0.2277E+02
     -7.143  0.3529E+02  0.3428E+02  0.2470E+02  0.2459E+02
     -7.090  0.3298E+02  0.3460E+02  0.2644E+02  0.2642E+02
     -7.037  0.1183E+02  0.1180E+02  0.2707E+02  0.2704E+02
     -6.984  0.2795E+02  0.2804E+02  0.2855E+02  0.2853E+02
     -6.931  0.4144E+02  0.3961E+02  0.3075E+02  0.3063E+02
     -6.878  0.6044E+02  0.6082E+02  0.3395E+02  0.3385E+02
     -6.825  0.3036E+02  0.3163E+02  0.3556E+02  0.3553E+02
     -6.772  0.5034E+02  0.4957E+02  0.3823E+02  0.3815E+02
     -6.719  0.3265E+02  0.3315E+02  0.3996E+02  0.3991E+02
     -6.666  0.4342E+02  0.4240E+02  0.4226E+02  0.4216E+02
     -6.613  0.4034E+02  0.4152E+02  0.4439E+02  0.4436E+02
     -6.560  0.3767E+02  0.3733E+02  0.4639E+02  0.4634E+02
     -6.507  0.3025E+02  0.3117E+02  0.4799E+02  0.4799E+02
     -6.454  0.4474E+02  0.4141E+02  0.5036E+02  0.5018E+02
     -6.401  0.8104E+02  0.8252E+02  0.5466E+02  0.5455E+02
     -6.348  0.1478E+02  0.1471E+02  0.5544E+02  0.5533E+02
     -6.295  0.4339E+02  0.4314E+02  0.5774E+02  0.5762E+02
     -6.242  0.7309E+02  0.7389E+02  0.6161E+02  0.6153E+02
     -6.189  0.5005E+02  0.4896E+02  0.6427E+02  0.6413E+02
     -6.136  0.6879E+02  0.6897E+02  0.6791E+02  0.6778E+02
     -6.083  0.5968E+02  0.6020E+02  0.7107E+02  0.7097E+02
     -6.030  0.7012E+02  0.6926E+02  0.7479E+02  0.7464E+02
     -5.977  0.6819E+02  0.6838E+02  0.7840E+02  0.7827E+02
     -5.924  0.7422E+02  0.7475E+02  0.8233E+02  0.8223E+02
     -5.871  0.5939E+02  0.5994E+02  0.8548E+02  0.8540E+02
     -5.818  0.7128E+02  0.6906E+02  0.8926E+02  0.8906E+02
     -5.765  0.8515E+02  0.8511E+02  0.9377E+02  0.9357E+02
     -5.712  0.6816E+02  0.6926E+02  0.9738E+02  0.9724E+02
     -5.659  0.8065E+02  0.7994E+02  0.1017E+03  0.1015E+03
     -5.606  0.8783E+02  0.8874E+02  0.1063E+03  0.1062E+03
     -5.553  0.7114E+02  0.7030E+02  0.1101E+03  0.1099E+03
     -5.500  0.5414E+02  0.5357E+02  0.1129E+03  0.1127E+03
     -5.447  0.7643E+02  0.7625E+02  0.1170E+03  0.1168E+03
     -5.394  0.7795E+02  0.7932E+02  0.1211E+03  0.1210E+03
     -5.341  0.8489E+02  0.8261E+02  0.1256E+03  0.1254E+03
     -5.288  0.7762E+02  0.7635E+02  0.1297E+03  0.1294E+03
     -5.235  0.7282E+02  0.7375E+02  0.1336E+03  0.1333E+03
     -5.182  0.7328E+02  0.7548E+02  0.1375E+03  0.1373E+03
     -5.129  0.7967E+02  0.7661E+02  0.1417E+03  0.1414E+03
     -5.076  0.8541E+02  0.8900E+02  0.1462E+03  0.1461E+03
     -5.023  0.7279E+02  0.7125E+02  0.1501E+03  0.1499E+03
     -4.970  0.6204E+02  0.6349E+02  0.1534E+03  0.1532E+03
     -4.917  0.6679E+02  0.6627E+02  0.1569E+03  0.1567E+03
     -4.864  0.6287E+02  0.6180E+02  0.1602E+03  0.1600E+03
     -4.811  0.8727E+02  0.8768E+02  0.1649E+03  0.1647E+03
     -4.758  0.1080E+03  0.1066E+03  0.1706E+03  0.1703E+03
     -4.705  0.1259E+03  0.1252E+03  0.1773E+03  0.1769E+03
     -4.652  0.9022E+02  0.9140E+02  0.1820E+03  0.1818E+03
     -4.599  0.8785E+02  0.8776E+02  0.1867E+03  0.1864E+03
     -4.546  0.9655E+02  0.9546E+02  0.1918E+03  0.1915E+03
     -4.493  0.1078E+03  0.1065E+03  0.1975E+03  0.1971E+03
     -4.440  0.1038E+03  0.1065E+03  0.2030E+03  0.2028E+03
     -4.387  0.1036E+03  0.1006E+03  0.2085E+03  0.2081E+03
     -4.334  0.9161E+02  0.9184E+02  0.2134E+03  0.2130E+03
     -4.281  0.8080E+02  0.8321E+02  0.2177E+03  0.2174E+03
     -4.228  0.6273E+02  0.6456E+02  0.2210E+03  0.2208E+03
     -4.175  0.1143E+03  0.1115E+03  0.2270E+03  0.2267E+03
     -4.122  0.7100E+02  0.7292E+02  0.2308E+03  0.2306E+03
     -4.069  0.5404E+02  0.5483E+02  0.2337E+03  0.2335E+03
     -4.016  0.6874E+02  0.6697E+02  0.2373E+03  0.2370E+03
     -3.963  0.6822E+02  0.6712E+02  0.2409E+03  0.2406E+03
     -3.910  0.2577E+02  0.2961E+02  0.2423E+03  0.2422E+03
     -3.857  0.6971E+02  0.6721E+02  0.2460E+03  0.2457E+03
     -3.804  0.4356E+02  0.4604E+02  0.2483E+03  0.2482E+03
     -3.751  0.6798E+02  0.6330E+02  0.2519E+03  0.2515E+03
     -3.698  0.5444E+02  0.5693E+02  0.2548E+03  0.2545E+03
     -3.645  0.7846E+02  0.7605E+02  0.2589E+03  0.2586E+03
     -3.592  0.7365E+02  0.7605E+02  0.2628E+03  0.2626E+03
     -3.539  0.6070E+02  0.5946E+02  0.2660E+03  0.2657E+03
     -3.486  0.9134E+02  0.9242E+02  0.2709E+03  0.2706E+03
     -3.433  0.6281E+02  0.6209E+02  0.2742E+03  0.2739E+03
     -3.380  0.7512E+02  0.7388E+02  0.2782E+03  0.2778E+03
     -3.327  0.8111E+02  0.8260E+02  0.2825E+03  0.2822E+03
     -3.274  0.7449E+02  0.7470E+02  0.2864E+03  0.2862E+03
     -3.221  0.7843E+02  0.7887E+02  0.2906E+03  0.2904E+03
     -3.168  0.5833E+02  0.5694E+02  0.2937E+03  0.2934E+03
     -3.115  0.7528E+02  0.7493E+02  0.2977E+03  0.2973E+03
     -3.062  0.8239E+02  0.8129E+02  0.3020E+03  0.3017E+03
     -3.009  0.6749E+02  0.7199E+02  0.3056E+03  0.3055E+03
     -2.957  0.7497E+02  0.7302E+02  0.3096E+03  0.3093E+03
     -2.904  0.9904E+02  0.9835E+02  0.3148E+03  0.3145E+03
     -2.851  0.9586E+02  0.9495E+02  0.3199E+03  0.3196E+03
     -2.798  0.9055E+02  0.9056E+02  0.3247E+03  0.3244E+03
     -2.745  0.9791E+02  0.9865E+02  0.3299E+03  0.3296E+03
     -2.692  0.1075E+03  0.1075E+03  0.3356E+03  0.3353E+03
     -2.639  0.1052E+03  0.1055E+03  0.3412E+03  0.3409E+03
     -2.586  0.1118E+03  0.1090E+03  0.3471E+03  0.3467E+03
     -2.533  0.1148E+03  0.1170E+03  0.3532E+03  0.3529E+03
     -2.480  0.1096E+03  0.1080E+03  0.3590E+03  0.3586E+03
     -2.427  0.8850E+02  0.9084E+02  0.3637E+03  0.3634E+03
     -2.374  0.1039E+03  0.1033E+03  0.3692E+03  0.3689E+03
     -2.321  0.9865E+02  0.9736E+02  0.3744E+03  0.3740E+03
     -2.268  0.1111E+03  0.1106E+03  0.3803E+03  0.3799E+03
     -2.215  0.6379E+02  0.6773E+02  0.3837E+03  0.3835E+03
     -2.162  0.3179E+02  0.3431E+02  0.3854E+03  0.3853E+03
     -2.109  0.4712E+02  0.4495E+02  0.3879E+03  0.3877E+03
     -2.056  0.8409E+02  0.8295E+02  0.3923E+03  0.3921E+03
     -2.003  0.9172E+02  0.9185E+02  0.3972E+03  0.3969E+03
     -1.950  0.9054E+02  0.9009E+02  0.4020E+03  0.4017E+03
     -1.897  0.8089E+02  0.8077E+02  0.4063E+03  0.4060E+03
     -1.844  0.7722E+02  0.7804E+02  0.4103E+03  0.4101E+03
     -1.791  0.8563E+02  0.8474E+02  0.4149E+03  0.4146E+03
     -1.738  0.9614E+02  0.9369E+02  0.4200E+03  0.4196E+03
     -1.685  0.9267E+02  0.9338E+02  0.4249E+03  0.4245E+03
     -1.632  0.9180E+02  0.9379E+02  0.4298E+03  0.4295E+03
     -1.579  0.9488E+02  0.9262E+02  0.4348E+03  0.4344E+03
     -1.526  0.6377E+02  0.6672E+02  0.4382E+03  0.4380E+03
     -1.473  0.5449E+02  0.5497E+02  0.4410E+03  0.4409E+03
     -1.420  0.6434E+02  0.6298E+02  0.4445E+03  0.4442E+03
     -1.367  0.4966E+02  0.4869E+02  0.4471E+03  0.4468E+03
     -1.314  0.6533E+02  0.6981E+02  0.4506E+03  0.4505E+03
     -1.261  0.3659E+02  0.3461E+02  0.4525E+03  0.4523E+03
     -1.208  0.6851E+02  0.6644E+02  0.4561E+03  0.4558E+03
     -1.155  0.6168E+02  0.6403E+02  0.4594E+03  0.4592E+03
     -1.102  0.5496E+02  0.5374E+02  0.4623E+03  0.4621E+03
     -1.049  0.4155E+02  0.4298E+02  0.4645E+03  0.4644E+03
     -0.996  0.4859E+02  0.4952E+02  0.4671E+03  0.4670E+03
     -0.943  0.2876E+02  0.2863E+02  0.4686E+03  0.4685E+03
     -0.890  0.6413E+02  0.6045E+02  0.4720E+03  0.4717E+03
     -0.837  0.7896E+02  0.8022E+02  0.4762E+03  0.4760E+03
     -0.784  0.4388E+02  0.4588E+02  0.4785E+03  0.4784E+03
     -0.731  0.5473E+02  0.5246E+02  0.4814E+03  0.4812E+03
     -0.678  0.7768E+02  0.7957E+02  0.4855E+03  0.4854E+03
     -0.625  0.4626E+02  0.4783E+02  0.4880E+03  0.4879E+03
     -0.572  0.2739E+02  0.2673E+02  0.4894E+03  0.4893E+03
     -0.519  0.1675E+02  0.1797E+02  0.4903E+03  0.4903E+03
     -0.466  0.3325E+02  0.3231E+02  0.4921E+03  0.4920E+03
     -0.413  0.2727E+02  0.2658E+02  0.4935E+03  0.4934E+03
     -0.360  0.5100E+02  0.4970E+02  0.4962E+03  0.4960E+03
     -0.307  0.7187E+02  0.7147E+02  0.5000E+03  0.4998E+03
     -0.254  0.8405E+02  0.8353E+02  0.5045E+03  0.5042E+03
     -0.201  0.9058E+02  0.9132E+02  0.5093E+03  0.5091E+03
     -0.148  0.1072E+03  0.1060E+03  0.5150E+03  0.5147E+03
     -0.095  0.1332E+03  0.1310E+03  0.5220E+03  0.5216E+03
     -0.042  0.1020E+03  0.1051E+03  0.5274E+03  0.5272E+03
      0.011  0.1071E+03  0.1051E+03  0.5331E+03  0.5328E+03
      0.064  0.1372E+03  0.1375E+03  0.5404E+03  0.5401E+03
      0.117  0.1076E+03  0.1091E+03  0.5461E+03  0.5458E+03
      0.170  0.8811E+02  0.8923E+02  0.5507E+03  0.5506E+03
      0.223  0.8462E+02  0.8494E+02  0.5552E+03  0.5551E+03
      0.276  0.6826E+02  0.6747E+02  0.5588E+03  0.5586E+03
      0.329  0.9736E+02  0.9473E+02  0.5640E+03  0.5637E+03
      0.382  0.1012E+03  0.1003E+03  0.5694E+03  0.5690E+03
      0.435  0.1050E+03  0.1096E+03  0.5749E+03  0.5748E+03
      0.488  0.7654E+02  0.7614E+02  0.5790E+03  0.5788E+03
      0.541  0.1104E+03  0.1091E+03  0.5848E+03  0.5846E+03
      0.594  0.1306E+03  0.1301E+03  0.5918E+03  0.5915E+03
      0.647  0.9658E+02  0.9694E+02  0.5969E+03  0.5966E+03
      0.700  0.1532E+03  0.1502E+03  0.6050E+03  0.6046E+03
      0.753  0.1541E+03  0.1540E+03  0.6132E+03  0.6128E+03
      0.806  0.1223E+03  0.1244E+03  0.6196E+03  0.6193E+03
      0.859  0.8869E+02  0.8960E+02  0.6243E+03  0.6241E+03
      0.912  0.1208E+03  0.1206E+03  0.6307E+03  0.6305E+03
      0.965  0.1113E+03  0.1085E+03  0.6366E+03  0.6362E+03
      1.018  0.1094E+03  0.1103E+03  0.6424E+03  0.6421E+03
      1.071  0.1583E+03  0.1567E+03  0.6508E+03  0.6504E+03
      1.124  0.1570E+03  0.1578E+03  0.6591E+03  0.6587E+03
      1.177  0.1767E+03  0.1761E+03  0.6685E+03  0.6681E+03
      1.230  0.1936E+03  0.1944E+03  0.6788E+03  0.6784E+03
      1.283  0.1479E+03  0.1457E+03  0.6866E+03  0.6861E+03
      1.336  0.2095E+03  0.2095E+03  0.6977E+03  0.6972E+03
      1.389  0.1540E+03  0.1555E+03  0.7059E+03  0.7054E+03
      1.441  0.1509E+03  0.1508E+03  0.7139E+03  0.7134E+03
      1.494  0.1904E+03  0.1876E+03  0.7239E+03  0.7234E+03
      1.547  0.1746E+03  0.1746E+03  0.7332E+03  0.7326E+03
      1.600  0.1968E+03  0.1970E+03  0.7436E+03  0.7431E+03
      1.653  0.1806E+03  0.1819E+03  0.7532E+03  0.7527E+03
      1.706  0.2038E+03  0.2012E+03  0.7640E+03  0.7634E+03
      1.759  0.1873E+03  0.1896E+03  0.7739E+03  0.7734E+03
      1.812  0.1587E+03  0.1580E+03  0.7823E+03  0.7818E+03
      1.865  0.1577E+03  0.1595E+03  0.7907E+03  0.7902E+03
      1.918  0.1778E+03  0.1761E+03  0.8001E+03  0.7996E+03
      1.971  0.1985E+03  0.1991E+03  0.8106E+03  0.8101E+03
      2.024  0.1711E+03  0.1701E+03  0.8197E+03  0.8191E+03
      2.077  0.2005E+03  0.1996E+03  0.8303E+03  0.8297E+03
      2.130  0.2009E+03  0.2019E+03  0.8410E+03  0.8404E+03
      2.183  0.1570E+03  0.1589E+03  0.8493E+03  0.8488E+03
      2.236  0.1416E+03  0.1402E+03  0.8568E+03  0.8562E+03
      2.289  0.1789E+03  0.1816E+03  0.8663E+03  0.8659E+03
      2.342  0.1547E+03  0.1517E+03  0.8745E+03  0.8739E+03
      2.395  0.1860E+03  0.1867E+03  0.8843E+03  0.8838E+03
      2.448  0.1418E+03  0.1426E+03  0.8918E+03  0.8914E+03
      2.501  0.1518E+03  0.1516E+03  0.8999E+03  0.8994E+03
      2.554  0.1213E+03  0.1227E+03  0.9063E+03  0.9059E+03
      2.607  0.1389E+03  0.1357E+03  0.9137E+03  0.9131E+03
      2.660  0.1429E+03  0.1431E+03  0.9212E+03  0.9207E+03
      2.713  0.1350E+03  0.1316E+03  0.9284E+03  0.9276E+03
      2.766  0.1606E+03  0.1610E+03  0.9369E+03  0.9362E+03
      2.819  0.1232E+03  0.1253E+03  0.9434E+03  0.9428E+03
      2.872  0.1422E+03  0.1424E+03  0.9510E+03  0.9504E+03
      2.925  0.1365E+03  0.1391E+03  0.9582E+03  0.9577E+03
      2.978  0.9612E+02  0.9562E+02  0.9633E+03  0.9628E+03
      3.031  0.1307E+03  0.1282E+03  0.9702E+03  0.9696E+03
      3.084  0.1258E+03  0.1276E+03  0.9769E+03  0.9763E+03
      3.137  0.1150E+03  0.1176E+03  0.9830E+03  0.9826E+03
      3.190  0.1148E+03  0.1097E+03  0.9891E+03  0.9884E+03
      3.243  0.1170E+03  0.1176E+03  0.9953E+03  0.9946E+03
      3.296  0.1066E+03  0.1067E+03  0.1001E+04  0.1000E+04
      3.349  0.9760E+02  0.1004E+03  0.1006E+04  0.1006E+04
      3.402  0.8359E+02  0.8683E+02  0.1011E+04  0.1010E+04
      3.455  0.8173E+02  0.7251E+02  0.1015E+04  0.1014E+04
      3.508  0.9471E+02  0.1032E+03  0.1020E+04  0.1020E+04
      3.561  0.9124E+02  0.9071E+02  0.1025E+04  0.1024E+04
      3.614  0.1139E+03  0.1049E+03  0.1031E+04  0.1030E+04
      3.667  0.6615E+02  0.7034E+02  0.1034E+04  0.1034E+04
      3.720  0.5533E+02  0.6055E+02  0.1037E+04  0.1037E+04
      3.773  0.4322E+02  0.4220E+02  0.1039E+04  0.1039E+04
      3.826  0.5689E+02  0.5936E+02  0.1042E+04  0.1042E+04
      3.879  0.2682E+02  0.2872E+02  0.1044E+04  0.1044E+04
      3.932  0.5385E+02  0.4098E+02  0.1047E+04  0.1046E+04
      3.985  0.7078E+02  0.7404E+02  0.1050E+04  0.1050E+04
      4.038  0.1057E+03  0.9519E+02  0.1056E+04  0.1055E+04
      4.091  0.1119E+03  0.1144E+03  0.1062E+04  0.1061E+04
      4.144  0.7619E+02  0.8307E+02  0.1066E+04  0.1065E+04
      4.197  0.1022E+03  0.1013E+03  0.1071E+04  0.1071E+04
      4.250  0.9097E+02  0.9177E+02  0.1076E+04  0.1076E+04
      4.303  0.9588E+02  0.9537E+02  0.1081E+04  0.1081E+04
      4.356  0.1218E+03  0.1205E+03  0.1088E+04  0.1087E+04
      4.409  0.1245E+03  0.1193E+03  0.1094E+04  0.1093E+04
      4.462  0.1073E+03  0.1114E+03  0.1100E+04  0.1099E+04
      4.515  0.1149E+03  0.1205E+03  0.1106E+04  0.1106E+04
      4.568  0.9585E+02  0.9769E+02  0.1111E+04  0.1111E+04
      4.621  0.1085E+03  0.1013E+03  0.1117E+04  0.1116E+04
      4.674  0.1191E+03  0.1201E+03  0.1123E+04  0.1123E+04
      4.727  0.1170E+03  0.1197E+03  0.1130E+04  0.1129E+04
      4.780  0.1050E+03  0.1036E+03  0.1135E+04  0.1134E+04
      4.833  0.1136E+03  0.1211E+03  0.1141E+04  0.1141E+04
      4.886  0.1314E+03  0.1235E+03  0.1148E+04  0.1147E+04
      4.939  0.1231E+03  0.1274E+03  0.1155E+04  0.1154E+04
      4.992  0.1204E+03  0.1132E+03  0.1161E+04  0.1160E+04
      5.045  0.1256E+03  0.1257E+03  0.1168E+04  0.1167E+04
      5.098  0.1191E+03  0.1277E+03  0.1174E+04  0.1173E+04
      5.151  0.9366E+02  0.9386E+02  0.1179E+04  0.1178E+04
      5.204  0.1019E+03  0.1027E+03  0.1184E+04  0.1184E+04
      5.257  0.1097E+03  0.1013E+03  0.1190E+04  0.1189E+04
      5.310  0.1122E+03  0.1197E+03  0.1196E+04  0.1196E+04
      5.363  0.1212E+03  0.1180E+03  0.1203E+04  0.1202E+04
      5.416  0.1406E+03  0.1413E+03  0.1210E+04  0.1209E+04
      5.469  0.1346E+03  0.1376E+03  0.1217E+04  0.1217E+04
      5.522  0.1525E+03  0.1498E+03  0.1225E+04  0.1225E+04
      5.575  0.1511E+03  0.1505E+03  0.1233E+04  0.1233E+04
      5.628  0.1438E+03  0.1468E+03  0.1241E+04  0.1240E+04
      5.681  0.1042E+03  0.1044E+03  0.1246E+04  0.1246E+04
      5.734  0.1199E+03  0.1171E+03  0.1253E+04  0.1252E+04
      5.787  0.1216E+03  0.1248E+03  0.1259E+04  0.1259E+04
      5.840  0.1248E+03  0.1225E+03  0.1266E+04  0.1265E+04
      5.892  0.9504E+02  0.9773E+02  0.1271E+04  0.1270E+04
      5.945  0.2335E+02  0.3138E+02  0.1272E+04  0.1272E+04
      5.998  0.0000E+00  0.0000E+00  0.1272E+04  0.1272E+04
      6.051  0.0000E+00  0.0000E+00  0.1272E+04  0.1272E+04
      6.104  0.0000E+00  0.0000E+00  0.1272E+04  0.1272E+04
      6.157  0.0000E+00  0.0000E+00  0.1272E+04  0.1272E+04
      6.210  0.0000E+00  0.0000E+00  0.1272E+04  0.1272E+04
      6.263  0.0000E+00  0.0000E+00  0.1272E+04  0.1272E+04
      6.316  0.0000E+00  0.0000E+00  0.1272E+04  0.1272E+04
      6.369  0.0000E+00  0.0000E+00  0.1272E+04  0.1272E+04
      6.422  0.0000E+00  0.0000E+00  0.1272E+04  0.1272E+04
      6.475  0.0000E+00  0.0000E+00  0.1272E+04  0.1272E+04
      6.528  0.0000E+00  0.0000E+00  0.1272E+04  0.1272E+04
      6.581  0.0000E+00  0.0000E+00  0.1272E+04  0.1272E+04
      6.634  0.0000E+00  0.0000E+00  0.1272E+04  0.1272E+04
