  48  48   0   0
  0.1668662E+02  0.1214409E-08  0.1214409E-08  0.9051669E-09  0.5000000E-15
  1.000000000000000E-004
  CAR 
 Si and Ge interface calculation         
     10.95772182     -8.93405030  301      8.00808854      1.00000000
     -8.934  0.0000E+00  0.0000E+00  0.0000E+00  0.0000E+00
     -8.868  0.0000E+00  0.0000E+00  0.0000E+00  0.0000E+00
     -8.801  0.0000E+00  0.0000E+00  0.0000E+00  0.0000E+00
     -8.735  0.0000E+00  0.0000E+00  0.0000E+00  0.0000E+00
     -8.669  0.0000E+00  0.0000E+00  0.0000E+00  0.0000E+00
     -8.603  0.0000E+00  0.0000E+00  0.0000E+00  0.0000E+00
     -8.536  0.0000E+00  0.0000E+00  0.0000E+00  0.0000E+00
     -8.470  0.0000E+00  0.0000E+00  0.0000E+00  0.0000E+00
     -8.404  0.0000E+00  0.0000E+00  0.0000E+00  0.0000E+00
     -8.337  0.0000E+00  0.0000E+00  0.0000E+00  0.0000E+00
     -8.271  0.0000E+00  0.0000E+00  0.0000E+00  0.0000E+00
     -8.205  0.0000E+00  0.0000E+00  0.0000E+00  0.0000E+00
     -8.138  0.0000E+00  0.0000E+00  0.0000E+00  0.0000E+00
     -8.072  0.7681E-09  0.0000E+00  0.5093E-10  0.0000E+00
     -8.006  0.7142E+01  0.2199E+00  0.4736E+00  0.1458E-01
     -7.939  0.1469E+01  0.7321E+01  0.5720E+00  0.5000E+00
     -7.873  0.1400E+02  0.1505E+02  0.1500E+01  0.1498E+01
     -7.807  0.0000E+00  0.0000E+00  0.1500E+01  0.1500E+01
     -7.741  0.7395E-14  0.0000E+00  0.1500E+01  0.1500E+01
     -7.674  0.1046E+02  0.9538E-02  0.2194E+01  0.1501E+01
     -7.608  0.4619E+01  0.1507E+02  0.2500E+01  0.2500E+01
     -7.542  0.0000E+00  0.0000E+00  0.2500E+01  0.2500E+01
     -7.475  0.0000E+00  0.0000E+00  0.2500E+01  0.2500E+01
     -7.409  0.2807E-02  0.2679E-12  0.2500E+01  0.2500E+01
     -7.343  0.1524E+02  0.1377E+02  0.3511E+01  0.3413E+01
     -7.276  0.7303E+01  0.4267E+01  0.3995E+01  0.3700E+01
     -7.210  0.1062E+02  0.8448E+01  0.4699E+01  0.4261E+01
     -7.144  0.1207E+02  0.1315E+02  0.5500E+01  0.5133E+01
     -7.077  0.0000E+00  0.5533E+01  0.5500E+01  0.5500E+01
     -7.011  0.0000E+00  0.0000E+00  0.5500E+01  0.5500E+01
     -6.945  0.0000E+00  0.0000E+00  0.5500E+01  0.5500E+01
     -6.879  0.1842E+01  0.3451E-06  0.5622E+01  0.5500E+01
     -6.812  0.1324E+02  0.1029E+02  0.6500E+01  0.6182E+01
     -6.746  0.0000E+00  0.4795E+01  0.6500E+01  0.6500E+01
     -6.680  0.0000E+00  0.0000E+00  0.6500E+01  0.6500E+01
     -6.613  0.0000E+00  0.0000E+00  0.6500E+01  0.6500E+01
     -6.547  0.0000E+00  0.0000E+00  0.6500E+01  0.6500E+01
     -6.481  0.0000E+00  0.0000E+00  0.6500E+01  0.6500E+01
     -6.414  0.1432E+01  0.3142E-08  0.6595E+01  0.6500E+01
     -6.348  0.1365E+02  0.8964E+01  0.7500E+01  0.7094E+01
     -6.282  0.3451E+01  0.6782E+01  0.7729E+01  0.7545E+01
     -6.216  0.4120E+01  0.5944E+01  0.8002E+01  0.7939E+01
     -6.149  0.1193E+02  0.8244E+01  0.8793E+01  0.8485E+01
     -6.083  0.1063E+02  0.1101E+02  0.9498E+01  0.9217E+01
     -6.017  0.0000E+00  0.4251E+01  0.9500E+01  0.9500E+01
     -5.950  0.2408E-07  0.0000E+00  0.9500E+01  0.9500E+01
     -5.884  0.5250E+01  0.6618E+00  0.9848E+01  0.9544E+01
     -5.818  0.9829E+01  0.1159E+02  0.1050E+02  0.1031E+02
     -5.751  0.0000E+00  0.2831E+01  0.1050E+02  0.1050E+02
     -5.685  0.0000E+00  0.0000E+00  0.1050E+02  0.1050E+02
     -5.619  0.0000E+00  0.0000E+00  0.1050E+02  0.1050E+02
     -5.552  0.1542E-04  0.0000E+00  0.1050E+02  0.1050E+02
     -5.486  0.7783E+01  0.4099E+01  0.1102E+02  0.1077E+02
     -5.420  0.7298E+01  0.1094E+02  0.1150E+02  0.1150E+02
     -5.354  0.1260E-03  0.0000E+00  0.1150E+02  0.1150E+02
     -5.287  0.4755E+01  0.1581E+01  0.1182E+02  0.1160E+02
     -5.221  0.2785E+01  0.5467E+01  0.1200E+02  0.1197E+02
     -5.155  0.0000E+00  0.4928E+00  0.1200E+02  0.1200E+02
     -5.088  0.0000E+00  0.0000E+00  0.1200E+02  0.1200E+02
     -5.022  0.0000E+00  0.0000E+00  0.1200E+02  0.1200E+02
     -4.956  0.0000E+00  0.0000E+00  0.1200E+02  0.1200E+02
     -4.889  0.0000E+00  0.0000E+00  0.1200E+02  0.1200E+02
     -4.823  0.0000E+00  0.0000E+00  0.1200E+02  0.1200E+02
     -4.757  0.0000E+00  0.0000E+00  0.1200E+02  0.1200E+02
     -4.690  0.0000E+00  0.0000E+00  0.1200E+02  0.1200E+02
     -4.624  0.0000E+00  0.0000E+00  0.1200E+02  0.1200E+02
     -4.558  0.0000E+00  0.0000E+00  0.1200E+02  0.1200E+02
     -4.492  0.0000E+00  0.0000E+00  0.1200E+02  0.1200E+02
     -4.425  0.8912E+00  0.2676E-02  0.1206E+02  0.1200E+02
     -4.359  0.1635E+01  0.1255E+01  0.1217E+02  0.1208E+02
     -4.293  0.7923E+01  0.3697E+01  0.1269E+02  0.1233E+02
     -4.226  0.1670E+01  0.5720E+01  0.1281E+02  0.1271E+02
     -4.160  0.7353E+01  0.8782E+01  0.1329E+02  0.1329E+02
     -4.094  0.3017E+01  0.2157E+01  0.1349E+02  0.1343E+02
     -4.027  0.8951E+01  0.8459E+01  0.1409E+02  0.1400E+02
     -3.961  0.1181E+02  0.7059E+01  0.1487E+02  0.1446E+02
     -3.895  0.5642E+01  0.8192E+01  0.1525E+02  0.1501E+02
     -3.828  0.2553E+01  0.6171E+01  0.1542E+02  0.1542E+02
     -3.762  0.1193E+02  0.3431E+01  0.1621E+02  0.1564E+02
     -3.696  0.1692E+02  0.2024E+02  0.1733E+02  0.1699E+02
     -3.630  0.1252E+02  0.8273E+01  0.1816E+02  0.1754E+02
     -3.563  0.7671E+01  0.1499E+02  0.1867E+02  0.1853E+02
     -3.497  0.1226E+02  0.8076E+01  0.1948E+02  0.1907E+02
     -3.431  0.5879E+01  0.1093E+02  0.1987E+02  0.1979E+02
     -3.364  0.1177E+02  0.5454E+01  0.2065E+02  0.2015E+02
     -3.298  0.1535E+02  0.1451E+02  0.2167E+02  0.2112E+02
     -3.232  0.7422E+01  0.1518E+02  0.2217E+02  0.2212E+02
     -3.165  0.1101E+02  0.8528E+01  0.2290E+02  0.2269E+02
     -3.099  0.5850E+01  0.7798E+01  0.2329E+02  0.2321E+02
     -3.033  0.1092E+02  0.9342E+01  0.2401E+02  0.2383E+02
     -2.967  0.7234E+01  0.7504E+01  0.2449E+02  0.2433E+02
     -2.900  0.1121E+02  0.9810E+01  0.2524E+02  0.2498E+02
     -2.834  0.1243E+02  0.1332E+02  0.2606E+02  0.2586E+02
     -2.768  0.9017E+01  0.1007E+02  0.2666E+02  0.2653E+02
     -2.701  0.1079E+02  0.9066E+01  0.2738E+02  0.2713E+02
     -2.635  0.1611E+02  0.1632E+02  0.2844E+02  0.2821E+02
     -2.569  0.1680E+02  0.1306E+02  0.2956E+02  0.2908E+02
     -2.502  0.1117E+02  0.1698E+02  0.3030E+02  0.3021E+02
     -2.436  0.1085E+02  0.7277E+01  0.3102E+02  0.3069E+02
     -2.370  0.1186E+02  0.1298E+02  0.3181E+02  0.3155E+02
     -2.303  0.2151E+02  0.2008E+02  0.3323E+02  0.3288E+02
     -2.237  0.9421E+01  0.8579E+01  0.3386E+02  0.3346E+02
     -2.171  0.1462E+02  0.1435E+02  0.3483E+02  0.3441E+02
     -2.105  0.1315E+02  0.1651E+02  0.3570E+02  0.3550E+02
     -2.038  0.1236E+02  0.1030E+02  0.3652E+02  0.3619E+02
     -1.972  0.1058E+02  0.1337E+02  0.3723E+02  0.3708E+02
     -1.906  0.1080E+02  0.1073E+02  0.3794E+02  0.3779E+02
     -1.839  0.8780E+01  0.7471E+01  0.3853E+02  0.3828E+02
     -1.773  0.1345E+02  0.1304E+02  0.3942E+02  0.3915E+02
     -1.707  0.1821E+02  0.1458E+02  0.4063E+02  0.4011E+02
     -1.640  0.7773E+01  0.1299E+02  0.4114E+02  0.4098E+02
     -1.574  0.1429E+02  0.8757E+01  0.4209E+02  0.4156E+02
     -1.508  0.1465E+02  0.1652E+02  0.4306E+02  0.4265E+02
     -1.441  0.1093E+02  0.1255E+02  0.4379E+02  0.4349E+02
     -1.375  0.1694E+02  0.1561E+02  0.4492E+02  0.4452E+02
     -1.309  0.1140E+02  0.1212E+02  0.4567E+02  0.4533E+02
     -1.243  0.1658E+02  0.1817E+02  0.4677E+02  0.4653E+02
     -1.176  0.9734E+01  0.9373E+01  0.4742E+02  0.4715E+02
     -1.110  0.6672E+01  0.8172E+01  0.4786E+02  0.4770E+02
     -1.044  0.1317E+02  0.1054E+02  0.4874E+02  0.4840E+02
     -0.977  0.1421E+02  0.1231E+02  0.4968E+02  0.4921E+02
     -0.911  0.1094E+02  0.1657E+02  0.5041E+02  0.5031E+02
     -0.845  0.1121E+02  0.9668E+01  0.5115E+02  0.5095E+02
     -0.778  0.1048E+02  0.9560E+01  0.5185E+02  0.5159E+02
     -0.712  0.1070E+02  0.1125E+02  0.5256E+02  0.5234E+02
     -0.646  0.1162E+02  0.1175E+02  0.5333E+02  0.5312E+02
     -0.580  0.1688E+02  0.1158E+02  0.5445E+02  0.5388E+02
     -0.513  0.1178E+02  0.1694E+02  0.5523E+02  0.5501E+02
     -0.447  0.1020E+02  0.1242E+02  0.5591E+02  0.5583E+02
     -0.381  0.9561E+01  0.7573E+01  0.5654E+02  0.5634E+02
     -0.314  0.8301E+01  0.8366E+01  0.5710E+02  0.5689E+02
     -0.248  0.1419E+02  0.1298E+02  0.5804E+02  0.5775E+02
     -0.182  0.9582E+01  0.1281E+02  0.5868E+02  0.5861E+02
     -0.115  0.1136E+02  0.6609E+01  0.5943E+02  0.5904E+02
     -0.049  0.2012E+02  0.2147E+02  0.6076E+02  0.6047E+02
      0.017  0.1311E+02  0.1275E+02  0.6163E+02  0.6132E+02
      0.084  0.9446E+01  0.1266E+02  0.6226E+02  0.6216E+02
      0.150  0.1231E+02  0.9394E+01  0.6308E+02  0.6278E+02
      0.216  0.8919E+01  0.7870E+01  0.6367E+02  0.6330E+02
      0.282  0.7960E+01  0.7094E+01  0.6420E+02  0.6377E+02
      0.349  0.1044E+02  0.1346E+02  0.6489E+02  0.6467E+02
      0.415  0.1009E+02  0.1052E+02  0.6556E+02  0.6536E+02
      0.481  0.9935E+01  0.1171E+02  0.6622E+02  0.6614E+02
      0.548  0.1401E+02  0.8002E+01  0.6715E+02  0.6667E+02
      0.614  0.9687E+01  0.1662E+02  0.6779E+02  0.6777E+02
      0.680  0.1248E+02  0.7000E+01  0.6862E+02  0.6824E+02
      0.747  0.1747E+02  0.1678E+02  0.6978E+02  0.6935E+02
      0.813  0.1265E+02  0.1525E+02  0.7062E+02  0.7036E+02
      0.879  0.1320E+02  0.1430E+02  0.7150E+02  0.7131E+02
      0.946  0.6196E+01  0.6522E+01  0.7191E+02  0.7175E+02
      1.012  0.8403E+01  0.8999E+01  0.7247E+02  0.7234E+02
      1.078  0.1409E+02  0.1171E+02  0.7340E+02  0.7312E+02
      1.144  0.1154E+02  0.1207E+02  0.7417E+02  0.7392E+02
      1.211  0.1065E+02  0.1154E+02  0.7487E+02  0.7469E+02
      1.277  0.1388E+02  0.1065E+02  0.7579E+02  0.7539E+02
      1.343  0.1455E+02  0.1663E+02  0.7676E+02  0.7650E+02
      1.410  0.1804E+02  0.1559E+02  0.7795E+02  0.7753E+02
      1.476  0.1337E+02  0.1416E+02  0.7884E+02  0.7847E+02
      1.542  0.2105E+02  0.1749E+02  0.8024E+02  0.7963E+02
      1.609  0.2513E+02  0.2278E+02  0.8191E+02  0.8115E+02
      1.675  0.1770E+02  0.2330E+02  0.8308E+02  0.8269E+02
      1.741  0.2071E+02  0.1788E+02  0.8446E+02  0.8388E+02
      1.808  0.2389E+02  0.2608E+02  0.8604E+02  0.8561E+02
      1.874  0.1099E+02  0.1280E+02  0.8677E+02  0.8646E+02
      1.940  0.1299E+02  0.1273E+02  0.8763E+02  0.8731E+02
      2.006  0.1319E+02  0.1042E+02  0.8851E+02  0.8800E+02
      2.073  0.1944E+02  0.2074E+02  0.8980E+02  0.8937E+02
      2.139  0.1365E+02  0.1498E+02  0.9071E+02  0.9037E+02
      2.205  0.1691E+02  0.1794E+02  0.9183E+02  0.9156E+02
      2.272  0.1379E+02  0.1350E+02  0.9274E+02  0.9246E+02
      2.338  0.1885E+02  0.1393E+02  0.9399E+02  0.9338E+02
      2.404  0.1929E+02  0.1820E+02  0.9528E+02  0.9459E+02
      2.471  0.1457E+02  0.1902E+02  0.9625E+02  0.9585E+02
      2.537  0.1782E+02  0.1715E+02  0.9743E+02  0.9699E+02
      2.603  0.1729E+02  0.1605E+02  0.9858E+02  0.9805E+02
      2.669  0.1125E+02  0.1584E+02  0.9932E+02  0.9910E+02
      2.736  0.1415E+02  0.1145E+02  0.1003E+03  0.9986E+02
      2.802  0.1234E+02  0.1531E+02  0.1011E+03  0.1009E+03
      2.868  0.1332E+02  0.1262E+02  0.1020E+03  0.1017E+03
      2.935  0.1282E+02  0.1422E+02  0.1028E+03  0.1027E+03
      3.001  0.3886E+01  0.5094E+01  0.1031E+03  0.1030E+03
      3.067  0.1468E+02  0.7260E+01  0.1040E+03  0.1035E+03
      3.134  0.2225E+02  0.2392E+02  0.1055E+03  0.1051E+03
      3.200  0.6377E+01  0.9865E+01  0.1060E+03  0.1057E+03
      3.266  0.1088E+02  0.1117E+02  0.1067E+03  0.1065E+03
      3.333  0.1728E+02  0.1486E+02  0.1078E+03  0.1075E+03
      3.399  0.1774E+02  0.1800E+02  0.1090E+03  0.1086E+03
      3.465  0.2145E+02  0.1948E+02  0.1104E+03  0.1099E+03
      3.531  0.1955E+02  0.2198E+02  0.1117E+03  0.1114E+03
      3.598  0.1546E+02  0.1405E+02  0.1127E+03  0.1123E+03
      3.664  0.2049E+02  0.1622E+02  0.1141E+03  0.1134E+03
      3.730  0.2387E+02  0.2726E+02  0.1157E+03  0.1152E+03
      3.797  0.1219E+02  0.1830E+02  0.1165E+03  0.1164E+03
      3.863  0.1589E+02  0.8001E+01  0.1176E+03  0.1170E+03
      3.929  0.2082E+02  0.2576E+02  0.1189E+03  0.1187E+03
      3.996  0.1000E+02  0.8164E+01  0.1196E+03  0.1192E+03
      4.062  0.1365E+02  0.1415E+02  0.1205E+03  0.1202E+03
      4.128  0.2521E+02  0.2450E+02  0.1222E+03  0.1218E+03
      4.195  0.1779E+02  0.1440E+02  0.1234E+03  0.1227E+03
      4.261  0.2458E+02  0.2684E+02  0.1250E+03  0.1245E+03
      4.327  0.1706E+02  0.2071E+02  0.1261E+03  0.1259E+03
      4.393  0.2607E+02  0.2158E+02  0.1279E+03  0.1273E+03
      4.460  0.2157E+02  0.2592E+02  0.1293E+03  0.1290E+03
      4.526  0.1662E+02  0.1261E+02  0.1304E+03  0.1299E+03
      4.592  0.1704E+02  0.2067E+02  0.1315E+03  0.1313E+03
      4.659  0.2186E+02  0.2103E+02  0.1330E+03  0.1326E+03
      4.725  0.3416E+02  0.3165E+02  0.1352E+03  0.1348E+03
      4.791  0.2634E+02  0.2780E+02  0.1370E+03  0.1366E+03
      4.858  0.1120E+02  0.1544E+02  0.1377E+03  0.1376E+03
      4.924  0.2215E+02  0.1467E+02  0.1392E+03  0.1386E+03
      4.990  0.2247E+02  0.2580E+02  0.1407E+03  0.1403E+03
      5.056  0.1168E+02  0.1443E+02  0.1415E+03  0.1413E+03
      5.123  0.2248E+02  0.2035E+02  0.1430E+03  0.1426E+03
      5.189  0.2404E+02  0.2188E+02  0.1446E+03  0.1441E+03
      5.255  0.2540E+02  0.2251E+02  0.1462E+03  0.1456E+03
      5.322  0.1819E+02  0.2205E+02  0.1474E+03  0.1470E+03
      5.388  0.3289E+02  0.3293E+02  0.1496E+03  0.1492E+03
      5.454  0.2281E+02  0.2073E+02  0.1511E+03  0.1506E+03
      5.521  0.2402E+02  0.2688E+02  0.1527E+03  0.1524E+03
      5.587  0.1675E+02  0.1873E+02  0.1538E+03  0.1536E+03
      5.653  0.2458E+02  0.2105E+02  0.1555E+03  0.1550E+03
      5.720  0.1686E+02  0.1712E+02  0.1566E+03  0.1561E+03
      5.786  0.2537E+02  0.2578E+02  0.1583E+03  0.1579E+03
      5.852  0.2628E+02  0.2414E+02  0.1600E+03  0.1595E+03
      5.918  0.1868E+02  0.2228E+02  0.1613E+03  0.1609E+03
      5.985  0.1753E+02  0.1843E+02  0.1624E+03  0.1622E+03
      6.051  0.1886E+02  0.1426E+02  0.1637E+03  0.1631E+03
      6.117  0.2575E+02  0.2932E+02  0.1654E+03  0.1651E+03
      6.184  0.1112E+02  0.1171E+02  0.1661E+03  0.1658E+03
      6.250  0.1830E+02  0.1698E+02  0.1673E+03  0.1670E+03
      6.316  0.1748E+02  0.1664E+02  0.1685E+03  0.1681E+03
      6.383  0.2134E+02  0.1989E+02  0.1699E+03  0.1694E+03
      6.449  0.1512E+02  0.1698E+02  0.1709E+03  0.1705E+03
      6.515  0.1254E+02  0.1156E+02  0.1718E+03  0.1713E+03
      6.582  0.1289E+02  0.1506E+02  0.1726E+03  0.1723E+03
      6.648  0.2340E+02  0.1985E+02  0.1742E+03  0.1736E+03
      6.714  0.1270E+02  0.1459E+02  0.1750E+03  0.1746E+03
      6.780  0.1291E+02  0.1340E+02  0.1759E+03  0.1755E+03
      6.847  0.8970E+01  0.1250E+02  0.1765E+03  0.1763E+03
      6.913  0.1153E+02  0.7283E+01  0.1772E+03  0.1768E+03
      6.979  0.6657E+01  0.1267E+02  0.1777E+03  0.1776E+03
      7.046  0.1581E+02  0.7548E+01  0.1787E+03  0.1781E+03
      7.112  0.1973E+02  0.2026E+02  0.1800E+03  0.1795E+03
      7.178  0.1971E+02  0.2062E+02  0.1813E+03  0.1808E+03
      7.245  0.7974E+01  0.1279E+02  0.1819E+03  0.1817E+03
      7.311  0.4633E+01  0.5496E+01  0.1822E+03  0.1820E+03
      7.377  0.8735E+01  0.6646E+01  0.1828E+03  0.1825E+03
      7.444  0.9400E+01  0.8051E+01  0.1834E+03  0.1830E+03
      7.510  0.1682E+02  0.1273E+02  0.1845E+03  0.1839E+03
      7.576  0.8433E+01  0.1373E+02  0.1851E+03  0.1848E+03
      7.642  0.1211E+02  0.1029E+02  0.1859E+03  0.1855E+03
      7.709  0.1566E+02  0.1091E+02  0.1869E+03  0.1862E+03
      7.775  0.1936E+02  0.1775E+02  0.1882E+03  0.1874E+03
      7.841  0.1420E+02  0.1624E+02  0.1891E+03  0.1884E+03
      7.908  0.1729E+02  0.1902E+02  0.1903E+03  0.1897E+03
      7.974  0.1162E+02  0.1260E+02  0.1910E+03  0.1905E+03
      8.040  0.1619E+02  0.1456E+02  0.1921E+03  0.1915E+03
      8.107  0.1445E+02  0.1495E+02  0.1931E+03  0.1925E+03
      8.173  0.1601E+02  0.1577E+02  0.1941E+03  0.1935E+03
      8.239  0.1525E+02  0.1782E+02  0.1952E+03  0.1947E+03
      8.305  0.1759E+02  0.1956E+02  0.1963E+03  0.1960E+03
      8.372  0.2177E+02  0.1770E+02  0.1978E+03  0.1972E+03
      8.438  0.1692E+02  0.1708E+02  0.1989E+03  0.1983E+03
      8.504  0.3163E+02  0.2798E+02  0.2010E+03  0.2002E+03
      8.571  0.1971E+02  0.2481E+02  0.2023E+03  0.2018E+03
      8.637  0.1369E+02  0.1529E+02  0.2032E+03  0.2029E+03
      8.703  0.2565E+02  0.1728E+02  0.2049E+03  0.2040E+03
      8.770  0.1583E+02  0.1803E+02  0.2060E+03  0.2052E+03
      8.836  0.2268E+02  0.2582E+02  0.2075E+03  0.2069E+03
      8.902  0.1723E+02  0.1947E+02  0.2086E+03  0.2082E+03
      8.969  0.2423E+02  0.2127E+02  0.2102E+03  0.2096E+03
      9.035  0.2072E+02  0.2182E+02  0.2116E+03  0.2111E+03
      9.101  0.2048E+02  0.1651E+02  0.2129E+03  0.2122E+03
      9.167  0.2423E+02  0.2294E+02  0.2146E+03  0.2137E+03
      9.234  0.2007E+02  0.2439E+02  0.2159E+03  0.2153E+03
      9.300  0.1983E+02  0.2105E+02  0.2172E+03  0.2167E+03
      9.366  0.2291E+02  0.1960E+02  0.2187E+03  0.2180E+03
      9.433  0.2092E+02  0.2539E+02  0.2201E+03  0.2197E+03
      9.499  0.2211E+02  0.2097E+02  0.2216E+03  0.2211E+03
      9.565  0.2424E+02  0.1831E+02  0.2232E+03  0.2223E+03
      9.632  0.2926E+02  0.3150E+02  0.2251E+03  0.2244E+03
      9.698  0.1703E+02  0.1909E+02  0.2263E+03  0.2256E+03
      9.764  0.2364E+02  0.2289E+02  0.2278E+03  0.2272E+03
      9.831  0.1920E+02  0.2365E+02  0.2291E+03  0.2287E+03
      9.897  0.1989E+02  0.1994E+02  0.2304E+03  0.2301E+03
      9.963  0.1143E+02  0.1260E+02  0.2312E+03  0.2309E+03
     10.029  0.1176E+02  0.1122E+02  0.2320E+03  0.2316E+03
     10.096  0.4401E+00  0.5390E+01  0.2320E+03  0.2320E+03
     10.162  0.0000E+00  0.0000E+00  0.2320E+03  0.2320E+03
     10.228  0.0000E+00  0.0000E+00  0.2320E+03  0.2320E+03
     10.295  0.0000E+00  0.0000E+00  0.2320E+03  0.2320E+03
     10.361  0.0000E+00  0.0000E+00  0.2320E+03  0.2320E+03
     10.427  0.0000E+00  0.0000E+00  0.2320E+03  0.2320E+03
     10.494  0.0000E+00  0.0000E+00  0.2320E+03  0.2320E+03
     10.560  0.0000E+00  0.0000E+00  0.2320E+03  0.2320E+03
     10.626  0.0000E+00  0.0000E+00  0.2320E+03  0.2320E+03
     10.692  0.0000E+00  0.0000E+00  0.2320E+03  0.2320E+03
     10.759  0.0000E+00  0.0000E+00  0.2320E+03  0.2320E+03
     10.825  0.0000E+00  0.0000E+00  0.2320E+03  0.2320E+03
     10.891  0.0000E+00  0.0000E+00  0.2320E+03  0.2320E+03
     10.958  0.0000E+00  0.0000E+00  0.2320E+03  0.2320E+03
