Si and Ge interface calculation         
           1
    16.293001    0.000000    0.000000
     0.000000   16.293001    0.000000
     0.000000    0.000000   13.293917
   Si   Ge
   108    48
Direct configuration=     1
   0.00000000  0.99406773  0.00000000
   0.00000000  0.82740104  0.20426638
   0.00000000  0.66073430  0.40853280
   0.33333334  0.99406773  0.00000000
   0.33333334  0.82740104  0.20426638
   0.33333334  0.66073430  0.40853280
   0.66666669  0.99406773  0.00000000
   0.66666669  0.82740104  0.20426638
   0.66666669  0.66073430  0.40853280
   0.00000000  0.32740104  0.00000000
   0.00000000  0.16073437  0.20426638
   0.00000000  0.99406767  0.40853280
   0.33333334  0.32740104  0.00000000
   0.33333334  0.16073437  0.20426638
   0.33333334  0.99406767  0.40853280
   0.66666669  0.32740104  0.00000000
   0.66666669  0.16073437  0.20426638
   0.66666669  0.99406767  0.40853280
   0.00000000  0.66073442  0.00000000
   0.00000000  0.49406770  0.20426638
   0.00000000  0.32740104  0.40853280
   0.33333334  0.66073442  0.00000000
   0.33333334  0.49406770  0.20426638
   0.33333334  0.32740104  0.40853280
   0.66666669  0.66073442  0.00000000
   0.66666669  0.49406770  0.20426638
   0.66666669  0.32740104  0.40853280
   0.08333334  0.07740105  0.10213320
   0.08333334  0.91073436  0.30639952
   0.08333334  0.74406767  0.51066601
   0.41666669  0.07740105  0.10213320
   0.41666669  0.91073436  0.30639952
   0.41666669  0.74406767  0.51066601
   0.75000000  0.07740105  0.10213320
   0.75000000  0.91073436  0.30639952
   0.75000000  0.74406767  0.51066601
   0.08333334  0.41073436  0.10213320
   0.08333334  0.24406767  0.30639952
   0.08333334  0.07740098  0.51066601
   0.41666669  0.41073436  0.10213320
   0.41666669  0.24406767  0.30639952
   0.41666669  0.07740098  0.51066601
   0.75000000  0.41073436  0.10213320
   0.75000000  0.24406767  0.30639952
   0.75000000  0.07740098  0.51066601
   0.08333334  0.74406773  0.10213320
   0.08333334  0.57740104  0.30639952
   0.08333334  0.41073436  0.51066601
   0.41666669  0.74406773  0.10213320
   0.41666669  0.57740104  0.30639952
   0.41666669  0.41073436  0.51066601
   0.75000000  0.74406773  0.10213320
   0.75000000  0.57740104  0.30639952
   0.75000000  0.41073436  0.51066601
   0.16666667  0.16073438  0.00000000
   0.16666667  0.99406767  0.20426638
   0.16666667  0.82740098  0.40853280
   0.50000000  0.16073438  0.00000000
   0.50000000  0.99406767  0.20426638
   0.50000000  0.82740098  0.40853280
   0.83333337  0.16073438  0.00000000
   0.83333337  0.99406767  0.20426638
   0.83333337  0.82740098  0.40853280
   0.16666667  0.49406770  0.00000000
   0.16666667  0.32740104  0.20426638
   0.16666667  0.16073431  0.40853280
   0.50000000  0.49406770  0.00000000
   0.50000000  0.32740104  0.20426638
   0.50000000  0.16073431  0.40853280
   0.83333337  0.49406770  0.00000000
   0.83333337  0.32740104  0.20426638
   0.83333337  0.16073431  0.40853280
   0.16666667  0.82740104  0.00000000
   0.16666667  0.66073436  0.20426638
   0.16666667  0.49406764  0.40853280
   0.50000000  0.82740104  0.00000000
   0.50000000  0.66073436  0.20426638
   0.50000000  0.49406764  0.40853280
   0.83333337  0.82740104  0.00000000
   0.83333337  0.66073436  0.20426638
   0.83333337  0.49406764  0.40853280
   0.25000000  0.24406771  0.10213320
   0.25000000  0.07740103  0.30639952
   0.25000000  0.91073436  0.51066601
   0.58333337  0.24406771  0.10213320
   0.58333337  0.07740103  0.30639952
   0.58333337  0.91073436  0.51066601
   0.91666669  0.24406771  0.10213320
   0.91666669  0.07740103  0.30639952
   0.91666669  0.91073436  0.51066601
   0.25000000  0.57740116  0.10213320
   0.25000000  0.41073445  0.30639952
   0.25000000  0.24406774  0.51066601
   0.58333337  0.57740116  0.10213320
   0.58333337  0.41073445  0.30639952
   0.58333337  0.24406774  0.51066601
   0.91666669  0.57740116  0.10213320
   0.91666669  0.41073445  0.30639952
   0.91666669  0.24406774  0.51066601
   0.25000000  0.91073436  0.10213320
   0.25000000  0.74406767  0.30639952
   0.25000000  0.57740104  0.51066601
   0.58333337  0.91073436  0.10213320
   0.58333337  0.74406767  0.30639952
   0.58333337  0.57740104  0.51066601
   0.91666669  0.91073436  0.10213320
   0.91666669  0.74406767  0.30639952
   0.91666669  0.57740104  0.51066601
   0.25570333  0.20336127  0.62994116
   0.86681437  0.82836115  0.68009800
   0.47792539  0.45336121  0.73025465
   0.08903634  0.07836127  0.78041142
   0.70014751  0.70336127  0.83056808
   0.31125855  0.32836115  0.88072485
   0.25570333  0.70336115  0.62994116
   0.86681437  0.32836112  0.68009800
   0.47792539  0.95336115  0.73025471
   0.08903634  0.57836115  0.78041142
   0.70014751  0.20336127  0.83056808
   0.31125855  0.82836115  0.88072479
   0.00570321  0.32836115  0.62994116
   0.61681426  0.95336115  0.68009800
   0.22792530  0.57836121  0.73025465
   0.83903634  0.20336127  0.78041136
   0.45014742  0.82836127  0.83056814
   0.06125832  0.45336127  0.88072479
   0.00570321  0.82836109  0.62994116
   0.61681426  0.45336109  0.68009800
   0.22792530  0.07836103  0.73025465
   0.83903634  0.70336109  0.78041136
   0.45014742  0.32836121  0.83056814
   0.06125843  0.95336103  0.88072479
   0.00570321  0.57836115  0.62994123
   0.61681426  0.20336115  0.68009800
   0.22792530  0.82836121  0.73025465
   0.83903634  0.45336121  0.78041136
   0.45014748  0.07836127  0.83056814
   0.06125843  0.70336127  0.88072485
   0.00570321  0.07836103  0.62994116
   0.61681426  0.70336103  0.68009800
   0.22792530  0.32836112  0.73025465
   0.83903634  0.95336115  0.78041136
   0.45014748  0.57836121  0.83056814
   0.06125832  0.20336103  0.88072479
   0.25570333  0.45336115  0.62994116
   0.86681437  0.07836115  0.68009800
   0.47792539  0.70336127  0.73025471
   0.08903634  0.32836121  0.78041142
   0.70014775  0.95336139  0.83056814
   0.31125855  0.57836115  0.88072485
   0.25570333  0.95336109  0.62994116
   0.86681437  0.57836115  0.68009800
   0.47792539  0.20336127  0.73025471
   0.08903646  0.82836121  0.78041142
   0.70014763  0.45336127  0.83056808
   0.31125832  0.07836103  0.88072479
