       N       E                     dE             d eps       ncg     rms          rms(c)
DAV:   1     0.464712347191E+04    0.46471E+04   -0.44326E+05 20352   0.167E+03
DAV:   2    -0.599143608374E+03   -0.52463E+04   -0.50656E+04 23952   0.203E+02
DAV:   3    -0.113288820825E+04   -0.53374E+03   -0.51626E+03 26008   0.587E+01
DAV:   4    -0.115524842411E+04   -0.22360E+02   -0.21876E+02 24792   0.129E+01
DAV:   5    -0.115628012863E+04   -0.10317E+01   -0.10213E+01 28672   0.272E+00    0.477E+01
DAV:   6    -0.112528164669E+04    0.30998E+02   -0.11637E+02 31176   0.135E+01    0.219E+01
DAV:   7    -0.112365196434E+04    0.16297E+01   -0.68875E+01 26088   0.114E+01    0.155E+01
DAV:   8    -0.112100454680E+04    0.26474E+01   -0.15147E+01 24128   0.513E+00    0.323E+00
DAV:   9    -0.112107405939E+04   -0.69513E-01   -0.42166E+00 25504   0.233E+00    0.234E+00
DAV:  10    -0.112094117404E+04    0.13289E+00   -0.12541E+00 24648   0.139E+00    0.150E+00
DAV:  11    -0.112092980259E+04    0.11371E-01   -0.26085E-01 24008   0.589E-01    0.108E+00
DAV:  12    -0.112093040295E+04   -0.60036E-03   -0.60465E-02 24104   0.318E-01    0.771E-01
DAV:  13    -0.112092824919E+04    0.21538E-02   -0.30671E-02 24360   0.219E-01    0.381E-01
DAV:  14    -0.112092794571E+04    0.30349E-03   -0.11438E-02 24632   0.133E-01    0.182E-01
DAV:  15    -0.112092752733E+04    0.41838E-03   -0.48309E-03 24352   0.905E-02    0.995E-02
DAV:  16    -0.112092747827E+04    0.49058E-04   -0.15738E-03 23560   0.441E-02    0.677E-02
DAV:  17    -0.112092748617E+04   -0.78970E-05   -0.34920E-04 23448   0.187E-02    0.480E-02
DAV:  18    -0.112092749225E+04   -0.60780E-05   -0.74462E-05 23680   0.964E-03    0.184E-02
DAV:  19    -0.112092748821E+04    0.40358E-05   -0.20951E-05 23800   0.545E-03    0.123E-02
DAV:  20    -0.112092748799E+04    0.21586E-06   -0.62335E-06 24680   0.325E-03    0.814E-03
DAV:  21    -0.112092748879E+04   -0.80105E-06   -0.29618E-06 24144   0.196E-03    0.359E-03
DAV:  22    -0.112092748928E+04   -0.48705E-06   -0.93797E-07 23200   0.102E-03    0.195E-03
DAV:  23    -0.112092748961E+04   -0.32343E-06   -0.17776E-07 12952   0.443E-04    0.134E-03
DAV:  24    -0.112092748999E+04   -0.38082E-06   -0.13144E-07 13616   0.380E-04    0.895E-04
DAV:  25    -0.112092749011E+04   -0.12377E-06   -0.66591E-08 11896   0.260E-04    0.780E-04
DAV:  26    -0.112092749010E+04    0.63810E-08   -0.33201E-08 11760   0.195E-04
   1 F= -.11209275E+04 E0= -.11209256E+04  d E =-.384186E-02  mag=     1.0000
