 120 120   0   0
  0.2190039E+02  0.7680595E-09  0.1629300E-08  0.2100086E-08  0.5000000E-15
  1.000000000000000E-004
  CAR 
 Si and Ge interface calculation         
      7.80070908     -8.72637630  301      4.73076613      1.00000000
     -8.726  0.0000E+00  0.0000E+00  0.0000E+00  0.0000E+00
     -8.671  0.0000E+00  0.0000E+00  0.0000E+00  0.0000E+00
     -8.616  0.0000E+00  0.0000E+00  0.0000E+00  0.0000E+00
     -8.561  0.0000E+00  0.0000E+00  0.0000E+00  0.0000E+00
     -8.506  0.0000E+00  0.0000E+00  0.0000E+00  0.0000E+00
     -8.451  0.0000E+00  0.0000E+00  0.0000E+00  0.0000E+00
     -8.396  0.0000E+00  0.0000E+00  0.0000E+00  0.0000E+00
     -8.341  0.0000E+00  0.0000E+00  0.0000E+00  0.0000E+00
     -8.286  0.0000E+00  0.0000E+00  0.0000E+00  0.0000E+00
     -8.231  0.0000E+00  0.0000E+00  0.0000E+00  0.0000E+00
     -8.175  0.0000E+00  0.0000E+00  0.0000E+00  0.0000E+00
     -8.120  0.0000E+00  0.0000E+00  0.0000E+00  0.0000E+00
     -8.065  0.0000E+00  0.0000E+00  0.0000E+00  0.0000E+00
     -8.010  0.1617E-05  0.4303E-08  0.8909E-07  0.2370E-09
     -7.955  0.4528E+01  0.4369E+01  0.2494E+00  0.2407E+00
     -7.900  0.1049E-01  0.1687E+00  0.2500E+00  0.2500E+00
     -7.845  0.9718E+01  0.9014E+01  0.7854E+00  0.7466E+00
     -7.790  0.8434E+01  0.9138E+01  0.1250E+01  0.1250E+01
     -7.735  0.2555E+01  0.3105E+00  0.1391E+01  0.1267E+01
     -7.680  0.1560E+02  0.1784E+02  0.2250E+01  0.2250E+01
     -7.625  0.1129E-02  0.3796E-04  0.2250E+01  0.2250E+01
     -7.569  0.4537E+01  0.4537E+01  0.2500E+01  0.2500E+01
     -7.514  0.4529E+01  0.4221E+01  0.2749E+01  0.2732E+01
     -7.459  0.3840E+01  0.1715E+01  0.2961E+01  0.2827E+01
     -7.404  0.1472E+02  0.1595E+02  0.3772E+01  0.3706E+01
     -7.349  0.1321E+02  0.1442E+02  0.4500E+01  0.4500E+01
     -7.294  0.2620E+02  0.2295E+02  0.5943E+01  0.5765E+01
     -7.239  0.9706E+01  0.1059E+02  0.6478E+01  0.6348E+01
     -7.184  0.1408E+02  0.1637E+02  0.7254E+01  0.7250E+01
     -7.129  0.1820E+02  0.1816E+02  0.8256E+01  0.8250E+01
     -7.074  0.2997E+02  0.2489E+02  0.9907E+01  0.9622E+01
     -7.019  0.1173E+02  0.1579E+02  0.1055E+02  0.1049E+02
     -6.963  0.2512E+02  0.2096E+02  0.1194E+02  0.1165E+02
     -6.908  0.9723E+01  0.1148E+02  0.1247E+02  0.1228E+02
     -6.853  0.2349E+02  0.2179E+02  0.1377E+02  0.1348E+02
     -6.798  0.1277E+02  0.1552E+02  0.1447E+02  0.1433E+02
     -6.743  0.5026E+02  0.5160E+02  0.1724E+02  0.1718E+02
     -6.688  0.1383E+02  0.7308E+01  0.1800E+02  0.1758E+02
     -6.633  0.4081E+02  0.4838E+02  0.2025E+02  0.2024E+02
     -6.578  0.5898E+01  0.4812E+01  0.2057E+02  0.2051E+02
     -6.523  0.3050E+02  0.3160E+02  0.2226E+02  0.2225E+02
     -6.468  0.1710E+02  0.1455E+02  0.2320E+02  0.2305E+02
     -6.413  0.3875E+02  0.3577E+02  0.2533E+02  0.2502E+02
     -6.357  0.5072E+02  0.4864E+02  0.2813E+02  0.2770E+02
     -6.302  0.1966E+02  0.2393E+02  0.2921E+02  0.2902E+02
     -6.247  0.1897E+02  0.2231E+02  0.3025E+02  0.3025E+02
     -6.192  0.2786E+02  0.1813E+02  0.3179E+02  0.3125E+02
     -6.137  0.4064E+02  0.4160E+02  0.3403E+02  0.3354E+02
     -6.082  0.4776E+02  0.4794E+02  0.3666E+02  0.3618E+02
     -6.027  0.6852E+02  0.7188E+02  0.4043E+02  0.4014E+02
     -5.972  0.2621E+02  0.2879E+02  0.4188E+02  0.4173E+02
     -5.917  0.3204E+02  0.3156E+02  0.4364E+02  0.4347E+02
     -5.862  0.1934E+02  0.1596E+02  0.4471E+02  0.4434E+02
     -5.807  0.4777E+02  0.4604E+02  0.4734E+02  0.4688E+02
     -5.752  0.4035E+02  0.4755E+02  0.4956E+02  0.4950E+02
     -5.696  0.3521E+02  0.2974E+02  0.5150E+02  0.5114E+02
     -5.641  0.3582E+02  0.4006E+02  0.5348E+02  0.5335E+02
     -5.586  0.4454E+01  0.3881E+01  0.5372E+02  0.5356E+02
     -5.531  0.6459E+02  0.6221E+02  0.5728E+02  0.5699E+02
     -5.476  0.2424E+02  0.2283E+02  0.5862E+02  0.5825E+02
     -5.421  0.2519E+02  0.3185E+02  0.6000E+02  0.6000E+02
     -5.366  0.4334E+02  0.3961E+02  0.6239E+02  0.6218E+02
     -5.311  0.1592E+02  0.1463E+02  0.6327E+02  0.6299E+02
     -5.256  0.4343E+02  0.4468E+02  0.6566E+02  0.6545E+02
     -5.201  0.4657E+02  0.4262E+02  0.6823E+02  0.6780E+02
     -5.146  0.4734E+02  0.5048E+02  0.7083E+02  0.7058E+02
     -5.090  0.5093E+02  0.3977E+02  0.7364E+02  0.7277E+02
     -5.035  0.8897E+02  0.1009E+03  0.7854E+02  0.7833E+02
     -4.980  0.2451E+02  0.2576E+02  0.7989E+02  0.7975E+02
     -4.925  0.7307E+02  0.6886E+02  0.8392E+02  0.8354E+02
     -4.870  0.1452E+02  0.1812E+02  0.8472E+02  0.8454E+02
     -4.815  0.2491E+02  0.2193E+02  0.8609E+02  0.8575E+02
     -4.760  0.5577E+02  0.5737E+02  0.8916E+02  0.8891E+02
     -4.705  0.2686E+02  0.1788E+02  0.9064E+02  0.8990E+02
     -4.650  0.4908E+02  0.5708E+02  0.9335E+02  0.9304E+02
     -4.595  0.2277E+02  0.2456E+02  0.9460E+02  0.9439E+02
     -4.540  0.2545E+02  0.2916E+02  0.9600E+02  0.9600E+02
     -4.484  0.2484E+02  0.2066E+02  0.9737E+02  0.9714E+02
     -4.429  0.4730E+02  0.4482E+02  0.9998E+02  0.9961E+02
     -4.374  0.4411E+02  0.4659E+02  0.1024E+03  0.1022E+03
     -4.319  0.4191E+02  0.4240E+02  0.1047E+03  0.1045E+03
     -4.264  0.1961E+02  0.1894E+02  0.1058E+03  0.1056E+03
     -4.209  0.5597E+02  0.4843E+02  0.1089E+03  0.1082E+03
     -4.154  0.1580E+02  0.2775E+02  0.1098E+03  0.1097E+03
     -4.099  0.9045E+01  0.7655E+01  0.1102E+03  0.1102E+03
     -4.044  0.2650E+02  0.2327E+02  0.1117E+03  0.1115E+03
     -3.989  0.5448E+01  0.9926E+01  0.1120E+03  0.1120E+03
     -3.934  0.1346E+02  0.1360E+02  0.1128E+03  0.1127E+03
     -3.878  0.2650E+02  0.1671E+02  0.1142E+03  0.1137E+03
     -3.823  0.1229E+02  0.2033E+02  0.1149E+03  0.1148E+03
     -3.768  0.1960E+02  0.2000E+02  0.1160E+03  0.1159E+03
     -3.713  0.1994E+02  0.1806E+02  0.1171E+03  0.1169E+03
     -3.658  0.1257E+02  0.1568E+02  0.1178E+03  0.1178E+03
     -3.603  0.3995E+02  0.3607E+02  0.1200E+03  0.1197E+03
     -3.548  0.1521E+02  0.1851E+02  0.1208E+03  0.1208E+03
     -3.493  0.2628E+02  0.2535E+02  0.1222E+03  0.1222E+03
     -3.438  0.1563E+02  0.8420E+01  0.1231E+03  0.1226E+03
     -3.383  0.2325E+02  0.2818E+02  0.1244E+03  0.1242E+03
     -3.328  0.1953E+02  0.1963E+02  0.1255E+03  0.1253E+03
     -3.272  0.2435E+02  0.2290E+02  0.1268E+03  0.1265E+03
     -3.217  0.3537E+02  0.3982E+02  0.1288E+03  0.1287E+03
     -3.162  0.2580E+02  0.2038E+02  0.1302E+03  0.1298E+03
     -3.107  0.1413E+01  0.7623E+01  0.1303E+03  0.1302E+03
     -3.052  0.2232E+02  0.9561E+01  0.1315E+03  0.1308E+03
     -2.997  0.1399E+02  0.2674E+02  0.1323E+03  0.1322E+03
     -2.942  0.1200E+02  0.8965E+01  0.1329E+03  0.1327E+03
     -2.887  0.4700E+02  0.4735E+02  0.1355E+03  0.1354E+03
     -2.832  0.5489E+02  0.4538E+02  0.1385E+03  0.1379E+03
     -2.777  0.1213E+02  0.2165E+02  0.1392E+03  0.1390E+03
     -2.722  0.2268E+02  0.2222E+02  0.1404E+03  0.1403E+03
     -2.666  0.5122E+02  0.4858E+02  0.1433E+03  0.1429E+03
     -2.611  0.4725E+02  0.4559E+02  0.1459E+03  0.1455E+03
     -2.556  0.4010E+02  0.4620E+02  0.1481E+03  0.1480E+03
     -2.501  0.6828E+02  0.6565E+02  0.1518E+03  0.1516E+03
     -2.446  0.5772E+02  0.4826E+02  0.1550E+03  0.1543E+03
     -2.391  0.5201E+02  0.5821E+02  0.1579E+03  0.1575E+03
     -2.336  0.7806E+02  0.7294E+02  0.1622E+03  0.1615E+03
     -2.281  0.3928E+02  0.4418E+02  0.1643E+03  0.1639E+03
     -2.226  0.5969E+02  0.6171E+02  0.1676E+03  0.1673E+03
     -2.171  0.4252E+02  0.4056E+02  0.1700E+03  0.1696E+03
     -2.116  0.1430E+02  0.2142E+02  0.1708E+03  0.1708E+03
     -2.060  0.3124E+02  0.2628E+02  0.1725E+03  0.1722E+03
     -2.005  0.6620E+02  0.5657E+02  0.1761E+03  0.1753E+03
     -1.950  0.5636E+02  0.6902E+02  0.1792E+03  0.1791E+03
     -1.895  0.2158E+02  0.1975E+02  0.1804E+03  0.1802E+03
     -1.840  0.2971E+02  0.2811E+02  0.1821E+03  0.1818E+03
     -1.785  0.3588E+01  0.8998E+01  0.1823E+03  0.1823E+03
     -1.730  0.2457E+02  0.2164E+02  0.1836E+03  0.1834E+03
     -1.675  0.3341E+02  0.3297E+02  0.1855E+03  0.1853E+03
     -1.620  0.4901E+02  0.4639E+02  0.1882E+03  0.1878E+03
     -1.565  0.7903E+02  0.7972E+02  0.1925E+03  0.1922E+03
     -1.510  0.4032E+02  0.4331E+02  0.1947E+03  0.1946E+03
     -1.454  0.3417E+02  0.3038E+02  0.1966E+03  0.1963E+03
     -1.399  0.2465E+01  0.8776E+01  0.1968E+03  0.1968E+03
     -1.344  0.2807E+02  0.2667E+02  0.1983E+03  0.1982E+03
     -1.289  0.3701E+01  0.5095E+01  0.1985E+03  0.1985E+03
     -1.234  0.1253E+02  0.1055E+02  0.1992E+03  0.1991E+03
     -1.179  0.1470E+02  0.1666E+02  0.2000E+03  0.2000E+03
     -1.124  0.1810E+02  0.1775E+02  0.2010E+03  0.2010E+03
     -1.069  0.2501E+02  0.1594E+02  0.2024E+03  0.2019E+03
     -1.014  0.3706E+02  0.4170E+02  0.2044E+03  0.2042E+03
     -0.959  0.2034E+02  0.2453E+02  0.2055E+03  0.2055E+03
     -0.904  0.1149E+02  0.8295E+01  0.2062E+03  0.2060E+03
     -0.848  0.2604E+02  0.2211E+02  0.2076E+03  0.2072E+03
     -0.793  0.1894E+02  0.2313E+02  0.2086E+03  0.2085E+03
     -0.738  0.1845E+01  0.5398E+01  0.2088E+03  0.2088E+03
     -0.683  0.3593E+02  0.3209E+02  0.2107E+03  0.2105E+03
     -0.628  0.2458E+02  0.2496E+02  0.2121E+03  0.2119E+03
     -0.573  0.1630E+02  0.1630E+02  0.2130E+03  0.2128E+03
     -0.518  0.4924E+02  0.4868E+02  0.2157E+03  0.2155E+03
     -0.463  0.1892E+02  0.1774E+02  0.2167E+03  0.2164E+03
     -0.408  0.4080E+02  0.3622E+02  0.2190E+03  0.2184E+03
     -0.353  0.9369E+01  0.1915E+02  0.2195E+03  0.2195E+03
     -0.298  0.8949E+01  0.8116E+01  0.2200E+03  0.2199E+03
     -0.242  0.2003E+02  0.1719E+02  0.2211E+03  0.2209E+03
     -0.187  0.1640E+02  0.2007E+02  0.2220E+03  0.2220E+03
     -0.132  0.9591E+01  0.7965E+01  0.2225E+03  0.2224E+03
     -0.077  0.8205E+01  0.8448E+01  0.2230E+03  0.2229E+03
     -0.022  0.1845E+02  0.1917E+02  0.2240E+03  0.2240E+03
      0.033  0.2062E+02  0.1712E+02  0.2251E+03  0.2249E+03
      0.088  0.1043E+02  0.1141E+02  0.2257E+03  0.2255E+03
      0.143  0.1021E+02  0.1307E+02  0.2263E+03  0.2263E+03
      0.198  0.3580E+02  0.2764E+02  0.2282E+03  0.2278E+03
      0.253  0.5383E+02  0.5300E+02  0.2312E+03  0.2307E+03
      0.308  0.8479E+02  0.8803E+02  0.2359E+03  0.2355E+03
      0.364  0.2922E+02  0.3336E+02  0.2375E+03  0.2374E+03
      0.419  0.2962E+02  0.2874E+02  0.2391E+03  0.2390E+03
      0.474  0.5925E+02  0.5798E+02  0.2424E+03  0.2422E+03
      0.529  0.5172E+02  0.5101E+02  0.2452E+03  0.2450E+03
      0.584  0.2911E+02  0.2575E+02  0.2468E+03  0.2464E+03
      0.639  0.6703E+02  0.6636E+02  0.2505E+03  0.2500E+03
      0.694  0.5378E+02  0.5753E+02  0.2535E+03  0.2532E+03
      0.749  0.7898E+02  0.6798E+02  0.2578E+03  0.2570E+03
      0.804  0.9029E+02  0.9186E+02  0.2628E+03  0.2620E+03
      0.859  0.5479E+02  0.6220E+02  0.2658E+03  0.2654E+03
      0.914  0.8857E+02  0.8326E+02  0.2707E+03  0.2700E+03
      0.970  0.4955E+02  0.5817E+02  0.2734E+03  0.2732E+03
      1.025  0.4049E+02  0.3975E+02  0.2757E+03  0.2754E+03
      1.080  0.7402E+02  0.6631E+02  0.2798E+03  0.2791E+03
      1.135  0.7587E+02  0.7702E+02  0.2839E+03  0.2833E+03
      1.190  0.9626E+02  0.9474E+02  0.2892E+03  0.2885E+03
      1.245  0.5466E+02  0.6583E+02  0.2922E+03  0.2922E+03
      1.300  0.6629E+02  0.5896E+02  0.2959E+03  0.2954E+03
      1.355  0.9901E+02  0.9846E+02  0.3014E+03  0.3008E+03
      1.410  0.6087E+02  0.5793E+02  0.3047E+03  0.3040E+03
      1.465  0.7869E+02  0.8728E+02  0.3090E+03  0.3088E+03
      1.520  0.4867E+02  0.4306E+02  0.3117E+03  0.3112E+03
      1.576  0.3842E+02  0.3986E+02  0.3138E+03  0.3134E+03
      1.631  0.9852E+02  0.9641E+02  0.3193E+03  0.3187E+03
      1.686  0.7671E+02  0.7436E+02  0.3235E+03  0.3228E+03
      1.741  0.7676E+02  0.7538E+02  0.3277E+03  0.3270E+03
      1.796  0.8868E+02  0.8869E+02  0.3326E+03  0.3319E+03
      1.851  0.1206E+03  0.1223E+03  0.3393E+03  0.3386E+03
      1.906  0.5576E+02  0.6027E+02  0.3423E+03  0.3419E+03
      1.961  0.9752E+02  0.9735E+02  0.3477E+03  0.3473E+03
      2.016  0.3832E+02  0.3270E+02  0.3498E+03  0.3491E+03
      2.071  0.5232E+02  0.5899E+02  0.3527E+03  0.3523E+03
      2.126  0.7832E+02  0.7528E+02  0.3570E+03  0.3565E+03
      2.182  0.7909E+02  0.8515E+02  0.3614E+03  0.3612E+03
      2.237  0.7218E+02  0.7072E+02  0.3653E+03  0.3651E+03
      2.292  0.5856E+02  0.4780E+02  0.3686E+03  0.3677E+03
      2.347  0.8710E+02  0.9779E+02  0.3734E+03  0.3731E+03
      2.402  0.5512E+02  0.4943E+02  0.3764E+03  0.3758E+03
      2.457  0.8557E+02  0.8475E+02  0.3811E+03  0.3805E+03
      2.512  0.7112E+02  0.7070E+02  0.3850E+03  0.3844E+03
      2.567  0.7550E+02  0.7699E+02  0.3892E+03  0.3886E+03
      2.622  0.5133E+02  0.5442E+02  0.3920E+03  0.3916E+03
      2.677  0.8118E+02  0.8013E+02  0.3965E+03  0.3960E+03
      2.732  0.6315E+02  0.6346E+02  0.4000E+03  0.3995E+03
      2.787  0.5831E+02  0.6093E+02  0.4032E+03  0.4029E+03
      2.843  0.3051E+02  0.3427E+02  0.4049E+03  0.4048E+03
      2.898  0.8681E+02  0.6941E+02  0.4096E+03  0.4086E+03
      2.953  0.6192E+02  0.7254E+02  0.4131E+03  0.4126E+03
      3.008  0.4746E+02  0.5294E+02  0.4157E+03  0.4155E+03
      3.063  0.8032E+02  0.6314E+02  0.4201E+03  0.4190E+03
      3.118  0.6996E+02  0.8054E+02  0.4239E+03  0.4234E+03
      3.173  0.6764E+02  0.7022E+02  0.4277E+03  0.4273E+03
      3.228  0.8231E+02  0.7274E+02  0.4322E+03  0.4313E+03
      3.283  0.6237E+02  0.7133E+02  0.4356E+03  0.4352E+03
      3.338  0.6209E+02  0.6440E+02  0.4391E+03  0.4388E+03
      3.393  0.7728E+02  0.7398E+02  0.4433E+03  0.4428E+03
      3.449  0.5793E+02  0.5328E+02  0.4465E+03  0.4458E+03
      3.504  0.3208E+02  0.4373E+02  0.4483E+03  0.4482E+03
      3.559  0.4807E+02  0.3125E+02  0.4509E+03  0.4499E+03
      3.614  0.3802E+02  0.5201E+02  0.4530E+03  0.4528E+03
      3.669  0.3718E+02  0.3242E+02  0.4551E+03  0.4546E+03
      3.724  0.2518E+02  0.3063E+02  0.4565E+03  0.4563E+03
      3.779  0.3961E+02  0.3593E+02  0.4586E+03  0.4582E+03
      3.834  0.2859E+02  0.3322E+02  0.4602E+03  0.4601E+03
      3.889  0.1778E+02  0.1542E+02  0.4612E+03  0.4609E+03
      3.944  0.3090E+02  0.3374E+02  0.4629E+03  0.4628E+03
      3.999  0.3974E+02  0.3774E+02  0.4651E+03  0.4649E+03
      4.055  0.3434E+02  0.3369E+02  0.4670E+03  0.4667E+03
      4.110  0.2451E+02  0.1891E+02  0.4683E+03  0.4677E+03
      4.165  0.1558E+02  0.2157E+02  0.4692E+03  0.4689E+03
      4.220  0.2735E+02  0.1902E+02  0.4707E+03  0.4700E+03
      4.275  0.1415E+02  0.2364E+02  0.4715E+03  0.4713E+03
      4.330  0.1859E+02  0.2192E+02  0.4725E+03  0.4725E+03
      4.385  0.8911E-01  0.9090E-01  0.4725E+03  0.4725E+03
      4.440  0.3425E+02  0.1561E+02  0.4744E+03  0.4734E+03
      4.495  0.2467E+02  0.3218E+02  0.4758E+03  0.4751E+03
      4.550  0.1511E+02  0.1600E+02  0.4766E+03  0.4760E+03
      4.605  0.3066E+01  0.1331E+02  0.4768E+03  0.4767E+03
      4.661  0.2098E+02  0.1199E+02  0.4779E+03  0.4774E+03
      4.716  0.2627E+02  0.2390E+02  0.4794E+03  0.4787E+03
      4.771  0.3657E+02  0.2323E+02  0.4814E+03  0.4800E+03
      4.826  0.2114E+02  0.4090E+02  0.4825E+03  0.4823E+03
      4.881  0.1861E+02  0.1779E+02  0.4836E+03  0.4832E+03
      4.936  0.4627E+02  0.2912E+02  0.4861E+03  0.4848E+03
      4.991  0.1276E+02  0.2556E+02  0.4868E+03  0.4863E+03
      5.046  0.3326E+02  0.1579E+02  0.4886E+03  0.4871E+03
      5.101  0.3925E+02  0.6490E+02  0.4908E+03  0.4907E+03
      5.156  0.3514E+02  0.2365E+02  0.4927E+03  0.4920E+03
      5.211  0.2220E+02  0.2280E+02  0.4940E+03  0.4933E+03
      5.267  0.4637E+02  0.5335E+02  0.4965E+03  0.4962E+03
      5.322  0.4105E+02  0.4104E+02  0.4988E+03  0.4985E+03
      5.377  0.5286E+02  0.4877E+02  0.5017E+03  0.5011E+03
      5.432  0.2757E+02  0.2214E+02  0.5032E+03  0.5024E+03
      5.487  0.2725E+02  0.4030E+02  0.5047E+03  0.5046E+03
      5.542  0.3700E+02  0.3339E+02  0.5068E+03  0.5064E+03
      5.597  0.4978E+02  0.4327E+02  0.5095E+03  0.5088E+03
      5.652  0.6133E+02  0.5617E+02  0.5129E+03  0.5119E+03
      5.707  0.3919E+02  0.4635E+02  0.5150E+03  0.5145E+03
      5.762  0.5629E+02  0.5142E+02  0.5181E+03  0.5173E+03
      5.817  0.6027E+02  0.6581E+02  0.5215E+03  0.5209E+03
      5.873  0.6036E+02  0.5082E+02  0.5248E+03  0.5237E+03
      5.928  0.2967E+02  0.4616E+02  0.5264E+03  0.5263E+03
      5.983  0.4822E+02  0.4047E+02  0.5291E+03  0.5285E+03
      6.038  0.4996E+02  0.5458E+02  0.5318E+03  0.5315E+03
      6.093  0.6097E+02  0.5310E+02  0.5352E+03  0.5344E+03
      6.148  0.3724E+02  0.4208E+02  0.5372E+03  0.5367E+03
      6.203  0.6578E+02  0.7166E+02  0.5409E+03  0.5407E+03
      6.258  0.5119E+02  0.4962E+02  0.5437E+03  0.5434E+03
      6.313  0.3560E+02  0.3287E+02  0.5456E+03  0.5452E+03
      6.368  0.3733E+02  0.3677E+02  0.5477E+03  0.5473E+03
      6.423  0.6193E+02  0.6247E+02  0.5511E+03  0.5507E+03
      6.479  0.6123E+02  0.5765E+02  0.5545E+03  0.5539E+03
      6.534  0.8191E+02  0.8057E+02  0.5590E+03  0.5583E+03
      6.589  0.3300E+02  0.4068E+02  0.5608E+03  0.5605E+03
      6.644  0.3994E+02  0.3732E+02  0.5630E+03  0.5626E+03
      6.699  0.4460E+02  0.4559E+02  0.5655E+03  0.5651E+03
      6.754  0.4203E+02  0.4433E+02  0.5678E+03  0.5676E+03
      6.809  0.4371E+02  0.3323E+02  0.5702E+03  0.5694E+03
      6.864  0.6150E+02  0.7078E+02  0.5736E+03  0.5733E+03
      6.919  0.1625E+02  0.1742E+02  0.5745E+03  0.5742E+03
      6.974  0.6001E+01  0.7188E+01  0.5748E+03  0.5746E+03
      7.029  0.1286E+02  0.1553E+02  0.5755E+03  0.5755E+03
      7.085  0.8849E+01  0.9083E+01  0.5760E+03  0.5760E+03
      7.140  0.0000E+00  0.0000E+00  0.5760E+03  0.5760E+03
      7.195  0.0000E+00  0.0000E+00  0.5760E+03  0.5760E+03
      7.250  0.0000E+00  0.0000E+00  0.5760E+03  0.5760E+03
      7.305  0.0000E+00  0.0000E+00  0.5760E+03  0.5760E+03
      7.360  0.0000E+00  0.0000E+00  0.5760E+03  0.5760E+03
      7.415  0.0000E+00  0.0000E+00  0.5760E+03  0.5760E+03
      7.470  0.0000E+00  0.0000E+00  0.5760E+03  0.5760E+03
      7.525  0.0000E+00  0.0000E+00  0.5760E+03  0.5760E+03
      7.580  0.0000E+00  0.0000E+00  0.5760E+03  0.5760E+03
      7.635  0.0000E+00  0.0000E+00  0.5760E+03  0.5760E+03
      7.691  0.0000E+00  0.0000E+00  0.5760E+03  0.5760E+03
      7.746  0.0000E+00  0.0000E+00  0.5760E+03  0.5760E+03
      7.801  0.0000E+00  0.0000E+00  0.5760E+03  0.5760E+03
