 vasp.6.4.3 19Mar24 (build Oct 22 2024 11:23:12) complex                        
  
 executed on             LinuxIFC date 2025.06.08  11:37:36
 running   64 mpi-ranks, on    4 nodes
 distrk:  each k-point on   64 cores,    1 groups
 distr:  one band on NCORE=  16 cores,    4 groups


--------------------------------------------------------------------------------------------------------


 INCAR:
   SYSTEM = Si and Ge interface calculation
   ISTART = 0
   ICHARG = 2
   LWAVE = .FALSE.
   LREAL = AUTO
   ENCUT = 700
   ENAUG = 900
   ADDGRID = .TRUE.
   LMAXMIX = 6
   LASPH = .TRUE.
   LMIXTAU = .TRUE.
   NCORE = 16
   NELM = 100
   NBANDS = 288
   EDIFF = 1d-7
   AMIX = 0.6
   ISMEAR = 0
   SIGMA = 0.01
   NELECT = 480
   ISPIN = 2
   NUPDOWN = 1
   LVTOT = .FALSE.
   LVHAR = .TRUE.

 POTCAR:    PAW_PBE Si 05Jan2001                  
 POTCAR:    PAW_PBE Ge 05Jan2001                  
 -----------------------------------------------------------------------------
|                                                                             |
|           W    W    AA    RRRRR   N    N  II  N    N   GGGG   !!!           |
|           W    W   A  A   R    R  NN   N  II  NN   N  G    G  !!!           |
|           W    W  A    A  R    R  N N  N  II  N N  N  G       !!!           |
|           W WW W  AAAAAA  RRRRR   N  N N  II  N  N N  G  GGG   !            |
|           WW  WW  A    A  R   R   N   NN  II  N   NN  G    G                |
|           W    W  A    A  R    R  N    N  II  N    N   GGGG   !!!           |
|                                                                             |
|     You use a magnetic or noncollinear calculation, but did not specify     |
|     the initial magnetic moment with the MAGMOM tag. Note that a            |
|     default of 8.333e-3 will be used for all atoms. This ferromagnetic      |
|     setup may break the symmetry of the crystal, in particular it may       |
|     rule out finding an antiferromagnetic solution. Thence, we              |
|     recommend setting the initial magnetic moment manually or verifying     |
|     carefully that this magnetic setup is desired.                          |
|                                                                             |
 -----------------------------------------------------------------------------

 POTCAR:    PAW_PBE Si 05Jan2001                  
   VRHFIN =Si: s2p2                                                                                 
   LEXCH  = PE                                                                                      
   EATOM  =   103.0669 eV,    7.5752 Ry                                                             
                                                                                                    
   TITEL  = PAW_PBE Si 05Jan2001                                                                    
   LULTRA =        F    use ultrasoft PP ?                                                          
   IUNSCR =        1    unscreen: 0-lin 1-nonlin 2-no                                               
   RPACOR =    1.500    partial core radius                                                         
   POMASS =   28.085; ZVAL   =    4.000    mass and valenz                                          
   RCORE  =    1.900    outmost cutoff radius                                                       
   RWIGS  =    2.480; RWIGS  =    1.312    wigner-seitz radius (au A)                               
   ENMAX  =  245.345; ENMIN  =  184.009 eV                                                          
   ICORE  =        2    local potential                                                             
   LCOR   =        T    correct aug charges                                                         
   LPAW   =        T    paw PP                                                                      
   EAUG   =  322.069                                                                                
   DEXC   =    0.000                                                                                
   RMAX   =    1.950    core radius for proj-oper                                                   
   RAUG   =    1.300    factor for augmentation sphere                                              
   RDEP   =    1.993    radius for radial grids                                                     
   RDEPT  =    1.837    core radius for aug-charge                                                  
                                                                                                    
   Atomic configuration                                                                             
    6 entries                                                                                       
     n  l   j            E        occ.                                                              
     1  0  0.50     -1785.8828   2.0000                                                             
     2  0  0.50      -139.4969   2.0000                                                             
     2  1  1.50       -95.5546   6.0000                                                             
     3  0  0.50       -10.8127   2.0000                                                             
     3  1  0.50        -4.0811   2.0000                                                             
     3  2  1.50        -4.0817   0.0000                                                             
   Description                                                                                      
     l       E           TYP  RCUT    TYP  RCUT                                                     
     0    -10.8127223     23  1.900                                                                 
     0     -7.6451159     23  1.900                                                                 
     1     -4.0811372     23  1.900                                                                 
     1      2.4879257     23  1.900                                                                 
     2     -4.0817478      7  1.900                                                                 
  local pseudopotential read in
  partial core-charges read in
  partial kinetic energy density read in
  atomic valenz-charges read in
  non local Contribution for L=           0  read in
    real space projection operators read in
  non local Contribution for L=           0  read in
    real space projection operators read in
  non local Contribution for L=           1  read in
    real space projection operators read in
  non local Contribution for L=           1  read in
    real space projection operators read in
    PAW grid and wavefunctions read in
 
   number of l-projection  operators is LMAX  =           4
   number of lm-projection operators is LMMAX =           8
 
 POTCAR:    PAW_PBE Ge 05Jan2001                  
   VRHFIN =Ge: s2p2                                                                                 
   LEXCH  = PE                                                                                      
   EATOM  =   104.9960 eV,    7.7170 Ry                                                             
                                                                                                    
   TITEL  = PAW_PBE Ge 05Jan2001                                                                    
   LULTRA =        F    use ultrasoft PP ?                                                          
   IUNSCR =        1    unscreen: 0-lin 1-nonlin 2-no                                               
   RPACOR =    2.170    partial core radius                                                         
   POMASS =   72.610; ZVAL   =    4.000    mass and valenz                                          
   RCORE  =    2.300    outmost cutoff radius                                                       
   RWIGS  =    2.300; RWIGS  =    1.217    wigner-seitz radius (au A)                               
   ENMAX  =  173.807; ENMIN  =  130.355 eV                                                          
   ICORE  =        3    local potential                                                             
   LCOR   =        T    correct aug charges                                                         
   LPAW   =        T    paw PP                                                                      
   EAUG   =  385.843                                                                                
   DEXC   =    0.000                                                                                
   RMAX   =    2.342    core radius for proj-oper                                                   
   RAUG   =    1.300    factor for augmentation sphere                                              
   RDEP   =    2.318    radius for radial grids                                                     
   RDEPT  =    2.103    core radius for aug-charge                                                  
                                                                                                    
   Atomic configuration                                                                             
   10 entries                                                                                       
     n  l   j            E        occ.                                                              
     1  0  0.50    -10959.8463   2.0000                                                             
     2  0  0.50     -1371.6056   2.0000                                                             
     2  1  1.50     -1198.4791   6.0000                                                             
     3  0  0.50      -168.4733   2.0000                                                             
     3  1  1.50      -115.6019   6.0000                                                             
     3  2  2.50       -29.3106  10.0000                                                             
     4  0  0.50       -11.7309   2.0000                                                             
     4  1  0.50        -3.8952   2.0000                                                             
     4  2  1.50        -4.0817   0.0000                                                             
     4  3  2.50        -4.0817   0.0000                                                             
   Description                                                                                      
     l       E           TYP  RCUT    TYP  RCUT                                                     
     0    -11.7309493     23  2.300                                                                 
     0     -7.4578696     23  2.300                                                                 
     1     -3.8952261     23  2.300                                                                 
     1      6.1178114     23  2.300                                                                 
     2     -4.0817478     23  2.300                                                                 
     3     -1.3605826      7  2.300                                                                 
  local pseudopotential read in
  partial core-charges read in
  partial kinetic energy density read in
  atomic valenz-charges read in
  non local Contribution for L=           0  read in
    real space projection operators read in
  non local Contribution for L=           0  read in
    real space projection operators read in
  non local Contribution for L=           1  read in
    real space projection operators read in
  non local Contribution for L=           1  read in
    real space projection operators read in
  non local Contribution for L=           2  read in
    real space projection operators read in
    PAW grid and wavefunctions read in
 
   number of l-projection  operators is LMAX  =           5
   number of lm-projection operators is LMMAX =          13
 
 Optimization of the real space projectors (new method)

 maximal supplied QI-value         = 19.84
 optimisation between [QCUT,QGAM] = [ 13.49, 26.99] = [ 50.98,203.92] Ry 
 Optimized for a Real-space Cutoff    1.07 Angstroem

   l    n(q)    QCUT    max X(q) W(low)/X(q) W(high)/X(q)  e(spline) 
   0      9    13.493   159.560    0.22E-03    0.15E-03    0.72E-07
   0      9    13.493   115.863    0.21E-03    0.15E-03    0.71E-07
   1      8    13.493    88.339    0.15E-03    0.11E-03    0.13E-06
   1      8    13.493    48.592    0.15E-03    0.10E-03    0.13E-06
 Optimization of the real space projectors (new method)

 maximal supplied QI-value         = 16.25
 optimisation between [QCUT,QGAM] = [ 13.49, 26.98] = [ 50.95,203.80] Ry 
 Optimized for a Real-space Cutoff    1.25 Angstroem

   l    n(q)    QCUT    max X(q) W(low)/X(q) W(high)/X(q)  e(spline) 
   0     10    13.489    65.336    0.91E-04    0.11E-03    0.34E-06
   0     10    13.489    52.220    0.89E-04    0.11E-03    0.34E-06
   1     10    13.489    36.409    0.22E-03    0.27E-03    0.14E-06
   1     10    13.489    21.334    0.21E-03    0.27E-03    0.14E-06
   2      9    13.489     4.673    0.11E-03    0.12E-03    0.19E-06
  PAW_PBE Si 05Jan2001                  :
 energy of atom  1       EATOM= -103.0669
 kinetic energy error for atom=    0.0003 (will be added to EATOM!!)
  PAW_PBE Ge 05Jan2001                  :
 energy of atom  2       EATOM= -104.9960
 kinetic energy error for atom=    0.0001 (will be added to EATOM!!)
 
 
 POSCAR: Si+Ge
  positions in direct lattice
  No initial velocities read in


 exchange-correlation table for PE
   RHO(1)=    0.500       N(1)  =     2000
   RHO(2)=  100.500       N(2)  =     4000
 


--------------------------------------------------------------------------------------------------------


 ion  position               nearest neighbor table
   1  0.979  0.986  0.000-  49 2.35  67 2.35  56 2.35  87 2.46
   2  0.729  0.819  0.091-  50 2.35  68 2.35  57 2.35  49 2.35
   3  0.479  0.652  0.183-  51 2.35  69 2.35  58 2.35  50 2.35
   4  0.229  0.486  0.274-  52 2.35  51 2.35  70 2.35  59 2.35
   5  0.979  0.319  0.366-  53 2.35  60 2.35  71 2.35  52 2.35
   6  0.729  0.152  0.457-  72 2.35  54 2.35  53 2.35 106 2.48
   7  0.979  0.319  0.000-  37 2.35  55 2.35  62 2.35
   8  0.729  0.152  0.091-  38 2.35  56 2.35  63 2.35  37 2.35
   9  0.479  0.986  0.183-  64 2.35  39 2.35  57 2.35  38 2.35
  10  0.229  0.819  0.274-  39 2.35  40 2.35  65 2.35  58 2.35
  11  0.979  0.652  0.366-  41 2.35  59 2.35  66 2.35  40 2.35
  12  0.729  0.486  0.457-  60 2.35  41 2.35  42 2.35  82 2.46
  13  0.979  0.652  0.000-  43 2.35  68 2.35  61 2.35 114 2.48
  14  0.729  0.486  0.091-  44 2.35  62 2.35  69 2.35  43 2.35
  15  0.479  0.319  0.183-  70 2.35  45 2.35  63 2.35  44 2.35
  16  0.229  0.152  0.274-  45 2.35  46 2.35  71 2.35  64 2.35
  17  0.979  0.986  0.366-  72 2.35  47 2.35  65 2.35  46 2.35
  18  0.729  0.819  0.457-  66 2.35  48 2.35  47 2.35
  19  0.479  0.986  0.000-  67 2.35  49 2.35  38 2.35 117 2.46
  20  0.229  0.819  0.091-  68 2.35  50 2.35  39 2.35  67 2.35
  21  0.979  0.652  0.183-  51 2.35  69 2.35  40 2.35  68 2.35
  22  0.729  0.486  0.274-  69 2.35  70 2.35  52 2.35  41 2.35
  23  0.479  0.319  0.366-  42 2.35  71 2.35  53 2.35  70 2.35
  24  0.229  0.152  0.457-  72 2.35  54 2.35  71 2.35  79 2.48
  25  0.479  0.319  0.000-  55 2.35  44 2.35  37 2.35
  26  0.229  0.152  0.091-  55 2.35  45 2.35  56 2.35  38 2.35
  27  0.979  0.986  0.183-  46 2.35  56 2.35  39 2.35  57 2.35
  28  0.729  0.819  0.274-  57 2.35  58 2.35  40 2.35  47 2.35
  29  0.479  0.652  0.366-  48 2.35  59 2.35  41 2.35  58 2.35
  30  0.229  0.486  0.457-  59 2.35  60 2.35  42 2.35 100 2.46
  31  0.479  0.652  0.000-  50 2.35  61 2.35  43 2.35  96 2.48
  32  0.229  0.486  0.091-  62 2.35  51 2.35  44 2.35  61 2.35
  33  0.979  0.319  0.183-  52 2.35  45 2.35  63 2.35  62 2.35
  34  0.729  0.152  0.274-  63 2.35  64 2.35  46 2.35  53 2.35
  35  0.479  0.986  0.366-  54 2.35  65 2.35  47 2.35  64 2.35
  36  0.229  0.819  0.457-  66 2.35  48 2.35  65 2.35
  37  0.729  0.236  0.000-   7 2.35   8 2.35  25 2.35 111 2.45
  38  0.479  0.069  0.091-  19 2.35   8 2.35   9 2.35  26 2.35
  39  0.229  0.902  0.183-  10 2.35   9 2.35  20 2.35  27 2.35
  40  0.979  0.736  0.274-  21 2.35  10 2.35  28 2.35  11 2.35
  41  0.729  0.569  0.366-  11 2.35  29 2.35  12 2.35  22 2.35
  42  0.479  0.402  0.457-  23 2.35  12 2.35  30 2.35  82 2.47
  43  0.729  0.569  0.000-  13 2.35  31 2.35  14 2.35
  44  0.479  0.402  0.091-  14 2.35  32 2.35  25 2.35  15 2.35
  45  0.229  0.236  0.183-  15 2.35  16 2.35  33 2.35  26 2.35
  46  0.979  0.069  0.274-  16 2.35  34 2.35  27 2.35  17 2.35
  47  0.729  0.902  0.366-  17 2.35  35 2.35  28 2.35  18 2.35
  48  0.479  0.736  0.457-  29 2.35  18 2.35  36 2.35 103 2.45
  49  0.729  0.902  0.000-   1 2.35  19 2.35   2 2.35  87 2.47
  50  0.479  0.736  0.091-   2 2.35  31 2.35  20 2.35   3 2.35
  51  0.229  0.569  0.183-   3 2.35  21 2.35   4 2.35  32 2.35
  52  0.979  0.402  0.274-   4 2.35  22 2.35  33 2.35   5 2.35
  53  0.729  0.236  0.366-   5 2.35  23 2.35  34 2.35   6 2.35
  54  0.479  0.069  0.457-  35 2.35   6 2.35  24 2.35
  55  0.229  0.236  0.000-   7 2.35  25 2.35  26 2.35  90 2.45
  56  0.979  0.069  0.091-   1 2.35   8 2.35  26 2.35  27 2.35
  57  0.729  0.902  0.183-  28 2.35   2 2.35   9 2.35  27 2.35
  58  0.479  0.736  0.274-   3 2.35  28 2.35  10 2.35  29 2.35
  59  0.229  0.569  0.366-  11 2.35  29 2.35   4 2.35  30 2.35
  60  0.979  0.402  0.457-   5 2.35  12 2.35  30 2.35 100 2.47
  61  0.229  0.569  0.000-  13 2.35  31 2.35  32 2.35
  62  0.979  0.402  0.091-  14 2.35  32 2.35   7 2.35  33 2.35
  63  0.729  0.236  0.183-  34 2.35  15 2.35  33 2.35   8 2.35
  64  0.479  0.069  0.274-   9 2.35  34 2.35  16 2.35  35 2.35
  65  0.229  0.902  0.366-  17 2.35  35 2.35  10 2.35  36 2.35
  66  0.979  0.736  0.457-  18 2.35  11 2.35  36 2.35  73 2.45
  67  0.229  0.902  0.000-   1 2.35  19 2.35  20 2.35 117 2.47
  68  0.979  0.736  0.091-   2 2.35  20 2.35  13 2.35  21 2.35
  69  0.729  0.569  0.183-   3 2.35  22 2.35  21 2.35  14 2.35
  70  0.479  0.402  0.274-  15 2.35  22 2.35   4 2.35  23 2.35
  71  0.229  0.236  0.366-   5 2.35  23 2.35  16 2.35  24 2.35
  72  0.979  0.069  0.457-   6 2.35  17 2.35  24 2.35
  73  0.101  0.696  0.560-  85 2.38 115 2.38  66 2.45
  74  0.851  0.321  0.695-  86 2.38 116 2.38 118 2.48  94 2.48
  75  0.601  0.946  0.830-  87 2.38 117 2.38  95 2.48 119 2.48
  76  0.601  0.946  0.560- 109 2.38  88 2.38
  77  0.351  0.571  0.695-  89 2.38 110 2.38  85 2.48 112 2.48
  78  0.101  0.196  0.830-  90 2.38 111 2.38  86 2.48 113 2.48
  79  0.101  0.196  0.560- 118 2.38  91 2.38  24 2.48
  80  0.851  0.821  0.695-  92 2.38 119 2.38  88 2.48 115 2.48
  81  0.601  0.446  0.830-  93 2.38 120 2.38  89 2.48 116 2.48
  82  0.601  0.446  0.560- 112 2.38  94 2.38  12 2.46  42 2.47
  83  0.351  0.071  0.695-  95 2.38 113 2.38  91 2.48 109 2.48
  84  0.101  0.696  0.830-  96 2.38 114 2.38 110 2.48  92 2.48
  85  0.351  0.696  0.628-  73 2.38 103 2.38  77 2.48 107 2.48
  86  0.101  0.321  0.762-  74 2.38 104 2.38  78 2.48 108 2.48
  87  0.851  0.946  0.897- 105 2.38  75 2.38   1 2.46  49 2.47
  88  0.851  0.946  0.628-  76 2.38  97 2.38  80 2.48 101 2.48
  89  0.601  0.571  0.762-  77 2.38  98 2.38  81 2.48 102 2.48
  90  0.351  0.196  0.897-  78 2.38  99 2.38  55 2.45
  91  0.351  0.196  0.628- 106 2.38  79 2.38 104 2.48  83 2.48
  92  0.101  0.821  0.762-  80 2.38 107 2.38 105 2.48  84 2.48
  93  0.851  0.446  0.897-  81 2.38 108 2.38
  94  0.851  0.446  0.628-  82 2.38 100 2.38  74 2.48  98 2.48
  95  0.601  0.071  0.762-  83 2.38 101 2.38  99 2.48  75 2.48
  96  0.351  0.696  0.897-  84 2.38 102 2.38  31 2.48
  97  0.101  0.946  0.560-  88 2.38 109 2.38
  98  0.851  0.571  0.695- 110 2.38  89 2.38 115 2.48  94 2.48
  99  0.601  0.196  0.830- 111 2.38  90 2.38 116 2.48  95 2.48
 100  0.101  0.446  0.560- 112 2.38  94 2.38  30 2.46  60 2.47
 101  0.851  0.071  0.695- 113 2.38  95 2.38 118 2.48  88 2.48
 102  0.601  0.696  0.830- 114 2.38  96 2.38  89 2.48 119 2.48
 103  0.601  0.696  0.560- 115 2.38  85 2.38  48 2.45
 104  0.351  0.321  0.695- 116 2.38  86 2.38 112 2.48  91 2.48
 105  0.101  0.946  0.830- 117 2.38  87 2.38 113 2.48  92 2.48
 106  0.601  0.196  0.560-  91 2.38 118 2.38   6 2.48
 107  0.351  0.821  0.695-  92 2.38 119 2.38 109 2.48  85 2.48
 108  0.101  0.446  0.830- 120 2.38  93 2.38 110 2.48  86 2.48
 109  0.351  0.946  0.628-  76 2.38  97 2.38 107 2.48  83 2.48
 110  0.101  0.571  0.762-  98 2.38  77 2.38  84 2.48 108 2.48
 111  0.851  0.196  0.897-  99 2.38  78 2.38  37 2.45
 112  0.351  0.446  0.628-  82 2.38 100 2.38 104 2.48  77 2.48
 113  0.101  0.071  0.762- 101 2.38  83 2.38  78 2.48 105 2.48
 114  0.851  0.696  0.897- 102 2.38  84 2.38  13 2.48
 115  0.851  0.696  0.628-  73 2.38 103 2.38  98 2.48  80 2.48
 116  0.601  0.321  0.762- 104 2.38  74 2.38  99 2.48  81 2.48
 117  0.351  0.946  0.897- 105 2.38  75 2.38  19 2.46  67 2.47
 118  0.851  0.196  0.628-  79 2.38 106 2.38  74 2.48 101 2.48
 119  0.601  0.821  0.762- 107 2.38  80 2.38  75 2.48 102 2.48
 120  0.351  0.446  0.897- 108 2.38  81 2.38
 
  LATTYP: Found a simple orthorhombic cell.
 ALAT       =     7.6805944440
 B/A-ratio  =     2.1213200862
 C/A-ratio  =     2.7342758666
  
  Lattice vectors:
  
 A1 = (   7.6805944440,   0.0000000000,   0.0000000000)
 A2 = (   0.0000000000,  16.2929992680,   0.0000000000)
 A3 = (   0.0000000000,   0.0000000000,  21.0008640290)


Analysis of symmetry for initial positions (statically):
=====================================================================
 Subroutine PRICEL returns following result:
 
  LATTYP: Found a simple orthorhombic cell.
 ALAT       =     3.8402963080
 B/A-ratio  =     4.2426411821
 C/A-ratio  =     5.4685530346
  
  Lattice vectors:
  
 A1 = (   3.8402963080,   0.0000000000,   0.0000000000)
 A2 = (   0.0000000000,  16.2929992680,   0.0000000000)
 A3 = (   0.0000000000,   0.0000000000,  21.0008640290)
 
   2 primitive cells build up your supercell.
 

 Routine SETGRP: Setting up the symmetry group for a 
 simple orthorhombic supercell.


 Subroutine GETGRP returns: Found  2 space group operations
 (whereof  1 operations were pure point group operations)
 out of a pool of  8 trial point group operations.


The static configuration has the point symmetry C_1 .
 The point group associated with its full space group is C_1h.


Analysis of symmetry for dynamics (positions and initial velocities):
=====================================================================
 Subroutine PRICEL returns following result:
 
  LATTYP: Found a simple orthorhombic cell.
 ALAT       =     3.8402963080
 B/A-ratio  =     4.2426411821
 C/A-ratio  =     5.4685530346
  
  Lattice vectors:
  
 A1 = (   3.8402963080,   0.0000000000,   0.0000000000)
 A2 = (   0.0000000000,  16.2929992680,   0.0000000000)
 A3 = (   0.0000000000,   0.0000000000,  21.0008640290)
 
   2 primitive cells build up your supercell.
 

 Routine SETGRP: Setting up the symmetry group for a 
 simple orthorhombic supercell.


 Subroutine GETGRP returns: Found  2 space group operations
 (whereof  1 operations were pure point group operations)
 out of a pool of  8 trial point group operations.


The dynamic configuration has the point symmetry C_1 .
 The point group associated with its full space group is C_1h.


Analysis of structural, dynamic, and magnetic symmetry:
=====================================================================
 Subroutine PRICEL returns following result:
 
  LATTYP: Found a simple orthorhombic cell.
 ALAT       =     3.8402963080
 B/A-ratio  =     4.2426411821
 C/A-ratio  =     5.4685530346
  
  Lattice vectors:
  
 A1 = (   3.8402963080,   0.0000000000,   0.0000000000)
 A2 = (   0.0000000000,  16.2929992680,   0.0000000000)
 A3 = (   0.0000000000,   0.0000000000,  21.0008640290)
 
   2 primitive cells build up your supercell.
 

 Routine SETGRP: Setting up the symmetry group for a 
 simple orthorhombic supercell.


 Subroutine GETGRP returns: Found  2 space group operations
 (whereof  1 operations were pure point group operations)
 out of a pool of  8 trial point group operations.


The overall configuration has the point symmetry C_1 .
 The point group associated with its full space group is C_1h.


 Subroutine INISYM returns: Found  2 space group operations
 (whereof  1 operations are pure point group operations),
 and found     2 'primitive' translations


----------------------------------------------------------------------------------------

                                     Primitive cell                                     

  volume of cell :    1314.0229

  direct lattice vectors                    reciprocal lattice vectors
     3.840296308  0.000000000  0.000000000     0.260396574  0.000000000  0.000000000
     0.000000000 16.292999268  0.000000000     0.000000000  0.061376054  0.000000000
     0.000000000  0.000000000 21.000864029     0.000000000  0.000000000  0.047617088

  length of vectors
     3.840296308 16.292999268 21.000864029     0.260396574  0.061376054  0.047617088

  position of ions in fractional coordinates (direct lattice)
     0.957035054  0.985678196  0.000000001
     0.457034607  0.819011450  0.091431901
     0.957034934  0.652344763  0.182863802
     0.457034577  0.485678136  0.274295658
     0.957034816  0.319011390  0.365727574
     0.457034339  0.152344704  0.457159460
     0.957035054  0.319011539  0.000000001
     0.457034607  0.152344853  0.091431901
     0.957034934  0.985678136  0.182863802
     0.457034577  0.819011509  0.274295658
     0.957034816  0.652344763  0.365727574
     0.457034339  0.485678077  0.457159460
     0.957035054  0.652344942  0.000000001
     0.457034607  0.485678196  0.091431901
     0.957034934  0.319011509  0.182863802
     0.457034577  0.152344868  0.274295658
     0.957034816  0.985678136  0.365727574
     0.457034339  0.819011390  0.457159460
     0.457035055  0.235678196  0.000000000
     0.957034934  0.069011487  0.091431901
     0.457034637  0.902344763  0.182863802
     0.957035054  0.735678136  0.274295658
     0.457034459  0.569011450  0.365727574
     0.957034578  0.402344644  0.457159460
     0.457035055  0.569011629  0.000000000
     0.957034934  0.402344882  0.091431901
     0.457034637  0.235678196  0.182863802
     0.957035054  0.069011539  0.274295658
     0.457034459  0.902344823  0.365727574
     0.957034578  0.735678077  0.457159460
     0.457035055  0.902344942  0.000000000
     0.957034934  0.735678196  0.091431901
     0.457034637  0.569011509  0.182863802
     0.957035054  0.402344853  0.274295658
     0.457034459  0.235678121  0.365727574
     0.957034578  0.069011383  0.457159460
     0.202327300  0.696336031  0.560199738
     0.702327775  0.321336091  0.694903731
     0.202327300  0.946336150  0.829607725
     0.202327300  0.946336091  0.560199738
     0.702327895  0.571336150  0.694903731
     0.202327300  0.196336150  0.829607725
     0.202327300  0.196336150  0.560199738
     0.702327775  0.821336150  0.694903731
     0.202327300  0.446336150  0.829607725
     0.202327300  0.446336091  0.560199738
     0.702327775  0.071336150  0.694903731
     0.202327300  0.696336091  0.829607725
     0.702327657  0.696336031  0.627551734
     0.202327300  0.321336091  0.762255728
     0.702327775  0.946336031  0.896959722
     0.702327657  0.946336031  0.627551734
     0.202327300  0.571336150  0.762255728
     0.702327657  0.196336150  0.896959722
     0.702327657  0.196336150  0.627551734
     0.202327300  0.821336150  0.762255728
     0.702327657  0.446336091  0.896959722
     0.702327537  0.446336061  0.627551734
     0.202327300  0.071336150  0.762255728
     0.702327657  0.696336091  0.896959722

  ion indices of the primitive-cell ions
   primitive index   ion index
                 1           1
                 2          20
                 3          21
                 4           4
                 5           5
                 6          24
                 7           7
                 8          26
                 9          27
                10          10
                11          11
                12          30
                13          13
                14          32
                15          33
                16          16
                17          17
                18          36
                19          37
                20          56
                21          39
                22          40
                23          59
                24          60
                25          43
                26          62
                27          45
                28          46
                29          65
                30          66
                31          49
                32          68
                33          51
                34          52
                35          71
                36          72
                37          73
                38          74
                39         105
                40          97
                41          98
                42          78
                43          79
                44          80
                45         108
                46         100
                47         101
                48          84
                49         115
                50          86
                51          87
                52          88
                53         110
                54         111
                55         118
                56          92
                57          93
                58          94
                59         113
                60         114

----------------------------------------------------------------------------------------

 
 
 KPOINTS: Automatic KPOINTS generated             

Automatic generation of k-mesh.
 Grid dimensions read from file:
 generate k-points for:    4    2    1

 Generating k-lattice:

  Cartesian coordinates                     Fractional coordinates (reciprocal lattice)
     0.032549564  0.000000000  0.000000000     0.250000000  0.000000000  0.000000000
     0.000000000  0.030688027  0.000000000     0.000000000  0.500000000  0.000000000
     0.000000000  0.000000000  0.047617088     0.000000000  0.000000000  1.000000000

  Length of vectors
     0.032549564  0.030688027  0.047617088

  Shift w.r.t. Gamma in fractional coordinates (k-lattice)
     0.000000000  0.000000000  0.000000000

 
 Subroutine IBZKPT returns following result:
 ===========================================
 
 Found      6 irreducible k-points:
 
 Following reciprocal coordinates:
            Coordinates               Weight
  0.000000  0.000000  0.000000      1.000000
  0.250000  0.000000  0.000000      2.000000
  0.500000  0.000000  0.000000      1.000000
  0.000000  0.500000  0.000000      1.000000
  0.250000  0.500000  0.000000      2.000000
  0.500000  0.500000  0.000000      1.000000
 
 Following cartesian coordinates:
            Coordinates               Weight
  0.000000  0.000000  0.000000      1.000000
  0.032550  0.000000  0.000000      2.000000
  0.065099  0.000000  0.000000      1.000000
  0.000000  0.030688  0.000000      1.000000
  0.032550  0.030688  0.000000      2.000000
  0.065099  0.030688  0.000000      1.000000
 


--------------------------------------------------------------------------------------------------------




 Dimension of arrays:
   k-points           NKPTS =      6   k-points in BZ     NKDIM =      6   number of bands    NBANDS=    288
   number of dos      NEDOS =    301   number of ions     NIONS =    120
   non local maximal  LDIM  =      5   non local SUM 2l+1 LMDIM =     13
   total plane-waves  NPLWV = 756000
   max r-space proj   IRMAX =   2381   max aug-charges    IRDMAX= 125263
   dimension x,y,z NGX =    50 NGY =  108 NGZ =  140
   dimension x,y,z NGXF=   100 NGYF=  216 NGZF=  280
   support grid    NGXF=   200 NGYF=  432 NGZF=  560
   ions per type =              72  48
   NGX,Y,Z   is equivalent  to a cutoff of  10.82, 11.02, 11.08 a.u.
   NGXF,Y,Z  is equivalent  to a cutoff of  21.64, 22.04, 22.17 a.u.

 SYSTEM =  Si and Ge interface calculation         
 POSCAR =  Si+Ge                                   

 Startparameter for this run:
   NWRITE =      2    write-flag & timer
   PREC   = normal    normal or accurate (medium, high low for compatibility)
   ISTART =      0    job   : 0-new  1-cont  2-samecut
   ICHARG =      2    charge: 1-file 2-atom 10-const
   ISPIN  =      2    spin polarized calculation?
   LNONCOLLINEAR =      F non collinear calculations
   LSORBIT =      F    spin-orbit coupling
   INIWAV =      1    electr: 0-lowe 1-rand  2-diag
   LASPH  =      T    aspherical Exc in radial PAW
 Electronic Relaxation 1
   ENCUT  =  700.0 eV  51.45 Ry    7.17 a.u.  16.57 35.15 45.30*2*pi/ulx,y,z
   ENINI  =  700.0     initial cutoff
   ENAUG  =  900.0 eV  augmentation charge cutoff
   NELM   =    100;   NELMIN=  2; NELMDL= -5     # of ELM steps 
   EDIFF  = 0.1E-06   stopping-criterion for ELM
   LREAL  =      T    real-space projection
   NLSPLINE    = F    spline interpolate recip. space projectors
   LCOMPAT=      F    compatible to vasp.4.4
   GGA_COMPAT  = T    GGA compatible to vasp.4.4-vasp.4.6
   LMAXPAW     = -100 max onsite density
   LMAXMIX     =    6 max onsite mixed and CHGCAR
   VOSKOWN=      0    Vosko Wilk Nusair interpolation
   ROPT   =   -0.00050  -0.00050
 Ionic relaxation
   EDIFFG = 0.1E-05   stopping-criterion for IOM
   NSW    =      0    number of steps for IOM
   NBLOCK =      1;   KBLOCK =      1    inner block; outer block 
   IBRION =     -1    ionic relax: 0-MD 1-quasi-New 2-CG
   NFREE  =      0    steps in history (QN), initial steepest desc. (CG)
   ISIF   =      2    stress and relaxation
   IWAVPR =     10    prediction:  0-non 1-charg 2-wave 3-comb
   ISYM   =      2    0-nonsym 1-usesym 2-fastsym
   LCORR  =      T    Harris-Foulkes like correction to forces

   POTIM  = 0.5000    time-step for ionic-motion
   TEIN   =    0.0    initial temperature
   TEBEG  =    0.0;   TEEND  =   0.0 temperature during run
   SMASS  =  -3.00    Nose mass-parameter (am)
   estimated Nose-frequenzy (Omega)   =  0.10E-29 period in steps = 0.13E+47 mass=  -0.135E-26a.u.
   SCALEE = 1.0000    scale energy and forces
   NPACO  =    256;   APACO  = 10.0  distance and # of slots for P.C.
   PSTRESS=    0.0 pullay stress

  Mass of Ions in am
   POMASS =  28.09 72.61
  Ionic Valenz
   ZVAL   =   4.00  4.00
  Atomic Wigner-Seitz radii
   RWIGS  =  -1.00 -1.00
  virtual crystal weights 
   VCA    =   1.00  1.00
   NELECT =     480.0000    total number of electrons
   NUPDOWN=       1.0000    fix difference up-down

 DOS related values:
   EMIN   =  10.00;   EMAX   =-10.00  energy-range for DOS
   EFERMI =   0.00;   METHOD = LEGACY      
   ISMEAR =     0;   SIGMA  =   0.01  broadening in eV -4-tet -1-fermi 0-gaus

 Electronic relaxation 2 (details)
   IALGO  =     38    algorithm
   LDIAG  =      T    sub-space diagonalisation (order eigenvalues)
   LSUBROT=      F    optimize rotation matrix (better conditioning)
   TURBO    =      0    0=normal 1=particle mesh
   IRESTART =      0    0=no restart 2=restart with 2 vectors
   NREBOOT  =      0    no. of reboots
   NMIN     =      0    reboot dimension
   EREF     =   0.00    reference energy to select bands
   IMIX   =      4    mixing-type and parameters
     AMIX     =   0.60;   BMIX     =  1.00
     AMIX_MAG =   2.40;   BMIX_MAG =  1.00
     AMIN     =   0.10
     WC   =   100.;   INIMIX=   1;  MIXPRE=   1;  MAXMIX= -45

 Intra band minimization:
   WEIMIN = 0.0000     energy-eigenvalue tresh-hold
   EBREAK =  0.87E-10  absolut break condition
   DEPER  =   0.30     relativ break condition  

   TIME   =   0.40     timestep for ELM

  volume/ion in A,a.u.               =      21.90       147.79
  Fermi-wavevector in a.u.,A,eV,Ry     =   0.928847  1.755267 11.738521  0.862757
  Thomas-Fermi vector in A             =   2.055067
 
 Write flags
   LWAVE        =      F    write WAVECAR
   LDOWNSAMPLE  =      F    k-point downsampling of WAVECAR
   LCHARG       =      T    write CHGCAR
   LVTOT        =      F    write LOCPOT, total local potential
   LVHAR        =      T    write LOCPOT, Hartree potential only
   WRT_POTENTIAL=  hartree ionic  ! write potential to hdf5 file
   LELF         =      F    write electronic localiz. function (ELF)
   LORBIT       =      0    0 simple, 1 ext, 2 COOP (PROOUT), +10 PAW based schemes


 Dipole corrections
   LMONO      =      F    monopole corrections only (constant potential shift)
   LDIPOL     =      F    correct potential (dipole corrections)
   IDIPOL     =      0    1-x, 2-y, 3-z, 4-all directions 
   EPSILON    =  1.0000000 bulk dielectric constant
   LVACPOTAV  =      F  vacuum potentials using an averaging scheme for the charge density
   VACPOTFLAT =  0.1000000 required flatness to determine vacuum potential
 Exchange correlation treatment:
   GGA     = PE    functional components
   XC_C    = 1    coefficients multiplying the functional components
   LIBXC   =     F    Libxc                    
   VOSKOWN =     0    Vosko Wilk Nusair interpolation
   LHFCALC =     F    Hartree Fock is set to
   LHFONE  =     F    Hartree Fock one center treatment
   AEXX    =    0.0000 exact exchange contribution

 Parameters of functionals:
   PE:
     No parameter
 
 Van der Waals corrections
   IVDW    =     0    specifies the selected vdW correction

 Linear response parameters
   LEPSILON=     F    determine dielectric tensor
   LRPA    =     F    only Hartree local field effects (RPA)
   LNABLA  =     F    use nabla operator in PAW spheres
   LVEL    =     F    velocity operator in full k-point grid
   CSHIFT  =0.1000    complex shift for real part using Kramers Kronig
   OMEGAMAX=  -1.0    maximum frequency
   DEG_THRESHOLD= 0.2000000E-02 threshold for treating states as degnerate
   RTIME   =   -0.100 relaxation time in fs
  (WPLASMAI=    0.000 imaginary part of plasma frequency in eV, 0.658/RTIME)
   DFIELD  = 0.0000000 0.0000000 0.0000000 field for delta impulse in time
 
  Optional k-point grid parameters
   LKPOINTS_OPT  =     F    use optional k-point grid
   KPOINTS_OPT_MODE=     1    mode for optional k-point grid
 
 Orbital magnetization related:
   ORBITALMAG=     F  switch on orbital magnetization
   LCHIMAG   =     F  perturbation theory with respect to B field
   DQ        =  0.001000  dq finite difference perturbation B field
   LLRAUG    =     F  two centre corrections for induced B field
   LBONE     =     F  B-component reconstruction in AE one-centre
   LVGVCALC  =     T  calculate vGv susceptibility
   LVGVAPPL  =     F  apply vGv susceptibility instead of pGv for G=0

 Random number generation:
   RANDOM_GENERATOR = DEFAULT
   PCG_SEED         = not used


--------------------------------------------------------------------------------------------------------


 Static calculation
 charge density and potential will be updated during run
 spin polarized calculation
 Variant of blocked Davidson
 Davidson routine will perform the subspace rotation
 perform sub-space diagonalisation
    after iterative eigenvector-optimisation
 modified Broyden-mixing scheme, WC =      100.0
 initial mixing is a Kerker type mixing with AMIX =  0.6000 and BMIX =      1.0000
 Hartree-type preconditioning will be used
 using additional bands           48
 real space projection scheme for non local part
 use partial core corrections
 calculate Harris-corrections to forces 
   (improved forces if not selfconsistent)
 use gradient corrections 
 use of overlap-Matrix (Vanderbilt PP)
 Gauss-broadening in eV      SIGMA  =   0.01


--------------------------------------------------------------------------------------------------------


  energy-cutoff  :      700.00
  volume of cell :     2628.05
      direct lattice vectors                 reciprocal lattice vectors
     7.680594444  0.000000000  0.000000000     0.130198256  0.000000000  0.000000000
     0.000000000 16.292999268  0.000000000     0.000000000  0.061376054  0.000000000
     0.000000000  0.000000000 21.000864029     0.000000000  0.000000000  0.047617088

  length of vectors
     7.680594444 16.292999268 21.000864029     0.130198256  0.061376054  0.047617088


 
 k-points in units of 2pi/SCALE and weight: Automatic KPOINTS generated             
   0.00000000  0.00000000  0.00000000       0.125
   0.03254956  0.00000000  0.00000000       0.250
   0.06509913  0.00000000  0.00000000       0.125
   0.00000000  0.03068803  0.00000000       0.125
   0.03254956  0.03068803  0.00000000       0.250
   0.06509913  0.03068803  0.00000000       0.125
 
 k-points in reciprocal lattice and weights: Automatic KPOINTS generated             
   0.00000000  0.00000000  0.00000000       0.125
   0.25000000  0.00000000  0.00000000       0.250
   0.50000000  0.00000000  0.00000000       0.125
   0.00000000  0.50000000  0.00000000       0.125
   0.25000000  0.50000000  0.00000000       0.250
   0.50000000  0.50000000  0.00000000       0.125
 
 position of ions in fractional coordinates (direct lattice) 
   0.97851729  0.98567820  0.00000000
   0.72851723  0.81901145  0.09143190
   0.47851718  0.65234476  0.18286380
   0.22851723  0.48567814  0.27429566
   0.97851718  0.31901139  0.36572757
   0.72851718  0.15234470  0.45715946
   0.97851729  0.31901154  0.00000000
   0.72851723  0.15234485  0.09143190
   0.47851718  0.98567814  0.18286380
   0.22851723  0.81901151  0.27429566
   0.97851718  0.65234476  0.36572757
   0.72851718  0.48567808  0.45715946
   0.97851729  0.65234494  0.00000000
   0.72851723  0.48567820  0.09143190
   0.47851718  0.31901151  0.18286380
   0.22851723  0.15234487  0.27429566
   0.97851718  0.98567814  0.36572757
   0.72851718  0.81901139  0.45715946
   0.47851729  0.98567820  0.00000000
   0.22851725  0.81901145  0.09143190
   0.97851723  0.65234476  0.18286380
   0.72851729  0.48567814  0.27429563
   0.47851718  0.31901139  0.36572757
   0.22851712  0.15234470  0.45715946
   0.47851729  0.31901154  0.00000000
   0.22851725  0.15234485  0.09143190
   0.97851723  0.98567814  0.18286380
   0.72851729  0.81901151  0.27429563
   0.47851718  0.65234476  0.36572757
   0.22851712  0.48567808  0.45715946
   0.47851729  0.65234494  0.00000000
   0.22851725  0.48567820  0.09143190
   0.97851723  0.31901151  0.18286380
   0.72851729  0.15234487  0.27429563
   0.47851718  0.98567814  0.36572757
   0.22851712  0.81901139  0.45715946
   0.72851735  0.23567820  0.00000000
   0.47851729  0.06901149  0.09143189
   0.22851726  0.90234476  0.18286380
   0.97851729  0.73567814  0.27429566
   0.72851723  0.56901145  0.36572757
   0.47851723  0.40234464  0.45715940
   0.72851735  0.56901163  0.00000000
   0.47851729  0.40234488  0.09143189
   0.22851726  0.23567820  0.18286380
   0.97851729  0.06901154  0.27429566
   0.72851723  0.90234482  0.36572757
   0.47851723  0.73567808  0.45715940
   0.72851735  0.90234494  0.00000000
   0.47851729  0.73567820  0.09143189
   0.22851726  0.56901151  0.18286380
   0.97851729  0.40234485  0.27429566
   0.72851723  0.23567812  0.36572757
   0.47851723  0.06901138  0.45715940
   0.22851729  0.23567820  0.00000000
   0.97851723  0.06901149  0.09143190
   0.72851718  0.90234476  0.18286380
   0.47851729  0.73567814  0.27429563
   0.22851718  0.56901145  0.36572757
   0.97851706  0.40234464  0.45715946
   0.22851729  0.56901163  0.00000000
   0.97851723  0.40234488  0.09143190
   0.72851718  0.23567820  0.18286380
   0.47851729  0.06901154  0.27429563
   0.22851718  0.90234482  0.36572757
   0.97851706  0.73567808  0.45715946
   0.22851729  0.90234494  0.00000000
   0.97851723  0.73567820  0.09143190
   0.72851718  0.56901151  0.18286380
   0.47851729  0.40234485  0.27429563
   0.22851718  0.23567812  0.36572757
   0.97851706  0.06901138  0.45715946
   0.10116363  0.69633603  0.56019974
   0.85116369  0.32133609  0.69490373
   0.60116369  0.94633615  0.82960773
   0.60116363  0.94633603  0.56019974
   0.35116363  0.57133609  0.69490373
   0.10116363  0.19633615  0.82960773
   0.10116363  0.19633615  0.56019974
   0.85116369  0.82133615  0.69490373
   0.60116369  0.44633609  0.82960773
   0.60116357  0.44633606  0.56019974
   0.35116363  0.07133615  0.69490373
   0.10116363  0.69633609  0.82960773
   0.35116360  0.69633603  0.62755173
   0.10116363  0.32133609  0.76225573
   0.85116369  0.94633603  0.89695972
   0.85116363  0.94633603  0.62755173
   0.60116363  0.57133609  0.76225573
   0.35116360  0.19633603  0.89695972
   0.35116366  0.19633615  0.62755173
   0.10116363  0.82133615  0.76225573
   0.85116363  0.44633609  0.89695972
   0.85116357  0.44633606  0.62755173
   0.60116363  0.07133615  0.76225573
   0.35116363  0.69633609  0.89695972
   0.10116363  0.94633609  0.56019974
   0.85116375  0.57133615  0.69490373
   0.60116369  0.19633615  0.82960773
   0.10116363  0.44633609  0.56019974
   0.85116369  0.07133615  0.69490373
   0.60116369  0.69633609  0.82960773
   0.60116363  0.69633609  0.56019974
   0.35116366  0.32133615  0.69490373
   0.10116363  0.94633615  0.82960773
   0.60116363  0.19633615  0.56019974
   0.35116363  0.82133609  0.69490373
   0.10116363  0.44633615  0.82960773
   0.35116369  0.94633609  0.62755173
   0.10116363  0.57133615  0.76225573
   0.85116363  0.19633615  0.89695972
   0.35116363  0.44633609  0.62755173
   0.10116363  0.07133615  0.76225573
   0.85116363  0.69633609  0.89695972
   0.85116363  0.69633603  0.62755173
   0.60116363  0.32133606  0.76225573
   0.35116357  0.94633603  0.89695972
   0.85116363  0.19633615  0.62755173
   0.60116363  0.82133615  0.76225573
   0.35116360  0.44633609  0.89695972
 
 position of ions in cartesian coordinates  (Angst):
   7.51559449 16.05965413  0.00000002
   5.59544542 13.34415296  1.92014892
   3.67529636 10.62865275  3.84029784
   1.75514820  7.91315351  5.76044582
   7.51559358  5.19765234  7.68059505
   5.59544497  2.48215215  9.60074366
   7.51559449  5.19765477  0.00000002
   5.59544542  2.48215458  1.92014892
   3.67529636 16.05965315  3.84029784
   1.75514820 13.34415392  5.76044582
   7.51559358 10.62865275  7.68059505
   5.59544497  7.91315255  9.60074366
   7.51559449 10.62865566  0.00000002
   5.59544542  7.91315449  1.92014892
   3.67529636  5.19765428  3.84029784
   1.75514820  2.48215482  5.76044582
   7.51559358 16.05965315  7.68059505
   5.59544497 13.34415198  9.60074366
   3.67529727 16.05965413  0.00000000
   1.75514831 13.34415296  1.92014892
   7.51559403 10.62865275  3.84029784
   5.59544588  7.91315351  5.76044519
   3.67529636  5.19765234  7.68059505
   1.75514728  2.48215215  9.60074366
   3.67529727  5.19765477  0.00000000
   1.75514831  2.48215458  1.92014892
   7.51559403 16.05965315  3.84029784
   5.59544588 13.34415392  5.76044519
   3.67529636 10.62865275  7.68059505
   1.75514728  7.91315255  9.60074366
   3.67529727 10.62865566  0.00000000
   1.75514831  7.91315449  1.92014892
   7.51559403  5.19765428  3.84029784
   5.59544588  2.48215482  5.76044519
   3.67529636 16.05965315  7.68059505
   1.75514728 13.34415198  9.60074366
   5.59544634  3.83990467  0.00000000
   3.67529727  1.12440411  1.92014875
   1.75514843 14.70190256  3.84029784
   7.51559449 11.98640333  5.76044582
   5.59544542  9.27090314  7.68059505
   3.67529681  6.55540099  9.60074240
   5.59544634  9.27090605  0.00000000
   3.67529727  6.55540487  1.92014875
   1.75514843  3.83990467  3.84029784
   7.51559449  1.12440495  5.76044582
   5.59544542 14.70190354  7.68059505
   3.67529681 11.98640237  9.60074240
   5.59544634 14.70190548  0.00000000
   3.67529727 11.98640431  1.92014875
   1.75514843  9.27090410  3.84029784
   7.51559449  6.55540440  5.76044582
   5.59544542  3.83990345  7.68059505
   3.67529681  1.12440241  9.60074240
   1.75514866  3.83990467  0.00000002
   7.51559403  1.12440411  1.92014892
   5.59544497 14.70190256  3.84029784
   3.67529727 11.98640333  5.76044519
   1.75514774  9.27090314  7.68059505
   7.51559266  6.55540099  9.60074366
   1.75514866  9.27090605  0.00000002
   7.51559403  6.55540487  1.92014892
   5.59544497  3.83990467  3.84029784
   3.67529727  1.12440495  5.76044519
   1.75514774 14.70190354  7.68059505
   7.51559266 11.98640237  9.60074366
   1.75514866 14.70190548  0.00000002
   7.51559403 11.98640431  1.92014892
   5.59544497  9.27090410  3.84029784
   3.67529727  6.55540440  5.76044519
   1.75514774  3.83990345  7.68059505
   7.51559266  1.12440241  9.60074366
   0.77699678 11.34540244 11.76467853
   6.53744307  5.23552870 14.59357877
   4.61729446 15.41865420 17.42247903
   4.61729401 15.41865226 11.76467853
   2.69714539  9.30877851 14.59357877
   0.77699678  3.19890475 17.42247903
   0.77699678  3.19890475 11.76467853
   6.53744307 13.38202929 14.59357877
   4.61729446  7.27215360 17.42247903
   4.61729354  7.27215312 11.76467853
   2.69714539  1.16227984 14.59357877
   0.77699678 11.34540342 17.42247903
   2.69714516 11.34540244 13.17912864
   0.77699678  5.23552870 16.00802890
   6.53744307 15.41865226 18.83692916
   6.53744262 15.41865226 13.17912864
   4.61729401  9.30877851 16.00802890
   2.69714516  3.19890281 18.83692916
   2.69714563  3.19890475 13.17912864
   0.77699678 13.38202929 16.00802890
   6.53744262  7.27215360 18.83692916
   6.53744216  7.27215312 13.17912864
   4.61729401  1.16227984 16.00802890
   2.69714539 11.34540342 18.83692916
   0.77699678 15.41865324 11.76467853
   6.53744353  9.30877947 14.59357877
   4.61729446  3.19890475 17.42247903
   0.77699678  7.27215360 11.76467853
   6.53744307  1.16227984 14.59357877
   4.61729446 11.34540342 17.42247903
   4.61729401 11.34540342 11.76467853
   2.69714563  5.23552966 14.59357877
   0.77699678 15.41865420 17.42247903
   4.61729401  3.19890475 11.76467853
   2.69714539 13.38202833 14.59357877
   0.77699678  7.27215457 17.42247903
   2.69714585 15.41865324 13.17912864
   0.77699678  9.30877947 16.00802890
   6.53744262  3.19890475 18.83692916
   2.69714539  7.27215360 13.17912864
   0.77699678  1.16227984 16.00802890
   6.53744262 11.34540342 18.83692916
   6.53744262 11.34540244 13.17912864
   4.61729401  5.23552821 16.00802890
   2.69714493 15.41865226 18.83692916
   6.53744262  3.19890475 13.17912864
   4.61729401 13.38202929 16.00802890
   2.69714516  7.27215360 18.83692916
 


--------------------------------------------------------------------------------------------------------


 k-point     1 :   0.0000 0.0000 0.0000  plane waves:  110549
 k-point     2 :   0.2500 0.0000 0.0000  plane waves:  110533
 k-point     3 :   0.5000 0.0000 0.0000  plane waves:  110530
 k-point     4 :   0.0000 0.5000 0.0000  plane waves:  110618
 k-point     5 :   0.2500 0.5000 0.0000  plane waves:  110556
 k-point     6 :   0.5000 0.5000 0.0000  plane waves:  110468

 maximum and minimum number of plane-waves per node :      6948     6873

 maximum number of plane-waves:    110618
 maximum index in each direction: 
   IXMAX=   16   IYMAX=   35   IZMAX=   45
   IXMIN=  -17   IYMIN=  -35   IZMIN=  -45


 real space projection operators:
  total allocation   :      17566.38 KBytes
  max/ min on nodes  :       1431.84       1012.38


 parallel 3D FFT for wavefunctions:
    minimum data exchange during FFTs selected (reduces bandwidth)
 parallel 3D FFT for charge:
    minimum data exchange during FFTs selected (reduces bandwidth)


 total amount of memory used by VASP MPI-rank0   166841. kBytes
=======================================================================

   base      :      30000. kBytes
   nonlr-proj:       6560. kBytes
   fftplans  :      18524. kBytes
   grid      :      14584. kBytes
   one-center:        129. kBytes
   wavefun   :      97044. kBytes
 
     INWAV:  cpu time      0.0000: real time      0.0003
 Broyden mixing: mesh for mixing (old mesh)
   NGX = 33   NGY = 71   NGZ = 91
  (NGX  =100   NGY  =216   NGZ  =280)
  gives a total of 213213 points

 initial charge density was supplied:
 charge density of overlapping atoms calculated
 number of electron     480.0000000 magnetization       1.0000000
 keeping initial charge density in first step


--------------------------------------------------------------------------------------------------------


 Maximum index for non-local projection operator          312
 Maximum index for augmentation-charges         4244 (set IRDMAX)


--------------------------------------------------------------------------------------------------------


 First call to EWALD:  gamma=   0.128
 Maximum number of real-space cells 5x 2x 2
 Maximum number of reciprocal cells 2x 3x 4

    FEWALD:  cpu time      0.0033: real time      0.0033


--------------------------------------- Ionic step        1  -------------------------------------------




--------------------------------------- Iteration      1(   1)  ---------------------------------------


    POTLOK:  cpu time      0.2023: real time      0.2041
    SETDIJ:  cpu time      1.0293: real time      1.0347
     EDDAV:  cpu time     18.3110: real time     18.4572
       DOS:  cpu time      0.0019: real time      0.0019
    --------------------------------------------
      LOOP:  cpu time     19.5445: real time     19.6980

 eigenvalue-minimisations  :  6912
 total energy-change (2. order) : 0.1964689E+04  (-0.2139746E+05)
 number of electron     480.0000000 magnetization       1.0000000
 augmentation part      480.0000000 magnetization       1.0000000

 Free energy of the ion-electron system (eV)
  ---------------------------------------------------
  alpha Z        PSCENC =       529.58409355
  Ewald energy   TEWEN  =    -12736.13709485
  -Hartree energ DENC   =     -1249.81017448
  -exchange      EXHF   =         0.00000000
  -V(xc)+E(xc)   XCENC  =     -1035.72247476
  PAW double counting   =     10575.88222728    -8613.76247617
  entropy T*S    EENTRO =        -0.00159570
  eigenvalues    EBANDS =      2034.05548849
  atomic energy  EATOM  =     12460.60057749
  Solvation  Ediel_sol  =         0.00000000
  ---------------------------------------------------
  free energy    TOTEN  =      1964.68857085 eV

  energy without entropy =     1964.69016656  energy(sigma->0) =     1964.68936870


--------------------------------------------------------------------------------------------------------




--------------------------------------- Iteration      1(   2)  ---------------------------------------


     EDDAV:  cpu time     20.4543: real time     20.6291
       DOS:  cpu time      0.0013: real time      0.0013
    --------------------------------------------
      LOOP:  cpu time     20.4555: real time     20.6303

 eigenvalue-minimisations  :  8104
 total energy-change (2. order) :-0.2328839E+04  (-0.2246550E+04)
 number of electron     480.0000000 magnetization       1.0000000
 augmentation part      480.0000000 magnetization       1.0000000

 Free energy of the ion-electron system (eV)
  ---------------------------------------------------
  alpha Z        PSCENC =       529.58409355
  Ewald energy   TEWEN  =    -12736.13709485
  -Hartree energ DENC   =     -1249.81017448
  -exchange      EXHF   =         0.00000000
  -V(xc)+E(xc)   XCENC  =     -1035.72247476
  PAW double counting   =     10575.88222728    -8613.76247617
  entropy T*S    EENTRO =        -0.00186715
  eigenvalues    EBANDS =      -294.78291163
  atomic energy  EATOM  =     12460.60057749
  Solvation  Ediel_sol  =         0.00000000
  ---------------------------------------------------
  free energy    TOTEN  =      -364.15010071 eV

  energy without entropy =     -364.14823356  energy(sigma->0) =     -364.14916713


--------------------------------------------------------------------------------------------------------




--------------------------------------- Iteration      1(   3)  ---------------------------------------


     EDDAV:  cpu time     21.2483: real time     21.4196
       DOS:  cpu time      0.0014: real time      0.0014
    --------------------------------------------
      LOOP:  cpu time     21.2497: real time     21.4209

 eigenvalue-minimisations  :  8504
 total energy-change (2. order) :-0.2163440E+03  (-0.2100079E+03)
 number of electron     480.0000000 magnetization       1.0000000
 augmentation part      480.0000000 magnetization       1.0000000

 Free energy of the ion-electron system (eV)
  ---------------------------------------------------
  alpha Z        PSCENC =       529.58409355
  Ewald energy   TEWEN  =    -12736.13709485
  -Hartree energ DENC   =     -1249.81017448
  -exchange      EXHF   =         0.00000000
  -V(xc)+E(xc)   XCENC  =     -1035.72247476
  PAW double counting   =     10575.88222728    -8613.76247617
  entropy T*S    EENTRO =        -0.00120578
  eigenvalues    EBANDS =      -511.12758038
  atomic energy  EATOM  =     12460.60057749
  Solvation  Ediel_sol  =         0.00000000
  ---------------------------------------------------
  free energy    TOTEN  =      -580.49410809 eV

  energy without entropy =     -580.49290231  energy(sigma->0) =     -580.49350520


--------------------------------------------------------------------------------------------------------




--------------------------------------- Iteration      1(   4)  ---------------------------------------


     EDDAV:  cpu time     20.5665: real time     20.7310
       DOS:  cpu time      0.0014: real time      0.0014
    --------------------------------------------
      LOOP:  cpu time     20.5679: real time     20.7324

 eigenvalue-minimisations  :  8168
 total energy-change (2. order) :-0.7949023E+01  (-0.7815392E+01)
 number of electron     480.0000000 magnetization       1.0000000
 augmentation part      480.0000000 magnetization       1.0000000

 Free energy of the ion-electron system (eV)
  ---------------------------------------------------
  alpha Z        PSCENC =       529.58409355
  Ewald energy   TEWEN  =    -12736.13709485
  -Hartree energ DENC   =     -1249.81017448
  -exchange      EXHF   =         0.00000000
  -V(xc)+E(xc)   XCENC  =     -1035.72247476
  PAW double counting   =     10575.88222728    -8613.76247617
  entropy T*S    EENTRO =        -0.00281244
  eigenvalues    EBANDS =      -519.07499646
  atomic energy  EATOM  =     12460.60057749
  Solvation  Ediel_sol  =         0.00000000
  ---------------------------------------------------
  free energy    TOTEN  =      -588.44313084 eV

  energy without entropy =     -588.44031840  energy(sigma->0) =     -588.44172462


--------------------------------------------------------------------------------------------------------




--------------------------------------- Iteration      1(   5)  ---------------------------------------


     EDDAV:  cpu time     22.5765: real time     22.7553
       DOS:  cpu time      0.0014: real time      0.0014
    CHARGE:  cpu time      1.2388: real time      1.2550
    MIXING:  cpu time      0.0047: real time      0.0047
    --------------------------------------------
      LOOP:  cpu time     23.8214: real time     24.0164

 eigenvalue-minimisations  :  9224
 total energy-change (2. order) :-0.3158385E+00  (-0.3139074E+00)
 number of electron     479.9999997 magnetization       1.0000000
 augmentation part      -48.5732105 magnetization      -0.0799529

 Broyden mixing:
  rms(total) = 0.31968E+01    rms(broyden)= 0.31968E+01
  rms(prec ) = 0.33642E+01
  weight for this iteration     100.00

 Free energy of the ion-electron system (eV)
  ---------------------------------------------------
  alpha Z        PSCENC =       529.58409355
  Ewald energy   TEWEN  =    -12736.13709485
  -Hartree energ DENC   =     -1249.81017448
  -exchange      EXHF   =         0.00000000
  -V(xc)+E(xc)   XCENC  =     -1035.72247476
  PAW double counting   =     10575.88222728    -8613.76247617
  entropy T*S    EENTRO =        -0.00256468
  eigenvalues    EBANDS =      -519.39108272
  atomic energy  EATOM  =     12460.60057749
  Solvation  Ediel_sol  =         0.00000000
  ---------------------------------------------------
  free energy    TOTEN  =      -588.75896933 eV

  energy without entropy =     -588.75640465  energy(sigma->0) =     -588.75768699


--------------------------------------------------------------------------------------------------------




--------------------------------------- Iteration      1(   6)  ---------------------------------------


    POTLOK:  cpu time      0.1762: real time      0.1778
    SETDIJ:  cpu time      1.0104: real time      1.0159
     EDDAV:  cpu time     21.0162: real time     21.1907
       DOS:  cpu time      0.0013: real time      0.0013
    CHARGE:  cpu time      1.2255: real time      1.2337
    MIXING:  cpu time      0.0049: real time      0.0049
    --------------------------------------------
      LOOP:  cpu time     23.4344: real time     23.6243

 eigenvalue-minimisations  :  8472
 total energy-change (2. order) : 0.9459360E+01  (-0.1767961E+01)
 number of electron     479.9999997 magnetization       1.0000000
 augmentation part      -48.4209254 magnetization      -0.0656812

 Broyden mixing:
  rms(total) = 0.14531E+01    rms(broyden)= 0.14531E+01
  rms(prec ) = 0.15747E+01
  weight for this iteration     100.00

 eigenvalues of (default mixing * dielectric matrix)
  average eigenvalue GAMMA=   1.6880
  1.6880

 Free energy of the ion-electron system (eV)
  ---------------------------------------------------
  alpha Z        PSCENC =       529.58409355
  Ewald energy   TEWEN  =    -12736.13709485
  -Hartree energ DENC   =     -1388.88723216
  -exchange      EXHF   =         0.00000000
  -V(xc)+E(xc)   XCENC  =     -1016.47518697
  PAW double counting   =     22508.06191672   -20554.68813485
  entropy T*S    EENTRO =        -0.00215401
  eigenvalues    EBANDS =      -381.35639424
  atomic energy  EATOM  =     12460.60057749
  Solvation  Ediel_sol  =         0.00000000
  ---------------------------------------------------
  free energy    TOTEN  =      -579.29960934 eV

  energy without entropy =     -579.29745532  energy(sigma->0) =     -579.29853233


--------------------------------------------------------------------------------------------------------




--------------------------------------- Iteration      1(   7)  ---------------------------------------


    POTLOK:  cpu time      0.1761: real time      0.1778
    SETDIJ:  cpu time      1.0106: real time      1.0156
     EDDAV:  cpu time     21.1864: real time     21.3603
       DOS:  cpu time      0.0014: real time      0.0014
    CHARGE:  cpu time      1.2289: real time      1.2367
    MIXING:  cpu time      0.0050: real time      0.0050
    --------------------------------------------
      LOOP:  cpu time     23.6083: real time     23.7968

 eigenvalue-minimisations  :  8544
 total energy-change (2. order) :-0.1970482E+00  (-0.1807784E+01)
 number of electron     479.9999997 magnetization       1.0000000
 augmentation part      -48.0985535 magnetization      -0.0584533

 Broyden mixing:
  rms(total) = 0.71717E+00    rms(broyden)= 0.71717E+00
  rms(prec ) = 0.98962E+00
  weight for this iteration     100.00

 eigenvalues of (default mixing * dielectric matrix)
  average eigenvalue GAMMA=   1.1921
  1.8644  0.5198

 Free energy of the ion-electron system (eV)
  ---------------------------------------------------
  alpha Z        PSCENC =       529.58409355
  Ewald energy   TEWEN  =    -12736.13709485
  -Hartree energ DENC   =     -1439.93353169
  -exchange      EXHF   =         0.00000000
  -V(xc)+E(xc)   XCENC  =     -1004.78038247
  PAW double counting   =     33390.31437430   -31442.00707720
  entropy T*S    EENTRO =        -0.00245907
  eigenvalues    EBANDS =      -337.13515763
  atomic energy  EATOM  =     12460.60057749
  Solvation  Ediel_sol  =         0.00000000
  ---------------------------------------------------
  free energy    TOTEN  =      -579.49665757 eV

  energy without entropy =     -579.49419850  energy(sigma->0) =     -579.49542804


--------------------------------------------------------------------------------------------------------




--------------------------------------- Iteration      1(   8)  ---------------------------------------


    POTLOK:  cpu time      0.1756: real time      0.1771
    SETDIJ:  cpu time      1.0120: real time      1.0173
     EDDAV:  cpu time     21.0903: real time     21.2561
       DOS:  cpu time      0.0013: real time      0.0013
    CHARGE:  cpu time      1.2319: real time      1.2400
    MIXING:  cpu time      0.0050: real time      0.0050
    --------------------------------------------
      LOOP:  cpu time     23.5161: real time     23.6969

 eigenvalue-minimisations  :  8496
 total energy-change (2. order) : 0.1279145E+01  (-0.5291454E+00)
 number of electron     479.9999997 magnetization       1.0000000
 augmentation part      -47.8687103 magnetization      -0.0653584

 Broyden mixing:
  rms(total) = 0.15541E+00    rms(broyden)= 0.15541E+00
  rms(prec ) = 0.17713E+00
  weight for this iteration     100.00

 eigenvalues of (default mixing * dielectric matrix)
  average eigenvalue GAMMA=   1.1992
  1.8046  1.2107  0.5824

 Free energy of the ion-electron system (eV)
  ---------------------------------------------------
  alpha Z        PSCENC =       529.58409355
  Ewald energy   TEWEN  =    -12736.13709485
  -Hartree energ DENC   =     -1470.56162465
  -exchange      EXHF   =         0.00000000
  -V(xc)+E(xc)   XCENC  =     -1000.90298691
  PAW double counting   =     39156.30934929   -37209.66990519
  entropy T*S    EENTRO =        -0.00276525
  eigenvalues    EBANDS =      -307.43715590
  atomic energy  EATOM  =     12460.60057749
  Solvation  Ediel_sol  =         0.00000000
  ---------------------------------------------------
  free energy    TOTEN  =      -578.21751242 eV

  energy without entropy =     -578.21474717  energy(sigma->0) =     -578.21612979


--------------------------------------------------------------------------------------------------------




--------------------------------------- Iteration      1(   9)  ---------------------------------------


    POTLOK:  cpu time      0.1767: real time      0.1784
    SETDIJ:  cpu time      1.0114: real time      1.0169
     EDDAV:  cpu time     20.6280: real time     20.8077
       DOS:  cpu time      0.0013: real time      0.0013
    CHARGE:  cpu time      1.2322: real time      1.2416
    MIXING:  cpu time      0.0051: real time      0.0052
    --------------------------------------------
      LOOP:  cpu time     23.0547: real time     23.2512

 eigenvalue-minimisations  :  8240
 total energy-change (2. order) :-0.9951273E-01  (-0.1875462E+00)
 number of electron     479.9999997 magnetization       1.0000000
 augmentation part      -47.9733360 magnetization      -0.0743714

 Broyden mixing:
  rms(total) = 0.12475E+00    rms(broyden)= 0.12475E+00
  rms(prec ) = 0.13550E+00
  weight for this iteration     100.00

 eigenvalues of (default mixing * dielectric matrix)
  average eigenvalue GAMMA=   1.1339
  1.6876  1.6876  0.6151  0.5451

 Free energy of the ion-electron system (eV)
  ---------------------------------------------------
  alpha Z        PSCENC =       529.58409355
  Ewald energy   TEWEN  =    -12736.13709485
  -Hartree energ DENC   =     -1460.73151260
  -exchange      EXHF   =         0.00000000
  -V(xc)+E(xc)   XCENC  =     -1001.70537660
  PAW double counting   =     39503.53168423   -37556.54307827
  entropy T*S    EENTRO =        -0.00210069
  eigenvalues    EBANDS =      -316.91421739
  atomic energy  EATOM  =     12460.60057749
  Solvation  Ediel_sol  =         0.00000000
  ---------------------------------------------------
  free energy    TOTEN  =      -578.31702515 eV

  energy without entropy =     -578.31492446  energy(sigma->0) =     -578.31597480


--------------------------------------------------------------------------------------------------------




--------------------------------------- Iteration      1(  10)  ---------------------------------------


    POTLOK:  cpu time      0.1750: real time      0.1767
    SETDIJ:  cpu time      1.0068: real time      1.0133
     EDDAV:  cpu time     20.1903: real time     20.3844
       DOS:  cpu time      0.0013: real time      0.0013
    CHARGE:  cpu time      1.2295: real time      1.2391
    MIXING:  cpu time      0.0052: real time      0.0053
    --------------------------------------------
      LOOP:  cpu time     22.6082: real time     22.8202

 eigenvalue-minimisations  :  8032
 total energy-change (2. order) : 0.1609266E-01  (-0.1647547E-01)
 number of electron     479.9999997 magnetization       1.0000000
 augmentation part      -48.0451648 magnetization      -0.0760102

 Broyden mixing:
  rms(total) = 0.75993E-01    rms(broyden)= 0.75993E-01
  rms(prec ) = 0.77954E-01
  weight for this iteration     100.00

 eigenvalues of (default mixing * dielectric matrix)
  average eigenvalue GAMMA=   1.0916
  1.6789  1.6789  0.7236  0.6884  0.6884

 Free energy of the ion-electron system (eV)
  ---------------------------------------------------
  alpha Z        PSCENC =       529.58409355
  Ewald energy   TEWEN  =    -12736.13709485
  -Hartree energ DENC   =     -1454.38265451
  -exchange      EXHF   =         0.00000000
  -V(xc)+E(xc)   XCENC  =     -1002.28123777
  PAW double counting   =     39716.68470385   -37769.43752738
  entropy T*S    EENTRO =        -0.00227289
  eigenvalues    EBANDS =      -322.92951998
  atomic energy  EATOM  =     12460.60057749
  Solvation  Ediel_sol  =         0.00000000
  ---------------------------------------------------
  free energy    TOTEN  =      -578.30093249 eV

  energy without entropy =     -578.29865960  energy(sigma->0) =     -578.29979604


--------------------------------------------------------------------------------------------------------




--------------------------------------- Iteration      1(  11)  ---------------------------------------


    POTLOK:  cpu time      0.1747: real time      0.1763
    SETDIJ:  cpu time      1.0116: real time      1.0177
     EDDAV:  cpu time     19.8482: real time     20.0398
       DOS:  cpu time      0.0015: real time      0.0015
    CHARGE:  cpu time      1.2341: real time      1.2441
    MIXING:  cpu time      0.0060: real time      0.0060
    --------------------------------------------
      LOOP:  cpu time     22.2760: real time     22.4854

 eigenvalue-minimisations  :  7808
 total energy-change (2. order) : 0.1529364E-02  (-0.3820204E-02)
 number of electron     479.9999997 magnetization       1.0000000
 augmentation part      -48.0237705 magnetization      -0.0747965

 Broyden mixing:
  rms(total) = 0.45241E-01    rms(broyden)= 0.45241E-01
  rms(prec ) = 0.46526E-01
  weight for this iteration     100.00

 eigenvalues of (default mixing * dielectric matrix)
  average eigenvalue GAMMA=   1.0498
  1.6782  1.3009  1.3009  0.8350  0.6865  0.4975

 Free energy of the ion-electron system (eV)
  ---------------------------------------------------
  alpha Z        PSCENC =       529.58409355
  Ewald energy   TEWEN  =    -12736.13709485
  -Hartree energ DENC   =     -1455.56273310
  -exchange      EXHF   =         0.00000000
  -V(xc)+E(xc)   XCENC  =     -1002.25128785
  PAW double counting   =     39906.31753198   -37959.09653445
  entropy T*S    EENTRO =        -0.00225374
  eigenvalues    EBANDS =      -321.75170215
  atomic energy  EATOM  =     12460.60057749
  Solvation  Ediel_sol  =         0.00000000
  ---------------------------------------------------
  free energy    TOTEN  =      -578.29940312 eV

  energy without entropy =     -578.29714939  energy(sigma->0) =     -578.29827626


--------------------------------------------------------------------------------------------------------




--------------------------------------- Iteration      1(  12)  ---------------------------------------


    POTLOK:  cpu time      0.1756: real time      0.1774
    SETDIJ:  cpu time      1.0131: real time      1.0187
     EDDAV:  cpu time     19.6162: real time     19.7816
       DOS:  cpu time      0.0017: real time      0.0017
    CHARGE:  cpu time      1.2379: real time      1.2463
    MIXING:  cpu time      0.0059: real time      0.0059
    --------------------------------------------
      LOOP:  cpu time     22.0504: real time     22.2315

 eigenvalue-minimisations  :  7680
 total energy-change (2. order) :-0.7765477E-03  (-0.7910977E-03)
 number of electron     479.9999997 magnetization       1.0000000
 augmentation part      -48.0200645 magnetization      -0.0745907

 Broyden mixing:
  rms(total) = 0.26712E-01    rms(broyden)= 0.26712E-01
  rms(prec ) = 0.27598E-01
  weight for this iteration     100.00

 eigenvalues of (default mixing * dielectric matrix)
  average eigenvalue GAMMA=   1.1454
  1.9149  1.9149  1.6045  0.7419  0.7419  0.6188  0.4807

 Free energy of the ion-electron system (eV)
  ---------------------------------------------------
  alpha Z        PSCENC =       529.58409355
  Ewald energy   TEWEN  =    -12736.13709485
  -Hartree energ DENC   =     -1455.09391989
  -exchange      EXHF   =         0.00000000
  -V(xc)+E(xc)   XCENC  =     -1002.34071688
  PAW double counting   =     39874.70295158   -37927.44616759
  entropy T*S    EENTRO =        -0.00229032
  eigenvalues    EBANDS =      -322.16761276
  atomic energy  EATOM  =     12460.60057749
  Solvation  Ediel_sol  =         0.00000000
  ---------------------------------------------------
  free energy    TOTEN  =      -578.30017967 eV

  energy without entropy =     -578.29788936  energy(sigma->0) =     -578.29903451


--------------------------------------------------------------------------------------------------------




--------------------------------------- Iteration      1(  13)  ---------------------------------------


    POTLOK:  cpu time      0.1757: real time      0.1778
    SETDIJ:  cpu time      1.0141: real time      1.0196
     EDDAV:  cpu time     20.2802: real time     20.4441
       DOS:  cpu time      0.0014: real time      0.0014
    CHARGE:  cpu time      1.2393: real time      1.2478
    MIXING:  cpu time      0.0058: real time      0.0058
    --------------------------------------------
      LOOP:  cpu time     22.7165: real time     22.8964

 eigenvalue-minimisations  :  8016
 total energy-change (2. order) : 0.3963474E-03  (-0.2478228E-03)
 number of electron     479.9999997 magnetization       1.0000000
 augmentation part      -48.0211385 magnetization      -0.0753115

 Broyden mixing:
  rms(total) = 0.12578E-01    rms(broyden)= 0.12578E-01
  rms(prec ) = 0.12861E-01
  weight for this iteration     100.00

 eigenvalues of (default mixing * dielectric matrix)
  average eigenvalue GAMMA=   1.1260
  2.0078  2.0078  1.7425  0.7715  0.7715  0.6201  0.6201  0.4664

 Free energy of the ion-electron system (eV)
  ---------------------------------------------------
  alpha Z        PSCENC =       529.58409355
  Ewald energy   TEWEN  =    -12736.13709485
  -Hartree energ DENC   =     -1454.35726466
  -exchange      EXHF   =         0.00000000
  -V(xc)+E(xc)   XCENC  =     -1002.43717066
  PAW double counting   =     39837.15934640   -37889.85927324
  entropy T*S    EENTRO =        -0.00234447
  eigenvalues    EBANDS =      -322.85065287
  atomic energy  EATOM  =     12460.60057749
  Solvation  Ediel_sol  =         0.00000000
  ---------------------------------------------------
  free energy    TOTEN  =      -578.29978332 eV

  energy without entropy =     -578.29743885  energy(sigma->0) =     -578.29861109


--------------------------------------------------------------------------------------------------------




--------------------------------------- Iteration      1(  14)  ---------------------------------------


    POTLOK:  cpu time      0.1766: real time      0.1786
    SETDIJ:  cpu time      1.0132: real time      1.0184
     EDDAV:  cpu time     19.5825: real time     19.7379
       DOS:  cpu time      0.0014: real time      0.0014
    CHARGE:  cpu time      1.2399: real time      1.2481
    MIXING:  cpu time      0.0065: real time      0.0065
    --------------------------------------------
      LOOP:  cpu time     22.0201: real time     22.1909

 eigenvalue-minimisations  :  7672
 total energy-change (2. order) :-0.5450038E-04  (-0.7699182E-04)
 number of electron     479.9999997 magnetization       1.0000000
 augmentation part      -48.0192314 magnetization      -0.0750220

 Broyden mixing:
  rms(total) = 0.94004E-02    rms(broyden)= 0.94004E-02
  rms(prec ) = 0.96436E-02
  weight for this iteration     100.00

 eigenvalues of (default mixing * dielectric matrix)
  average eigenvalue GAMMA=   1.1207
  1.9575  1.9575  1.8862  0.9932  0.9932  0.6587  0.6587  0.5236  0.4577

 Free energy of the ion-electron system (eV)
  ---------------------------------------------------
  alpha Z        PSCENC =       529.58409355
  Ewald energy   TEWEN  =    -12736.13709485
  -Hartree energ DENC   =     -1454.53124330
  -exchange      EXHF   =         0.00000000
  -V(xc)+E(xc)   XCENC  =     -1002.40385933
  PAW double counting   =     39856.71422681   -37909.42498862
  entropy T*S    EENTRO =        -0.00232697
  eigenvalues    EBANDS =      -322.69922260
  atomic energy  EATOM  =     12460.60057749
  Solvation  Ediel_sol  =         0.00000000
  ---------------------------------------------------
  free energy    TOTEN  =      -578.29983783 eV

  energy without entropy =     -578.29751085  energy(sigma->0) =     -578.29867434


--------------------------------------------------------------------------------------------------------




--------------------------------------- Iteration      1(  15)  ---------------------------------------


    POTLOK:  cpu time      0.1762: real time      0.1776
    SETDIJ:  cpu time      1.0120: real time      1.0176
     EDDAV:  cpu time     19.8050: real time     19.9665
       DOS:  cpu time      0.0015: real time      0.0015
    CHARGE:  cpu time      1.2366: real time      1.2451
    MIXING:  cpu time      0.0065: real time      0.0065
    --------------------------------------------
      LOOP:  cpu time     22.2376: real time     22.4149

 eigenvalue-minimisations  :  7768
 total energy-change (2. order) :-0.2653655E-04  (-0.1950076E-04)
 number of electron     479.9999997 magnetization       1.0000000
 augmentation part      -48.0203033 magnetization      -0.0751908

 Broyden mixing:
  rms(total) = 0.56227E-02    rms(broyden)= 0.56227E-02
  rms(prec ) = 0.58000E-02
  weight for this iteration     100.00

 eigenvalues of (default mixing * dielectric matrix)
  average eigenvalue GAMMA=   1.1132
  2.0626  2.0626  1.9121  1.1098  1.1098  0.6583  0.6583  0.5992  0.4980  0.4618

 Free energy of the ion-electron system (eV)
  ---------------------------------------------------
  alpha Z        PSCENC =       529.58409355
  Ewald energy   TEWEN  =    -12736.13709485
  -Hartree energ DENC   =     -1454.51832588
  -exchange      EXHF   =         0.00000000
  -V(xc)+E(xc)   XCENC  =     -1002.39094609
  PAW double counting   =     39848.64128091   -37901.35459628
  entropy T*S    EENTRO =        -0.00232037
  eigenvalues    EBANDS =      -322.72253283
  atomic energy  EATOM  =     12460.60057749
  Solvation  Ediel_sol  =         0.00000000
  ---------------------------------------------------
  free energy    TOTEN  =      -578.29986436 eV

  energy without entropy =     -578.29754399  energy(sigma->0) =     -578.29870418


--------------------------------------------------------------------------------------------------------




--------------------------------------- Iteration      1(  16)  ---------------------------------------


    POTLOK:  cpu time      0.1754: real time      0.1770
    SETDIJ:  cpu time      1.0121: real time      1.0180
[...]
   0.501E-01 0.361E+00 0.117E+02   -.874E-02 -.127E+00 -.117E+02   -.159E-01 -.100E+00 -.739E-01   0.132E-05 0.145E-04 0.674E-04
   0.486E-01 0.246E+00 -.117E+02   -.820E-02 -.143E+00 0.117E+02   -.155E-01 -.238E-02 -.321E-02   0.110E-05 -.487E-04 -.721E-04
   0.154E+00 -.954E+00 -.371E+02   0.219E+00 0.106E+01 0.371E+02   -.186E+00 0.241E-01 0.727E-01   0.169E-05 0.818E-05 -.230E-03
   0.671E+01 0.125E+02 -.482E+02   -.585E+01 -.106E+02 0.459E+02   -.286E+00 -.166E+01 0.220E+01   0.222E-04 0.870E-04 -.343E-03
   0.601E+01 0.253E+02 0.487E+02   -.563E+01 -.235E+02 -.467E+02   -.220E+00 -.214E+01 -.177E+01   -.176E-06 0.303E-04 0.379E-03
   0.742E-01 -.123E+01 0.372E+02   0.221E+00 0.171E+01 -.371E+02   -.229E+00 -.276E+00 -.194E+00   -.266E-05 0.140E-04 0.294E-03
   0.486E-01 0.246E+00 0.117E+02   -.820E-02 -.143E+00 -.117E+02   -.155E-01 -.238E-02 0.321E-02   0.110E-05 -.498E-04 0.717E-04
   0.198E-01 0.193E+00 -.119E+02   -.871E-02 -.162E+00 0.117E+02   0.541E-02 0.756E-01 0.213E+00   0.805E-06 0.315E-05 -.929E-04
   0.742E-01 -.123E+01 -.372E+02   0.221E+00 0.171E+01 0.371E+02   -.229E+00 -.276E+00 0.194E+00   -.266E-05 0.164E-04 -.294E-03
   0.369E+01 0.180E+02 -.593E+02   -.289E+01 -.164E+02 0.567E+02   -.151E+00 -.205E+01 0.333E+01   0.187E-04 -.625E-04 -.364E-03
   -.490E+01 0.139E+02 -.181E+02   0.431E+01 -.145E+02 0.178E+02   0.166E+00 0.358E+00 -.613E+00   0.859E-06 0.135E-04 0.508E-04
   0.279E+00 0.373E+00 0.432E+01   -.113E-01 -.326E+00 -.388E+01   0.306E-01 -.398E-01 -.105E+01   0.448E-05 -.257E-04 0.786E-04
   -.781E-01 -.115E+00 0.136E+02   0.124E-01 0.117E+00 -.136E+02   0.513E-01 -.868E-02 -.724E+00   -.514E-06 0.124E-05 -.164E-03
   -.153E+00 0.641E+00 -.386E+01   0.135E+00 -.683E+00 0.282E+01   -.201E-01 0.428E-01 -.135E+01   -.704E-06 -.128E-04 -.531E-04
   -.245E+00 -.351E+00 0.439E+01   0.104E-01 0.299E+00 -.392E+01   -.699E-01 0.492E-01 -.108E+01   -.406E-05 0.321E-04 0.605E-04
   0.133E+01 0.287E+01 0.113E+02   -.252E+00 -.280E+01 -.109E+02   -.880E+00 0.955E-02 -.681E+00   0.618E-05 0.176E-05 -.104E-03
   0.475E+01 -.138E+02 -.166E+02   -.416E+01 0.145E+02 0.162E+02   -.853E-01 -.461E+00 -.739E+00   -.200E-06 -.922E-05 0.480E-04
   -.314E+00 -.184E+00 0.309E+01   0.118E-01 0.326E+00 -.299E+01   0.366E-01 -.504E-01 -.655E+00   -.444E-05 -.273E-04 0.635E-04
   0.434E-01 0.127E+00 0.854E+01   -.993E-02 -.118E+00 -.791E+01   -.229E-01 -.656E-02 -.112E+01   0.583E-06 -.990E-05 -.838E-04
   0.261E+00 -.743E+00 -.315E+02   -.228E+00 0.737E+00 0.311E+02   -.139E-01 -.989E-02 -.423E+00   -.425E-06 0.410E-05 -.402E-04
   0.286E+00 0.172E+00 0.303E+01   -.108E-01 -.299E+00 -.295E+01   -.649E-01 0.526E-01 -.624E+00   0.399E-05 0.198E-04 0.751E-04
   -.132E+01 -.289E+01 0.111E+02   0.250E+00 0.280E+01 -.106E+02   0.859E+00 0.139E-02 -.726E+00   -.707E-05 0.735E-05 -.123E-03
   0.133E+01 0.287E+01 -.113E+02   -.252E+00 -.280E+01 0.109E+02   -.880E+00 0.955E-02 0.681E+00   0.618E-05 -.924E-06 0.104E-03
   -.314E+00 -.184E+00 -.309E+01   0.118E-01 0.326E+00 0.299E+01   0.366E-01 -.504E-01 0.655E+00   -.442E-05 -.261E-04 -.632E-04
   0.261E+00 -.743E+00 0.315E+02   -.228E+00 0.737E+00 -.311E+02   -.139E-01 -.989E-02 0.423E+00   -.428E-06 0.459E-05 0.406E-04
   0.434E-01 0.127E+00 -.854E+01   -.991E-02 -.118E+00 0.791E+01   -.229E-01 -.656E-02 0.112E+01   0.589E-06 -.910E-05 0.841E-04
   0.286E+00 0.172E+00 -.303E+01   -.108E-01 -.299E+00 0.295E+01   -.649E-01 0.526E-01 0.624E+00   0.398E-05 0.172E-04 -.746E-04
   -.490E+01 0.139E+02 0.181E+02   0.431E+01 -.145E+02 -.178E+02   0.166E+00 0.358E+00 0.613E+00   0.850E-06 0.161E-04 -.511E-04
   -.132E+01 -.289E+01 -.111E+02   0.250E+00 0.280E+01 0.106E+02   0.859E+00 0.139E-02 0.726E+00   -.708E-05 0.100E-04 0.124E-03
   0.279E+00 0.373E+00 -.432E+01   -.113E-01 -.326E+00 0.388E+01   0.306E-01 -.398E-01 0.105E+01   0.449E-05 -.270E-04 -.780E-04
   -.153E+00 0.641E+00 0.386E+01   0.135E+00 -.683E+00 -.282E+01   -.201E-01 0.428E-01 0.135E+01   -.693E-06 -.133E-04 0.532E-04
   -.780E-01 -.115E+00 -.136E+02   0.124E-01 0.117E+00 0.136E+02   0.513E-01 -.868E-02 0.724E+00   -.512E-06 0.467E-06 0.165E-03
   -.245E+00 -.351E+00 -.439E+01   0.104E-01 0.299E+00 0.392E+01   -.699E-01 0.492E-01 0.108E+01   -.408E-05 0.347E-04 -.601E-04
   0.475E+01 -.138E+02 0.166E+02   -.416E+01 0.145E+02 -.162E+02   -.853E-01 -.461E+00 0.739E+00   -.202E-06 -.118E-04 -.471E-04
   -.153E+00 0.641E+00 -.386E+01   0.135E+00 -.683E+00 0.282E+01   -.201E-01 0.428E-01 -.135E+01   -.674E-06 -.128E-04 -.531E-04
   -.245E+00 -.351E+00 0.439E+01   0.103E-01 0.299E+00 -.392E+01   -.699E-01 0.492E-01 -.108E+01   -.408E-05 0.321E-04 0.605E-04
   0.133E+01 0.287E+01 0.113E+02   -.252E+00 -.280E+01 -.109E+02   -.880E+00 0.955E-02 -.681E+00   0.616E-05 0.175E-05 -.104E-03
   0.261E+00 -.743E+00 -.315E+02   -.228E+00 0.737E+00 0.311E+02   -.139E-01 -.989E-02 -.423E+00   -.411E-06 0.409E-05 -.402E-04
   0.286E+00 0.172E+00 0.303E+01   -.108E-01 -.299E+00 -.295E+01   -.649E-01 0.526E-01 -.624E+00   0.398E-05 0.198E-04 0.751E-04
   -.132E+01 -.289E+01 0.111E+02   0.250E+00 0.280E+01 -.106E+02   0.859E+00 0.139E-02 -.726E+00   -.709E-05 0.735E-05 -.123E-03
   -.490E+01 0.139E+02 -.181E+02   0.431E+01 -.145E+02 0.178E+02   0.166E+00 0.358E+00 -.613E+00   0.835E-06 0.135E-04 0.508E-04
   0.279E+00 0.373E+00 0.432E+01   -.113E-01 -.326E+00 -.388E+01   0.306E-01 -.398E-01 -.105E+01   0.449E-05 -.257E-04 0.786E-04
   -.781E-01 -.115E+00 0.136E+02   0.124E-01 0.117E+00 -.136E+02   0.513E-01 -.868E-02 -.724E+00   -.500E-06 0.124E-05 -.164E-03
   0.475E+01 -.138E+02 -.166E+02   -.416E+01 0.145E+02 0.162E+02   -.853E-01 -.461E+00 -.739E+00   -.225E-06 -.922E-05 0.480E-04
   -.314E+00 -.184E+00 0.309E+01   0.118E-01 0.326E+00 -.299E+01   0.366E-01 -.504E-01 -.655E+00   -.442E-05 -.273E-04 0.635E-04
   0.434E-01 0.127E+00 0.854E+01   -.990E-02 -.118E+00 -.791E+01   -.229E-01 -.656E-02 -.112E+01   0.599E-06 -.991E-05 -.838E-04
   0.434E-01 0.127E+00 -.854E+01   -.992E-02 -.118E+00 0.791E+01   -.229E-01 -.656E-02 0.112E+01   0.593E-06 -.911E-05 0.841E-04
   0.286E+00 0.172E+00 -.303E+01   -.108E-01 -.299E+00 0.295E+01   -.649E-01 0.526E-01 0.624E+00   0.399E-05 0.172E-04 -.746E-04
   -.490E+01 0.139E+02 0.181E+02   0.431E+01 -.145E+02 -.178E+02   0.166E+00 0.358E+00 0.613E+00   0.842E-06 0.161E-04 -.511E-04
   -.781E-01 -.115E+00 -.136E+02   0.124E-01 0.117E+00 0.136E+02   0.513E-01 -.868E-02 0.724E+00   -.502E-06 0.465E-06 0.165E-03
   -.245E+00 -.351E+00 -.439E+01   0.104E-01 0.299E+00 0.392E+01   -.699E-01 0.492E-01 0.108E+01   -.406E-05 0.347E-04 -.601E-04
   0.475E+01 -.138E+02 0.166E+02   -.416E+01 0.145E+02 -.162E+02   -.853E-01 -.461E+00 0.739E+00   -.222E-06 -.118E-04 -.471E-04
   0.133E+01 0.287E+01 -.113E+02   -.252E+00 -.280E+01 0.109E+02   -.880E+00 0.955E-02 0.681E+00   0.616E-05 -.930E-06 0.104E-03
   -.314E+00 -.184E+00 -.309E+01   0.118E-01 0.326E+00 0.299E+01   0.366E-01 -.504E-01 0.655E+00   -.444E-05 -.261E-04 -.632E-04
   0.261E+00 -.743E+00 0.315E+02   -.228E+00 0.737E+00 -.311E+02   -.139E-01 -.989E-02 0.423E+00   -.407E-06 0.459E-05 0.406E-04
   -.132E+01 -.289E+01 -.111E+02   0.250E+00 0.280E+01 0.106E+02   0.859E+00 0.139E-02 0.726E+00   -.708E-05 0.100E-04 0.124E-03
   0.279E+00 0.373E+00 -.432E+01   -.113E-01 -.326E+00 0.388E+01   0.306E-01 -.398E-01 0.105E+01   0.448E-05 -.270E-04 -.780E-04
   -.152E+00 0.641E+00 0.386E+01   0.135E+00 -.683E+00 -.282E+01   -.201E-01 0.428E-01 0.135E+01   -.684E-06 -.133E-04 0.532E-04
 -----------------------------------------------------------------------------------------------
   0.308E+00 0.114E+00 0.767E-04   -.131E-13 0.114E-12 -.166E-12   -.735E+00 -.307E+00 -.222E-15   -.129E-05 -.345E-04 -.148E-05
 
 
 POSITION                                       TOTAL-FORCE (eV/Angst)
 -----------------------------------------------------------------------------------
      7.51559     16.05965      0.00000        -0.180419      0.269150      0.305707
      5.59545     13.34415      1.92015        -0.089345     -0.325489     -0.228005
      3.67530     10.62865      3.84030        -0.013932     -0.131504     -0.037156
      1.75515      7.91315      5.76045        -0.004400     -0.104133      0.052790
      7.51559      5.19765      7.68060        -0.089345     -0.325489      0.228005
      5.59544      2.48215      9.60074        -0.658611     -0.172370      0.067774
      7.51559      5.19765      0.00000        -0.628423      0.454358     -0.671373
      5.59545      2.48215      1.92015        -0.062484     -0.215650     -0.132214
      3.67530     16.05965      3.84030        -0.004400     -0.104133     -0.052790
      1.75515     13.34415      5.76045        -0.014544     -0.100131      0.023691
      7.51559     10.62865      7.68060        -0.062484     -0.215650      0.132214
      5.59544      7.91315      9.60074        -0.180419      0.269150     -0.305707
      7.51559     10.62866      0.00000        -0.658611     -0.172370     -0.067774
      5.59545      7.91315      1.92015        -0.191106     -0.129871     -0.122531
      3.67530      5.19765      3.84030        -0.014544     -0.100131     -0.023691
      1.75515      2.48215      5.76045        -0.013932     -0.131504      0.037156
      7.51559     16.05965      7.68060        -0.191106     -0.129871      0.122531
      5.59544     13.34415      9.60074        -0.628423      0.454358      0.671373
      3.67530     16.05965      0.00000        -0.180419      0.269150      0.305707
      1.75515     13.34415      1.92015        -0.089345     -0.325489     -0.228005
      7.51559     10.62865      3.84030        -0.013932     -0.131504     -0.037156
      5.59545      7.91315      5.76045        -0.004400     -0.104133      0.052790
      3.67530      5.19765      7.68060        -0.089345     -0.325489      0.228005
      1.75515      2.48215      9.60074        -0.658611     -0.172370      0.067774
      3.67530      5.19765      0.00000        -0.628423      0.454358     -0.671373
      1.75515      2.48215      1.92015        -0.062484     -0.215650     -0.132214
      7.51559     16.05965      3.84030        -0.004400     -0.104133     -0.052790
      5.59545     13.34415      5.76045        -0.014544     -0.100131      0.023691
      3.67530     10.62865      7.68060        -0.062484     -0.215650      0.132214
      1.75515      7.91315      9.60074        -0.180419      0.269150     -0.305707
      3.67530     10.62866      0.00000        -0.658611     -0.172370     -0.067774
      1.75515      7.91315      1.92015        -0.191106     -0.129871     -0.122531
      7.51559      5.19765      3.84030        -0.014544     -0.100131     -0.023691
      5.59545      2.48215      5.76045        -0.013932     -0.131504      0.037156
      3.67530     16.05965      7.68060        -0.191106     -0.129871      0.122531
      1.75515     13.34415      9.60074        -0.628423      0.454358      0.671373
      5.59545      3.83990      0.00000         0.576231      0.210972      0.086036
      3.67530      1.12440      1.92015         0.083041      0.323795     -0.230633
      1.75515     14.70190      3.84030         0.020101      0.108030     -0.053724
      7.51559     11.98640      5.76045         0.028930      0.134688      0.041503
      5.59545      9.27090      7.68060         0.083041      0.323795      0.230633
      3.67530      6.55540      9.60074         0.163503     -0.271391     -0.241599
      5.59545      9.27091      0.00000         0.656188     -0.458373     -0.704841
      3.67530      6.55540      1.92015         0.190272      0.134121     -0.122344
      1.75515      3.83990      3.84030         0.028930      0.134688     -0.041503
      7.51559      1.12440      5.76045         0.028437      0.102596      0.025489
      5.59545     14.70190      7.68060         0.190272      0.134121      0.122344
      3.67530     11.98640      9.60074         0.576231      0.210972     -0.086036
      5.59545     14.70191      0.00000         0.163503     -0.271391      0.241599
      3.67530     11.98640      1.92015         0.070027      0.205949     -0.136092
      1.75515      9.27090      3.84030         0.028437      0.102596     -0.025489
      7.51559      6.55540      5.76045         0.020101      0.108030      0.053724
      5.59545      3.83990      7.68060         0.070027      0.205949      0.136092
      3.67530      1.12440      9.60074         0.656188     -0.458373      0.704841
      1.75515      3.83990      0.00000         0.576231      0.210972      0.086036
      7.51559      1.12440      1.92015         0.083041      0.323795     -0.230633
      5.59544     14.70190      3.84030         0.020101      0.108030     -0.053724
      3.67530     11.98640      5.76045         0.028930      0.134688      0.041503
      1.75515      9.27090      7.68060         0.083041      0.323795      0.230633
      7.51559      6.55540      9.60074         0.163503     -0.271391     -0.241599
      1.75515      9.27091      0.00000         0.656188     -0.458373     -0.704841
      7.51559      6.55540      1.92015         0.190272      0.134121     -0.122344
      5.59544      3.83990      3.84030         0.028930      0.134688     -0.041503
      3.67530      1.12440      5.76045         0.028437      0.102596      0.025489
      1.75515     14.70190      7.68060         0.190272      0.134121      0.122344
      7.51559     11.98640      9.60074         0.576231      0.210972     -0.086036
      1.75515     14.70191      0.00000         0.163503     -0.271391      0.241599
      7.51559     11.98640      1.92015         0.070027      0.205949     -0.136092
      5.59544      9.27090      3.84030         0.028437      0.102596     -0.025489
      3.67530      6.55540      5.76045         0.020101      0.108030      0.053724
      1.75515      3.83990      7.68060         0.070027      0.205949      0.136092
      7.51559      1.12440      9.60074         0.656188     -0.458373      0.704841
      0.77700     11.34540     11.76468        -0.427614     -0.265477     -0.924367
      6.53744      5.23553     14.59358         0.301415      0.009088     -0.607236
      4.61729     15.41865     17.42248        -0.010854     -0.004972     -0.677506
      4.61729     15.41865     11.76468        -0.034280      0.002002     -2.391358
      2.69715      9.30878     14.59358        -0.300675     -0.001121     -0.616304
      0.77700      3.19890     17.42248         0.204226      0.088241     -0.236855
      0.77700      3.19890     11.76468         0.510086      0.216283     -1.103677
      6.53744     13.38203     14.59358        -0.261750      0.092642     -0.556291
      4.61729      7.27215     17.42248         0.014195      0.004058     -0.499376
      4.61729      7.27215     11.76468         0.022619     -0.014417     -0.762324
      2.69715      1.16228     14.59358         0.213539     -0.073095     -0.547767
      0.77700     11.34540     17.42248        -0.204375     -0.087978     -0.252863
      2.69715     11.34540     13.17913         0.204226      0.088241      0.236855
      0.77700      5.23553     16.00803        -0.261750      0.092642      0.556291
      6.53744     15.41865     18.83693         0.022619     -0.014417      0.762324
      6.53744     15.41865     13.17913         0.014195      0.004058      0.499376
      4.61729      9.30878     16.00803         0.213539     -0.073095      0.547767
      2.69715      3.19890     18.83693        -0.427614     -0.265477      0.924367
      2.69715      3.19890     13.17913        -0.204375     -0.087978      0.252863
      0.77700     13.38203     16.00803         0.301415      0.009088      0.607236
      6.53744      7.27215     18.83693        -0.034280      0.002002      2.391358
      6.53744      7.27215     13.17913        -0.010854     -0.004972      0.677506
      4.61729      1.16228     16.00803        -0.300675     -0.001121      0.616304
      2.69715     11.34540     18.83693         0.510086      0.216283      1.103677
      0.77700     15.41865     11.76468        -0.034280      0.002002     -2.391358
      6.53744      9.30878     14.59358        -0.300675     -0.001121     -0.616304
      4.61729      3.19890     17.42248         0.204226      0.088241     -0.236855
      0.77700      7.27215     11.76468         0.022619     -0.014417     -0.762324
      6.53744      1.16228     14.59358         0.213539     -0.073095     -0.547767
      4.61729     11.34540     17.42248        -0.204375     -0.087978     -0.252863
      4.61729     11.34540     11.76468        -0.427614     -0.265477     -0.924367
      2.69715      5.23553     14.59358         0.301415      0.009088     -0.607236
      0.77700     15.41865     17.42248        -0.010854     -0.004972     -0.677506
      4.61729      3.19890     11.76468         0.510086      0.216283     -1.103677
      2.69715     13.38203     14.59358        -0.261750      0.092642     -0.556291
      0.77700      7.27215     17.42248         0.014195      0.004058     -0.499376
      2.69715     15.41865     13.17913         0.014195      0.004058      0.499376
      0.77700      9.30878     16.00803         0.213539     -0.073095      0.547767
      6.53744      3.19890     18.83693        -0.427614     -0.265477      0.924367
      2.69715      7.27215     13.17913        -0.010854     -0.004972      0.677506
      0.77700      1.16228     16.00803        -0.300675     -0.001121      0.616304
      6.53744     11.34540     18.83693         0.510086      0.216283      1.103677
      6.53744     11.34540     13.17913         0.204226      0.088241      0.236855
      4.61729      5.23553     16.00803        -0.261750      0.092642      0.556291
      2.69714     15.41865     18.83693         0.022619     -0.014417      0.762324
      6.53744      3.19890     13.17913        -0.204375     -0.087978      0.252863
      4.61729     13.38203     16.00803         0.301415      0.009088      0.607236
      2.69715      7.27215     18.83693        -0.034280      0.002002      2.391358
 -----------------------------------------------------------------------------------
    total drift:                               -0.426486     -0.192968      0.000075


--------------------------------------------------------------------------------------------------------



  FREE ENERGIE OF THE ION-ELECTRON SYSTEM (eV)
  ---------------------------------------------------
  free  energy   TOTEN  =      -578.29986132 eV

  energy  without entropy=     -578.29753575  energy(sigma->0) =     -578.29869854
 


--------------------------------------------------------------------------------------------------------


    POTLOK:  cpu time      1.1843: real time      1.1906


--------------------------------------------------------------------------------------------------------


     LOOP+:  cpu time    546.7089: real time    551.6036
    4ORBIT:  cpu time      0.0000: real time      0.0000

 total amount of memory used by VASP MPI-rank0   166841. kBytes
=======================================================================

   base      :      30000. kBytes
   nonlr-proj:       6560. kBytes
   fftplans  :      18524. kBytes
   grid      :      14584. kBytes
   one-center:        129. kBytes
   wavefun   :      97044. kBytes
 
  
  
 General timing and accounting informations for this job:
 ========================================================
  
                  Total CPU time used (sec):      603.509
                            User time (sec):      571.735
                          System time (sec):       31.775
                         Elapsed time (sec):      611.041
  
                   Maximum memory used (kb):      432300.
                   Average memory used (kb):          N/A
  
                          Minor page faults:       115544
                          Major page faults:           32
                 Voluntary context switches:         1948
