 264 264   0   0
  0.2741953E+02  0.1946760E-08  0.1946760E-08  0.1910025E-08  0.5000000E-15
  1.000000000000000E-004
  CAR 
 Si and Ge interface calculation         
      6.75826003     -8.83633307  301      4.13781613      1.00000000
     -8.836  0.0000E+00  0.0000E+00  0.0000E+00  0.0000E+00
     -8.784  0.0000E+00  0.0000E+00  0.0000E+00  0.0000E+00
     -8.732  0.0000E+00  0.0000E+00  0.0000E+00  0.0000E+00
     -8.680  0.0000E+00  0.0000E+00  0.0000E+00  0.0000E+00
     -8.628  0.0000E+00  0.0000E+00  0.0000E+00  0.0000E+00
     -8.576  0.0000E+00  0.0000E+00  0.0000E+00  0.0000E+00
     -8.524  0.0000E+00  0.0000E+00  0.0000E+00  0.0000E+00
     -8.472  0.0000E+00  0.0000E+00  0.0000E+00  0.0000E+00
     -8.420  0.0000E+00  0.0000E+00  0.0000E+00  0.0000E+00
     -8.368  0.0000E+00  0.0000E+00  0.0000E+00  0.0000E+00
     -8.317  0.0000E+00  0.0000E+00  0.0000E+00  0.0000E+00
     -8.265  0.0000E+00  0.0000E+00  0.0000E+00  0.0000E+00
     -8.213  0.0000E+00  0.0000E+00  0.0000E+00  0.0000E+00
     -8.161  0.1359E-04  0.3504E-05  0.7066E-06  0.1822E-06
     -8.109  0.9605E+01  0.9548E+01  0.4993E+00  0.4963E+00
     -8.057  0.2581E+02  0.2489E+02  0.1841E+01  0.1790E+01
     -8.005  0.3430E+01  0.4246E+01  0.2019E+01  0.2011E+01
     -7.953  0.1922E+02  0.1922E+02  0.3019E+01  0.3010E+01
     -7.901  0.1002E+02  0.9883E+01  0.3540E+01  0.3524E+01
     -7.849  0.1547E+02  0.1400E+02  0.4344E+01  0.4252E+01
     -7.797  0.2224E+02  0.2401E+02  0.5500E+01  0.5500E+01
     -7.745  0.1292E+01  0.8341E+00  0.5567E+01  0.5543E+01
     -7.693  0.3883E+02  0.3682E+02  0.7586E+01  0.7457E+01
     -7.641  0.3594E+02  0.3771E+02  0.9454E+01  0.9418E+01
     -7.589  0.2012E+02  0.2082E+02  0.1050E+02  0.1050E+02
     -7.537  0.4692E-03  0.1251E-02  0.1050E+02  0.1050E+02
     -7.485  0.1741E+00  0.9049E-01  0.1051E+02  0.1050E+02
     -7.433  0.2232E+02  0.2096E+02  0.1167E+02  0.1159E+02
     -7.381  0.2972E+02  0.3003E+02  0.1321E+02  0.1316E+02
     -7.329  0.2868E+02  0.2833E+02  0.1471E+02  0.1463E+02
     -7.277  0.3472E+02  0.3599E+02  0.1651E+02  0.1650E+02
     -7.225  0.2055E+02  0.1757E+02  0.1758E+02  0.1741E+02
     -7.173  0.3699E+02  0.4016E+02  0.1950E+02  0.1950E+02
     -7.121  0.3202E+02  0.3068E+02  0.2117E+02  0.2110E+02
     -7.069  0.1652E+02  0.1747E+02  0.2202E+02  0.2200E+02
     -7.017  0.4091E+02  0.3876E+02  0.2415E+02  0.2402E+02
     -6.965  0.6282E+02  0.6451E+02  0.2742E+02  0.2737E+02
     -6.913  0.2072E+02  0.1980E+02  0.2849E+02  0.2840E+02
     -6.861  0.3372E+02  0.3373E+02  0.3025E+02  0.3015E+02
     -6.809  0.4850E+02  0.4802E+02  0.3277E+02  0.3265E+02
     -6.757  0.3436E+02  0.3577E+02  0.3455E+02  0.3451E+02
     -6.705  0.3548E+02  0.3518E+02  0.3640E+02  0.3634E+02
     -6.653  0.5709E+02  0.5566E+02  0.3937E+02  0.3923E+02
     -6.601  0.6027E+02  0.6229E+02  0.4250E+02  0.4247E+02
     -6.549  0.5740E+02  0.5438E+02  0.4548E+02  0.4530E+02
     -6.497  0.2848E+02  0.3142E+02  0.4696E+02  0.4693E+02
     -6.445  0.2571E+02  0.2428E+02  0.4830E+02  0.4819E+02
     -6.393  0.4775E+02  0.4801E+02  0.5078E+02  0.5069E+02
     -6.341  0.5983E+02  0.5912E+02  0.5389E+02  0.5376E+02
     -6.289  0.2241E+02  0.2430E+02  0.5506E+02  0.5502E+02
     -6.237  0.5103E+02  0.4878E+02  0.5771E+02  0.5756E+02
     -6.185  0.3939E+02  0.4056E+02  0.5976E+02  0.5967E+02
     -6.133  0.4004E+02  0.3922E+02  0.6184E+02  0.6171E+02
     -6.081  0.9348E+02  0.9372E+02  0.6670E+02  0.6658E+02
     -6.029  0.7528E+02  0.7521E+02  0.7061E+02  0.7049E+02
     -5.977  0.7478E+02  0.7474E+02  0.7450E+02  0.7437E+02
     -5.925  0.5035E+02  0.4972E+02  0.7711E+02  0.7696E+02
     -5.873  0.7261E+02  0.7370E+02  0.8089E+02  0.8079E+02
     -5.821  0.7506E+02  0.7323E+02  0.8479E+02  0.8460E+02
     -5.769  0.6392E+02  0.6321E+02  0.8811E+02  0.8788E+02
     -5.717  0.8761E+02  0.8960E+02  0.9267E+02  0.9254E+02
     -5.665  0.7386E+02  0.7333E+02  0.9651E+02  0.9635E+02
     -5.613  0.7949E+02  0.7827E+02  0.1006E+03  0.1004E+03
     -5.561  0.7828E+02  0.7649E+02  0.1047E+03  0.1044E+03
     -5.509  0.8009E+02  0.8207E+02  0.1089E+03  0.1087E+03
     -5.458  0.6872E+02  0.7048E+02  0.1124E+03  0.1123E+03
     -5.406  0.6887E+02  0.6741E+02  0.1160E+03  0.1158E+03
     -5.354  0.6103E+02  0.5991E+02  0.1192E+03  0.1189E+03
     -5.302  0.7455E+02  0.7408E+02  0.1231E+03  0.1228E+03
     -5.250  0.6944E+02  0.7115E+02  0.1267E+03  0.1265E+03
     -5.198  0.6701E+02  0.6738E+02  0.1302E+03  0.1300E+03
     -5.146  0.6908E+02  0.6847E+02  0.1338E+03  0.1336E+03
     -5.094  0.6619E+02  0.6570E+02  0.1372E+03  0.1370E+03
     -5.042  0.8873E+02  0.8898E+02  0.1418E+03  0.1416E+03
     -4.990  0.7357E+02  0.7385E+02  0.1456E+03  0.1454E+03
     -4.938  0.5098E+02  0.5127E+02  0.1483E+03  0.1481E+03
     -4.886  0.5948E+02  0.6036E+02  0.1514E+03  0.1512E+03
     -4.834  0.8347E+02  0.8054E+02  0.1557E+03  0.1554E+03
     -4.782  0.1010E+03  0.1009E+03  0.1610E+03  0.1607E+03
     -4.730  0.1120E+03  0.1095E+03  0.1668E+03  0.1664E+03
     -4.678  0.1076E+03  0.1088E+03  0.1724E+03  0.1720E+03
     -4.626  0.1112E+03  0.1100E+03  0.1782E+03  0.1777E+03
     -4.574  0.1125E+03  0.1144E+03  0.1840E+03  0.1837E+03
     -4.522  0.1025E+03  0.1017E+03  0.1893E+03  0.1890E+03
     -4.470  0.1148E+03  0.1147E+03  0.1953E+03  0.1949E+03
     -4.418  0.9802E+02  0.9721E+02  0.2004E+03  0.2000E+03
     -4.366  0.1092E+03  0.1118E+03  0.2061E+03  0.2058E+03
     -4.314  0.7838E+02  0.8000E+02  0.2102E+03  0.2100E+03
     -4.262  0.6966E+02  0.7190E+02  0.2138E+03  0.2137E+03
     -4.210  0.7157E+02  0.6955E+02  0.2175E+03  0.2173E+03
     -4.158  0.5106E+02  0.4925E+02  0.2201E+03  0.2199E+03
     -4.106  0.9897E+02  0.9712E+02  0.2253E+03  0.2249E+03
     -4.054  0.6913E+02  0.7347E+02  0.2289E+03  0.2287E+03
     -4.002  0.3432E+02  0.3552E+02  0.2307E+03  0.2306E+03
     -3.950  0.6998E+02  0.6836E+02  0.2343E+03  0.2341E+03
     -3.898  0.6157E+02  0.6138E+02  0.2375E+03  0.2373E+03
     -3.846  0.7139E+02  0.7008E+02  0.2412E+03  0.2410E+03
     -3.794  0.7430E+02  0.7366E+02  0.2451E+03  0.2448E+03
     -3.742  0.7117E+02  0.7221E+02  0.2488E+03  0.2486E+03
     -3.690  0.8193E+02  0.8008E+02  0.2530E+03  0.2527E+03
     -3.638  0.6070E+02  0.6223E+02  0.2562E+03  0.2560E+03
     -3.586  0.6666E+02  0.6672E+02  0.2597E+03  0.2594E+03
     -3.534  0.7988E+02  0.8078E+02  0.2638E+03  0.2636E+03
     -3.482  0.3589E+02  0.3554E+02  0.2657E+03  0.2655E+03
     -3.430  0.7629E+02  0.7311E+02  0.2696E+03  0.2693E+03
     -3.378  0.9083E+02  0.9572E+02  0.2744E+03  0.2742E+03
     -3.326  0.5908E+02  0.5681E+02  0.2774E+03  0.2772E+03
     -3.274  0.7398E+02  0.7163E+02  0.2813E+03  0.2809E+03
     -3.222  0.6770E+02  0.7094E+02  0.2848E+03  0.2846E+03
     -3.170  0.7693E+02  0.7430E+02  0.2888E+03  0.2885E+03
     -3.118  0.8039E+02  0.8132E+02  0.2930E+03  0.2927E+03
     -3.066  0.6448E+02  0.6508E+02  0.2963E+03  0.2961E+03
     -3.014  0.9187E+02  0.9177E+02  0.3011E+03  0.3008E+03
     -2.962  0.6595E+02  0.6593E+02  0.3045E+03  0.3043E+03
     -2.910  0.6020E+02  0.6132E+02  0.3077E+03  0.3075E+03
     -2.858  0.8567E+02  0.8225E+02  0.3121E+03  0.3117E+03
     -2.806  0.9802E+02  0.1008E+03  0.3172E+03  0.3170E+03
     -2.754  0.9173E+02  0.9341E+02  0.3220E+03  0.3218E+03
     -2.702  0.8237E+02  0.7880E+02  0.3263E+03  0.3259E+03
     -2.650  0.1006E+03  0.1018E+03  0.3315E+03  0.3312E+03
     -2.598  0.9347E+02  0.9359E+02  0.3363E+03  0.3361E+03
     -2.547  0.8588E+02  0.8262E+02  0.3408E+03  0.3404E+03
     -2.495  0.1181E+03  0.1190E+03  0.3469E+03  0.3466E+03
     -2.443  0.1253E+03  0.1282E+03  0.3535E+03  0.3532E+03
     -2.391  0.9714E+02  0.9596E+02  0.3585E+03  0.3582E+03
     -2.339  0.9275E+02  0.9232E+02  0.3633E+03  0.3630E+03
     -2.287  0.1082E+03  0.1085E+03  0.3690E+03  0.3687E+03
     -2.235  0.8736E+02  0.8712E+02  0.3735E+03  0.3732E+03
     -2.183  0.1146E+03  0.1161E+03  0.3795E+03  0.3792E+03
     -2.131  0.5292E+02  0.5356E+02  0.3822E+03  0.3820E+03
     -2.079  0.4346E+02  0.4403E+02  0.3845E+03  0.3843E+03
     -2.027  0.4947E+02  0.4852E+02  0.3870E+03  0.3868E+03
     -1.975  0.6686E+02  0.6616E+02  0.3905E+03  0.3903E+03
     -1.923  0.8027E+02  0.7988E+02  0.3947E+03  0.3944E+03
     -1.871  0.7440E+02  0.7733E+02  0.3986E+03  0.3984E+03
     -1.819  0.1040E+03  0.1003E+03  0.4040E+03  0.4036E+03
     -1.767  0.8024E+02  0.8168E+02  0.4081E+03  0.4079E+03
     -1.715  0.8678E+02  0.8776E+02  0.4126E+03  0.4125E+03
     -1.663  0.9151E+02  0.8957E+02  0.4174E+03  0.4171E+03
     -1.611  0.8821E+02  0.8937E+02  0.4220E+03  0.4218E+03
     -1.559  0.8118E+02  0.7930E+02  0.4262E+03  0.4259E+03
     -1.507  0.8637E+02  0.8878E+02  0.4307E+03  0.4305E+03
     -1.455  0.6450E+02  0.6433E+02  0.4340E+03  0.4338E+03
     -1.403  0.9103E+02  0.9173E+02  0.4388E+03  0.4386E+03
     -1.351  0.5413E+02  0.5420E+02  0.4416E+03  0.4414E+03
     -1.299  0.3866E+02  0.3883E+02  0.4436E+03  0.4434E+03
     -1.247  0.6898E+02  0.6713E+02  0.4472E+03  0.4469E+03
     -1.195  0.6570E+02  0.6906E+02  0.4506E+03  0.4505E+03
     -1.143  0.5497E+02  0.5220E+02  0.4535E+03  0.4532E+03
     -1.091  0.3927E+02  0.4174E+02  0.4555E+03  0.4554E+03
     -1.039  0.6045E+02  0.6100E+02  0.4586E+03  0.4586E+03
     -0.987  0.5422E+02  0.5016E+02  0.4615E+03  0.4612E+03
     -0.935  0.6066E+02  0.6490E+02  0.4646E+03  0.4646E+03
     -0.883  0.3385E+02  0.3247E+02  0.4664E+03  0.4662E+03
     -0.831  0.5788E+02  0.5680E+02  0.4694E+03  0.4692E+03
     -0.779  0.6726E+02  0.6628E+02  0.4729E+03  0.4726E+03
     -0.727  0.4705E+02  0.4877E+02  0.4753E+03  0.4752E+03
     -0.675  0.6398E+02  0.6552E+02  0.4787E+03  0.4786E+03
     -0.623  0.6210E+02  0.5800E+02  0.4819E+03  0.4816E+03
     -0.571  0.6550E+02  0.6780E+02  0.4853E+03  0.4851E+03
     -0.519  0.2367E+02  0.2629E+02  0.4865E+03  0.4865E+03
     -0.467  0.2357E+02  0.2306E+02  0.4877E+03  0.4877E+03
     -0.415  0.3260E+02  0.3218E+02  0.4894E+03  0.4894E+03
     -0.363  0.4998E+02  0.4781E+02  0.4920E+03  0.4918E+03
     -0.311  0.4416E+02  0.4520E+02  0.4943E+03  0.4942E+03
     -0.259  0.6903E+02  0.6628E+02  0.4979E+03  0.4976E+03
     -0.207  0.7045E+02  0.7078E+02  0.5016E+03  0.5013E+03
     -0.155  0.1019E+03  0.1030E+03  0.5069E+03  0.5067E+03
     -0.103  0.6597E+02  0.6602E+02  0.5103E+03  0.5101E+03
     -0.051  0.1277E+03  0.1265E+03  0.5169E+03  0.5167E+03
      0.001  0.1209E+03  0.1191E+03  0.5232E+03  0.5229E+03
      0.053  0.1118E+03  0.1146E+03  0.5290E+03  0.5288E+03
      0.105  0.1073E+03  0.1020E+03  0.5346E+03  0.5341E+03
      0.157  0.1580E+03  0.1569E+03  0.5428E+03  0.5423E+03
      0.209  0.1166E+03  0.1232E+03  0.5489E+03  0.5487E+03
      0.261  0.7256E+02  0.7163E+02  0.5527E+03  0.5524E+03
      0.312  0.9460E+02  0.9590E+02  0.5576E+03  0.5574E+03
      0.364  0.9540E+02  0.9216E+02  0.5625E+03  0.5622E+03
      0.416  0.7921E+02  0.8054E+02  0.5667E+03  0.5664E+03
      0.468  0.9656E+02  0.9772E+02  0.5717E+03  0.5715E+03
      0.520  0.8623E+02  0.8715E+02  0.5762E+03  0.5760E+03
      0.572  0.8110E+02  0.7611E+02  0.5804E+03  0.5799E+03
      0.624  0.1266E+03  0.1277E+03  0.5870E+03  0.5866E+03
      0.676  0.1695E+03  0.1683E+03  0.5958E+03  0.5953E+03
      0.728  0.1543E+03  0.1555E+03  0.6038E+03  0.6034E+03
      0.780  0.1160E+03  0.1159E+03  0.6098E+03  0.6094E+03
      0.832  0.1215E+03  0.1236E+03  0.6161E+03  0.6159E+03
      0.884  0.1243E+03  0.1238E+03  0.6226E+03  0.6223E+03
      0.936  0.9128E+02  0.9305E+02  0.6273E+03  0.6271E+03
      0.988  0.8637E+02  0.8547E+02  0.6318E+03  0.6316E+03
      1.040  0.8888E+02  0.8857E+02  0.6364E+03  0.6362E+03
      1.092  0.1566E+03  0.1548E+03  0.6446E+03  0.6442E+03
      1.144  0.1401E+03  0.1413E+03  0.6519E+03  0.6516E+03
      1.196  0.1117E+03  0.1096E+03  0.6577E+03  0.6573E+03
      1.248  0.1644E+03  0.1632E+03  0.6662E+03  0.6658E+03
      1.300  0.1668E+03  0.1667E+03  0.6749E+03  0.6744E+03
      1.352  0.1531E+03  0.1523E+03  0.6829E+03  0.6823E+03
      1.404  0.2008E+03  0.2010E+03  0.6933E+03  0.6928E+03
      1.456  0.1921E+03  0.1891E+03  0.7033E+03  0.7026E+03
      1.508  0.1526E+03  0.1588E+03  0.7112E+03  0.7109E+03
      1.560  0.1768E+03  0.1711E+03  0.7204E+03  0.7198E+03
      1.612  0.2185E+03  0.2209E+03  0.7318E+03  0.7313E+03
      1.664  0.1985E+03  0.1972E+03  0.7421E+03  0.7415E+03
      1.716  0.1751E+03  0.1731E+03  0.7512E+03  0.7505E+03
      1.768  0.1786E+03  0.1825E+03  0.7605E+03  0.7600E+03
      1.820  0.1941E+03  0.1913E+03  0.7706E+03  0.7699E+03
      1.872  0.1681E+03  0.1704E+03  0.7793E+03  0.7788E+03
      1.924  0.1580E+03  0.1600E+03  0.7875E+03  0.7871E+03
      1.976  0.1721E+03  0.1665E+03  0.7964E+03  0.7958E+03
      2.028  0.1989E+03  0.1994E+03  0.8068E+03  0.8061E+03
      2.080  0.1751E+03  0.1808E+03  0.8159E+03  0.8155E+03
      2.132  0.1864E+03  0.1825E+03  0.8256E+03  0.8250E+03
      2.184  0.1790E+03  0.1777E+03  0.8349E+03  0.8342E+03
      2.236  0.1785E+03  0.1789E+03  0.8442E+03  0.8435E+03
      2.288  0.1846E+03  0.1856E+03  0.8538E+03  0.8532E+03
      2.340  0.1511E+03  0.1503E+03  0.8616E+03  0.8610E+03
      2.392  0.1639E+03  0.1657E+03  0.8701E+03  0.8696E+03
      2.444  0.2052E+03  0.1994E+03  0.8808E+03  0.8800E+03
      2.496  0.1527E+03  0.1561E+03  0.8887E+03  0.8881E+03
      2.548  0.1333E+03  0.1377E+03  0.8957E+03  0.8953E+03
      2.600  0.1548E+03  0.1537E+03  0.9037E+03  0.9032E+03
      2.652  0.1644E+03  0.1644E+03  0.9123E+03  0.9118E+03
      2.704  0.1368E+03  0.1390E+03  0.9194E+03  0.9190E+03
      2.756  0.1155E+03  0.1115E+03  0.9254E+03  0.9248E+03
      2.808  0.1454E+03  0.1451E+03  0.9329E+03  0.9324E+03
      2.860  0.1412E+03  0.1397E+03  0.9403E+03  0.9396E+03
      2.912  0.1298E+03  0.1330E+03  0.9470E+03  0.9465E+03
      2.964  0.1571E+03  0.1548E+03  0.9552E+03  0.9546E+03
      3.016  0.1064E+03  0.1091E+03  0.9607E+03  0.9602E+03
      3.068  0.1193E+03  0.1182E+03  0.9669E+03  0.9664E+03
      3.120  0.1281E+03  0.1272E+03  0.9736E+03  0.9730E+03
      3.172  0.1311E+03  0.1291E+03  0.9804E+03  0.9797E+03
      3.223  0.1122E+03  0.1185E+03  0.9862E+03  0.9859E+03
      3.275  0.1043E+03  0.1015E+03  0.9916E+03  0.9912E+03
      3.327  0.1094E+03  0.1058E+03  0.9973E+03  0.9967E+03
      3.379  0.1171E+03  0.1165E+03  0.1003E+04  0.1003E+04
      3.431  0.8487E+02  0.8839E+02  0.1008E+04  0.1007E+04
      3.483  0.6630E+02  0.7137E+02  0.1011E+04  0.1011E+04
      3.535  0.8377E+02  0.8125E+02  0.1016E+04  0.1015E+04
      3.587  0.9085E+02  0.9009E+02  0.1020E+04  0.1020E+04
      3.639  0.9754E+02  0.9343E+02  0.1025E+04  0.1025E+04
      3.691  0.8156E+02  0.7679E+02  0.1030E+04  0.1029E+04
      3.743  0.6286E+02  0.6764E+02  0.1033E+04  0.1032E+04
      3.795  0.5268E+02  0.6144E+02  0.1036E+04  0.1035E+04
      3.847  0.6030E+02  0.5249E+02  0.1039E+04  0.1038E+04
      3.899  0.5419E+02  0.6186E+02  0.1042E+04  0.1041E+04
      3.951  0.4047E+02  0.3736E+02  0.1044E+04  0.1043E+04
      4.003  0.3680E+02  0.3600E+02  0.1046E+04  0.1045E+04
      4.055  0.7418E+02  0.6908E+02  0.1049E+04  0.1049E+04
      4.107  0.6139E+02  0.5650E+02  0.1053E+04  0.1052E+04
      4.159  0.1097E+03  0.1092E+03  0.1058E+04  0.1057E+04
      4.211  0.8411E+02  0.8659E+02  0.1063E+04  0.1062E+04
      4.263  0.7462E+02  0.7759E+02  0.1067E+04  0.1066E+04
      4.315  0.7666E+02  0.7847E+02  0.1071E+04  0.1070E+04
      4.367  0.1133E+03  0.1068E+03  0.1077E+04  0.1076E+04
      4.419  0.7195E+02  0.7084E+02  0.1080E+04  0.1079E+04
      4.471  0.1217E+03  0.1252E+03  0.1087E+04  0.1086E+04
      4.523  0.1269E+03  0.1271E+03  0.1093E+04  0.1092E+04
      4.575  0.1128E+03  0.1128E+03  0.1099E+04  0.1098E+04
      4.627  0.9918E+02  0.1024E+03  0.1104E+04  0.1104E+04
      4.679  0.7140E+02  0.7199E+02  0.1108E+04  0.1107E+04
      4.731  0.1053E+03  0.1053E+03  0.1113E+04  0.1113E+04
      4.783  0.1199E+03  0.1143E+03  0.1120E+04  0.1119E+04
      4.835  0.1184E+03  0.1198E+03  0.1126E+04  0.1125E+04
      4.887  0.1102E+03  0.1142E+03  0.1131E+04  0.1131E+04
      4.939  0.1197E+03  0.1158E+03  0.1138E+04  0.1137E+04
      4.991  0.1417E+03  0.1391E+03  0.1145E+04  0.1144E+04
      5.043  0.1219E+03  0.1283E+03  0.1151E+04  0.1151E+04
      5.095  0.1133E+03  0.1167E+03  0.1157E+04  0.1157E+04
      5.147  0.1196E+03  0.1151E+03  0.1164E+04  0.1163E+04
      5.199  0.1198E+03  0.1214E+03  0.1170E+04  0.1169E+04
      5.251  0.1067E+03  0.1058E+03  0.1175E+04  0.1175E+04
      5.303  0.1036E+03  0.1021E+03  0.1181E+04  0.1180E+04
      5.355  0.1112E+03  0.1154E+03  0.1186E+04  0.1186E+04
      5.407  0.1282E+03  0.1259E+03  0.1193E+04  0.1193E+04
      5.459  0.1193E+03  0.1217E+03  0.1199E+04  0.1199E+04
      5.511  0.1644E+03  0.1603E+03  0.1208E+04  0.1207E+04
      5.563  0.1476E+03  0.1516E+03  0.1216E+04  0.1215E+04
      5.615  0.1081E+03  0.1064E+03  0.1221E+04  0.1221E+04
      5.667  0.1461E+03  0.1471E+03  0.1229E+04  0.1228E+04
      5.719  0.1320E+03  0.1306E+03  0.1236E+04  0.1235E+04
      5.771  0.1140E+03  0.1171E+03  0.1242E+04  0.1241E+04
      5.823  0.1444E+03  0.1411E+03  0.1249E+04  0.1248E+04
      5.875  0.1219E+03  0.1257E+03  0.1255E+04  0.1255E+04
      5.927  0.1448E+03  0.1417E+03  0.1263E+04  0.1262E+04
      5.979  0.1159E+03  0.1136E+03  0.1269E+04  0.1268E+04
      6.031  0.5198E+02  0.6046E+02  0.1272E+04  0.1271E+04
      6.082  0.6766E+01  0.1125E+02  0.1272E+04  0.1272E+04
      6.134  0.0000E+00  0.0000E+00  0.1272E+04  0.1272E+04
      6.186  0.0000E+00  0.0000E+00  0.1272E+04  0.1272E+04
      6.238  0.0000E+00  0.0000E+00  0.1272E+04  0.1272E+04
      6.290  0.0000E+00  0.0000E+00  0.1272E+04  0.1272E+04
      6.342  0.0000E+00  0.0000E+00  0.1272E+04  0.1272E+04
      6.394  0.0000E+00  0.0000E+00  0.1272E+04  0.1272E+04
      6.446  0.0000E+00  0.0000E+00  0.1272E+04  0.1272E+04
      6.498  0.0000E+00  0.0000E+00  0.1272E+04  0.1272E+04
      6.550  0.0000E+00  0.0000E+00  0.1272E+04  0.1272E+04
      6.602  0.0000E+00  0.0000E+00  0.1272E+04  0.1272E+04
      6.654  0.0000E+00  0.0000E+00  0.1272E+04  0.1272E+04
      6.706  0.0000E+00  0.0000E+00  0.1272E+04  0.1272E+04
      6.758  0.0000E+00  0.0000E+00  0.1272E+04  0.1272E+04
