Si and Ge interface calculation         
           1
    10.862000    0.000000    0.000000
     0.000000   16.293001    0.000000
     0.000000    0.000000   22.860147
   Si   Sn
    72    72
Direct configuration=     1
   0.00000000  0.99406773  0.00000000
   0.00000000  0.82740104  0.11878751
   0.00000000  0.66073430  0.23757504
   0.50000000  0.99406773  0.00000000
   0.50000000  0.82740104  0.11878751
   0.50000000  0.66073430  0.23757504
   0.00000000  0.32740107  0.00000000
   0.00000000  0.16073438  0.11878751
   0.00000000  0.99406767  0.23757504
   0.50000000  0.32740107  0.00000000
   0.50000000  0.16073438  0.11878751
   0.50000000  0.99406767  0.23757504
   0.00000000  0.66073447  0.00000000
   0.00000000  0.49406773  0.11878751
   0.00000000  0.32740104  0.23757504
   0.50000000  0.66073447  0.00000000
   0.50000000  0.49406773  0.11878751
   0.50000000  0.32740104  0.23757504
   0.12500000  0.07740106  0.05939376
   0.12500000  0.91073436  0.17818129
   0.12500000  0.74406767  0.29696882
   0.62500000  0.07740106  0.05939376
   0.62500000  0.91073436  0.17818129
   0.62500000  0.74406767  0.29696882
   0.12500000  0.41073438  0.05939376
   0.12500000  0.24406767  0.17818129
   0.12500000  0.07740095  0.29696882
   0.62500000  0.41073438  0.05939376
   0.62500000  0.24406767  0.17818129
   0.62500000  0.07740095  0.29696882
   0.12500000  0.74406779  0.05939376
   0.12500000  0.57740104  0.17818129
   0.12500000  0.41073433  0.29696882
   0.62500000  0.74406779  0.05939376
   0.62500000  0.57740104  0.17818129
   0.62500000  0.41073433  0.29696882
   0.25000000  0.16073438  0.00000000
   0.25000000  0.99406767  0.11878751
   0.25000000  0.82740098  0.23757504
   0.75000006  0.16073438  0.00000000
   0.75000006  0.99406767  0.11878751
   0.75000006  0.82740098  0.23757504
   0.25000000  0.49406773  0.00000000
   0.25000000  0.32740104  0.11878751
   0.25000000  0.16073433  0.23757504
   0.75000006  0.49406773  0.00000000
   0.75000006  0.32740104  0.11878751
   0.75000006  0.16073433  0.23757504
   0.25000000  0.82740110  0.00000000
   0.25000000  0.66073442  0.11878751
   0.25000000  0.49406773  0.23757504
   0.75000006  0.82740110  0.00000000
   0.75000006  0.66073442  0.11878751
   0.75000006  0.49406773  0.23757504
   0.37500003  0.24406773  0.05939376
   0.37500003  0.07740102  0.17818129
   0.37500003  0.91073430  0.29696882
   0.87500006  0.24406773  0.05939376
   0.87500006  0.07740102  0.17818129
   0.87500006  0.91073430  0.29696882
   0.37500003  0.57740116  0.05939376
   0.37500003  0.41073447  0.17818129
   0.37500003  0.24406771  0.29696882
   0.87500006  0.57740116  0.05939376
   0.87500006  0.41073447  0.17818129
   0.87500006  0.24406771  0.29696882
   0.37500003  0.91073436  0.05939376
   0.37500003  0.74406767  0.17818129
   0.37500003  0.57740092  0.29696882
   0.87500006  0.91073436  0.05939376
   0.87500006  0.74406767  0.17818129
   0.87500006  0.57740092  0.29696882
   0.21296297  0.66612762  0.39758056
   0.21296287  0.91612768  0.49794209
   0.21296287  0.16612792  0.59830362
   0.21296275  0.41612804  0.69866520
   0.21296275  0.66612810  0.79902667
   0.21296275  0.91612822  0.89938819
   0.54629636  0.99946099  0.39758056
   0.54629630  0.24946094  0.49794209
   0.54629630  0.49946117  0.59830362
   0.54629618  0.74946135  0.69866520
   0.54629618  0.99946147  0.79902667
   0.54629612  0.24946165  0.89938819
   0.87962973  0.33279443  0.39758056
   0.87962967  0.58279443  0.49794209
   0.87962979  0.83279461  0.59830362
   0.87962949  0.08279467  0.69866520
   0.87962955  0.33279467  0.79902667
   0.87962955  0.58279491  0.89938819
   0.21296300  0.16612768  0.39758056
   0.21296287  0.41612768  0.49794209
   0.21296287  0.66612786  0.59830362
   0.21296287  0.91612798  0.69866514
   0.21296275  0.16612816  0.79902667
   0.21296275  0.41612816  0.89938819
   0.54629636  0.49946094  0.39758056
   0.54629630  0.74946111  0.49794209
   0.54629636  0.99946135  0.59830362
   0.54629624  0.24946141  0.69866514
   0.54629624  0.49946141  0.79902667
   0.54629606  0.74946171  0.89938819
   0.87962979  0.83279431  0.39758056
   0.87962961  0.08279443  0.49794209
   0.87962967  0.33279455  0.59830362
   0.87962961  0.58279467  0.69866514
   0.87962949  0.83279473  0.79902667
   0.87962955  0.08279491  0.89938813
   0.29629630  0.99946094  0.39758056
   0.29629621  0.24946094  0.49794209
   0.29629627  0.49946117  0.59830362
   0.29629609  0.74946123  0.69866520
   0.29629609  0.99946135  0.79902667
   0.29629612  0.24946141  0.89938813
   0.62962967  0.33279431  0.39758056
   0.62962961  0.58279443  0.49794209
   0.62962961  0.83279461  0.59830362
   0.62962955  0.08279467  0.69866514
   0.62962937  0.33279467  0.79902667
   0.62962949  0.58279491  0.89938813
   0.96296298  0.66612768  0.39758056
   0.96296298  0.91612768  0.49794209
   0.96296292  0.16612792  0.59830362
   0.96296281  0.41612792  0.69866514
   0.96296281  0.66612810  0.79902667
   0.96296281  0.91612822  0.89938813
   0.29629630  0.49946105  0.39758056
   0.29629624  0.74946111  0.49794212
   0.29629618  0.99946123  0.59830362
   0.29629621  0.24946165  0.69866520
   0.29629612  0.49946141  0.79902673
   0.29629606  0.74946171  0.89938813
   0.62962967  0.83279431  0.39758056
   0.62962961  0.08279443  0.49794209
   0.62962955  0.33279455  0.59830362
   0.62962955  0.58279467  0.69866520
   0.62962955  0.83279473  0.79902667
   0.62962943  0.08279491  0.89938813
   0.96296298  0.16612768  0.39758056
   0.96296292  0.41612768  0.49794209
   0.96296298  0.66612786  0.59830362
   0.96296287  0.91612798  0.69866520
   0.96296281  0.16612792  0.79902667
   0.96296275  0.41612816  0.89938813
