Si and Ge interface calculation         
           1
    16.293001    0.000000    0.000000
     0.000000   17.174330    0.000000
     0.000000    0.000000   10.600547
   Si   Ge
    72    48
Direct configuration=     1
   0.13037890  0.82620466  0.40503472
   0.96371245  0.07620391  0.00000006
   0.79704571  0.42620403  0.08100699
   0.63037908  0.77620417  0.16201389
   0.46371227  0.12620449  0.24302086
   0.29704553  0.47620463  0.32402781
   0.46371227  0.82620466  0.40503472
   0.29704580  0.07620391  0.00000006
   0.13037908  0.42620403  0.08100699
   0.96371239  0.77620417  0.16201389
   0.79704559  0.12620449  0.24302086
   0.63037884  0.47620463  0.32402781
   0.79704559  0.82620466  0.40503472
   0.63037914  0.07620391  0.00000006
   0.46371242  0.42620403  0.08100699
   0.29704577  0.77620417  0.16201389
   0.13037898  0.12620449  0.24302086
   0.96371222  0.47620463  0.32402781
   0.21371222  0.57620478  0.40503463
   0.04704577  0.82620400  0.00000000
   0.88037908  0.17620420  0.08100697
   0.71371233  0.52620447  0.16201381
   0.54704559  0.87620461  0.24302079
   0.38037896  0.22620463  0.32402769
   0.54704559  0.57620478  0.40503463
   0.38037908  0.82620400  0.00000000
   0.21371238  0.17620420  0.08100697
   0.04704569  0.52620447  0.16201381
   0.88037896  0.87620461  0.24302079
   0.71371233  0.22620463  0.32402769
   0.88037890  0.57620478  0.40503463
   0.71371239  0.82620400  0.00000000
   0.54704571  0.17620420  0.08100697
   0.38037899  0.52620447  0.16201381
   0.21371223  0.87620461  0.24302079
   0.04704558  0.22620463  0.32402769
   0.13037890  0.32620478  0.40503472
   0.96371239  0.57620400  0.00000002
   0.79704571  0.92620414  0.08100694
   0.63037902  0.27620423  0.16201381
   0.46371227  0.62620449  0.24302086
   0.29704565  0.97620463  0.32402769
   0.46371227  0.32620478  0.40503472
   0.29704577  0.57620400  0.00000002
   0.13037905  0.92620414  0.08100694
   0.96371239  0.27620423  0.16201381
   0.79704559  0.62620449  0.24302086
   0.63037896  0.97620463  0.32402769
   0.79704559  0.32620478  0.40503472
   0.63037914  0.57620400  0.00000002
   0.46371239  0.92620414  0.08100694
   0.29704574  0.27620423  0.16201381
   0.13037898  0.62620449  0.24302086
   0.96371233  0.97620463  0.32402769
   0.21371222  0.07620478  0.40503460
   0.04704577  0.32620391  0.00000006
   0.88037908  0.67620403  0.08100695
   0.71371239  0.02620423  0.16201384
   0.54704559  0.37620449  0.24302079
   0.38037884  0.72620475  0.32402769
   0.54704559  0.07620478  0.40503460
   0.38037911  0.32620391  0.00000006
   0.21371241  0.67620403  0.08100695
   0.04704573  0.02620423  0.16201384
   0.88037896  0.37620449  0.24302079
   0.71371222  0.72620475  0.32402769
   0.88037896  0.07620478  0.40503460
   0.71371245  0.32620391  0.00000006
   0.54704577  0.67620403  0.08100695
   0.38037908  0.02620423  0.16201384
   0.21371229  0.37620449  0.24302079
   0.04704554  0.72620475  0.32402769
   0.46879324  0.98604769  0.54526639
   0.09379327  0.59715873  0.60816675
   0.71879333  0.20826984  0.67106712
   0.34379336  0.81938094  0.73396754
   0.96879339  0.43049198  0.79686785
   0.59379327  0.04160285  0.85976827
   0.96879333  0.98604769  0.54526639
   0.59379339  0.59715873  0.60816675
   0.21879330  0.20826977  0.67106712
   0.84379339  0.81938094  0.73396754
   0.46879348  0.43049198  0.79686785
   0.09379336  0.04160285  0.85976833
   0.84379327  0.73604763  0.54526639
   0.46879330  0.34715873  0.60816681
   0.09379333  0.95826977  0.67106718
   0.71879345  0.56938094  0.73396760
   0.34379354  0.18049204  0.79686791
   0.96879327  0.79160291  0.85976827
   0.34379324  0.73604763  0.54526639
   0.96879333  0.34715867  0.60816675
   0.59379333  0.95826972  0.67106712
   0.21879336  0.56938088  0.73396760
   0.84379351  0.18049192  0.79686785
   0.46879324  0.79160279  0.85976827
   0.59379327  0.73604763  0.54526639
   0.21879326  0.34715870  0.60816675
   0.84379333  0.95826972  0.67106712
   0.46879336  0.56938088  0.73396760
   0.09379348  0.18049198  0.79686785
   0.71879327  0.79160279  0.85976827
   0.09379326  0.73604763  0.54526639
   0.71879333  0.34715873  0.60816675
   0.34379330  0.95826977  0.67106712
   0.96879339  0.56938088  0.73396760
   0.59379351  0.18049198  0.79686785
   0.21879336  0.79160291  0.85976833
   0.71879321  0.98604769  0.54526639
   0.34379324  0.59715873  0.60816675
   0.96879327  0.20826984  0.67106712
   0.59379339  0.81938082  0.73396754
   0.21879348  0.43049198  0.79686785
   0.84379327  0.04160285  0.85976827
   0.21879326  0.98604769  0.54526639
   0.84379333  0.59715873  0.60816675
   0.46879336  0.20826984  0.67106718
   0.09379342  0.81938094  0.73396760
   0.71879351  0.43049198  0.79686785
   0.34379324  0.04160285  0.85976833
