<?xml version="1.0" encoding="ISO-8859-1"?>
<modeling>
 <generator>
  <i name="program" type="string">vasp </i>
  <i name="version" type="string">6.4.3  </i>
  <i name="subversion" type="string">19Mar24 (build Oct 22 2024 11:23:12) complex                          parallel </i>
  <i name="platform" type="string">LinuxIFC </i>
  <i name="date" type="string">2025 06 04 </i>
  <i name="time" type="string">00:09:11 </i>
 </generator>
 <incar>
  <i type="string" name="SYSTEM">Si and Ge interface calculation</i>
  <i type="int" name="ISTART">     0</i>
  <i type="logical" name="ADDGRID"> T  </i>
  <i type="int" name="ISPIN">     2</i>
  <i name="AMIX">      0.60000000</i>
  <i type="int" name="ICHARG">     2</i>
  <i type="int" name="NELM">   100</i>
  <i name="EDIFF">      0.00000010</i>
  <i name="ENCUT">    700.00000000</i>
  <i name="ENAUG">    900.00000000</i>
  <i type="int" name="NBANDS">   116</i>
  <i name="NUPDOWN">      1.00000000</i>
  <i name="NELECT">    192.00000000</i>
  <i type="string" name="LREAL">AUTO</i>
  <i type="int" name="ISMEAR">     0</i>
  <i name="SIGMA">      0.01000000</i>
  <i type="int" name="LMAXMIX">     6</i>
  <i type="logical" name="LWAVE"> F  </i>
  <i type="logical" name="LVTOT"> F  </i>
  <i type="logical" name="LVHAR"> T  </i>
  <i type="logical" name="LASPH"> T  </i>
  <i type="logical" name="LMIXTAU"> T  </i>
 </incar>
 <primitive_cell>
  <structure name="primitive_cell" >
   <crystal>
    <varray name="basis" >
     <v>      -4.00066868       0.00000000       0.00000000 </v>
     <v>       0.00000000       0.00000000      11.41337395 </v>
     <v>      -0.00000032      12.00200653       0.00000000 </v>
    </varray>
    <i name="volume">    548.02515300 </i>
    <varray name="rec_basis" >
     <v>      -0.24995821      -0.00000001       0.00000000 </v>
     <v>       0.00000000       0.00000000       0.08761651 </v>
     <v>       0.00000000       0.08331940       0.00000000 </v>
    </varray>
   </crystal>
   <varray name="positions" >
    <v>       0.98291651       0.00000000       0.99430549 </v>
    <v>       0.48291645       0.24785832       0.82763886 </v>
    <v>       0.98291622       0.49571666       0.66097212 </v>
    <v>       0.98291654       0.00000000       0.32763880 </v>
    <v>       0.48291646       0.24785832       0.16097212 </v>
    <v>       0.98291641       0.49571666       0.99430543 </v>
    <v>       0.98291646       0.00000000       0.66097212 </v>
    <v>       0.48291641       0.24785832       0.49430543 </v>
    <v>       0.98291645       0.49571666       0.32763875 </v>
    <v>       0.98291646       0.12392916       0.16097215 </v>
    <v>       0.48291623       0.37178752       0.99430549 </v>
    <v>       0.98291603       0.61964595       0.82763880 </v>
    <v>       0.98291649       0.12392916       0.49430549 </v>
    <v>       0.48291627       0.37178752       0.32763880 </v>
    <v>       0.98291631       0.61964595       0.16097209 </v>
    <v>       0.98291657       0.12392916       0.82763886 </v>
    <v>       0.48291658       0.37178752       0.66097212 </v>
    <v>       0.98291637       0.61964595       0.49430543 </v>
    <v>       0.46096934       0.70654863       0.09796669 </v>
    <v>       0.96096932       0.78916806       0.37574449 </v>
    <v>       0.46096949       0.87178755       0.65352231 </v>
    <v>       0.96096945       0.74785829       0.98685551 </v>
    <v>       0.46096945       0.83047783       0.26463333 </v>
    <v>       0.96096974       0.91309732       0.54241115 </v>
   </varray>
  </structure>
  <varray name="primitive_index" >
   <v type="int" >        1 </v>
   <v type="int" >        2 </v>
   <v type="int" >       21 </v>
   <v type="int" >       22 </v>
   <v type="int" >        5 </v>
   <v type="int" >        6 </v>
   <v type="int" >       25 </v>
   <v type="int" >       26 </v>
   <v type="int" >       27 </v>
   <v type="int" >       10 </v>
   <v type="int" >       29 </v>
   <v type="int" >       30 </v>
   <v type="int" >       31 </v>
   <v type="int" >       14 </v>
   <v type="int" >       15 </v>
   <v type="int" >       34 </v>
   <v type="int" >       35 </v>
   <v type="int" >       36 </v>
   <v type="int" >       40 </v>
   <v type="int" >       38 </v>
   <v type="int" >       39 </v>
   <v type="int" >       43 </v>
   <v type="int" >       44 </v>
   <v type="int" >       45 </v>
  </varray>
 </primitive_cell>
 <kpoints>
  <generation param="Gamma">
   <v type="int" name="divisions">       4        3        3 </v>
   <v name="usershift">      0.00000000       0.00000000       0.00000000 </v>
   <v name="genvec1">      0.25000000      -0.00000000       0.00000000 </v>
   <v name="genvec2">      0.00000000       0.33333333       0.00000000 </v>
   <v name="genvec3">      0.00000000       0.00000000       0.33333333 </v>
   <v name="shift">      0.00000000       0.00000000       0.00000000 </v>
  </generation>
  <varray name="kpointlist" >
   <v>       0.00000000       0.00000000       0.00000000 </v>
   <v>       0.25000000      -0.00000000       0.00000000 </v>
   <v>       0.50000000      -0.00000000       0.00000000 </v>
   <v>       0.00000000       0.33333333       0.00000000 </v>
   <v>       0.25000000       0.33333333       0.00000000 </v>
   <v>       0.50000000       0.33333333       0.00000000 </v>
   <v>      -0.25000000       0.33333333       0.00000000 </v>
   <v>       0.00000000       0.00000000       0.33333333 </v>
   <v>       0.25000000      -0.00000000       0.33333333 </v>
   <v>       0.50000000      -0.00000000       0.33333333 </v>
   <v>      -0.25000000       0.00000000       0.33333333 </v>
   <v>       0.00000000       0.33333333       0.33333333 </v>
   <v>       0.25000000       0.33333333       0.33333333 </v>
   <v>       0.50000000       0.33333333       0.33333333 </v>
   <v>      -0.25000000       0.33333333       0.33333333 </v>
   <v>       0.00000000      -0.33333333       0.33333333 </v>
   <v>       0.25000000      -0.33333333       0.33333333 </v>
   <v>       0.50000000      -0.33333333       0.33333333 </v>
   <v>      -0.25000000      -0.33333333       0.33333333 </v>
  </varray>
  <varray name="weights" >
   <v>       0.02777778 </v>
   <v>       0.05555556 </v>
   <v>       0.02777778 </v>
   <v>       0.05555556 </v>
   <v>       0.05555556 </v>
   <v>       0.05555556 </v>
   <v>       0.05555556 </v>
   <v>       0.05555556 </v>
   <v>       0.05555556 </v>
   <v>       0.05555556 </v>
   <v>       0.05555556 </v>
   <v>       0.05555556 </v>
   <v>       0.05555556 </v>
   <v>       0.05555556 </v>
   <v>       0.05555556 </v>
   <v>       0.05555556 </v>
   <v>       0.05555556 </v>
   <v>       0.05555556 </v>
   <v>       0.05555556 </v>
  </varray>
 </kpoints>
 <parameters>
  <separator name="general" >
   <i type="string" name="SYSTEM">Si and Ge interface calculation</i>
   <i type="logical" name="LCOMPAT"> F  </i>
  </separator>
  <separator name="electronic" >
   <i type="string" name="PREC">normal</i>
   <i name="ENMAX">    700.00000000</i>
   <i name="ENAUG">    900.00000000</i>
   <i name="EDIFF">      0.00000010</i>
   <i type="int" name="IALGO">    38</i>
   <i type="int" name="IWAVPR">    10</i>
   <i type="int" name="NBANDS">   116</i>
   <i type="int" name="NBANDSLOW">    -1</i>
   <i type="int" name="NBANDSHIGH">    -1</i>
   <i name="NELECT">    192.00000000</i>
   <i type="int" name="TURBO">     0</i>
   <i type="int" name="IRESTART">     0</i>
   <i type="int" name="NREBOOT">     0</i>
   <i type="int" name="NMIN">     0</i>
   <i name="EREF">      0.00000000</i>
   <separator name="electronic smearing" >
    <i type="int" name="ISMEAR">     0</i>
    <i name="SIGMA">      0.01000000</i>
    <i name="KSPACING">      0.50000000</i>
    <i type="logical" name="KGAMMA"> T  </i>
    <i type="logical" name="KBLOWUP"> F  </i>
   </separator>
   <separator name="electronic projectors" >
    <i type="logical" name="LREAL"> T  </i>
    <v name="ROPT">     -0.00050000</v>
    <i type="int" name="LMAXPAW">  -100</i>
    <i type="int" name="LMAXMIX">     6</i>
    <i type="logical" name="NLSPLINE"> F  </i>
   </separator>
   <separator name="electronic startup" >
    <i type="int" name="ISTART">     0</i>
    <i type="int" name="ICHARG">     2</i>
    <i type="int" name="INIWAV">     1</i>
   </separator>
   <separator name="electronic spin" >
    <i type="int" name="ISPIN">     2</i>
    <i type="logical" name="LNONCOLLINEAR"> F  </i>
    <v name="MAGMOM">      0.02083333      0.02083333      0.02083333      0.02083333      0.02083333      0.02083333      0.02083333      0.02083333      0.02083333      0.02083333      0.02083333      0.02083333      0.02083333      0.02083333      0.02083333      0.02083333      0.02083333      0.02083333      0.02083333      0.02083333
      0.02083333      0.02083333      0.02083333      0.02083333      0.02083333      0.02083333      0.02083333      0.02083333      0.02083333      0.02083333      0.02083333      0.02083333      0.02083333      0.02083333      0.02083333      0.02083333      0.02083333      0.02083333      0.02083333      0.02083333
      0.02083333      0.02083333      0.02083333      0.02083333      0.02083333      0.02083333      0.02083333      0.02083333</v>
    <i name="NUPDOWN">      1.00000000</i>
    <i type="logical" name="LSORBIT"> F  </i>
    <v name="SAXIS">      0.00000000      0.00000000      1.00000000</v>
    <i type="logical" name="LSPIRAL"> F  </i>
    <v name="QSPIRAL">      0.00000000      0.00000000      0.00000000</v>
    <i type="logical" name="LZEROZ"> F  </i>
   </separator>
   <separator name="electronic exchange-correlation" >
    <i type="logical" name="LASPH"> T  </i>
   </separator>
   <separator name="electronic convergence" >
    <i type="int" name="NELM">   100</i>
    <i type="int" name="NELMDL">    -5</i>
    <i type="int" name="NELMIN">     2</i>
    <i name="ENINI">    700.00000000</i>
    <separator name="electronic convergence detail" >
     <i type="logical" name="LDIAG"> T  </i>
     <i type="logical" name="LSUBROT"> F  </i>
     <i name="WEIMIN">      0.00000000</i>
     <i name="EBREAK">      0.00000000</i>
     <i name="DEPER">      0.30000000</i>
     <i type="int" name="NRMM">     4</i>
     <i name="TIME">      0.40000000</i>
    </separator>
   </separator>
   <separator name="electronic mixer" >
    <i name="AMIX">      0.60000000</i>
    <i name="BMIX">      1.00000000</i>
    <i name="AMIN">      0.10000000</i>
    <i name="AMIX_MAG">      2.40000000</i>
    <i name="BMIX_MAG">      1.00000000</i>
    <separator name="electronic mixer details" >
     <i type="int" name="IMIX">     4</i>
     <i type="logical" name="MIXFIRST"> F  </i>
     <i type="int" name="MAXMIX">   -45</i>
     <i name="WC">    100.00000000</i>
     <i type="int" name="INIMIX">     1</i>
     <i type="int" name="MIXPRE">     1</i>
     <i type="int" name="MREMOVE">     5</i>
    </separator>
   </separator>
   <separator name="electronic dipolcorrection" >
    <i type="logical" name="LDIPOL"> F  </i>
    <i type="logical" name="LMONO"> F  </i>
    <i type="int" name="IDIPOL">     0</i>
    <i name="EPSILON">      1.00000000</i>
    <v name="DIPOL">   -100.00000000   -100.00000000   -100.00000000</v>
    <i name="EFIELD">      0.00000000</i>
    <i type="logical" name="LVACPOTAV"> F  </i>
   </separator>
  </separator>
  <separator name="grids" >
   <i type="int" name="NGX">    54</i>
   <i type="int" name="NGY">    84</i>
   <i type="int" name="NGZ">    80</i>
   <i type="int" name="NGXF">   108</i>
   <i type="int" name="NGYF">   168</i>
   <i type="int" name="NGZF">   160</i>
   <i type="logical" name="ADDGRID"> T  </i>
  </separator>
  <separator name="ionic" >
   <i type="int" name="NSW">     0</i>
   <i type="int" name="IBRION">    -1</i>
   <i type="int" name="MDALGO">     0</i>
   <i type="int" name="ISIF">     2</i>
   <i name="PSTRESS">      0.00000000</i>
   <i name="EDIFFG">      0.00000100</i>
   <i type="int" name="NFREE">     0</i>
   <i name="POTIM">      0.50000000</i>
   <i name="SMASS">     -3.00000000</i>
   <i name="SCALEE">      1.00000000</i>
  </separator>
  <separator name="ionic md" >
   <i name="TEBEG">      0.00010000</i>
   <i name="TEEND">      0.00010000</i>
   <i type="int" name="NBLOCK">     1</i>
   <i type="int" name="KBLOCK">     1</i>
   <i type="int" name="NPACO">   256</i>
   <i name="APACO">     10.00000000</i>
  </separator>
  <separator name="symmetry" >
   <i type="int" name="ISYM">     2</i>
   <i name="SYMPREC">      0.00001000</i>
  </separator>
  <separator name="dos" >
   <i type="int" name="LORBIT">     0</i>
   <v name="RWIGS">     -1.00000000</v>
   <i type="int" name="NEDOS">   301</i>
   <i name="EMIN">     10.00000000</i>
   <i name="EMAX">    -10.00000000</i>
   <i name="EFERMI">      0.00000000</i>
  </separator>
  <separator name="writing" >
   <i type="int" name="NWRITE">     2</i>
   <i type="logical" name="LWAVE"> F  </i>
   <i type="logical" name="LDOWNSAMPLE"> F  </i>
   <i type="logical" name="LCHARG"> T  </i>
   <i type="logical" name="LPARD"> F  </i>
   <i type="logical" name="LVTOT"> F  </i>
   <i type="logical" name="LVHAR"> T  </i>
   <i type="logical" name="LELF"> F  </i>
   <i type="logical" name="LOPTICS"> F  </i>
   <v name="STM">      0.00000000      0.00000000      0.00000000      0.00000000      0.00000000      0.00000000      0.00000000</v>
  </separator>
  <separator name="performance" >
   <i type="int" name="NPAR">     4</i>
   <i type="int" name="NSIM">     4</i>
   <i type="int" name="NBLK">    -1</i>
   <i type="logical" name="LPLANE"> T  </i>
   <i type="logical" name="LSCALAPACK"> T  </i>
   <i type="logical" name="LSCAAWARE"> F  </i>
   <i type="logical" name="LSCALU"> F  </i>
   <i type="logical" name="LASYNC"> F  </i>
   <i type="logical" name="LORBITALREAL"> F  </i>
  </separator>
  <separator name="miscellaneous" >
   <i type="int" name="IDIOT">     3</i>
   <i type="int" name="PHON_NSTRUCT">    -1</i>
   <i type="logical" name="LMUSIC"> F  </i>
   <v name="POMASS">     72.61000000</v>
   <v name="DARWINR">      0.00000000</v>
   <v name="DARWINV">      1.00000000</v>
   <i type="logical" name="LCORR"> T  </i>
  </separator>
  <i type="logical" name="GGA_COMPAT"> T  </i>
  <i type="logical" name="LBERRY"> F  </i>
  <i type="int" name="ICORELEVEL">     0</i>
  <i type="logical" name="LDAU"> F  </i>
  <i type="int" name="I_CONSTRAINED_M">     0</i>
  <separator name="electronic exchange-correlation" >
   <i type="string" name="GGA    ">PE</i>
   <i type="string" name="XC_C">1</i>
   <i type="int" name="VOSKOWN">     0</i>
   <i type="logical" name="LHFCALC"> F  </i>
   <i type="string" name="PRECFOCK"></i>
   <i type="logical" name="LSYMGRAD"> F  </i>
   <i type="logical" name="LHFONE"> F  </i>
   <i type="logical" name="LRHFCALC"> F  </i>
   <i type="logical" name="LTHOMAS"> F  </i>
   <i type="logical" name="LMODELHF"> F  </i>
   <i type="logical" name="LFOCKACE"> F  </i>
   <i name="ENCUT4O">     -1.00000000</i>
   <i type="int" name="EXXOEP">     0</i>
   <i type="int" name="FOURORBIT">     0</i>
   <i name="AEXX">      0.00000000</i>
   <i name="HFALPHA">      0.00000000</i>
   <i name="MCALPHA">      0.00000000</i>
   <i name="ALDAX">      1.00000000</i>
   <i name="AGGAX">      1.00000000</i>
   <i name="AMGGAX">      1.00000000</i>
   <i name="ALDAC">      1.00000000</i>
   <i name="AGGAC">      1.00000000</i>
   <i name="AMGGAC">      1.00000000</i>
   <i type="int" name="NKREDX">     1</i>
   <i type="int" name="NKREDY">     1</i>
   <i type="int" name="NKREDZ">     1</i>
   <i type="logical" name="SHIFTRED"> F  </i>
   <i type="logical" name="ODDONLY"> F  </i>
   <i type="logical" name="EVENONLY"> F  </i>
   <i type="int" name="LMAXFOCK">     0</i>
   <i type="int" name="NMAXFOCKAE">     0</i>
   <i type="logical" name="LFOCKAEDFT"> F  </i>
   <i name="HFSCREEN">      0.00000000</i>
   <i name="HFSCREENC">      0.00000000</i>
   <i type="int" name="NBANDSGWLOW">     0</i>
  </separator>
  <separator name="vdW DFT" >
   <i type="logical" name="LUSE_VDW"> F  </i>
   <i type="int" name="IVDW_NL">    -1</i>
   <i type="logical" name="LSPIN_VDW"> F  </i>
   <i name="ZAB_VDW">     -0.84910000</i>
   <i name="GAMMA_VDW">      1.39626340</i>
   <i name="ALPHA_VDW">      0.00000000</i>
   <i name="PARAM1">      0.12340000</i>
   <i name="PARAM2">      1.00000000</i>
   <i name="BPARAM">      6.30000000</i>
   <i name="CPARAM">      0.00930000</i>
  </separator>
  <separator name="model GW" >
   <i type="int" name="MODEL_GW">     0</i>
   <i name="MODEL_EPS0">     13.70062992</i>
   <i name="MODEL_ALPHA">      1.00000000</i>
  </separator>
  <separator name="linear response parameters" >
   <i type="logical" name="LEPSILON"> F  </i>
   <i type="logical" name="LRPA"> F  </i>
   <i type="logical" name="LNABLA"> F  </i>
   <i type="logical" name="LVEL"> F  </i>
   <i name="CSHIFT">      0.10000000</i>
   <i name="OMEGAMAX">     -1.00000000</i>
   <i name="DEG_THRESHOLD">      0.00200000</i>
   <i name="RTIME">     -0.10000000</i>
   <i name="WPLASMAI">      0.00000000</i>
   <v name="DFIELD">      0.00000000      0.00000000      0.00000000</v>
   <v name="WPLASMA">      0.00000000      0.00000000      0.00000000      0.00000000      0.00000000      0.00000000      0.00000000      0.00000000      0.00000000</v>
  </separator>
  <separator name="orbital magnetization" >
   <i type="logical" name="NUCIND"> F  </i>
   <v name="MAGPOS">      0.00000000      0.00000000      0.00000000</v>
   <i type="logical" name="LNICSALL"> T  </i>
   <i type="logical" name="ORBITALMAG"> F  </i>
   <i type="logical" name="LMAGBLOCH"> F  </i>
   <i type="logical" name="LCHIMAG"> F  </i>
   <i type="logical" name="LGAUGE"> T  </i>
   <i type="int" name="MAGATOM">     0</i>
   <v name="MAGDIPOL">      0.00000000      0.00000000      0.00000000</v>
   <v name="AVECCONST">      0.00000000      0.00000000      0.00000000</v>
  </separator>
  <separator name="response functions" >
   <i type="logical" name="LALL_IN_ONE"> F  </i>
   <i type="int" name="IALL_IN_ONE">    -1</i>
   <i type="int" name="NBANDS_WAVE">    -1</i>
   <i type="logical" name="LFINITE_TEMPERATURE"> F  </i>
   <i type="logical" name="LADDER"> F  </i>
   <i type="logical" name="LRPAFORCE"> F  </i>
   <i type="logical" name="LFXC"> F  </i>
   <i type="logical" name="LHARTREE"> T  </i>
   <i type="int" name="IBSE">     0</i>
   <v type="int" name="KPOINT">    -1     0     0     0</v>
   <i type="logical" name="LTCTC"> F  </i>
   <i type="logical" name="LTCTE"> F  </i>
   <i type="logical" name="LTETE"> F  </i>
   <i type="logical" name="LTRIPLET"> F  </i>
   <i type="logical" name="LFXCEPS"> F  </i>
   <i type="logical" name="LFXHEG"> F  </i>
   <i type="int" name="NATURALO">     2</i>
   <i type="logical" name="LHOLEGF"> F  </i>
   <i type="logical" name="L2ORDER"> F  </i>
   <i type="logical" name="LDMP1"> F  </i>
   <i type="logical" name="LMP2LT"> F  </i>
   <i type="logical" name="LSMP2LT"> F  </i>
   <i type="logical" name="LGWLF"> F  </i>
   <i name="ENCUTGW">     -1.60000002</i>
   <i name="ENCUTGWSOFT">     -1.60000002</i>
   <i name="ENCUTLF">     -1.00000000</i>
   <i type="logical" name="ESF_SPLINES"> F  </i>
   <i name="ESF_CONV">      0.01000000</i>
   <i type="int" name="ESF_NINTER">    15</i>
   <i type="int" name="LMAXMP2">    -1</i>
   <i name="SCISSOR">      0.00000000</i>
   <i type="int" name="NOMEGA">     0</i>
   <i type="int" name="NOMEGAR">     0</i>
   <i type="int" name="NBANDSGW">    -1</i>
   <i type="int" name="NBANDSO">    -1</i>
   <i type="int" name="NBANDSV">    -1</i>
   <i type="int" name="NELMGW">     1</i>
   <i type="int" name="NELMHF">     1</i>
   <i type="int" name="DIM">     3</i>
   <i type="int" name="IESPILON">     4</i>
   <i type="int" name="ANTIRES">     0</i>
   <i name="OMEGAMAX">    -30.00000000</i>
   <i name="OMEGAMIN">    -30.00000000</i>
   <i name="OMEGATL">   -200.00000000</i>
   <i type="int" name="OMEGAGRID">     0</i>
   <i name="CSHIFT">     -0.10000000</i>
   <i type="logical" name="LSELFENERGY"> F  </i>
   <i type="logical" name="LSPECTRAL"> F  </i>
   <i type="logical" name="LSPECTRALGW"> F  </i>
   <i type="logical" name="LSINGLES"> F  </i>
   <i type="logical" name="LFERMIGW"> F  </i>
   <i type="logical" name="ODDONLYGW"> F  </i>
   <i type="logical" name="EVENONLYGW"> F  </i>
   <i type="int" name="NKREDLFX">     1</i>
   <i type="int" name="NKREDLFY">     1</i>
   <i type="int" name="NKREDLFZ">     1</i>
   <i type="int" name="MAXMEM">  2800</i>
   <i type="int" name="TELESCOPE">     0</i>
   <i type="int" name="NTAUPAR">    -1</i>
   <i type="int" name="NOMEGAPAR">    -1</i>
   <i name="DAMP_NEWTON">      0.80000001</i>
   <i name="LAMBDA">      1.00000000</i>
  </separator>
  <separator name="External order field" >
   <i name="OFIELD_KAPPA">      0.00000000</i>
   <v name="OFIELD_K">      0.00000000      0.00000000      0.00000000</v>
   <i name="OFIELD_Q6_NEAR">      0.00000000</i>
   <i name="OFIELD_Q6_FAR">      0.00000000</i>
   <i name="OFIELD_A">      0.00000000</i>
  </separator>
  <separator name="optional k-points parameters" >
   <i type="int" name="KPOINTS_OPT_MODE">     1</i>
   <i type="logical" name="LKPOINTS_OPT"> F  </i>
  </separator>
 </parameters>
 <atominfo>
  <atoms>      48 </atoms>
  <types>       1 </types>
  <array name="atoms" >
   <dimension dim="1">ion</dimension>
   <field type="string">element</field>
   <field type="int">atomtype</field>
   <set>
    <rc><c>Ge</c><c>   1</c></rc>
    <rc><c>Ge</c><c>   1</c></rc>
    <rc><c>Ge</c><c>   1</c></rc>
    <rc><c>Ge</c><c>   1</c></rc>
    <rc><c>Ge</c><c>   1</c></rc>
    <rc><c>Ge</c><c>   1</c></rc>
    <rc><c>Ge</c><c>   1</c></rc>
    <rc><c>Ge</c><c>   1</c></rc>
    <rc><c>Ge</c><c>   1</c></rc>
    <rc><c>Ge</c><c>   1</c></rc>
    <rc><c>Ge</c><c>   1</c></rc>
    <rc><c>Ge</c><c>   1</c></rc>
    <rc><c>Ge</c><c>   1</c></rc>
    <rc><c>Ge</c><c>   1</c></rc>
    <rc><c>Ge</c><c>   1</c></rc>
    <rc><c>Ge</c><c>   1</c></rc>
    <rc><c>Ge</c><c>   1</c></rc>
    <rc><c>Ge</c><c>   1</c></rc>
    <rc><c>Ge</c><c>   1</c></rc>
    <rc><c>Ge</c><c>   1</c></rc>
    <rc><c>Ge</c><c>   1</c></rc>
    <rc><c>Ge</c><c>   1</c></rc>
    <rc><c>Ge</c><c>   1</c></rc>
    <rc><c>Ge</c><c>   1</c></rc>
    <rc><c>Ge</c><c>   1</c></rc>
    <rc><c>Ge</c><c>   1</c></rc>
    <rc><c>Ge</c><c>   1</c></rc>
    <rc><c>Ge</c><c>   1</c></rc>
    <rc><c>Ge</c><c>   1</c></rc>
    <rc><c>Ge</c><c>   1</c></rc>
    <rc><c>Ge</c><c>   1</c></rc>
    <rc><c>Ge</c><c>   1</c></rc>
    <rc><c>Ge</c><c>   1</c></rc>
    <rc><c>Ge</c><c>   1</c></rc>
    <rc><c>Ge</c><c>   1</c></rc>
    <rc><c>Ge</c><c>   1</c></rc>
    <rc><c>Ge</c><c>   1</c></rc>
    <rc><c>Ge</c><c>   1</c></rc>
    <rc><c>Ge</c><c>   1</c></rc>
    <rc><c>Ge</c><c>   1</c></rc>
    <rc><c>Ge</c><c>   1</c></rc>
    <rc><c>Ge</c><c>   1</c></rc>
    <rc><c>Ge</c><c>   1</c></rc>
    <rc><c>Ge</c><c>   1</c></rc>
    <rc><c>Ge</c><c>   1</c></rc>
    <rc><c>Ge</c><c>   1</c></rc>
    <rc><c>Ge</c><c>   1</c></rc>
    <rc><c>Ge</c><c>   1</c></rc>
   </set>
  </array>
  <array name="atomtypes" >
   <dimension dim="1">type</dimension>
   <field type="int">atomspertype</field>
   <field type="string">element</field>
   <field>mass</field>
   <field>valence</field>
   <field type="string">pseudopotential</field>
   <set>
    <rc><c>  48</c><c>Ge</c><c>     72.61000000</c><c>      4.00000000</c><c>  PAW_PBE Ge 05Jan2001                  </c></rc>
   </set>
  </array>
 </atominfo>
 <structure name="initialpos" >
  <crystal>
   <varray name="basis" >
    <v>       8.00133800       0.00000000       0.00000000 </v>
    <v>      -4.00066900      12.00200653       0.00000000 </v>
    <v>       0.00000000       0.00000000      11.41337395 </v>
   </varray>
   <i name="volume">   1096.05039368 </i>
   <varray name="rec_basis" >
    <v>       0.12497910       0.04165970       0.00000000 </v>
    <v>       0.00000000       0.08331940       0.00000000 </v>
    <v>       0.00000000       0.00000000       0.08761651 </v>
   </varray>
  </crystal>
  <varray name="positions" >
   <v>       0.00569449       0.99430549       0.00000000 </v>
   <v>       0.17236120       0.82763886       0.24785832 </v>
   <v>       0.33902791       0.66097212       0.49571666 </v>
   <v>       0.67236108       0.32763880       0.00000000 </v>
   <v>       0.83902776       0.16097212       0.24785832 </v>
   <v>       0.00569451       0.99430543       0.49571666 </v>
   <v>       0.33902776       0.66097212       0.00000000 </v>
   <v>       0.50569445       0.49430540       0.24785832 </v>
   <v>       0.67236120       0.32763875       0.49571666 </v>
   <v>       0.08902784       0.16097215       0.12392916 </v>
   <v>       0.25569457       0.99430543       0.37178752 </v>
   <v>       0.42236128       0.82763875       0.61964595 </v>
   <v>       0.75569439       0.49430546       0.12392916 </v>
   <v>       0.92236120       0.32763880       0.37178752 </v>
   <v>       0.08902788       0.16097209       0.61964595 </v>
   <v>       0.42236105       0.82763880       0.12392916 </v>
   <v>       0.58902782       0.66097218       0.37178752 </v>
   <v>       0.75569451       0.49430546       0.61964595 </v>
   <v>       0.50569445       0.99430549       0.00000000 </v>
   <v>       0.67236114       0.82763886       0.24785832 </v>
   <v>       0.83902788       0.66097212       0.49571666 </v>
   <v>       0.17236112       0.32763880       0.00000000 </v>
   <v>       0.33902785       0.16097213       0.24785832 </v>
   <v>       0.50569457       0.99430543       0.49571666 </v>
   <v>       0.83902776       0.66097212       0.00000000 </v>
   <v>       0.00569451       0.49430543       0.24785832 </v>
   <v>       0.17236114       0.32763875       0.49571666 </v>
   <v>       0.58902782       0.16097215       0.12392916 </v>
   <v>       0.75569457       0.99430549       0.37178752 </v>
   <v>       0.92236131       0.82763880       0.61964595 </v>
   <v>       0.25569448       0.49430549       0.12392916 </v>
   <v>       0.42236125       0.32763884       0.37178752 </v>
   <v>       0.58902800       0.16097212       0.61964595 </v>
   <v>       0.92236108       0.82763886       0.12392916 </v>
   <v>       0.08902776       0.66097212       0.37178752 </v>
   <v>       0.25569451       0.49430543       0.61964595 </v>
   <v>       0.31849873       0.09796669       0.70654863 </v>
   <v>       0.20738757       0.37574449       0.78916806 </v>
   <v>       0.09627640       0.65352231       0.87178755 </v>
   <v>       0.81849861       0.09796669       0.70654863 </v>
   <v>       0.70738751       0.37574449       0.78916806 </v>
   <v>       0.59627634       0.65352231       0.87178755 </v>
   <v>       0.01294303       0.98685551       0.74785829 </v>
   <v>       0.90183186       0.26463333       0.83047783 </v>
   <v>       0.79072064       0.54241115       0.91309732 </v>
   <v>       0.51294303       0.98685557       0.74785841 </v>
   <v>       0.40183195       0.26463333       0.83047783 </v>
   <v>       0.29072082       0.54241115       0.91309732 </v>
  </varray>
 </structure>
 <calculation>
  <scstep>
   <time name="dav">    9.17    9.25</time>
   <time name="total">   10.05   10.13</time>
   <energy>
    <i name="alphaZ">    401.77792792 </i>
    <i name="ewald">  -4959.08024812 </i>
    <i name="hartreedc">   -542.00937496 </i>
    <i name="XCdc">   -358.95636984 </i>
    <i name="pawpsdc">   4230.96766597 </i>
    <i name="pawaedc">  -3535.56392164 </i>
    <i name="eentropy">     -0.00099486 </i>
    <i name="bandstr">    706.01141369 </i>
    <i name="atom">   5039.80367324 </i>
    <i name="e_fr_energy">    982.94977139 </i>
    <i name="e_wo_entrp">    982.95076625 </i>
    <i name="e_0_energy">    982.95026882 </i>
   </energy>
  </scstep>
  <scstep>
   <time name="dav">   10.19   10.27</time>
   <time name="total">   10.19   10.28</time>
   <energy>
    <i name="e_fr_energy">    -72.94625548 </i>
    <i name="e_wo_entrp">    -72.94566066 </i>
    <i name="e_0_energy">    -72.94595807 </i>
   </energy>
  </scstep>
  <scstep>
   <time name="dav">   10.63   10.71</time>
   <time name="total">   10.63   10.72</time>
   <energy>
    <i name="e_fr_energy">   -180.88162883 </i>
    <i name="e_wo_entrp">   -180.88072947 </i>
    <i name="e_0_energy">   -180.88117915 </i>
   </energy>
  </scstep>
  <scstep>
   <time name="dav">   10.46   10.55</time>
   <time name="total">   10.47   10.55</time>
   <energy>
    <i name="e_fr_energy">   -185.08452915 </i>
    <i name="e_wo_entrp">   -185.08375958 </i>
    <i name="e_0_energy">   -185.08414436 </i>
   </energy>
  </scstep>
  <scstep>
   <time name="dav">   11.10   11.19</time>
   <time name="total">   11.67   11.77</time>
   <energy>
    <i name="e_fr_energy">   -185.23977324 </i>
    <i name="e_wo_entrp">   -185.23895359 </i>
    <i name="e_0_energy">   -185.23936342 </i>
   </energy>
  </scstep>
  <scstep>
   <time name="dav">   10.34   10.42</time>
   <time name="total">   11.76   11.84</time>
   <energy>
    <i name="e_fr_energy">   -182.57308787 </i>
    <i name="e_wo_entrp">   -182.57168104 </i>
    <i name="e_0_energy">   -182.57238445 </i>
   </energy>
  </scstep>
  <scstep>
   <time name="dav">   10.42   10.50</time>
   <time name="total">   11.83   11.92</time>
   <energy>
    <i name="e_fr_energy">   -182.52484302 </i>
    <i name="e_wo_entrp">   -182.52410288 </i>
    <i name="e_0_energy">   -182.52447295 </i>
   </energy>
  </scstep>
  <scstep>
   <time name="dav">   10.42   10.50</time>
   <time name="total">   11.86   11.95</time>
   <energy>
    <i name="e_fr_energy">   -182.19627936 </i>
    <i name="e_wo_entrp">   -182.19565230 </i>
    <i name="e_0_energy">   -182.19596583 </i>
   </energy>
  </scstep>
  <scstep>
   <time name="dav">   10.34   10.42</time>
   <time name="total">   11.75   11.84</time>
   <energy>
    <i name="e_fr_energy">   -182.20163999 </i>
    <i name="e_wo_entrp">   -182.20089416 </i>
    <i name="e_0_energy">   -182.20126707 </i>
   </energy>
  </scstep>
  <scstep>
   <time name="dav">   10.04   10.12</time>
   <time name="total">   11.45   11.54</time>
   <energy>
    <i name="e_fr_energy">   -182.20176346 </i>
    <i name="e_wo_entrp">   -182.20094482 </i>
    <i name="e_0_energy">   -182.20135414 </i>
   </energy>
  </scstep>
  <scstep>
   <time name="dav">   10.02   10.10</time>
   <time name="total">   11.46   11.54</time>
   <energy>
    <i name="e_fr_energy">   -182.20229678 </i>
    <i name="e_wo_entrp">   -182.20153668 </i>
    <i name="e_0_energy">   -182.20191673 </i>
   </energy>
  </scstep>
  <scstep>
   <time name="dav">    9.87    9.95</time>
   <time name="total">   11.29   11.38</time>
   <energy>
    <i name="e_fr_energy">   -182.20283579 </i>
    <i name="e_wo_entrp">   -182.20208625 </i>
    <i name="e_0_energy">   -182.20246102 </i>
   </energy>
  </scstep>
  <scstep>
   <time name="dav">   10.27   10.35</time>
   <time name="total">   11.69   11.78</time>
   <energy>
    <i name="e_fr_energy">   -182.20294513 </i>
    <i name="e_wo_entrp">   -182.20219278 </i>
    <i name="e_0_energy">   -182.20256895 </i>
   </energy>
  </scstep>
  <scstep>
   <time name="dav">   10.01   10.09</time>
   <time name="total">   11.43   11.52</time>
   <energy>
    <i name="e_fr_energy">   -182.20296316 </i>
    <i name="e_wo_entrp">   -182.20221088 </i>
    <i name="e_0_energy">   -182.20258702 </i>
   </energy>
  </scstep>
  <scstep>
   <time name="dav">   10.46   10.54</time>
   <time name="total">   11.88   11.97</time>
   <energy>
    <i name="e_fr_energy">   -182.20296801 </i>
    <i name="e_wo_entrp">   -182.20221652 </i>
    <i name="e_0_energy">   -182.20259226 </i>
   </energy>
  </scstep>
  <scstep>
   <time name="dav">   10.07   10.15</time>
   <time name="total">   11.50   11.58</time>
   <energy>
    <i name="e_fr_energy">   -182.20296879 </i>
    <i name="e_wo_entrp">   -182.20221788 </i>
    <i name="e_0_energy">   -182.20259333 </i>
   </energy>
  </scstep>
  <scstep>
   <time name="dav">    9.40    9.48</time>
   <time name="total">   10.25   10.33</time>
   <energy>
    <i name="alphaZ">    401.77792792 </i>
    <i name="ewald">  -4959.08024812 </i>
    <i name="hartreedc">   -603.36167442 </i>
    <i name="XCdc">   -347.43601330 </i>
    <i name="pawpsdc">  11248.62953315 </i>
    <i name="pawaedc"> -10562.22224721 </i>
    <i name="eentropy">     -0.00075067 </i>
    <i name="bandstr">   -400.31316932 </i>
    <i name="atom">   5039.80367324 </i>
    <i name="e_fr_energy">   -182.20296874 </i>
    <i name="e_wo_entrp">   -182.20221807 </i>
    <i name="e_0_energy">   -182.20259340 </i>
   </energy>
  </scstep>
  <structure>
   <crystal>
    <varray name="basis" >
     <v>       8.00133800       0.00000000       0.00000000 </v>
     <v>      -4.00066900      12.00200653       0.00000000 </v>
     <v>       0.00000000       0.00000000      11.41337395 </v>
    </varray>
    <i name="volume">   1096.05039368 </i>
    <varray name="rec_basis" >
     <v>       0.12497910       0.04165970       0.00000000 </v>
     <v>       0.00000000       0.08331940       0.00000000 </v>
     <v>       0.00000000       0.00000000       0.08761651 </v>
    </varray>
   </crystal>
   <varray name="positions" >
    <v>       0.00569449       0.99430549       0.00000000 </v>
    <v>       0.17236120       0.82763886       0.24785832 </v>
    <v>       0.33902791       0.66097212       0.49571666 </v>
    <v>       0.67236108       0.32763880       0.00000000 </v>
    <v>       0.83902776       0.16097212       0.24785832 </v>
    <v>       0.00569451       0.99430543       0.49571666 </v>
    <v>       0.33902776       0.66097212       0.00000000 </v>
    <v>       0.50569445       0.49430540       0.24785832 </v>
    <v>       0.67236120       0.32763875       0.49571666 </v>
    <v>       0.08902784       0.16097215       0.12392916 </v>
    <v>       0.25569457       0.99430543       0.37178752 </v>
    <v>       0.42236128       0.82763875       0.61964595 </v>
    <v>       0.75569439       0.49430546       0.12392916 </v>
    <v>       0.92236120       0.32763880       0.37178752 </v>
    <v>       0.08902788       0.16097209       0.61964595 </v>
    <v>       0.42236105       0.82763880       0.12392916 </v>
    <v>       0.58902782       0.66097218       0.37178752 </v>
    <v>       0.75569451       0.49430546       0.61964595 </v>
    <v>       0.50569445       0.99430549       0.00000000 </v>
    <v>       0.67236114       0.82763886       0.24785832 </v>
    <v>       0.83902788       0.66097212       0.49571666 </v>
    <v>       0.17236112       0.32763880       0.00000000 </v>
    <v>       0.33902785       0.16097213       0.24785832 </v>
    <v>       0.50569457       0.99430543       0.49571666 </v>
    <v>       0.83902776       0.66097212       0.00000000 </v>
    <v>       0.00569451       0.49430543       0.24785832 </v>
    <v>       0.17236114       0.32763875       0.49571666 </v>
    <v>       0.58902782       0.16097215       0.12392916 </v>
    <v>       0.75569457       0.99430549       0.37178752 </v>
    <v>       0.92236131       0.82763880       0.61964595 </v>
    <v>       0.25569448       0.49430549       0.12392916 </v>
    <v>       0.42236125       0.32763884       0.37178752 </v>
    <v>       0.58902800       0.16097212       0.61964595 </v>
    <v>       0.92236108       0.82763886       0.12392916 </v>
    <v>       0.08902776       0.66097212       0.37178752 </v>
    <v>       0.25569451       0.49430543       0.61964595 </v>
    <v>       0.31849873       0.09796669       0.70654863 </v>
    <v>       0.20738757       0.37574449       0.78916806 </v>
    <v>       0.09627640       0.65352231       0.87178755 </v>
    <v>       0.81849861       0.09796669       0.70654863 </v>
    <v>       0.70738751       0.37574449       0.78916806 </v>
    <v>       0.59627634       0.65352231       0.87178755 </v>
    <v>       0.01294303       0.98685551       0.74785829 </v>
    <v>       0.90183186       0.26463333       0.83047783 </v>
    <v>       0.79072064       0.54241115       0.91309732 </v>
    <v>       0.51294303       0.98685557       0.74785841 </v>
    <v>       0.40183195       0.26463333       0.83047783 </v>
    <v>       0.29072082       0.54241115       0.91309732 </v>
   </varray>
  </structure>
  <varray name="forces" >
   <v>       0.02015191      -0.10548455      -1.20486373 </v>
   <v>       0.00317058      -0.13702721       0.05429459 </v>
   <v>       0.07776856      -0.13799267       0.11744787 </v>
   <v>      -0.04621191      -1.56823419       0.86143927 </v>
   <v>      -0.00017124      -0.05879916      -0.07801098 </v>
   <v>       0.04577514      -0.48117941      -0.91117443 </v>
   <v>      -0.96886061      21.47759074      15.29025048 </v>
   <v>      -0.00467354       0.07494434       0.12501739 </v>
   <v>       0.00800031       0.51610481      -0.30376014 </v>
   <v>       0.02202282      -0.29898525       0.23972714 </v>
   <v>       0.01571647       0.15201102      -0.09625211 </v>
   <v>      -0.10129449      -0.66443380       0.17380344 </v>
   <v>      -0.07349297      -0.88258650       2.07510005 </v>
   <v>       0.01102671      -0.22225842      -0.06836541 </v>
   <v>       0.84009176       2.27655449      -2.10258165 </v>
   <v>       0.04663823       0.33256517       0.10948627 </v>
   <v>      -0.00610799       0.11737402       0.00169159 </v>
   <v>      -0.07571442       0.47833108      -0.64726673 </v>
   <v>       0.02015191      -0.10548455      -1.20486373 </v>
   <v>       0.00317058      -0.13702721       0.05429459 </v>
   <v>       0.07776856      -0.13799267       0.11744787 </v>
   <v>      -0.04621191      -1.56823419       0.86143927 </v>
   <v>      -0.00017124      -0.05879916      -0.07801098 </v>
   <v>       0.04577514      -0.48117941      -0.91117443 </v>
   <v>      -0.96886061      21.47759074      15.29025048 </v>
   <v>      -0.00467354       0.07494434       0.12501739 </v>
   <v>       0.00800031       0.51610481      -0.30376014 </v>
   <v>       0.02202282      -0.29898525       0.23972714 </v>
   <v>       0.01571647       0.15201102      -0.09625211 </v>
   <v>      -0.10129449      -0.66443380       0.17380344 </v>
   <v>      -0.07349297      -0.88258650       2.07510005 </v>
   <v>       0.01102671      -0.22225842      -0.06836541 </v>
   <v>       0.84009176       2.27655449      -2.10258165 </v>
   <v>       0.04663823       0.33256517       0.10948627 </v>
   <v>      -0.00610799       0.11737402       0.00169159 </v>
   <v>      -0.07571442       0.47833108      -0.64726673 </v>
   <v>      -1.05657757      -0.35486003       1.03727731 </v>
   <v>       0.16859585       0.11457662      -1.17721075 </v>
   <v>      -0.56913922       1.70417192      -2.55961591 </v>
   <v>      -1.05657757      -0.35486003       1.03727731 </v>
   <v>       0.16859585       0.11457662      -1.17721075 </v>
   <v>      -0.56913922       1.70417192      -2.55961591 </v>
   <v>       0.22968870      -1.90235558       3.00684176 </v>
   <v>      -0.12077858       0.20933758       1.10089187 </v>
   <v>       1.53437549     -20.63936501     -15.04416721 </v>
   <v>       0.22968870      -1.90235558       3.00684176 </v>
   <v>      -0.12077858       0.20933758       1.10089187 </v>
   <v>       1.53437549     -20.63936501     -15.04416721 </v>
  </varray>
  <varray name="stress" >
   <v>      77.26497196      -4.53210813      -4.37003252 </v>
   <v>      -4.53211655     176.92376145      39.99727968 </v>
   <v>      -4.37003354      39.99728489     138.52272310 </v>
  </varray>
  <energy>
   <i name="e_fr_energy">   -182.20296874 </i>
   <i name="e_wo_entrp">   -182.20221807 </i>
   <i name="e_0_energy">   -182.20259340 </i>
  </energy>
  <time name="totalsc">  210.00  211.95</time>
  <eigenvalues>
   <array>
    <dimension dim="1">band</dimension>
    <dimension dim="2">kpoint</dimension>
    <dimension dim="3">spin</dimension>
    <field>eigene</field>
    <field>occ</field>
    <set>
     <set comment="spin 1">
      <set comment="kpoint 1">
       <r>  -11.4177    1.0000 </r>
       <r>  -10.6083    1.0000 </r>
       <r>   -9.9031    1.0000 </r>
       <r>   -8.7366    1.0000 </r>
       <r>   -8.5943    1.0000 </r>
       <r>   -8.3814    1.0000 </r>
       <r>   -7.9083    1.0000 </r>
       <r>   -7.8405    1.0000 </r>
       <r>   -7.6356    1.0000 </r>
       <r>   -7.6258    1.0000 </r>
       <r>   -7.2417    1.0000 </r>
       <r>   -7.0496    1.0000 </r>
       <r>   -7.0052    1.0000 </r>
       <r>   -6.9055    1.0000 </r>
       <r>   -6.8694    1.0000 </r>
       <r>   -6.7969    1.0000 </r>
       <r>   -6.2723    1.0000 </r>
       <r>   -6.1678    1.0000 </r>
       <r>   -6.1269    1.0000 </r>
       <r>   -6.0101    1.0000 </r>
       <r>   -5.6230    1.0000 </r>
       <r>   -5.5059    1.0000 </r>
       <r>   -5.4605    1.0000 </r>
       <r>   -5.2948    1.0000 </r>
       <r>   -5.2432    1.0000 </r>
       <r>   -5.2347    1.0000 </r>
       <r>   -5.2154    1.0000 </r>
       <r>   -4.8532    1.0000 </r>
       <r>   -4.8215    1.0000 </r>
       <r>   -4.7569    1.0000 </r>
       <r>   -4.5841    1.0000 </r>
       <r>   -4.2018    1.0000 </r>
       <r>   -3.9104    1.0000 </r>
       <r>   -3.7957    1.0000 </r>
       <r>   -3.6641    1.0000 </r>
       <r>   -3.6599    1.0000 </r>
       <r>   -3.5251    1.0000 </r>
       <r>   -3.4730    1.0000 </r>
       <r>   -3.2593    1.0000 </r>
       <r>   -2.6483    1.0000 </r>
       <r>   -2.6017    1.0000 </r>
       <r>   -2.4751    1.0000 </r>
       <r>   -2.1298    1.0000 </r>
       <r>   -1.6317    1.0000 </r>
       <r>   -1.5918    1.0000 </r>
       <r>   -1.4313    1.0000 </r>
       <r>   -1.2229    1.0000 </r>
       <r>   -1.0522    1.0000 </r>
       <r>   -0.9317    1.0000 </r>
       <r>   -0.6760    1.0000 </r>
       <r>   -0.6653    1.0000 </r>
       <r>   -0.5409    1.0000 </r>
       <r>   -0.4904    1.0000 </r>
       <r>   -0.4295    1.0000 </r>
       <r>   -0.3771    1.0000 </r>
       <r>   -0.2889    1.0000 </r>
       <r>   -0.0545    1.0000 </r>
       <r>    0.0080    1.0000 </r>
       <r>    0.1494    1.0000 </r>
       <r>    0.2652    1.0000 </r>
       <r>    0.2837    1.0000 </r>
       <r>    0.3272    1.0000 </r>
       <r>    0.4880    1.0000 </r>
       <r>    0.5187    1.0000 </r>
       <r>    0.5712    1.0000 </r>
       <r>    0.5798    1.0000 </r>
       <r>    0.7294    1.0000 </r>
       <r>    0.9004    1.0000 </r>
       <r>    1.0253    1.0000 </r>
       <r>    1.0862    1.0000 </r>
       <r>    1.1189    1.0000 </r>
       <r>    1.1457    1.0000 </r>
       <r>    1.2486    1.0000 </r>
       <r>    1.4671    1.0000 </r>
       <r>    1.4935    1.0000 </r>
       <r>    1.5257    1.0000 </r>
       <r>    1.6037    1.0000 </r>
       <r>    1.6046    1.0000 </r>
       <r>    1.6164    1.0000 </r>
       <r>    1.6507    1.0000 </r>
       <r>    1.7262    1.0000 </r>
       <r>    1.9103    1.0000 </r>
       <r>    2.0726    1.0000 </r>
       <r>    2.1468    1.0000 </r>
       <r>    2.2132    1.0000 </r>
       <r>    2.2807    1.0000 </r>
       <r>    2.3716    1.0000 </r>
       <r>    2.5467    1.0000 </r>
       <r>    2.6821    1.0000 </r>
       <r>    2.7651    1.0000 </r>
       <r>    2.7913    1.0000 </r>
       <r>    2.7929    1.0000 </r>
       <r>    3.1098    1.0000 </r>
       <r>    3.2298    1.0000 </r>
       <r>    3.2868    1.0000 </r>
       <r>    3.4569    1.0000 </r>
       <r>    3.6394    1.0000 </r>
       <r>    3.7836    0.0000 </r>
       <r>    3.8819    0.0000 </r>
       <r>    3.9030    0.0000 </r>
       <r>    4.1715    0.0000 </r>
       <r>    4.2522    0.0000 </r>
       <r>    4.3301    0.0000 </r>
       <r>    4.3590    0.0000 </r>
       <r>    4.4784    0.0000 </r>
       <r>    4.6427    0.0000 </r>
       <r>    4.7462    0.0000 </r>
       <r>    4.8206    0.0000 </r>
       <r>    4.9485    0.0000 </r>
       <r>    4.9795    0.0000 </r>
       <r>    5.1068    0.0000 </r>
       <r>    5.1572    0.0000 </r>
       <r>    5.2234    0.0000 </r>
       <r>    5.3023    0.0000 </r>
       <r>    5.3934    0.0000 </r>
       <r>    5.5467    0.0000 </r>
      </set>
      <set comment="kpoint 2">
       <r>  -11.3235    1.0000 </r>
       <r>  -10.7604    1.0000 </r>
       <r>   -9.7720    1.0000 </r>
       <r>   -8.8073    1.0000 </r>
       <r>   -8.6286    1.0000 </r>
       <r>   -8.4565    1.0000 </r>
       <r>   -7.8935    1.0000 </r>
       <r>   -7.8928    1.0000 </r>
       <r>   -7.6119    1.0000 </r>
       <r>   -7.5195    1.0000 </r>
       <r>   -7.4768    1.0000 </r>
       <r>   -7.2448    1.0000 </r>
       <r>   -7.1130    1.0000 </r>
       <r>   -6.9317    1.0000 </r>
       <r>   -6.7640    1.0000 </r>
       <r>   -6.5972    1.0000 </r>
       <r>   -6.3789    1.0000 </r>
       <r>   -6.1967    1.0000 </r>
       <r>   -6.0599    1.0000 </r>
       <r>   -5.9911    1.0000 </r>
       <r>   -5.9322    1.0000 </r>
       <r>   -5.5403    1.0000 </r>
       <r>   -5.4732    1.0000 </r>
       <r>   -5.2419    1.0000 </r>
       <r>   -5.1405    1.0000 </r>
       <r>   -4.9573    1.0000 </r>
       <r>   -4.8449    1.0000 </r>
       <r>   -4.7127    1.0000 </r>
       <r>   -4.5944    1.0000 </r>
       <r>   -4.4499    1.0000 </r>
       <r>   -4.3735    1.0000 </r>
       <r>   -4.2037    1.0000 </r>
       <r>   -4.0231    1.0000 </r>
       <r>   -4.0138    1.0000 </r>
       <r>   -3.7727    1.0000 </r>
       <r>   -3.7462    1.0000 </r>
       <r>   -3.2526    1.0000 </r>
       <r>   -3.1241    1.0000 </r>
       <r>   -2.8335    1.0000 </r>
       <r>   -2.7589    1.0000 </r>
       <r>   -2.5413    1.0000 </r>
       <r>   -2.2930    1.0000 </r>
       <r>   -2.2489    1.0000 </r>
       <r>   -2.1180    1.0000 </r>
       <r>   -1.8593    1.0000 </r>
       <r>   -1.6490    1.0000 </r>
       <r>   -1.5876    1.0000 </r>
       <r>   -1.3153    1.0000 </r>
       <r>   -1.0985    1.0000 </r>
       <r>   -0.9102    1.0000 </r>
       <r>   -0.7326    1.0000 </r>
       <r>   -0.5986    1.0000 </r>
       <r>   -0.4756    1.0000 </r>
       <r>   -0.4602    1.0000 </r>
       <r>   -0.3525    1.0000 </r>
       <r>   -0.1519    1.0000 </r>
       <r>   -0.0170    1.0000 </r>
       <r>   -0.0136    1.0000 </r>
       <r>    0.0161    1.0000 </r>
       <r>    0.1911    1.0000 </r>
       <r>    0.1975    1.0000 </r>
       <r>    0.2647    1.0000 </r>
       <r>    0.3788    1.0000 </r>
       <r>    0.4844    1.0000 </r>
       <r>    0.5191    1.0000 </r>
       <r>    0.6764    1.0000 </r>
       <r>    0.7827    1.0000 </r>
       <r>    0.8065    1.0000 </r>
       <r>    0.8664    1.0000 </r>
       <r>    0.9224    1.0000 </r>
       <r>    0.9324    1.0000 </r>
       <r>    0.9898    1.0000 </r>
       <r>    1.0828    1.0000 </r>
       <r>    1.1892    1.0000 </r>
       <r>    1.2673    1.0000 </r>
       <r>    1.3176    1.0000 </r>
       <r>    1.4054    1.0000 </r>
       <r>    1.4715    1.0000 </r>
       <r>    1.6762    1.0000 </r>
       <r>    1.7177    1.0000 </r>
       <r>    1.8941    1.0000 </r>
       <r>    1.9153    1.0000 </r>
       <r>    2.1245    1.0000 </r>
       <r>    2.1293    1.0000 </r>
       <r>    2.2410    1.0000 </r>
       <r>    2.4004    1.0000 </r>
       <r>    2.4046    1.0000 </r>
       <r>    2.5669    1.0000 </r>
       <r>    2.8994    1.0000 </r>
       <r>    2.9611    1.0000 </r>
       <r>    2.9950    1.0000 </r>
       <r>    3.0946    1.0000 </r>
       <r>    3.2191    1.0000 </r>
       <r>    3.2681    1.0000 </r>
       <r>    3.4085    1.0000 </r>
       <r>    3.5242    1.0000 </r>
       <r>    3.7464    0.0000 </r>
       <r>    3.7928    0.0000 </r>
       <r>    3.8761    0.0000 </r>
       <r>    4.0483    0.0000 </r>
       <r>    4.0971    0.0000 </r>
       <r>    4.1555    0.0000 </r>
       <r>    4.3377    0.0000 </r>
       <r>    4.4521    0.0000 </r>
       <r>    4.4969    0.0000 </r>
       <r>    4.6242    0.0000 </r>
       <r>    4.7371    0.0000 </r>
       <r>    4.8198    0.0000 </r>
       <r>    4.9750    0.0000 </r>
       <r>    4.9788    0.0000 </r>
       <r>    5.2011    0.0000 </r>
       <r>    5.2584    0.0000 </r>
       <r>    5.4330    0.0000 </r>
       <r>    5.4849    0.0000 </r>
       <r>    5.5572    0.0000 </r>
       <r>    5.6219    0.0000 </r>
      </set>
      <set comment="kpoint 3">
       <r>  -11.0692    1.0000 </r>
       <r>  -11.0692    1.0000 </r>
       <r>   -9.3882    1.0000 </r>
       <r>   -9.3882    1.0000 </r>
       <r>   -8.3191    1.0000 </r>
       <r>   -8.3191    1.0000 </r>
       <r>   -8.0606    1.0000 </r>
       <r>   -8.0606    1.0000 </r>
       <r>   -7.6647    1.0000 </r>
       <r>   -7.6647    1.0000 </r>
       <r>   -7.2753    1.0000 </r>
       <r>   -7.2753    1.0000 </r>
       <r>   -7.0864    1.0000 </r>
       <r>   -7.0864    1.0000 </r>
       <r>   -6.7505    1.0000 </r>
       <r>   -6.7505    1.0000 </r>
       <r>   -6.4680    1.0000 </r>
       <r>   -6.4680    1.0000 </r>
       <r>   -6.0159    1.0000 </r>
       <r>   -6.0159    1.0000 </r>
       <r>   -5.6063    1.0000 </r>
       <r>   -5.6063    1.0000 </r>
       <r>   -5.0591    1.0000 </r>
       <r>   -5.0591    1.0000 </r>
       <r>   -4.8583    1.0000 </r>
       <r>   -4.8583    1.0000 </r>
       <r>   -4.7503    1.0000 </r>
       <r>   -4.7503    1.0000 </r>
       <r>   -4.4385    1.0000 </r>
       <r>   -4.4385    1.0000 </r>
       <r>   -4.1870    1.0000 </r>
       <r>   -4.1870    1.0000 </r>
       <r>   -4.0045    1.0000 </r>
       <r>   -4.0045    1.0000 </r>
       <r>   -3.5872    1.0000 </r>
       <r>   -3.5872    1.0000 </r>
       <r>   -3.2869    1.0000 </r>
       <r>   -3.2869    1.0000 </r>
       <r>   -2.9207    1.0000 </r>
       <r>   -2.9207    1.0000 </r>
       <r>   -2.3679    1.0000 </r>
       <r>   -2.3679    1.0000 </r>
       <r>   -2.0812    1.0000 </r>
       <r>   -2.0812    1.0000 </r>
       <r>   -1.7809    1.0000 </r>
       <r>   -1.7809    1.0000 </r>
       <r>   -1.5302    1.0000 </r>
       <r>   -1.5302    1.0000 </r>
       <r>   -1.2829    1.0000 </r>
       <r>   -1.2829    1.0000 </r>
       <r>   -0.9208    1.0000 </r>
       <r>   -0.9208    1.0000 </r>
       <r>   -0.5736    1.0000 </r>
       <r>   -0.5736    1.0000 </r>
       <r>   -0.3781    1.0000 </r>
       <r>   -0.3781    1.0000 </r>
       <r>   -0.2267    1.0000 </r>
       <r>   -0.2267    1.0000 </r>
       <r>    0.0504    1.0000 </r>
       <r>    0.0504    1.0000 </r>
       <r>    0.1353    1.0000 </r>
       <r>    0.1353    1.0000 </r>
       <r>    0.3784    1.0000 </r>
       <r>    0.3784    1.0000 </r>
       <r>    0.4810    1.0000 </r>
       <r>    0.4810    1.0000 </r>
       <r>    0.6484    1.0000 </r>
       <r>    0.6484    1.0000 </r>
       <r>    0.8933    1.0000 </r>
       <r>    0.8933    1.0000 </r>
       <r>    1.0518    1.0000 </r>
       <r>    1.0518    1.0000 </r>
       <r>    1.1633    1.0000 </r>
       <r>    1.1633    1.0000 </r>
       <r>    1.2894    1.0000 </r>
       <r>    1.2894    1.0000 </r>
       <r>    1.5626    1.0000 </r>
       <r>    1.5626    1.0000 </r>
       <r>    1.7570    1.0000 </r>
       <r>    1.7570    1.0000 </r>
       <r>    1.9101    1.0000 </r>
       <r>    1.9101    1.0000 </r>
       <r>    2.0083    1.0000 </r>
       <r>    2.0083    1.0000 </r>
       <r>    2.4062    1.0000 </r>
       <r>    2.4062    1.0000 </r>
       <r>    2.5782    1.0000 </r>
       <r>    2.5782    1.0000 </r>
       <r>    2.7023    1.0000 </r>
       <r>    2.7023    1.0000 </r>
       <r>    2.9328    1.0000 </r>
       <r>    2.9328    1.0000 </r>
       <r>    3.1240    1.0000 </r>
       <r>    3.1240    1.0000 </r>
       <r>    3.5541    1.0000 </r>
       <r>    3.5541    1.0000 </r>
       <r>    3.7942    0.0000 </r>
       <r>    3.7942    0.0000 </r>
       <r>    4.0310    0.0000 </r>
       <r>    4.0310    0.0000 </r>
       <r>    4.3041    0.0000 </r>
       <r>    4.3041    0.0000 </r>
       <r>    4.5060    0.0000 </r>
       <r>    4.5060    0.0000 </r>
       <r>    4.6464    0.0000 </r>
       <r>    4.6464    0.0000 </r>
       <r>    5.0059    0.0000 </r>
       <r>    5.0059    0.0000 </r>
       <r>    5.1780    0.0000 </r>
       <r>    5.1780    0.0000 </r>
       <r>    5.4316    0.0000 </r>
       <r>    5.4316    0.0000 </r>
       <r>    5.6011    0.0000 </r>
       <r>    5.6017    0.0000 </r>
       <r>    5.6498    0.0000 </r>
       <r>    5.6578    0.0000 </r>
      </set>
      <set comment="kpoint 4">
       <r>  -11.4173    1.0000 </r>
       <r>  -10.6085    1.0000 </r>
       <r>   -9.9039    1.0000 </r>
       <r>   -8.7649    1.0000 </r>
       <r>   -8.4999    1.0000 </r>
       <r>   -8.3869    1.0000 </r>
       <r>   -8.2239    1.0000 </r>
       <r>   -7.6709    1.0000 </r>
       <r>   -7.6098    1.0000 </r>
       <r>   -7.4551    1.0000 </r>
       <r>   -7.1912    1.0000 </r>
       <r>   -7.1555    1.0000 </r>
       <r>   -6.9650    1.0000 </r>
       <r>   -6.9451    1.0000 </r>
       <r>   -6.7979    1.0000 </r>
       <r>   -6.5292    1.0000 </r>
       <r>   -6.4298    1.0000 </r>
       <r>   -6.2077    1.0000 </r>
       <r>   -6.1335    1.0000 </r>
       <r>   -6.0998    1.0000 </r>
       <r>   -5.9333    1.0000 </r>
       <r>   -5.9229    1.0000 </r>
       <r>   -5.5037    1.0000 </r>
       <r>   -5.3970    1.0000 </r>
       <r>   -5.1990    1.0000 </r>
       <r>   -5.0159    1.0000 </r>
       <r>   -4.9240    1.0000 </r>
       <r>   -4.8396    1.0000 </r>
       <r>   -4.6038    1.0000 </r>
       <r>   -4.5164    1.0000 </r>
       <r>   -4.4600    1.0000 </r>
       <r>   -4.3508    1.0000 </r>
       <r>   -4.1281    1.0000 </r>
       <r>   -3.8771    1.0000 </r>
       <r>   -3.7993    1.0000 </r>
       <r>   -3.4703    1.0000 </r>
       <r>   -3.4476    1.0000 </r>
       <r>   -3.4299    1.0000 </r>
       <r>   -2.8612    1.0000 </r>
       <r>   -2.7326    1.0000 </r>
       <r>   -2.5634    1.0000 </r>
       <r>   -2.4411    1.0000 </r>
       <r>   -2.2922    1.0000 </r>
       <r>   -2.1606    1.0000 </r>
       <r>   -1.6186    1.0000 </r>
       <r>   -1.5100    1.0000 </r>
       <r>   -1.2776    1.0000 </r>
       <r>   -1.0437    1.0000 </r>
       <r>   -0.8278    1.0000 </r>
       <r>   -0.7087    1.0000 </r>
       <r>   -0.6739    1.0000 </r>
       <r>   -0.5278    1.0000 </r>
       <r>   -0.4625    1.0000 </r>
       <r>   -0.3920    1.0000 </r>
       <r>   -0.3326    1.0000 </r>
       <r>   -0.1599    1.0000 </r>
       <r>   -0.0850    1.0000 </r>
       <r>   -0.0434    1.0000 </r>
       <r>    0.0864    1.0000 </r>
       <r>    0.2001    1.0000 </r>
       <r>    0.2757    1.0000 </r>
       <r>    0.3114    1.0000 </r>
       <r>    0.4242    1.0000 </r>
       <r>    0.4440    1.0000 </r>
       <r>    0.4769    1.0000 </r>
       <r>    0.5597    1.0000 </r>
       <r>    0.8790    1.0000 </r>
       <r>    1.0197    1.0000 </r>
       <r>    1.0394    1.0000 </r>
       <r>    1.1052    1.0000 </r>
       <r>    1.1790    1.0000 </r>
       <r>    1.1856    1.0000 </r>
       <r>    1.2767    1.0000 </r>
       <r>    1.3867    1.0000 </r>
       <r>    1.4641    1.0000 </r>
       <r>    1.5262    1.0000 </r>
       <r>    1.6323    1.0000 </r>
       <r>    1.7585    1.0000 </r>
       <r>    1.7909    1.0000 </r>
       <r>    1.8305    1.0000 </r>
       <r>    1.9553    1.0000 </r>
       <r>    1.9555    1.0000 </r>
       <r>    2.0599    1.0000 </r>
       <r>    2.1609    1.0000 </r>
       <r>    2.3137    1.0000 </r>
       <r>    2.3586    1.0000 </r>
       <r>    2.3652    1.0000 </r>
       <r>    2.5181    1.0000 </r>
       <r>    2.6405    1.0000 </r>
       <r>    2.7089    1.0000 </r>
       <r>    2.7303    1.0000 </r>
       <r>    2.7685    1.0000 </r>
       <r>    2.7730    1.0000 </r>
       <r>    2.8226    1.0000 </r>
       <r>    3.1857    1.0000 </r>
       <r>    3.4537    1.0000 </r>
       <r>    3.6513    1.0000 </r>
       <r>    3.7549    0.0000 </r>
       <r>    3.7826    0.0000 </r>
       <r>    4.1417    0.0000 </r>
       <r>    4.1449    0.0000 </r>
       <r>    4.2055    0.0000 </r>
       <r>    4.3392    0.0000 </r>
       <r>    4.4034    0.0000 </r>
       <r>    4.5737    0.0000 </r>
       <r>    4.7390    0.0000 </r>
       <r>    4.8672    0.0000 </r>
       <r>    4.9798    0.0000 </r>
       <r>    5.0223    0.0000 </r>
       <r>    5.0744    0.0000 </r>
       <r>    5.1404    0.0000 </r>
       <r>    5.1697    0.0000 </r>
       <r>    5.2869    0.0000 </r>
       <r>    5.4334    0.0000 </r>
       <r>    5.4526    0.0000 </r>
       <r>    5.5450    0.0000 </r>
      </set>
      <set comment="kpoint 5">
       <r>  -11.3231    1.0000 </r>
       <r>  -10.7608    1.0000 </r>
       <r>   -9.7727    1.0000 </r>
       <r>   -8.8099    1.0000 </r>
       <r>   -8.6581    1.0000 </r>
       <r>   -8.3175    1.0000 </r>
       <r>   -8.1921    1.0000 </r>
       <r>   -7.8630    1.0000 </r>
       <r>   -7.5753    1.0000 </r>
       <r>   -7.5657    1.0000 </r>
       <r>   -7.1815    1.0000 </r>
       <r>   -7.0870    1.0000 </r>
       <r>   -7.0004    1.0000 </r>
       <r>   -6.8832    1.0000 </r>
       <r>   -6.8474    1.0000 </r>
       <r>   -6.7395    1.0000 </r>
       <r>   -6.6364    1.0000 </r>
       <r>   -6.2752    1.0000 </r>
       <r>   -6.0833    1.0000 </r>
       <r>   -6.0625    1.0000 </r>
       <r>   -5.8773    1.0000 </r>
       <r>   -5.5453    1.0000 </r>
       <r>   -5.4257    1.0000 </r>
       <r>   -5.3444    1.0000 </r>
       <r>   -5.1168    1.0000 </r>
       <r>   -4.9408    1.0000 </r>
       <r>   -4.8401    1.0000 </r>
       <r>   -4.5992    1.0000 </r>
       <r>   -4.5930    1.0000 </r>
       <r>   -4.4509    1.0000 </r>
       <r>   -4.4109    1.0000 </r>
       <r>   -4.2972    1.0000 </r>
       <r>   -4.0810    1.0000 </r>
       <r>   -3.7236    1.0000 </r>
       <r>   -3.5643    1.0000 </r>
       <r>   -3.3523    1.0000 </r>
       <r>   -3.3193    1.0000 </r>
       <r>   -3.1611    1.0000 </r>
       <r>   -3.1250    1.0000 </r>
       <r>   -2.8143    1.0000 </r>
       <r>   -2.8098    1.0000 </r>
       <r>   -2.1971    1.0000 </r>
       <r>   -2.1790    1.0000 </r>
       <r>   -2.1051    1.0000 </r>
       <r>   -1.9073    1.0000 </r>
       <r>   -1.6997    1.0000 </r>
       <r>   -1.6826    1.0000 </r>
       <r>   -1.3462    1.0000 </r>
       <r>   -1.0899    1.0000 </r>
       <r>   -0.9325    1.0000 </r>
       <r>   -0.6901    1.0000 </r>
       <r>   -0.5555    1.0000 </r>
       <r>   -0.4811    1.0000 </r>
       <r>   -0.4629    1.0000 </r>
       <r>   -0.4026    1.0000 </r>
       <r>   -0.2537    1.0000 </r>
       <r>   -0.0931    1.0000 </r>
       <r>   -0.0575    1.0000 </r>
       <r>    0.0546    1.0000 </r>
       <r>    0.1605    1.0000 </r>
       <r>    0.1654    1.0000 </r>
       <r>    0.2816    1.0000 </r>
       <r>    0.3712    1.0000 </r>
       <r>    0.4469    1.0000 </r>
       <r>    0.4604    1.0000 </r>
       <r>    0.6294    1.0000 </r>
       <r>    0.6440    1.0000 </r>
       <r>    0.6729    1.0000 </r>
       <r>    0.8421    1.0000 </r>
       <r>    1.0044    1.0000 </r>
       <r>    1.1734    1.0000 </r>
       <r>    1.2024    1.0000 </r>
       <r>    1.2900    1.0000 </r>
       <r>    1.3408    1.0000 </r>
       <r>    1.3918    1.0000 </r>
       <r>    1.4300    1.0000 </r>
       <r>    1.4927    1.0000 </r>
       <r>    1.5430    1.0000 </r>
       <r>    1.7670    1.0000 </r>
       <r>    1.8478    1.0000 </r>
       <r>    1.8986    1.0000 </r>
       <r>    2.0065    1.0000 </r>
       <r>    2.0179    1.0000 </r>
       <r>    2.0892    1.0000 </r>
       <r>    2.3317    1.0000 </r>
       <r>    2.3712    1.0000 </r>
       <r>    2.4116    1.0000 </r>
       <r>    2.5102    1.0000 </r>
       <r>    2.5448    1.0000 </r>
       <r>    2.7196    1.0000 </r>
       <r>    2.7658    1.0000 </r>
       <r>    2.9665    1.0000 </r>
       <r>    2.9848    1.0000 </r>
       <r>    3.1263    1.0000 </r>
       <r>    3.4404    1.0000 </r>
       <r>    3.5357    1.0000 </r>
       <r>    3.7630    0.0000 </r>
       <r>    3.8473    0.0000 </r>
       <r>    3.9830    0.0000 </r>
       <r>    4.0331    0.0000 </r>
       <r>    4.2648    0.0000 </r>
       <r>    4.3860    0.0000 </r>
       <r>    4.4742    0.0000 </r>
       <r>    4.4816    0.0000 </r>
       <r>    4.6582    0.0000 </r>
       <r>    4.6713    0.0000 </r>
       <r>    4.8124    0.0000 </r>
       <r>    4.9348    0.0000 </r>
       <r>    4.9750    0.0000 </r>
       <r>    5.0405    0.0000 </r>
       <r>    5.1663    0.0000 </r>
       <r>    5.3243    0.0000 </r>
       <r>    5.3808    0.0000 </r>
       <r>    5.4161    0.0000 </r>
       <r>    5.4478    0.0000 </r>
       <r>    5.6473    0.0000 </r>
      </set>
      <set comment="kpoint 6">
       <r>  -11.0694    1.0000 </r>
       <r>  -11.0690    1.0000 </r>
       <r>   -9.3883    1.0000 </r>
       <r>   -9.3882    1.0000 </r>
       <r>   -8.3343    1.0000 </r>
       <r>   -8.3033    1.0000 </r>
       <r>   -8.1042    1.0000 </r>
       <r>   -7.9821    1.0000 </r>
       <r>   -7.8105    1.0000 </r>
       <r>   -7.4948    1.0000 </r>
       <r>   -7.3219    1.0000 </r>
       <r>   -7.2914    1.0000 </r>
       <r>   -7.2075    1.0000 </r>
       <r>   -6.8874    1.0000 </r>
       <r>   -6.8383    1.0000 </r>
       <r>   -6.7126    1.0000 </r>
       <r>   -6.5395    1.0000 </r>
       <r>   -6.4395    1.0000 </r>
       <r>   -6.0149    1.0000 </r>
       <r>   -5.9694    1.0000 </r>
       <r>   -5.7132    1.0000 </r>
       <r>   -5.5305    1.0000 </r>
       <r>   -5.0519    1.0000 </r>
       <r>   -4.9699    1.0000 </r>
       <r>   -4.9224    1.0000 </r>
       <r>   -4.8525    1.0000 </r>
       <r>   -4.8050    1.0000 </r>
       <r>   -4.7673    1.0000 </r>
       <r>   -4.5055    1.0000 </r>
       <r>   -4.4337    1.0000 </r>
       <r>   -4.1836    1.0000 </r>
       <r>   -4.0877    1.0000 </r>
       <r>   -3.9551    1.0000 </r>
       <r>   -3.9130    1.0000 </r>
       <r>   -3.6396    1.0000 </r>
       <r>   -3.5386    1.0000 </r>
       <r>   -3.5326    1.0000 </r>
       <r>   -3.2863    1.0000 </r>
       <r>   -2.9960    1.0000 </r>
       <r>   -2.6037    1.0000 </r>
       <r>   -2.5987    1.0000 </r>
       <r>   -2.2757    1.0000 </r>
       <r>   -2.1344    1.0000 </r>
       <r>   -2.0119    1.0000 </r>
       <r>   -1.7923    1.0000 </r>
       <r>   -1.7565    1.0000 </r>
       <r>   -1.5513    1.0000 </r>
       <r>   -1.5378    1.0000 </r>
       <r>   -1.3575    1.0000 </r>
       <r>   -1.2002    1.0000 </r>
       <r>   -0.9728    1.0000 </r>
       <r>   -0.8802    1.0000 </r>
       <r>   -0.6128    1.0000 </r>
       <r>   -0.5917    1.0000 </r>
       <r>   -0.3895    1.0000 </r>
       <r>   -0.2810    1.0000 </r>
       <r>   -0.2280    1.0000 </r>
       <r>   -0.0732    1.0000 </r>
       <r>   -0.0662    1.0000 </r>
       <r>    0.0344    1.0000 </r>
       <r>    0.1821    1.0000 </r>
       <r>    0.1972    1.0000 </r>
       <r>    0.3132    1.0000 </r>
       <r>    0.3777    1.0000 </r>
       <r>    0.3803    1.0000 </r>
       <r>    0.4922    1.0000 </r>
       <r>    0.6025    1.0000 </r>
       <r>    0.6521    1.0000 </r>
       <r>    0.8169    1.0000 </r>
       <r>    0.8617    1.0000 </r>
       <r>    0.9900    1.0000 </r>
       <r>    1.0468    1.0000 </r>
       <r>    1.1732    1.0000 </r>
       <r>    1.2326    1.0000 </r>
       <r>    1.2932    1.0000 </r>
       <r>    1.3959    1.0000 </r>
       <r>    1.5908    1.0000 </r>
       <r>    1.6518    1.0000 </r>
       <r>    1.7300    1.0000 </r>
       <r>    1.8268    1.0000 </r>
       <r>    1.8298    1.0000 </r>
       <r>    1.9517    1.0000 </r>
       <r>    1.9694    1.0000 </r>
       <r>    2.0858    1.0000 </r>
       <r>    2.2814    1.0000 </r>
       <r>    2.4096    1.0000 </r>
       <r>    2.4506    1.0000 </r>
       <r>    2.5760    1.0000 </r>
       <r>    2.6990    1.0000 </r>
       <r>    2.7187    1.0000 </r>
       <r>    2.8330    1.0000 </r>
       <r>    3.1051    1.0000 </r>
       <r>    3.1702    1.0000 </r>
       <r>    3.1859    1.0000 </r>
       <r>    3.5437    1.0000 </r>
       <r>    3.6358    1.0000 </r>
       <r>    3.7666    0.0000 </r>
       <r>    3.8723    0.0000 </r>
       <r>    3.9763    0.0000 </r>
       <r>    4.0553    0.0000 </r>
       <r>    4.1889    0.0000 </r>
       <r>    4.2493    0.0000 </r>
       <r>    4.3052    0.0000 </r>
       <r>    4.3546    0.0000 </r>
       <r>    4.7038    0.0000 </r>
       <r>    4.8557    0.0000 </r>
       <r>    5.0170    0.0000 </r>
       <r>    5.0388    0.0000 </r>
       <r>    5.2020    0.0000 </r>
       <r>    5.2537    0.0000 </r>
       <r>    5.2782    0.0000 </r>
       <r>    5.4275    0.0000 </r>
       <r>    5.5148    0.0000 </r>
       <r>    5.6136    0.0000 </r>
       <r>    5.6791    0.0000 </r>
       <r>    5.7683    0.0000 </r>
      </set>
      <set comment="kpoint 7">
       <r>  -11.3234    1.0000 </r>
       <r>  -10.7605    1.0000 </r>
       <r>   -9.7722    1.0000 </r>
       <r>   -8.8080    1.0000 </r>
       <r>   -8.6376    1.0000 </r>
       <r>   -8.4313    1.0000 </r>
       <r>   -7.9805    1.0000 </r>
       <r>   -7.8857    1.0000 </r>
       <r>   -7.5639    1.0000 </r>
       <r>   -7.5070    1.0000 </r>
       <r>   -7.4793    1.0000 </r>
       <r>   -7.1822    1.0000 </r>
       <r>   -7.0787    1.0000 </r>
       <r>   -6.9163    1.0000 </r>
       <r>   -6.7865    1.0000 </r>
       <r>   -6.6410    1.0000 </r>
       <r>   -6.4146    1.0000 </r>
       <r>   -6.2258    1.0000 </r>
       <r>   -6.1033    1.0000 </r>
       <r>   -6.0182    1.0000 </r>
       <r>   -5.8826    1.0000 </r>
       <r>   -5.5306    1.0000 </r>
       <r>   -5.5003    1.0000 </r>
       <r>   -5.2326    1.0000 </r>
       <r>   -5.1305    1.0000 </r>
       <r>   -4.9197    1.0000 </r>
       <r>   -4.8639    1.0000 </r>
       <r>   -4.7243    1.0000 </r>
       <r>   -4.5648    1.0000 </r>
       <r>   -4.4675    1.0000 </r>
       <r>   -4.3051    1.0000 </r>
       <r>   -4.2715    1.0000 </r>
       <r>   -4.0772    1.0000 </r>
       <r>   -3.9549    1.0000 </r>
       <r>   -3.7312    1.0000 </r>
       <r>   -3.7307    1.0000 </r>
       <r>   -3.1810    1.0000 </r>
       <r>   -3.0287    1.0000 </r>
       <r>   -2.8535    1.0000 </r>
       <r>   -2.8308    1.0000 </r>
       <r>   -2.5741    1.0000 </r>
       <r>   -2.3983    1.0000 </r>
       <r>   -2.2938    1.0000 </r>
       <r>   -2.1005    1.0000 </r>
       <r>   -1.8437    1.0000 </r>
       <r>   -1.6583    1.0000 </r>
       <r>   -1.5748    1.0000 </r>
       <r>   -1.2859    1.0000 </r>
       <r>   -1.1462    1.0000 </r>
       <r>   -0.9218    1.0000 </r>
       <r>   -0.6881    1.0000 </r>
       <r>   -0.5792    1.0000 </r>
       <r>   -0.4421    1.0000 </r>
       <r>   -0.4418    1.0000 </r>
       <r>   -0.3656    1.0000 </r>
       <r>   -0.2431    1.0000 </r>
       <r>   -0.0374    1.0000 </r>
       <r>   -0.0281    1.0000 </r>
       <r>    0.0246    1.0000 </r>
       <r>    0.1780    1.0000 </r>
       <r>    0.1782    1.0000 </r>
       <r>    0.2727    1.0000 </r>
       <r>    0.4160    1.0000 </r>
       <r>    0.4773    1.0000 </r>
       <r>    0.5251    1.0000 </r>
       <r>    0.5948    1.0000 </r>
       <r>    0.7209    1.0000 </r>
       <r>    0.7633    1.0000 </r>
       <r>    0.8898    1.0000 </r>
       <r>    0.9975    1.0000 </r>
       <r>    1.0155    1.0000 </r>
       <r>    1.0774    1.0000 </r>
       <r>    1.1348    1.0000 </r>
       <r>    1.1581    1.0000 </r>
       <r>    1.2516    1.0000 </r>
       <r>    1.3630    1.0000 </r>
       <r>    1.4060    1.0000 </r>
       <r>    1.5543    1.0000 </r>
       <r>    1.6514    1.0000 </r>
       <r>    1.6870    1.0000 </r>
       <r>    1.8882    1.0000 </r>
       <r>    1.9530    1.0000 </r>
       <r>    2.0953    1.0000 </r>
       <r>    2.1914    1.0000 </r>
       <r>    2.2455    1.0000 </r>
       <r>    2.3662    1.0000 </r>
       <r>    2.4246    1.0000 </r>
       <r>    2.5625    1.0000 </r>
       <r>    2.8455    1.0000 </r>
       <r>    2.9003    1.0000 </r>
       <r>    2.9584    1.0000 </r>
       <r>    3.0182    1.0000 </r>
       <r>    3.1678    1.0000 </r>
       <r>    3.2292    1.0000 </r>
       <r>    3.3132    1.0000 </r>
       <r>    3.5961    1.0000 </r>
       <r>    3.7772    0.0000 </r>
       <r>    3.7807    0.0000 </r>
       <r>    3.9074    0.0000 </r>
       <r>    4.0552    0.0000 </r>
       <r>    4.1861    0.0000 </r>
       <r>    4.1893    0.0000 </r>
       <r>    4.4281    0.0000 </r>
       <r>    4.5298    0.0000 </r>
       <r>    4.5301    0.0000 </r>
       <r>    4.7150    0.0000 </r>
       <r>    4.7239    0.0000 </r>
       <r>    4.8072    0.0000 </r>
       <r>    4.9347    0.0000 </r>
       <r>    5.0054    0.0000 </r>
       <r>    5.1474    0.0000 </r>
       <r>    5.3084    0.0000 </r>
       <r>    5.3456    0.0000 </r>
       <r>    5.4460    0.0000 </r>
       <r>    5.6032    0.0000 </r>
       <r>    5.6561    0.0000 </r>
      </set>
      <set comment="kpoint 8">
       <r>  -11.4171    1.0000 </r>
       <r>  -10.6082    1.0000 </r>
       <r>   -9.8995    1.0000 </r>
       <r>   -8.7715    1.0000 </r>
       <r>   -8.5901    1.0000 </r>
       <r>   -8.3784    1.0000 </r>
       <r>   -8.0434    1.0000 </r>
       <r>   -7.8435    1.0000 </r>
       <r>   -7.6364    1.0000 </r>
       <r>   -7.4077    1.0000 </r>
       <r>   -7.0892    1.0000 </r>
       <r>   -7.0343    1.0000 </r>
       <r>   -7.0072    1.0000 </r>
       <r>   -6.9450    1.0000 </r>
       <r>   -6.8169    1.0000 </r>
       <r>   -6.8063    1.0000 </r>
       <r>   -6.3255    1.0000 </r>
       <r>   -6.1568    1.0000 </r>
       <r>   -6.1416    1.0000 </r>
       <r>   -6.0525    1.0000 </r>
       <r>   -5.9229    1.0000 </r>
       <r>   -5.5730    1.0000 </r>
       <r>   -5.4990    1.0000 </r>
       <r>   -5.2879    1.0000 </r>
       <r>   -5.2527    1.0000 </r>
       <r>   -5.2452    1.0000 </r>
       <r>   -5.2102    1.0000 </r>
       <r>   -4.9041    1.0000 </r>
       <r>   -4.8038    1.0000 </r>
       <r>   -4.7368    1.0000 </r>
       <r>   -4.4354    1.0000 </r>
       <r>   -4.1348    1.0000 </r>
       <r>   -3.9347    1.0000 </r>
       <r>   -3.7471    1.0000 </r>
       <r>   -3.6479    1.0000 </r>
       <r>   -3.5222    1.0000 </r>
       <r>   -3.4922    1.0000 </r>
       <r>   -3.4068    1.0000 </r>
       <r>   -3.0864    1.0000 </r>
       <r>   -2.7739    1.0000 </r>
       <r>   -2.4893    1.0000 </r>
       <r>   -2.3452    1.0000 </r>
       <r>   -2.2093    1.0000 </r>
       <r>   -2.0136    1.0000 </r>
       <r>   -1.8692    1.0000 </r>
       <r>   -1.5083    1.0000 </r>
       <r>   -1.4054    1.0000 </r>
       <r>   -1.0473    1.0000 </r>
       <r>   -0.7908    1.0000 </r>
       <r>   -0.7196    1.0000 </r>
       <r>   -0.6879    1.0000 </r>
       <r>   -0.4196    1.0000 </r>
       <r>   -0.4165    1.0000 </r>
       <r>   -0.3138    1.0000 </r>
       <r>   -0.2622    1.0000 </r>
       <r>   -0.0760    1.0000 </r>
       <r>   -0.0610    1.0000 </r>
       <r>   -0.0494    1.0000 </r>
       <r>    0.0901    1.0000 </r>
       <r>    0.1621    1.0000 </r>
       <r>    0.3298    1.0000 </r>
       <r>    0.3413    1.0000 </r>
       <r>    0.5056    1.0000 </r>
       <r>    0.5947    1.0000 </r>
       <r>    0.6349    1.0000 </r>
       <r>    0.6968    1.0000 </r>
       <r>    0.7185    1.0000 </r>
       <r>    0.9567    1.0000 </r>
       <r>    0.9702    1.0000 </r>
       <r>    0.9887    1.0000 </r>
       <r>    1.0054    1.0000 </r>
       <r>    1.1573    1.0000 </r>
       <r>    1.1602    1.0000 </r>
       <r>    1.3651    1.0000 </r>
       <r>    1.4199    1.0000 </r>
       <r>    1.5513    1.0000 </r>
       <r>    1.5883    1.0000 </r>
       <r>    1.6229    1.0000 </r>
       <r>    1.6877    1.0000 </r>
       <r>    1.7246    1.0000 </r>
       <r>    1.8831    1.0000 </r>
       <r>    1.9504    1.0000 </r>
       <r>    2.0248    1.0000 </r>
       <r>    2.1375    1.0000 </r>
       <r>    2.2360    1.0000 </r>
       <r>    2.2605    1.0000 </r>
       <r>    2.4166    1.0000 </r>
       <r>    2.5660    1.0000 </r>
       <r>    2.6839    1.0000 </r>
       <r>    2.8038    1.0000 </r>
       <r>    2.9625    1.0000 </r>
       <r>    2.9825    1.0000 </r>
       <r>    3.0216    1.0000 </r>
       <r>    3.1173    1.0000 </r>
       <r>    3.2155    1.0000 </r>
       <r>    3.3619    1.0000 </r>
       <r>    3.3842    1.0000 </r>
       <r>    3.6502    1.0000 </r>
       <r>    3.7279    0.0001 </r>
       <r>    4.0178    0.0000 </r>
       <r>    4.0657    0.0000 </r>
       <r>    4.1958    0.0000 </r>
       <r>    4.2783    0.0000 </r>
       <r>    4.3991    0.0000 </r>
       <r>    4.4655    0.0000 </r>
       <r>    4.6305    0.0000 </r>
       <r>    4.6956    0.0000 </r>
       <r>    4.8587    0.0000 </r>
       <r>    4.8942    0.0000 </r>
       <r>    5.0264    0.0000 </r>
       <r>    5.0497    0.0000 </r>
       <r>    5.1946    0.0000 </r>
       <r>    5.2587    0.0000 </r>
       <r>    5.2957    0.0000 </r>
       <r>    5.3782    0.0000 </r>
       <r>    5.4010    0.0000 </r>
      </set>
      <set comment="kpoint 9">
       <r>  -11.3230    1.0000 </r>
       <r>  -10.7602    1.0000 </r>
       <r>   -9.7684    1.0000 </r>
       <r>   -8.8012    1.0000 </r>
       <r>   -8.6638    1.0000 </r>
       <r>   -8.4344    1.0000 </r>
       <r>   -8.0376    1.0000 </r>
       <r>   -7.9007    1.0000 </r>
       <r>   -7.6238    1.0000 </r>
       <r>   -7.5881    1.0000 </r>
       <r>   -7.3068    1.0000 </r>
       <r>   -7.1968    1.0000 </r>
       <r>   -6.9181    1.0000 </r>
       <r>   -6.7405    1.0000 </r>
       <r>   -6.7087    1.0000 </r>
       <r>   -6.6317    1.0000 </r>
       <r>   -6.3592    1.0000 </r>
       <r>   -6.2462    1.0000 </r>
       <r>   -6.1372    1.0000 </r>
       <r>   -6.0539    1.0000 </r>
       <r>   -5.9246    1.0000 </r>
       <r>   -5.9233    1.0000 </r>
       <r>   -5.5944    1.0000 </r>
       <r>   -5.3277    1.0000 </r>
       <r>   -5.2441    1.0000 </r>
       <r>   -5.0366    1.0000 </r>
       <r>   -4.8979    1.0000 </r>
       <r>   -4.6598    1.0000 </r>
       <r>   -4.5108    1.0000 </r>
       <r>   -4.4272    1.0000 </r>
       <r>   -4.2607    1.0000 </r>
       <r>   -4.0231    1.0000 </r>
       <r>   -3.9051    1.0000 </r>
       <r>   -3.8664    1.0000 </r>
       <r>   -3.5807    1.0000 </r>
       <r>   -3.5422    1.0000 </r>
       <r>   -3.2677    1.0000 </r>
       <r>   -2.9818    1.0000 </r>
       <r>   -2.9423    1.0000 </r>
       <r>   -2.7356    1.0000 </r>
       <r>   -2.7028    1.0000 </r>
       <r>   -2.7016    1.0000 </r>
       <r>   -2.3329    1.0000 </r>
       <r>   -2.2379    1.0000 </r>
       <r>   -1.8160    1.0000 </r>
       <r>   -1.8125    1.0000 </r>
       <r>   -1.4941    1.0000 </r>
       <r>   -1.3102    1.0000 </r>
       <r>   -1.0844    1.0000 </r>
       <r>   -1.0623    1.0000 </r>
       <r>   -0.7026    1.0000 </r>
       <r>   -0.4965    1.0000 </r>
       <r>   -0.4053    1.0000 </r>
       <r>   -0.3175    1.0000 </r>
       <r>   -0.2726    1.0000 </r>
       <r>   -0.1442    1.0000 </r>
       <r>   -0.0899    1.0000 </r>
       <r>    0.1335    1.0000 </r>
       <r>    0.1491    1.0000 </r>
       <r>    0.2281    1.0000 </r>
       <r>    0.3261    1.0000 </r>
       <r>    0.3351    1.0000 </r>
       <r>    0.4567    1.0000 </r>
       <r>    0.5025    1.0000 </r>
       <r>    0.5196    1.0000 </r>
       <r>    0.5359    1.0000 </r>
       <r>    0.7243    1.0000 </r>
       <r>    0.7672    1.0000 </r>
       <r>    0.7733    1.0000 </r>
       <r>    0.8217    1.0000 </r>
       <r>    0.9391    1.0000 </r>
       <r>    0.9729    1.0000 </r>
       <r>    1.2035    1.0000 </r>
       <r>    1.2471    1.0000 </r>
       <r>    1.3134    1.0000 </r>
       <r>    1.3486    1.0000 </r>
       <r>    1.4390    1.0000 </r>
       <r>    1.5788    1.0000 </r>
       <r>    1.6281    1.0000 </r>
       <r>    1.6499    1.0000 </r>
       <r>    1.8217    1.0000 </r>
       <r>    1.8318    1.0000 </r>
       <r>    1.9198    1.0000 </r>
       <r>    1.9853    1.0000 </r>
       <r>    2.0584    1.0000 </r>
       <r>    2.2053    1.0000 </r>
       <r>    2.3352    1.0000 </r>
       <r>    2.6548    1.0000 </r>
       <r>    2.7935    1.0000 </r>
       <r>    2.8575    1.0000 </r>
       <r>    3.0493    1.0000 </r>
       <r>    3.2052    1.0000 </r>
       <r>    3.3160    1.0000 </r>
       <r>    3.3822    1.0000 </r>
       <r>    3.4191    1.0000 </r>
       <r>    3.5401    1.0000 </r>
       <r>    3.6334    1.0000 </r>
       <r>    3.7775    0.0000 </r>
       <r>    3.8847    0.0000 </r>
       <r>    3.9995    0.0000 </r>
       <r>    4.1322    0.0000 </r>
       <r>    4.2999    0.0000 </r>
       <r>    4.4164    0.0000 </r>
       <r>    4.4986    0.0000 </r>
       <r>    4.5552    0.0000 </r>
       <r>    4.7469    0.0000 </r>
       <r>    4.7771    0.0000 </r>
       <r>    4.8664    0.0000 </r>
       <r>    5.0243    0.0000 </r>
       <r>    5.0483    0.0000 </r>
       <r>    5.1650    0.0000 </r>
       <r>    5.2715    0.0000 </r>
       <r>    5.3194    0.0000 </r>
       <r>    5.3917    0.0000 </r>
       <r>    5.6569    0.0000 </r>
       <r>    5.7025    0.0000 </r>
      </set>
      <set comment="kpoint 10">
       <r>  -11.0688    1.0000 </r>
       <r>  -11.0687    1.0000 </r>
       <r>   -9.3837    1.0000 </r>
       <r>   -9.3821    1.0000 </r>
       <r>   -8.3437    1.0000 </r>
       <r>   -8.3325    1.0000 </r>
       <r>   -8.1496    1.0000 </r>
       <r>   -8.0594    1.0000 </r>
       <r>   -7.7838    1.0000 </r>
       <r>   -7.6393    1.0000 </r>
       <r>   -7.1437    1.0000 </r>
       <r>   -7.1229    1.0000 </r>
       <r>   -6.9945    1.0000 </r>
       <r>   -6.9632    1.0000 </r>
       <r>   -6.8492    1.0000 </r>
       <r>   -6.5661    1.0000 </r>
       <r>   -6.4362    1.0000 </r>
       <r>   -6.4066    1.0000 </r>
       <r>   -6.1388    1.0000 </r>
       <r>   -6.0907    1.0000 </r>
       <r>   -5.8955    1.0000 </r>
       <r>   -5.7485    1.0000 </r>
       <r>   -5.2297    1.0000 </r>
       <r>   -5.2163    1.0000 </r>
       <r>   -5.0225    1.0000 </r>
       <r>   -5.0188    1.0000 </r>
       <r>   -4.6960    1.0000 </r>
       <r>   -4.6872    1.0000 </r>
       <r>   -4.3468    1.0000 </r>
       <r>   -4.2902    1.0000 </r>
       <r>   -4.0521    1.0000 </r>
       <r>   -3.9461    1.0000 </r>
       <r>   -3.8106    1.0000 </r>
       <r>   -3.7863    1.0000 </r>
       <r>   -3.4556    1.0000 </r>
       <r>   -3.3795    1.0000 </r>
       <r>   -3.2889    1.0000 </r>
       <r>   -3.2305    1.0000 </r>
       <r>   -3.0813    1.0000 </r>
       <r>   -3.0249    1.0000 </r>
       <r>   -2.6695    1.0000 </r>
       <r>   -2.5648    1.0000 </r>
       <r>   -2.2359    1.0000 </r>
       <r>   -2.1453    1.0000 </r>
       <r>   -1.9611    1.0000 </r>
       <r>   -1.9610    1.0000 </r>
       <r>   -1.5355    1.0000 </r>
       <r>   -1.5100    1.0000 </r>
[...]
       <r>     4.8989    22.3151   215.0968 </r>
       <r>     4.9623    18.6701   216.2805 </r>
       <r>     5.0257    28.4404   218.0836 </r>
       <r>     5.0891    15.6517   219.0766 </r>
       <r>     5.1525    14.4266   219.9914 </r>
       <r>     5.2159    25.1143   221.5836 </r>
       <r>     5.2793    29.9429   223.4821 </r>
       <r>     5.3427    24.4035   225.0297 </r>
       <r>     5.4061    14.3687   225.9416 </r>
       <r>     5.4695    29.7626   227.8285 </r>
       <r>     5.5329    10.6635   228.5057 </r>
       <r>     5.5963    11.2588   229.2201 </r>
       <r>     5.6597    20.7304   230.5347 </r>
       <r>     5.7231    14.2384   231.4374 </r>
       <r>     5.7865     5.3543   231.7772 </r>
       <r>     5.8499     1.1553   231.8510 </r>
       <r>     5.9133     2.3499   232.0000 </r>
       <r>     5.9767     0.0000   232.0000 </r>
       <r>     6.0401     0.0000   232.0000 </r>
       <r>     6.1035     0.0000   232.0000 </r>
       <r>     6.1669     0.0000   232.0000 </r>
       <r>     6.2303     0.0000   232.0000 </r>
       <r>     6.2937     0.0000   232.0000 </r>
       <r>     6.3571     0.0000   232.0000 </r>
       <r>     6.4205     0.0000   232.0000 </r>
       <r>     6.4839     0.0000   232.0000 </r>
       <r>     6.5473     0.0000   232.0000 </r>
       <r>     6.6107     0.0000   232.0000 </r>
       <r>     6.6741     0.0000   232.0000 </r>
       <r>     6.7375     0.0000   232.0000 </r>
      </set>
      <set comment="spin 2">
       <r>   -12.2822     0.0000     0.0000 </r>
       <r>   -12.2188     0.0000     0.0000 </r>
       <r>   -12.1554     0.0000     0.0000 </r>
       <r>   -12.0920     0.0000     0.0000 </r>
       <r>   -12.0286     0.0000     0.0000 </r>
       <r>   -11.9652     0.0000     0.0000 </r>
       <r>   -11.9018     0.0000     0.0000 </r>
       <r>   -11.8384     0.0000     0.0000 </r>
       <r>   -11.7750     0.0000     0.0000 </r>
       <r>   -11.7116     0.0000     0.0000 </r>
       <r>   -11.6482     0.0000     0.0000 </r>
       <r>   -11.5849     0.0000     0.0000 </r>
       <r>   -11.5215     0.0000     0.0000 </r>
       <r>   -11.4581     0.0000     0.0000 </r>
       <r>   -11.3947     7.7362     0.4905 </r>
       <r>   -11.3313     0.3383     0.5119 </r>
       <r>   -11.2679    15.5851     1.5000 </r>
       <r>   -11.2045     0.0000     1.5000 </r>
       <r>   -11.1411     0.0000     1.5000 </r>
       <r>   -11.0777     0.1561     1.5099 </r>
       <r>   -11.0143    15.6170     2.5000 </r>
       <r>   -10.9509     0.0000     2.5000 </r>
       <r>   -10.8875     0.0000     2.5000 </r>
       <r>   -10.8241     0.0000     2.5000 </r>
       <r>   -10.7607     2.0281     2.6286 </r>
       <r>   -10.6973    13.7450     3.5000 </r>
       <r>   -10.6339     0.0000     3.5000 </r>
       <r>   -10.5705     7.8865     4.0000 </r>
       <r>   -10.5071     0.0000     4.0000 </r>
       <r>   -10.4437     0.0000     4.0000 </r>
       <r>   -10.3803     0.0000     4.0000 </r>
       <r>   -10.3169     0.0000     4.0000 </r>
       <r>   -10.2535     0.0000     4.0000 </r>
       <r>   -10.1901     0.0000     4.0000 </r>
       <r>   -10.1267     0.0000     4.0000 </r>
       <r>   -10.0633     0.0000     4.0000 </r>
       <r>    -9.9999     0.0000     4.0000 </r>
       <r>    -9.9365     0.0000     4.0000 </r>
       <r>    -9.8731     0.2712     4.0172 </r>
       <r>    -9.8097     7.6154     4.5000 </r>
       <r>    -9.7463     0.1363     4.5086 </r>
       <r>    -9.6829    15.6368     5.5000 </r>
       <r>    -9.6195     0.0000     5.5000 </r>
       <r>    -9.5561     0.0000     5.5000 </r>
       <r>    -9.4927     0.0000     5.5000 </r>
       <r>    -9.4293     0.0000     5.5000 </r>
       <r>    -9.3659     0.0516     5.5033 </r>
       <r>    -9.3025    15.7215     6.5000 </r>
       <r>    -9.2391     0.0000     6.5000 </r>
       <r>    -9.1757     0.0000     6.5000 </r>
       <r>    -9.1123     0.0000     6.5000 </r>
       <r>    -9.0489     0.0000     6.5000 </r>
       <r>    -8.9855     0.0000     6.5000 </r>
       <r>    -8.9221     0.0000     6.5000 </r>
       <r>    -8.8587     0.0000     6.5000 </r>
       <r>    -8.7953     0.0711     6.5045 </r>
       <r>    -8.7319    22.7317     7.9457 </r>
       <r>    -8.6685     2.0792     8.0775 </r>
       <r>    -8.6051    15.0108     9.0292 </r>
       <r>    -8.5417     3.9212     9.2778 </r>
       <r>    -8.4783     6.0260     9.6598 </r>
       <r>    -8.4149     8.6645    10.2091 </r>
       <r>    -8.3515     5.8492    10.5800 </r>
       <r>    -8.2881    21.3416    11.9330 </r>
       <r>    -8.2247     2.8749    12.1153 </r>
       <r>    -8.1613     3.4375    12.3333 </r>
       <r>    -8.0979    10.0866    12.9731 </r>
       <r>    -8.0345    11.6724    13.7134 </r>
       <r>    -7.9711     4.1360    13.9757 </r>
       <r>    -7.9077     5.0130    14.2935 </r>
       <r>    -7.8443    17.3272    15.3920 </r>
       <r>    -7.7809     7.4300    15.8631 </r>
       <r>    -7.7175     2.7648    16.0390 </r>
       <r>    -7.6541     3.0241    16.2307 </r>
       <r>    -7.5907    21.4103    17.5881 </r>
       <r>    -7.5273    15.4587    18.5684 </r>
       <r>    -7.4639    14.1886    19.4680 </r>
       <r>    -7.4005     3.3784    19.6827 </r>
       <r>    -7.3371     7.5987    20.1645 </r>
       <r>    -7.2737    13.1091    20.9967 </r>
       <r>    -7.2103    11.2097    21.7080 </r>
       <r>    -7.1469    14.1082    22.6025 </r>
       <r>    -7.0835    13.3617    23.4500 </r>
       <r>    -7.0201    18.3254    24.6118 </r>
       <r>    -6.9567    14.6910    25.5434 </r>
       <r>    -6.8933    20.6062    26.8499 </r>
       <r>    -6.8299    17.9063    27.9856 </r>
       <r>    -6.7665    15.6862    28.9801 </r>
       <r>    -6.7031    17.5724    30.0942 </r>
       <r>    -6.6397     9.0753    30.6709 </r>
       <r>    -6.5763    10.9862    31.3679 </r>
       <r>    -6.5129    15.4538    32.3477 </r>
       <r>    -6.4495     8.2091    32.8686 </r>
       <r>    -6.3861    13.9428    33.7525 </r>
       <r>    -6.3227     9.1875    34.3350 </r>
       <r>    -6.2593     4.3775    34.6126 </r>
       <r>    -6.1959     8.2722    35.1370 </r>
       <r>    -6.1325    14.9911    36.0875 </r>
       <r>    -6.0691    29.9829    37.9884 </r>
       <r>    -6.0057    21.2031    39.3329 </r>
       <r>    -5.9423    20.4652    40.6308 </r>
       <r>    -5.8789    22.4654    42.0551 </r>
       <r>    -5.8155    12.9371    42.8756 </r>
       <r>    -5.7521     3.7142    43.1111 </r>
       <r>    -5.6887     5.1390    43.4369 </r>
       <r>    -5.6253     0.1189    43.4445 </r>
       <r>    -5.5619    13.2534    44.2848 </r>
       <r>    -5.4985     9.3476    44.8778 </r>
       <r>    -5.4351     7.8558    45.3761 </r>
       <r>    -5.3717     6.9108    45.8145 </r>
       <r>    -5.3083     9.9784    46.4480 </r>
       <r>    -5.2449    13.2375    47.2875 </r>
       <r>    -5.1815    24.2533    48.8251 </r>
       <r>    -5.1181     6.6395    49.2465 </r>
       <r>    -5.0547     4.0306    49.5021 </r>
       <r>    -4.9913    13.8580    50.3806 </r>
       <r>    -4.9279    19.3629    51.6084 </r>
       <r>    -4.8646    18.5201    52.7836 </r>
       <r>    -4.8012    16.7951    53.8492 </r>
       <r>    -4.7378    14.5165    54.7697 </r>
       <r>    -4.6744    14.3025    55.6767 </r>
       <r>    -4.6110     5.4658    56.0232 </r>
       <r>    -4.5476    11.7218    56.7664 </r>
       <r>    -4.4842     8.0205    57.2749 </r>
       <r>    -4.4208    27.4474    59.0150 </r>
       <r>    -4.3574    16.8521    60.0836 </r>
       <r>    -4.2940     6.0103    60.4646 </r>
       <r>    -4.2306     9.4918    61.0664 </r>
       <r>    -4.1672     9.7753    61.6862 </r>
       <r>    -4.1038     9.1630    62.2678 </r>
       <r>    -4.0404     9.8906    62.8949 </r>
       <r>    -3.9770    17.0153    63.9737 </r>
       <r>    -3.9136    18.4199    65.1417 </r>
       <r>    -3.8502    16.3395    66.1783 </r>
       <r>    -3.7868     6.9014    66.6174 </r>
       <r>    -3.7234    17.0085    67.6957 </r>
       <r>    -3.6600    15.4072    68.6725 </r>
       <r>    -3.5966     9.0451    69.2459 </r>
       <r>    -3.5332    14.8656    70.1887 </r>
       <r>    -3.4698    25.5742    71.8101 </r>
       <r>    -3.4064    13.7500    72.6824 </r>
       <r>    -3.3430    12.5473    73.4779 </r>
       <r>    -3.2796     8.5133    74.0181 </r>
       <r>    -3.2162    11.9851    74.7787 </r>
       <r>    -3.1528     9.5885    75.3883 </r>
       <r>    -3.0894    11.2679    76.1028 </r>
       <r>    -3.0260    10.8741    76.7931 </r>
       <r>    -2.9626    10.2159    77.4408 </r>
       <r>    -2.8992    15.7717    78.4407 </r>
       <r>    -2.8358     6.5275    78.8549 </r>
       <r>    -2.7724    10.1939    79.5013 </r>
       <r>    -2.7090     9.4069    80.0977 </r>
       <r>    -2.6456     9.4903    80.6994 </r>
       <r>    -2.5822    13.0992    81.5299 </r>
       <r>    -2.5188    19.2729    82.7523 </r>
       <r>    -2.4554     5.5621    83.1052 </r>
       <r>    -2.3920     7.8997    83.6062 </r>
       <r>    -2.3286     7.3548    84.0727 </r>
       <r>    -2.2652    11.7044    84.8150 </r>
       <r>    -2.2018    13.1634    85.6496 </r>
       <r>    -2.1384     8.9322    86.2162 </r>
       <r>    -2.0750    16.3679    87.2540 </r>
       <r>    -2.0116     2.1698    87.3918 </r>
       <r>    -1.9482    13.2555    88.2322 </r>
       <r>    -1.8848     3.7351    88.4690 </r>
       <r>    -1.8214    16.6009    89.5215 </r>
       <r>    -1.7580    11.2293    90.2341 </r>
       <r>    -1.6946     5.1880    90.5630 </r>
       <r>    -1.6312     9.2493    91.1494 </r>
       <r>    -1.5678     7.9821    91.6555 </r>
       <r>    -1.5044    16.9456    92.7298 </r>
       <r>    -1.4410     7.7706    93.2233 </r>
       <r>    -1.3776    14.3853    94.1353 </r>
       <r>    -1.3142     9.1190    94.7148 </r>
       <r>    -1.2508    11.2158    95.4260 </r>
       <r>    -1.1874     3.0223    95.6176 </r>
       <r>    -1.1240     6.4157    96.0245 </r>
       <r>    -1.0606    13.0016    96.8488 </r>
       <r>    -0.9972    14.1976    97.7496 </r>
       <r>    -0.9338     4.3747    98.0270 </r>
       <r>    -0.8704    17.2099    99.1186 </r>
       <r>    -0.8070    12.8719    99.9349 </r>
       <r>    -0.7436     7.2835   100.3969 </r>
       <r>    -0.6802    10.9281   101.0897 </r>
       <r>    -0.6168    18.0401   102.2335 </r>
       <r>    -0.5534    17.3913   103.3361 </r>
       <r>    -0.4900    10.1732   103.9811 </r>
       <r>    -0.4266    19.3234   105.2064 </r>
       <r>    -0.3632    30.6508   107.1501 </r>
       <r>    -0.2998    27.7578   108.9108 </r>
       <r>    -0.2364    23.9692   110.4315 </r>
       <r>    -0.1730    11.0245   111.1308 </r>
       <r>    -0.1096    19.3033   112.3546 </r>
       <r>    -0.0462    27.1831   114.0787 </r>
       <r>     0.0172    34.2608   116.2510 </r>
       <r>     0.0806    18.4055   117.4193 </r>
       <r>     0.1440    20.4828   118.7179 </r>
       <r>     0.2074    31.2064   120.6964 </r>
       <r>     0.2708    19.0124   121.9023 </r>
       <r>     0.3342    23.6031   123.3988 </r>
       <r>     0.3976    27.8873   125.1668 </r>
       <r>     0.4610    25.9719   126.8136 </r>
       <r>     0.5244    30.5112   128.7483 </r>
       <r>     0.5878    29.1830   130.5988 </r>
       <r>     0.6512    20.0673   131.8726 </r>
       <r>     0.7146    26.6361   133.5617 </r>
       <r>     0.7780    24.6010   135.1215 </r>
       <r>     0.8414    20.6507   136.4308 </r>
       <r>     0.9048    16.1378   137.4542 </r>
       <r>     0.9682    22.2734   138.8667 </r>
       <r>     1.0316    30.1766   140.7800 </r>
       <r>     1.0950    27.4215   142.5188 </r>
       <r>     1.1584    21.9135   143.9085 </r>
       <r>     1.2218    29.8221   145.7993 </r>
       <r>     1.2852    22.9288   147.2537 </r>
       <r>     1.3486    24.1687   148.7864 </r>
       <r>     1.4120    31.2313   150.7671 </r>
       <r>     1.4754    23.2640   152.2443 </r>
       <r>     1.5388    22.9240   153.6985 </r>
       <r>     1.6022    19.8686   154.9584 </r>
       <r>     1.6656    29.0115   156.7979 </r>
       <r>     1.7290    27.6489   158.5529 </r>
       <r>     1.7924    15.7122   159.5491 </r>
       <r>     1.8557    30.0307   161.4540 </r>
       <r>     1.9191    19.8218   162.7107 </r>
       <r>     1.9825    31.6921   164.7202 </r>
       <r>     2.0459    16.2100   165.7498 </r>
       <r>     2.1093    13.3285   166.5950 </r>
       <r>     2.1727    17.9584   167.7335 </r>
       <r>     2.2361    16.7174   168.7938 </r>
       <r>     2.2995    23.0248   170.2539 </r>
       <r>     2.3629    13.4332   171.1056 </r>
       <r>     2.4263    23.4461   172.5921 </r>
       <r>     2.4897    19.7681   173.8454 </r>
       <r>     2.5531    11.7728   174.5919 </r>
       <r>     2.6165    18.0574   175.7371 </r>
       <r>     2.6799    16.9082   176.8096 </r>
       <r>     2.7433    20.6005   178.1156 </r>
       <r>     2.8067    12.0408   178.8794 </r>
       <r>     2.8701    20.2673   180.1653 </r>
       <r>     2.9335    10.8283   180.8518 </r>
       <r>     2.9969    16.2746   181.8837 </r>
       <r>     3.0603    12.3868   182.6690 </r>
       <r>     3.1237    19.3171   183.8937 </r>
       <r>     3.1871    16.0363   184.9104 </r>
       <r>     3.2505    19.9589   186.1758 </r>
       <r>     3.3139     7.8709   186.6754 </r>
       <r>     3.3773    22.8943   188.1273 </r>
       <r>     3.4407    15.3117   189.0987 </r>
       <r>     3.5041    10.7066   189.7775 </r>
       <r>     3.5675     8.2723   190.3020 </r>
       <r>     3.6309    19.3488   191.5295 </r>
       <r>     3.6943    19.8098   192.7864 </r>
       <r>     3.7577     7.6267   193.2702 </r>
       <r>     3.8211    24.5213   194.8248 </r>
       <r>     3.8845    21.5352   196.1908 </r>
       <r>     3.9479    16.1929   197.2175 </r>
       <r>     4.0113     8.7614   197.7730 </r>
       <r>     4.0747    13.9269   198.6561 </r>
       <r>     4.1381    16.3641   199.6946 </r>
       <r>     4.2015    21.6934   201.0699 </r>
       <r>     4.2649    20.3683   202.3613 </r>
       <r>     4.3283    20.3929   203.6542 </r>
       <r>     4.3917    15.8743   204.6607 </r>
       <r>     4.4551    14.0618   205.5523 </r>
       <r>     4.5185    22.3151   206.9679 </r>
       <r>     4.5819    22.4947   208.3948 </r>
       <r>     4.6453     7.3630   208.8616 </r>
       <r>     4.7087    23.2175   210.3341 </r>
       <r>     4.7721    22.1319   211.7373 </r>
       <r>     4.8355    21.1779   213.0821 </r>
       <r>     4.8989    27.5004   214.8264 </r>
       <r>     4.9623    15.1862   215.7897 </r>
       <r>     5.0257    25.5881   217.4121 </r>
       <r>     5.0891    22.7829   218.8582 </r>
       <r>     5.1525    12.9662   219.6804 </r>
       <r>     5.2159    20.6604   220.9906 </r>
       <r>     5.2793    27.3675   222.7278 </r>
       <r>     5.3427    27.4487   224.4686 </r>
       <r>     5.4061    18.9928   225.6732 </r>
       <r>     5.4695    28.0043   227.4487 </r>
       <r>     5.5329    14.2198   228.3527 </r>
       <r>     5.5963    10.7331   229.0333 </r>
       <r>     5.6597    16.2861   230.0665 </r>
       <r>     5.7231    18.4740   231.2378 </r>
       <r>     5.7865     7.5064   231.7138 </r>
       <r>     5.8499     1.0036   231.7784 </r>
       <r>     5.9133     3.4960   232.0000 </r>
       <r>     5.9767     0.0000   232.0000 </r>
       <r>     6.0401     0.0000   232.0000 </r>
       <r>     6.1035     0.0000   232.0000 </r>
       <r>     6.1669     0.0000   232.0000 </r>
       <r>     6.2303     0.0000   232.0000 </r>
       <r>     6.2937     0.0000   232.0000 </r>
       <r>     6.3571     0.0000   232.0000 </r>
       <r>     6.4205     0.0000   232.0000 </r>
       <r>     6.4839     0.0000   232.0000 </r>
       <r>     6.5473     0.0000   232.0000 </r>
       <r>     6.6107     0.0000   232.0000 </r>
       <r>     6.6741     0.0000   232.0000 </r>
       <r>     6.7375     0.0000   232.0000 </r>
      </set>
     </set>
    </array>
   </total>
  </dos>
 </calculation>
 <structure name="finalpos" >
  <crystal>
   <varray name="basis" >
    <v>       8.00133800       0.00000000       0.00000000 </v>
    <v>      -4.00066900      12.00200653       0.00000000 </v>
    <v>       0.00000000       0.00000000      11.41337395 </v>
   </varray>
   <i name="volume">   1096.05039368 </i>
   <varray name="rec_basis" >
    <v>       0.12497910       0.04165970       0.00000000 </v>
    <v>       0.00000000       0.08331940       0.00000000 </v>
    <v>       0.00000000       0.00000000       0.08761651 </v>
   </varray>
  </crystal>
  <varray name="positions" >
   <v>       0.00569449       0.99430549       0.00000000 </v>
   <v>       0.17236120       0.82763886       0.24785832 </v>
   <v>       0.33902791       0.66097212       0.49571666 </v>
   <v>       0.67236108       0.32763880       0.00000000 </v>
   <v>       0.83902776       0.16097212       0.24785832 </v>
   <v>       0.00569451       0.99430543       0.49571666 </v>
   <v>       0.33902776       0.66097212       0.00000000 </v>
   <v>       0.50569445       0.49430540       0.24785832 </v>
   <v>       0.67236120       0.32763875       0.49571666 </v>
   <v>       0.08902784       0.16097215       0.12392916 </v>
   <v>       0.25569457       0.99430543       0.37178752 </v>
   <v>       0.42236128       0.82763875       0.61964595 </v>
   <v>       0.75569439       0.49430546       0.12392916 </v>
   <v>       0.92236120       0.32763880       0.37178752 </v>
   <v>       0.08902788       0.16097209       0.61964595 </v>
   <v>       0.42236105       0.82763880       0.12392916 </v>
   <v>       0.58902782       0.66097218       0.37178752 </v>
   <v>       0.75569451       0.49430546       0.61964595 </v>
   <v>       0.50569445       0.99430549       0.00000000 </v>
   <v>       0.67236114       0.82763886       0.24785832 </v>
   <v>       0.83902788       0.66097212       0.49571666 </v>
   <v>       0.17236112       0.32763880       0.00000000 </v>
   <v>       0.33902785       0.16097213       0.24785832 </v>
   <v>       0.50569457       0.99430543       0.49571666 </v>
   <v>       0.83902776       0.66097212       0.00000000 </v>
   <v>       0.00569451       0.49430543       0.24785832 </v>
   <v>       0.17236114       0.32763875       0.49571666 </v>
   <v>       0.58902782       0.16097215       0.12392916 </v>
   <v>       0.75569457       0.99430549       0.37178752 </v>
   <v>       0.92236131       0.82763880       0.61964595 </v>
   <v>       0.25569448       0.49430549       0.12392916 </v>
   <v>       0.42236125       0.32763884       0.37178752 </v>
   <v>       0.58902800       0.16097212       0.61964595 </v>
   <v>       0.92236108       0.82763886       0.12392916 </v>
   <v>       0.08902776       0.66097212       0.37178752 </v>
   <v>       0.25569451       0.49430543       0.61964595 </v>
   <v>       0.31849873       0.09796669       0.70654863 </v>
   <v>       0.20738757       0.37574449       0.78916806 </v>
   <v>       0.09627640       0.65352231       0.87178755 </v>
   <v>       0.81849861       0.09796669       0.70654863 </v>
   <v>       0.70738751       0.37574449       0.78916806 </v>
   <v>       0.59627634       0.65352231       0.87178755 </v>
   <v>       0.01294303       0.98685551       0.74785829 </v>
   <v>       0.90183186       0.26463333       0.83047783 </v>
   <v>       0.79072064       0.54241115       0.91309732 </v>
   <v>       0.51294303       0.98685557       0.74785841 </v>
   <v>       0.40183195       0.26463333       0.83047783 </v>
   <v>       0.29072082       0.54241115       0.91309732 </v>
  </varray>
 </structure>
</modeling>
