Si Bulk DFT energetics calculations using VASP\n
This script is running on comp019.cluster.local in /lustre/home/ah1365/projects/127870/upgrade_report/case_studies/common/structures/interfaces/120_Si72Ge48_011_001_a0.368421_b0.222222_c2.163935_interface6shift4swap7\n
Job started on: Sun  8 Jun 11:00:11 UTC 2025\n
 running   64 mpi-ranks, on    4 nodes
 distrk:  each k-point on   64 cores,    1 groups
 distr:  one band on   16 cores,    4 groups
 vasp.6.4.3 19Mar24 (build Oct 22 2024 11:23:12) complex                        
  
 POSCAR found type information on POSCAR SiGe
 POSCAR found :  2 types and     120 ions
 -----------------------------------------------------------------------------
|                                                                             |
|           W    W    AA    RRRRR   N    N  II  N    N   GGGG   !!!           |
|           W    W   A  A   R    R  NN   N  II  NN   N  G    G  !!!           |
|           W    W  A    A  R    R  N N  N  II  N N  N  G       !!!           |
|           W WW W  AAAAAA  RRRRR   N  N N  II  N  N N  G  GGG   !            |
|           WW  WW  A    A  R   R   N   NN  II  N   NN  G    G                |
|           W    W  A    A  R    R  N    N  II  N    N   GGGG   !!!           |
|                                                                             |
|     You use a magnetic or noncollinear calculation, but did not specify     |
|     the initial magnetic moment with the MAGMOM tag. Note that a            |
|     default of 8.333e-3 will be used for all atoms. This ferromagnetic      |
|     setup may break the symmetry of the crystal, in particular it may       |
|     rule out finding an antiferromagnetic solution. Thence, we              |
|     recommend setting the initial magnetic moment manually or verifying     |
|     carefully that this magnetic setup is desired.                          |
|                                                                             |
 -----------------------------------------------------------------------------

 scaLAPACK will be used
 LDA part: xc-table for (Slater+PW92), standard interpolation
 POSCAR, INCAR and KPOINTS ok, starting setup
 FFT: planning ... GRIDC
 FFT: planning ... GRID_SOFT
 FFT: planning ... GRID
 WAVECAR not read
 entering main loop
       N       E                     dE             d eps       ncg     rms          rms(c)
DAV:   1     0.196710913446E+04    0.19671E+04   -0.21396E+05  6912   0.173E+03
DAV:   2    -0.358831309053E+03   -0.23259E+04   -0.22430E+04  8072   0.215E+02
DAV:   3    -0.575790610023E+03   -0.21696E+03   -0.21054E+03  8528   0.574E+01
DAV:   4    -0.583675065686E+03   -0.78845E+01   -0.77586E+01  8160   0.117E+01
DAV:   5    -0.583971716828E+03   -0.29665E+00   -0.29500E+00  9128   0.224E+00    0.315E+01
DAV:   6    -0.575104351755E+03    0.88674E+01   -0.14115E+01  8328   0.809E+00    0.144E+01
DAV:   7    -0.575268030384E+03   -0.16368E+00   -0.14913E+01  8400   0.904E+00    0.660E+00
DAV:   8    -0.574187297948E+03    0.10807E+01   -0.44035E+00  8440   0.533E+00    0.160E+00
DAV:   9    -0.574251154675E+03   -0.63857E-01   -0.13881E+00  8032   0.169E+00    0.125E+00
DAV:  10    -0.574237952927E+03    0.13202E-01   -0.16007E-01  8048   0.668E-01    0.751E-01
DAV:  11    -0.574242530309E+03   -0.45774E-02   -0.66102E-02  8400   0.455E-01    0.530E-01
DAV:  12    -0.574237277249E+03    0.52531E-02   -0.36833E-02  8600   0.380E-01    0.294E-01
DAV:  13    -0.574236872950E+03    0.40430E-03   -0.10189E-02  8448   0.186E-01    0.172E-01
DAV:  14    -0.574236730639E+03    0.14231E-03   -0.36034E-03  8232   0.102E-01    0.899E-02
DAV:  15    -0.574236751847E+03   -0.21208E-04   -0.98011E-04  7760   0.481E-02    0.673E-02
DAV:  16    -0.574236798006E+03   -0.46159E-04   -0.29989E-04  7856   0.238E-02    0.428E-02
DAV:  17    -0.574236833917E+03   -0.35911E-04   -0.22035E-04  8016   0.177E-02    0.206E-02
DAV:  18    -0.574236847907E+03   -0.13990E-04   -0.57367E-05  8104   0.997E-03    0.170E-02
DAV:  19    -0.574236856627E+03   -0.87202E-05   -0.17231E-05  8024   0.564E-03    0.130E-02
DAV:  20    -0.574236871175E+03   -0.14548E-04   -0.51652E-05  8064   0.769E-03    0.768E-03
DAV:  21    -0.574236878255E+03   -0.70798E-05   -0.26386E-05  8576   0.540E-03    0.665E-03
DAV:  22    -0.574236882554E+03   -0.42986E-05   -0.15644E-05  8312   0.404E-03    0.529E-03
DAV:  23    -0.574236886900E+03   -0.43466E-05   -0.44974E-05  8024   0.670E-03    0.411E-03
DAV:  24    -0.574236887067E+03   -0.16637E-06   -0.68281E-06  8680   0.294E-03    0.357E-03
DAV:  25    -0.574236886939E+03    0.12756E-06   -0.70389E-07  7272   0.102E-03    0.236E-03
DAV:  26    -0.574236886719E+03    0.21966E-06   -0.23523E-07  5096   0.592E-04    0.138E-03
DAV:  27    -0.574236886452E+03    0.26770E-06   -0.18885E-07  4672   0.560E-04    0.872E-04
DAV:  28    -0.574236886329E+03    0.12308E-06   -0.10654E-07  4392   0.411E-04    0.923E-04
DAV:  29    -0.574236886340E+03   -0.11962E-07   -0.62332E-08  4296   0.325E-04
   1 F= -.57423689E+03 E0= -.57423587E+03  d E =-.202883E-02  mag=     1.0000
Job ended on: Sun  8 Jun 11:12:27 UTC 2025\n
