 264 264   0   0
  0.2774202E+02  0.1958175E-08  0.1958175E-08  0.1910025E-08  0.5000000E-15
  1.000000000000000E-004
  CAR 
 Si and Ge interface calculation         
      6.63402875     -9.19166214  301      4.06460799      1.00000000
     -9.192  0.0000E+00  0.0000E+00  0.0000E+00  0.0000E+00
     -9.139  0.0000E+00  0.0000E+00  0.0000E+00  0.0000E+00
     -9.086  0.0000E+00  0.0000E+00  0.0000E+00  0.0000E+00
     -9.033  0.0000E+00  0.0000E+00  0.0000E+00  0.0000E+00
     -8.981  0.0000E+00  0.0000E+00  0.0000E+00  0.0000E+00
     -8.928  0.0000E+00  0.0000E+00  0.0000E+00  0.0000E+00
     -8.875  0.0000E+00  0.0000E+00  0.0000E+00  0.0000E+00
     -8.822  0.0000E+00  0.0000E+00  0.0000E+00  0.0000E+00
     -8.770  0.0000E+00  0.0000E+00  0.0000E+00  0.0000E+00
     -8.717  0.0000E+00  0.0000E+00  0.0000E+00  0.0000E+00
     -8.664  0.0000E+00  0.0000E+00  0.0000E+00  0.0000E+00
     -8.611  0.0000E+00  0.0000E+00  0.0000E+00  0.0000E+00
     -8.559  0.0000E+00  0.0000E+00  0.0000E+00  0.0000E+00
     -8.506  0.9703E-05  0.2893E-05  0.5119E-06  0.1526E-06
     -8.453  0.2384E+02  0.2207E+02  0.1258E+01  0.1164E+01
     -8.400  0.1407E+02  0.1584E+02  0.2000E+01  0.2000E+01
     -8.348  0.0000E+00  0.0000E+00  0.2000E+01  0.2000E+01
     -8.295  0.1725E-04  0.5073E-05  0.2000E+01  0.2000E+01
     -8.242  0.1381E+02  0.1288E+02  0.2728E+01  0.2680E+01
     -8.189  0.1239E+02  0.1249E+02  0.3382E+01  0.3338E+01
     -8.137  0.2572E+02  0.2560E+02  0.4739E+01  0.4689E+01
     -8.084  0.1428E+02  0.1511E+02  0.5492E+01  0.5486E+01
     -8.031  0.9570E+01  0.9633E+01  0.5997E+01  0.5994E+01
     -7.978  0.3764E+02  0.3742E+02  0.7982E+01  0.7968E+01
     -7.926  0.8276E+01  0.7904E+01  0.8419E+01  0.8385E+01
     -7.873  0.2951E+01  0.3119E+01  0.8574E+01  0.8549E+01
     -7.820  0.2673E+02  0.2701E+02  0.9985E+01  0.9974E+01
     -7.767  0.4647E+01  0.3969E+01  0.1023E+02  0.1018E+02
     -7.715  0.2405E+02  0.2489E+02  0.1150E+02  0.1150E+02
     -7.662  0.4099E-01  0.6676E-01  0.1150E+02  0.1150E+02
     -7.609  0.1889E+02  0.1859E+02  0.1250E+02  0.1248E+02
     -7.556  0.1964E+02  0.1966E+02  0.1353E+02  0.1352E+02
     -7.504  0.4204E+02  0.4133E+02  0.1575E+02  0.1570E+02
     -7.451  0.4724E+01  0.5717E+01  0.1600E+02  0.1600E+02
     -7.398  0.1585E+02  0.1481E+02  0.1684E+02  0.1678E+02
     -7.345  0.1263E+02  0.1365E+02  0.1750E+02  0.1750E+02
     -7.293  0.2769E+02  0.2694E+02  0.1896E+02  0.1892E+02
     -7.240  0.3527E+02  0.3447E+02  0.2082E+02  0.2074E+02
     -7.187  0.3537E+02  0.3504E+02  0.2269E+02  0.2259E+02
     -7.134  0.3018E+02  0.2971E+02  0.2428E+02  0.2416E+02
     -7.082  0.2263E+02  0.2417E+02  0.2548E+02  0.2543E+02
     -7.029  0.3764E+02  0.3683E+02  0.2746E+02  0.2737E+02
     -6.976  0.3489E+02  0.3469E+02  0.2930E+02  0.2920E+02
     -6.923  0.3344E+02  0.3469E+02  0.3107E+02  0.3103E+02
     -6.871  0.2962E+02  0.2946E+02  0.3263E+02  0.3259E+02
     -6.818  0.4257E+02  0.4202E+02  0.3487E+02  0.3480E+02
     -6.765  0.3584E+02  0.3567E+02  0.3676E+02  0.3669E+02
     -6.712  0.6371E+02  0.6278E+02  0.4013E+02  0.4000E+02
     -6.660  0.5267E+02  0.5391E+02  0.4290E+02  0.4284E+02
     -6.607  0.1771E+02  0.1722E+02  0.4384E+02  0.4375E+02
     -6.554  0.3277E+02  0.3230E+02  0.4557E+02  0.4545E+02
     -6.501  0.3749E+02  0.3755E+02  0.4754E+02  0.4743E+02
     -6.449  0.5484E+02  0.5598E+02  0.5044E+02  0.5039E+02
     -6.396  0.5544E+02  0.5464E+02  0.5336E+02  0.5327E+02
     -6.343  0.2932E+02  0.2873E+02  0.5491E+02  0.5478E+02
     -6.290  0.3480E+02  0.3446E+02  0.5674E+02  0.5660E+02
     -6.238  0.7364E+02  0.7458E+02  0.6063E+02  0.6054E+02
     -6.185  0.7465E+02  0.7174E+02  0.6457E+02  0.6432E+02
     -6.132  0.4427E+02  0.4774E+02  0.6690E+02  0.6684E+02
     -6.079  0.7551E+02  0.7369E+02  0.7089E+02  0.7073E+02
     -6.027  0.6832E+02  0.6928E+02  0.7449E+02  0.7438E+02
     -5.974  0.6752E+02  0.6739E+02  0.7805E+02  0.7794E+02
     -5.921  0.7083E+02  0.6930E+02  0.8179E+02  0.8159E+02
     -5.868  0.6054E+02  0.6015E+02  0.8498E+02  0.8477E+02
     -5.816  0.6361E+02  0.6524E+02  0.8834E+02  0.8821E+02
     -5.763  0.7720E+02  0.7468E+02  0.9241E+02  0.9215E+02
     -5.710  0.8030E+02  0.8183E+02  0.9665E+02  0.9646E+02
     -5.657  0.1022E+03  0.1007E+03  0.1020E+03  0.1018E+03
     -5.605  0.7162E+02  0.7256E+02  0.1058E+03  0.1056E+03
     -5.552  0.7238E+02  0.7200E+02  0.1096E+03  0.1094E+03
     -5.499  0.7350E+02  0.7485E+02  0.1135E+03  0.1134E+03
     -5.446  0.8106E+02  0.8055E+02  0.1178E+03  0.1176E+03
     -5.393  0.7231E+02  0.7095E+02  0.1216E+03  0.1213E+03
     -5.341  0.6884E+02  0.6961E+02  0.1252E+03  0.1250E+03
     -5.288  0.9526E+02  0.9533E+02  0.1303E+03  0.1300E+03
     -5.235  0.7594E+02  0.7638E+02  0.1343E+03  0.1341E+03
     -5.182  0.5568E+02  0.5592E+02  0.1372E+03  0.1370E+03
     -5.130  0.6790E+02  0.6742E+02  0.1408E+03  0.1406E+03
     -5.077  0.6531E+02  0.6535E+02  0.1442E+03  0.1440E+03
     -5.024  0.7362E+02  0.7361E+02  0.1481E+03  0.1479E+03
     -4.971  0.7776E+02  0.7673E+02  0.1522E+03  0.1520E+03
     -4.919  0.6269E+02  0.6435E+02  0.1555E+03  0.1554E+03
     -4.866  0.7476E+02  0.7440E+02  0.1595E+03  0.1593E+03
     -4.813  0.8604E+02  0.8341E+02  0.1640E+03  0.1637E+03
     -4.760  0.1028E+03  0.1040E+03  0.1694E+03  0.1692E+03
     -4.708  0.1107E+03  0.1091E+03  0.1753E+03  0.1749E+03
     -4.655  0.1183E+03  0.1184E+03  0.1815E+03  0.1812E+03
     -4.602  0.1110E+03  0.1109E+03  0.1874E+03  0.1870E+03
     -4.549  0.9315E+02  0.9164E+02  0.1923E+03  0.1918E+03
     -4.497  0.1197E+03  0.1215E+03  0.1986E+03  0.1983E+03
     -4.444  0.1037E+03  0.1041E+03  0.2041E+03  0.2037E+03
     -4.391  0.1036E+03  0.1018E+03  0.2095E+03  0.2091E+03
     -4.338  0.6625E+02  0.7024E+02  0.2130E+03  0.2128E+03
     -4.286  0.8022E+02  0.7888E+02  0.2172E+03  0.2170E+03
     -4.233  0.7661E+02  0.7596E+02  0.2213E+03  0.2210E+03
     -4.180  0.8525E+02  0.8678E+02  0.2258E+03  0.2256E+03
     -4.127  0.9832E+02  0.9664E+02  0.2310E+03  0.2307E+03
     -4.075  0.4987E+02  0.5283E+02  0.2336E+03  0.2335E+03
     -4.022  0.9210E+02  0.9120E+02  0.2385E+03  0.2383E+03
     -3.969  0.4091E+02  0.4131E+02  0.2406E+03  0.2404E+03
     -3.916  0.4517E+02  0.4615E+02  0.2430E+03  0.2429E+03
     -3.864  0.4226E+02  0.4123E+02  0.2452E+03  0.2451E+03
     -3.811  0.6889E+02  0.6870E+02  0.2489E+03  0.2487E+03
     -3.758  0.5541E+02  0.5318E+02  0.2518E+03  0.2515E+03
     -3.705  0.7506E+02  0.7659E+02  0.2558E+03  0.2555E+03
     -3.653  0.7488E+02  0.7401E+02  0.2597E+03  0.2594E+03
     -3.600  0.6097E+02  0.6075E+02  0.2629E+03  0.2626E+03
     -3.547  0.5258E+02  0.5519E+02  0.2657E+03  0.2655E+03
     -3.494  0.8037E+02  0.7981E+02  0.2699E+03  0.2698E+03
     -3.442  0.7332E+02  0.7306E+02  0.2738E+03  0.2736E+03
     -3.389  0.7059E+02  0.6810E+02  0.2775E+03  0.2772E+03
     -3.336  0.8760E+02  0.8816E+02  0.2821E+03  0.2819E+03
     -3.283  0.7247E+02  0.7227E+02  0.2860E+03  0.2857E+03
     -3.231  0.7220E+02  0.7182E+02  0.2898E+03  0.2895E+03
     -3.178  0.7143E+02  0.7492E+02  0.2935E+03  0.2934E+03
     -3.125  0.7388E+02  0.7011E+02  0.2974E+03  0.2971E+03
     -3.072  0.7364E+02  0.7350E+02  0.3013E+03  0.3010E+03
     -3.020  0.7423E+02  0.7699E+02  0.3052E+03  0.3050E+03
     -2.967  0.7321E+02  0.7289E+02  0.3091E+03  0.3089E+03
     -2.914  0.1069E+03  0.1061E+03  0.3147E+03  0.3145E+03
     -2.861  0.8437E+02  0.8557E+02  0.3192E+03  0.3190E+03
     -2.809  0.8984E+02  0.8570E+02  0.3239E+03  0.3235E+03
     -2.756  0.1133E+03  0.1155E+03  0.3299E+03  0.3296E+03
     -2.703  0.8302E+02  0.8418E+02  0.3343E+03  0.3341E+03
     -2.650  0.9980E+02  0.9876E+02  0.3396E+03  0.3393E+03
     -2.598  0.1059E+03  0.1048E+03  0.3451E+03  0.3448E+03
     -2.545  0.1230E+03  0.1237E+03  0.3516E+03  0.3513E+03
     -2.492  0.1048E+03  0.1044E+03  0.3572E+03  0.3568E+03
     -2.439  0.9993E+02  0.1026E+03  0.3624E+03  0.3622E+03
     -2.387  0.9628E+02  0.9275E+02  0.3675E+03  0.3671E+03
     -2.334  0.9515E+02  0.9684E+02  0.3725E+03  0.3722E+03
     -2.281  0.1129E+03  0.1109E+03  0.3785E+03  0.3781E+03
     -2.228  0.8167E+02  0.8644E+02  0.3828E+03  0.3826E+03
     -2.176  0.3768E+02  0.3985E+02  0.3848E+03  0.3847E+03
     -2.123  0.4197E+02  0.3949E+02  0.3870E+03  0.3868E+03
     -2.070  0.6398E+02  0.6289E+02  0.3904E+03  0.3901E+03
     -2.017  0.8256E+02  0.8041E+02  0.3947E+03  0.3944E+03
     -1.965  0.1040E+03  0.1047E+03  0.4002E+03  0.3999E+03
     -1.912  0.1017E+03  0.1026E+03  0.4056E+03  0.4053E+03
     -1.859  0.6434E+02  0.6548E+02  0.4090E+03  0.4088E+03
     -1.806  0.6784E+02  0.6620E+02  0.4126E+03  0.4123E+03
     -1.754  0.1078E+03  0.1067E+03  0.4182E+03  0.4179E+03
     -1.701  0.9282E+02  0.9501E+02  0.4231E+03  0.4229E+03
     -1.648  0.9854E+02  0.9875E+02  0.4283E+03  0.4281E+03
     -1.595  0.7369E+02  0.7019E+02  0.4322E+03  0.4318E+03
     -1.543  0.8867E+02  0.9377E+02  0.4369E+03  0.4368E+03
     -1.490  0.5727E+02  0.5596E+02  0.4399E+03  0.4397E+03
     -1.437  0.4040E+02  0.4236E+02  0.4421E+03  0.4420E+03
     -1.384  0.8307E+02  0.8103E+02  0.4464E+03  0.4462E+03
     -1.332  0.6701E+02  0.6899E+02  0.4500E+03  0.4499E+03
     -1.279  0.2764E+02  0.2626E+02  0.4514E+03  0.4513E+03
     -1.226  0.6350E+02  0.6259E+02  0.4548E+03  0.4546E+03
     -1.173  0.5190E+02  0.5464E+02  0.4575E+03  0.4574E+03
     -1.121  0.5734E+02  0.5534E+02  0.4605E+03  0.4604E+03
     -1.068  0.4087E+02  0.4112E+02  0.4627E+03  0.4625E+03
     -1.015  0.5995E+02  0.5885E+02  0.4659E+03  0.4656E+03
     -0.962  0.3373E+02  0.3611E+02  0.4676E+03  0.4675E+03
     -0.910  0.3996E+02  0.3882E+02  0.4697E+03  0.4696E+03
     -0.857  0.7592E+02  0.7424E+02  0.4737E+03  0.4735E+03
     -0.804  0.6463E+02  0.6611E+02  0.4772E+03  0.4770E+03
     -0.751  0.3979E+02  0.3952E+02  0.4793E+03  0.4791E+03
     -0.699  0.7880E+02  0.7572E+02  0.4834E+03  0.4831E+03
     -0.646  0.5876E+02  0.6221E+02  0.4865E+03  0.4863E+03
     -0.593  0.3875E+02  0.3888E+02  0.4886E+03  0.4884E+03
     -0.540  0.1990E+02  0.2063E+02  0.4896E+03  0.4895E+03
     -0.488  0.2393E+02  0.2483E+02  0.4909E+03  0.4908E+03
     -0.435  0.2736E+02  0.2780E+02  0.4923E+03  0.4923E+03
     -0.382  0.3266E+02  0.3063E+02  0.4940E+03  0.4939E+03
     -0.329  0.6087E+02  0.6025E+02  0.4972E+03  0.4971E+03
     -0.277  0.6936E+02  0.7133E+02  0.5009E+03  0.5008E+03
     -0.224  0.9471E+02  0.9062E+02  0.5059E+03  0.5056E+03
     -0.171  0.9226E+02  0.9312E+02  0.5108E+03  0.5105E+03
     -0.118  0.1246E+03  0.1241E+03  0.5173E+03  0.5171E+03
     -0.066  0.1079E+03  0.1091E+03  0.5230E+03  0.5228E+03
     -0.013  0.1069E+03  0.1054E+03  0.5287E+03  0.5284E+03
      0.040  0.1353E+03  0.1333E+03  0.5358E+03  0.5354E+03
      0.093  0.1311E+03  0.1324E+03  0.5427E+03  0.5424E+03
      0.145  0.1094E+03  0.1103E+03  0.5485E+03  0.5482E+03
      0.198  0.7850E+02  0.8019E+02  0.5526E+03  0.5524E+03
      0.251  0.7855E+02  0.8148E+02  0.5568E+03  0.5567E+03
      0.304  0.9372E+02  0.8736E+02  0.5617E+03  0.5613E+03
      0.357  0.7129E+02  0.7466E+02  0.5655E+03  0.5653E+03
      0.409  0.1103E+03  0.1077E+03  0.5713E+03  0.5710E+03
      0.462  0.1001E+03  0.1034E+03  0.5766E+03  0.5764E+03
      0.515  0.8539E+02  0.8203E+02  0.5811E+03  0.5807E+03
      0.568  0.1282E+03  0.1302E+03  0.5879E+03  0.5876E+03
      0.620  0.1129E+03  0.1126E+03  0.5938E+03  0.5935E+03
      0.673  0.1331E+03  0.1306E+03  0.6008E+03  0.6004E+03
      0.726  0.1597E+03  0.1606E+03  0.6093E+03  0.6089E+03
      0.779  0.1242E+03  0.1248E+03  0.6158E+03  0.6155E+03
      0.831  0.1022E+03  0.1048E+03  0.6212E+03  0.6210E+03
      0.884  0.1111E+03  0.1087E+03  0.6271E+03  0.6268E+03
      0.937  0.1149E+03  0.1143E+03  0.6331E+03  0.6328E+03
      0.990  0.1080E+03  0.1090E+03  0.6388E+03  0.6385E+03
      1.042  0.1306E+03  0.1266E+03  0.6457E+03  0.6452E+03
      1.095  0.1575E+03  0.1587E+03  0.6540E+03  0.6536E+03
      1.148  0.1673E+03  0.1685E+03  0.6628E+03  0.6625E+03
      1.201  0.1899E+03  0.1855E+03  0.6729E+03  0.6723E+03
      1.253  0.1752E+03  0.1781E+03  0.6821E+03  0.6817E+03
      1.306  0.1772E+03  0.1750E+03  0.6915E+03  0.6909E+03
      1.359  0.1856E+03  0.1869E+03  0.7012E+03  0.7008E+03
      1.412  0.1666E+03  0.1676E+03  0.7100E+03  0.7096E+03
      1.464  0.1335E+03  0.1316E+03  0.7171E+03  0.7165E+03
      1.517  0.2185E+03  0.2200E+03  0.7286E+03  0.7281E+03
      1.570  0.1847E+03  0.1817E+03  0.7383E+03  0.7377E+03
      1.623  0.1911E+03  0.1938E+03  0.7484E+03  0.7479E+03
      1.675  0.1755E+03  0.1739E+03  0.7577E+03  0.7571E+03
      1.728  0.1908E+03  0.1921E+03  0.7678E+03  0.7673E+03
      1.781  0.1846E+03  0.1872E+03  0.7775E+03  0.7771E+03
      1.834  0.1729E+03  0.1701E+03  0.7866E+03  0.7861E+03
      1.886  0.1493E+03  0.1481E+03  0.7945E+03  0.7939E+03
      1.939  0.2064E+03  0.2071E+03  0.8054E+03  0.8048E+03
      1.992  0.1872E+03  0.1874E+03  0.8153E+03  0.8147E+03
      2.045  0.1677E+03  0.1654E+03  0.8241E+03  0.8235E+03
      2.097  0.1957E+03  0.1965E+03  0.8344E+03  0.8338E+03
      2.150  0.2007E+03  0.2002E+03  0.8450E+03  0.8444E+03
      2.203  0.1451E+03  0.1489E+03  0.8527E+03  0.8522E+03
      2.256  0.1533E+03  0.1514E+03  0.8607E+03  0.8602E+03
      2.308  0.1453E+03  0.1451E+03  0.8684E+03  0.8679E+03
      2.361  0.1781E+03  0.1760E+03  0.8778E+03  0.8772E+03
      2.414  0.1963E+03  0.1995E+03  0.8882E+03  0.8877E+03
      2.467  0.1395E+03  0.1381E+03  0.8955E+03  0.8950E+03
      2.519  0.1367E+03  0.1355E+03  0.9027E+03  0.9021E+03
      2.572  0.1336E+03  0.1330E+03  0.9098E+03  0.9091E+03
      2.625  0.1375E+03  0.1391E+03  0.9170E+03  0.9165E+03
      2.678  0.1232E+03  0.1257E+03  0.9235E+03  0.9231E+03
      2.730  0.1551E+03  0.1486E+03  0.9317E+03  0.9309E+03
      2.783  0.1560E+03  0.1655E+03  0.9400E+03  0.9397E+03
      2.836  0.1282E+03  0.1174E+03  0.9467E+03  0.9459E+03
      2.889  0.1557E+03  0.1599E+03  0.9549E+03  0.9543E+03
      2.941  0.1042E+03  0.1054E+03  0.9604E+03  0.9599E+03
      2.994  0.1231E+03  0.1226E+03  0.9669E+03  0.9663E+03
      3.047  0.1200E+03  0.1150E+03  0.9732E+03  0.9724E+03
      3.100  0.1174E+03  0.1243E+03  0.9794E+03  0.9789E+03
      3.152  0.1060E+03  0.1060E+03  0.9850E+03  0.9845E+03
      3.205  0.1200E+03  0.1157E+03  0.9914E+03  0.9906E+03
      3.258  0.1077E+03  0.1083E+03  0.9970E+03  0.9964E+03
      3.311  0.1237E+03  0.1281E+03  0.1004E+04  0.1003E+04
      3.363  0.8618E+02  0.8162E+02  0.1008E+04  0.1007E+04
      3.416  0.5835E+02  0.6419E+02  0.1011E+04  0.1011E+04
      3.469  0.9563E+02  0.9378E+02  0.1016E+04  0.1016E+04
      3.522  0.9492E+02  0.9525E+02  0.1021E+04  0.1021E+04
      3.574  0.8377E+02  0.8693E+02  0.1026E+04  0.1025E+04
      3.627  0.8747E+02  0.8934E+02  0.1030E+04  0.1030E+04
      3.680  0.6470E+02  0.5926E+02  0.1034E+04  0.1033E+04
      3.733  0.6263E+02  0.6917E+02  0.1037E+04  0.1037E+04
      3.785  0.4589E+02  0.3816E+02  0.1039E+04  0.1039E+04
      3.838  0.5379E+02  0.5904E+02  0.1042E+04  0.1042E+04
      3.891  0.3326E+02  0.3827E+02  0.1044E+04  0.1044E+04
      3.944  0.4616E+02  0.3982E+02  0.1046E+04  0.1046E+04
      3.996  0.6435E+02  0.6322E+02  0.1050E+04  0.1049E+04
      4.049  0.8075E+02  0.7232E+02  0.1054E+04  0.1053E+04
      4.102  0.1245E+03  0.1183E+03  0.1061E+04  0.1059E+04
      4.155  0.9276E+02  0.1010E+03  0.1066E+04  0.1065E+04
      4.207  0.8960E+02  0.9134E+02  0.1070E+04  0.1070E+04
      4.260  0.1061E+03  0.1019E+03  0.1076E+04  0.1075E+04
      4.313  0.1031E+03  0.1048E+03  0.1081E+04  0.1081E+04
      4.366  0.1113E+03  0.1096E+03  0.1087E+04  0.1086E+04
      4.418  0.1442E+03  0.1447E+03  0.1095E+04  0.1094E+04
      4.471  0.1161E+03  0.1175E+03  0.1101E+04  0.1100E+04
      4.524  0.1257E+03  0.1300E+03  0.1108E+04  0.1107E+04
      4.577  0.8636E+02  0.8473E+02  0.1112E+04  0.1111E+04
      4.629  0.9229E+02  0.9056E+02  0.1117E+04  0.1116E+04
      4.682  0.1316E+03  0.1343E+03  0.1124E+04  0.1123E+04
      4.735  0.1160E+03  0.1097E+03  0.1130E+04  0.1129E+04
      4.788  0.1089E+03  0.1140E+03  0.1136E+04  0.1135E+04
      4.840  0.1325E+03  0.1324E+03  0.1143E+04  0.1142E+04
      4.893  0.1191E+03  0.1173E+03  0.1149E+04  0.1148E+04
      4.946  0.1074E+03  0.1118E+03  0.1155E+04  0.1154E+04
      4.999  0.1231E+03  0.1245E+03  0.1161E+04  0.1161E+04
      5.051  0.1496E+03  0.1435E+03  0.1169E+04  0.1168E+04
      5.104  0.1203E+03  0.1236E+03  0.1175E+04  0.1175E+04
      5.157  0.1081E+03  0.1074E+03  0.1181E+04  0.1181E+04
      5.210  0.1097E+03  0.1129E+03  0.1187E+04  0.1186E+04
      5.262  0.9792E+02  0.1005E+03  0.1192E+04  0.1192E+04
      5.315  0.1126E+03  0.1051E+03  0.1198E+04  0.1197E+04
      5.368  0.1275E+03  0.1299E+03  0.1205E+04  0.1204E+04
      5.421  0.1448E+03  0.1450E+03  0.1212E+04  0.1212E+04
      5.473  0.1392E+03  0.1391E+03  0.1220E+04  0.1219E+04
      5.526  0.1620E+03  0.1578E+03  0.1228E+04  0.1228E+04
      5.579  0.1547E+03  0.1572E+03  0.1236E+04  0.1236E+04
      5.632  0.1202E+03  0.1252E+03  0.1243E+04  0.1242E+04
      5.684  0.1051E+03  0.1049E+03  0.1248E+04  0.1248E+04
      5.737  0.1273E+03  0.1240E+03  0.1255E+04  0.1254E+04
      5.790  0.1220E+03  0.1221E+03  0.1262E+04  0.1261E+04
      5.843  0.9458E+02  0.9884E+02  0.1267E+04  0.1266E+04
      5.895  0.8846E+02  0.9234E+02  0.1271E+04  0.1271E+04
      5.948  0.1578E+02  0.1875E+02  0.1272E+04  0.1272E+04
      6.001  0.0000E+00  0.0000E+00  0.1272E+04  0.1272E+04
      6.054  0.0000E+00  0.0000E+00  0.1272E+04  0.1272E+04
      6.107  0.0000E+00  0.0000E+00  0.1272E+04  0.1272E+04
      6.159  0.0000E+00  0.0000E+00  0.1272E+04  0.1272E+04
      6.212  0.0000E+00  0.0000E+00  0.1272E+04  0.1272E+04
      6.265  0.0000E+00  0.0000E+00  0.1272E+04  0.1272E+04
      6.318  0.0000E+00  0.0000E+00  0.1272E+04  0.1272E+04
      6.370  0.0000E+00  0.0000E+00  0.1272E+04  0.1272E+04
      6.423  0.0000E+00  0.0000E+00  0.1272E+04  0.1272E+04
      6.476  0.0000E+00  0.0000E+00  0.1272E+04  0.1272E+04
      6.529  0.0000E+00  0.0000E+00  0.1272E+04  0.1272E+04
      6.581  0.0000E+00  0.0000E+00  0.1272E+04  0.1272E+04
      6.634  0.0000E+00  0.0000E+00  0.1272E+04  0.1272E+04
