<?xml version="1.0" encoding="ISO-8859-1"?>
<modeling>
 <generator>
  <i name="program" type="string">vasp </i>
  <i name="version" type="string">6.4.3  </i>
  <i name="subversion" type="string">19Mar24 (build Oct 22 2024 11:23:12) complex                          parallel </i>
  <i name="platform" type="string">LinuxIFC </i>
  <i name="date" type="string">2025 06 08 </i>
  <i name="time" type="string">15:49:14 </i>
 </generator>
 <incar>
  <i type="string" name="SYSTEM">Si and Ge interface calculation</i>
  <i type="int" name="ISTART">     0</i>
  <i type="logical" name="ADDGRID"> T  </i>
  <i type="int" name="ISPIN">     2</i>
  <i name="AMIX">      0.60000000</i>
  <i type="int" name="ICHARG">     2</i>
  <i type="int" name="NELM">   100</i>
  <i name="EDIFF">      0.00000010</i>
  <i name="ENCUT">    700.00000000</i>
  <i name="ENAUG">    900.00000000</i>
  <i type="int" name="NBANDS">   288</i>
  <i name="NUPDOWN">      1.00000000</i>
  <i name="NELECT">    480.00000000</i>
  <i type="string" name="LREAL">AUTO</i>
  <i type="int" name="ISMEAR">     0</i>
  <i name="SIGMA">      0.01000000</i>
  <i type="int" name="LMAXMIX">     6</i>
  <i type="logical" name="LWAVE"> F  </i>
  <i type="logical" name="LVTOT"> F  </i>
  <i type="logical" name="LVHAR"> T  </i>
  <i type="logical" name="LASPH"> T  </i>
  <i type="logical" name="LMIXTAU"> T  </i>
 </incar>
 <primitive_cell>
  <structure name="primitive_cell" >
   <crystal>
    <varray name="basis" >
     <v>       6.65158833       0.00000000       0.00000000 </v>
     <v>      -0.00000213       9.40676784       0.00000000 </v>
     <v>       0.00000000       0.00000000      21.07213974 </v>
    </varray>
    <i name="volume">   1318.48267083 </i>
    <varray name="rec_basis" >
     <v>       0.15034003       0.00000003       0.00000000 </v>
     <v>       0.00000000       0.10630644       0.00000000 </v>
     <v>       0.00000000       0.00000000       0.04745603 </v>
    </varray>
   </crystal>
   <varray name="positions" >
    <v>       0.95703504       0.00000000       0.00000000 </v>
    <v>       0.45703472       0.99999994       0.09112263 </v>
    <v>       0.95703516       0.99999988       0.18224525 </v>
    <v>       0.45703493       0.99999982       0.27336782 </v>
    <v>       0.95703528       0.99999976       0.36449048 </v>
    <v>       0.45703505       0.99999964       0.45561311 </v>
    <v>       0.29036830       0.33333337       0.00000000 </v>
    <v>       0.79036804       0.33333328       0.09112263 </v>
    <v>       0.29036847       0.33333322       0.18224525 </v>
    <v>       0.79036825       0.33333316       0.27336782 </v>
    <v>       0.29036877       0.33333302       0.36449048 </v>
    <v>       0.79036842       0.33333296       0.45561311 </v>
    <v>       0.62370155       0.66666675       0.00000000 </v>
    <v>       0.12370135       0.66666663       0.09112263 </v>
    <v>       0.62370179       0.66666657       0.18224525 </v>
    <v>       0.12370132       0.66666663       0.27336782 </v>
    <v>       0.62370179       0.66666651       0.36449048 </v>
    <v>       0.12370168       0.66666633       0.45561311 </v>
    <v>       0.29036843       0.08333331       0.00000000 </v>
    <v>       0.79036837       0.08333328       0.09112263 </v>
    <v>       0.29036822       0.08333321       0.18224525 </v>
    <v>       0.79036879       0.08333313       0.27336782 </v>
    <v>       0.29036826       0.08333310       0.36449048 </v>
    <v>       0.79036854       0.08333302       0.45561311 </v>
    <v>       0.62370173       0.41666666       0.00000000 </v>
    <v>       0.12370167       0.41666663       0.09112263 </v>
    <v>       0.62370150       0.41666657       0.18224525 </v>
    <v>       0.12370203       0.41666651       0.27336782 </v>
    <v>       0.62370150       0.41666648       0.36449048 </v>
    <v>       0.12370179       0.41666639       0.45561311 </v>
    <v>       0.95703505       0.75000000       0.00000000 </v>
    <v>       0.45703504       0.74999994       0.09112263 </v>
    <v>       0.95703475       0.74999994       0.18224525 </v>
    <v>       0.45703528       0.74999988       0.27336782 </v>
    <v>       0.95703505       0.74999970       0.36449048 </v>
    <v>       0.45703504       0.74999976       0.45561311 </v>
    <v>       0.03595901       0.98202050       0.45561314 </v>
    <v>       0.53595901       0.73202050       0.56449044 </v>
    <v>       0.03595912       0.48202044       0.67336780 </v>
    <v>       0.53595912       0.23202044       0.78224510 </v>
    <v>       0.03595930       0.98202038       0.89112252 </v>
    <v>       0.53595959       0.73202038       0.00000000 </v>
    <v>       0.03595941       0.48202047       0.45561314 </v>
    <v>       0.53595906       0.23202047       0.56449044 </v>
    <v>       0.03595912       0.98202044       0.67336780 </v>
    <v>       0.53595924       0.73202038       0.78224510 </v>
    <v>       0.03595931       0.48202038       0.89112252 </v>
    <v>       0.53595971       0.23202032       0.00000000 </v>
    <v>       0.78595921       0.73202044       0.45561314 </v>
    <v>       0.28595918       0.48202044       0.56449044 </v>
    <v>       0.78595930       0.23202038       0.67336780 </v>
    <v>       0.28595948       0.98202032       0.78224510 </v>
    <v>       0.78595935       0.73202032       0.89112258 </v>
    <v>       0.28595957       0.48202032       0.00000000 </v>
    <v>       0.78595909       0.23202048       0.45561314 </v>
    <v>       0.28595905       0.98202050       0.56449044 </v>
    <v>       0.78595927       0.73202038       0.67336780 </v>
    <v>       0.28595948       0.48202032       0.78224510 </v>
    <v>       0.78595912       0.23202038       0.89112252 </v>
    <v>       0.28595920       0.98202038       0.00000000 </v>
   </varray>
  </structure>
  <varray name="primitive_index" >
   <v type="int" >        1 </v>
   <v type="int" >       20 </v>
   <v type="int" >       21 </v>
   <v type="int" >        4 </v>
   <v type="int" >        5 </v>
   <v type="int" >       24 </v>
   <v type="int" >        7 </v>
   <v type="int" >       26 </v>
   <v type="int" >       27 </v>
   <v type="int" >       10 </v>
   <v type="int" >       11 </v>
   <v type="int" >       30 </v>
   <v type="int" >       13 </v>
   <v type="int" >       32 </v>
   <v type="int" >       33 </v>
   <v type="int" >       16 </v>
   <v type="int" >       17 </v>
   <v type="int" >       36 </v>
   <v type="int" >       37 </v>
   <v type="int" >       56 </v>
   <v type="int" >       39 </v>
   <v type="int" >       40 </v>
   <v type="int" >       59 </v>
   <v type="int" >       60 </v>
   <v type="int" >       43 </v>
   <v type="int" >       62 </v>
   <v type="int" >       45 </v>
   <v type="int" >       46 </v>
   <v type="int" >       65 </v>
   <v type="int" >       66 </v>
   <v type="int" >       49 </v>
   <v type="int" >       68 </v>
   <v type="int" >       51 </v>
   <v type="int" >       52 </v>
   <v type="int" >       71 </v>
   <v type="int" >       72 </v>
   <v type="int" >       73 </v>
   <v type="int" >       74 </v>
   <v type="int" >       75 </v>
   <v type="int" >       76 </v>
   <v type="int" >       77 </v>
   <v type="int" >       78 </v>
   <v type="int" >       85 </v>
   <v type="int" >       86 </v>
   <v type="int" >       87 </v>
   <v type="int" >       88 </v>
   <v type="int" >       89 </v>
   <v type="int" >       90 </v>
   <v type="int" >       97 </v>
   <v type="int" >       98 </v>
   <v type="int" >       99 </v>
   <v type="int" >      100 </v>
   <v type="int" >      101 </v>
   <v type="int" >      102 </v>
   <v type="int" >      109 </v>
   <v type="int" >      110 </v>
   <v type="int" >      111 </v>
   <v type="int" >      112 </v>
   <v type="int" >      113 </v>
   <v type="int" >      114 </v>
  </varray>
 </primitive_cell>
 <kpoints>
  <generation param="Gamma">
   <v type="int" name="divisions">       4        3        1 </v>
   <v name="usershift">      0.00000000       0.00000000       0.00000000 </v>
   <v name="genvec1">      0.25000000      -0.00000000       0.00000000 </v>
   <v name="genvec2">      0.00000000       0.33333333       0.00000000 </v>
   <v name="genvec3">      0.00000000       0.00000000       1.00000000 </v>
   <v name="shift">      0.00000000       0.00000000       0.00000000 </v>
  </generation>
  <varray name="kpointlist" >
   <v>       0.00000000       0.00000000       0.00000000 </v>
   <v>       0.25000000      -0.00000000       0.00000000 </v>
   <v>       0.50000000      -0.00000000       0.00000000 </v>
   <v>       0.00000000       0.33333333       0.00000000 </v>
   <v>       0.25000000       0.33333333       0.00000000 </v>
   <v>       0.50000000       0.33333333       0.00000000 </v>
   <v>      -0.25000000       0.33333333       0.00000000 </v>
  </varray>
  <varray name="weights" >
   <v>       0.08333333 </v>
   <v>       0.16666667 </v>
   <v>       0.08333333 </v>
   <v>       0.16666667 </v>
   <v>       0.16666667 </v>
   <v>       0.16666667 </v>
   <v>       0.16666667 </v>
  </varray>
 </kpoints>
 <parameters>
  <separator name="general" >
   <i type="string" name="SYSTEM">Si and Ge interface calculation</i>
   <i type="logical" name="LCOMPAT"> F  </i>
  </separator>
  <separator name="electronic" >
   <i type="string" name="PREC">normal</i>
   <i name="ENMAX">    700.00000000</i>
   <i name="ENAUG">    900.00000000</i>
   <i name="EDIFF">      0.00000010</i>
   <i type="int" name="IALGO">    38</i>
   <i type="int" name="IWAVPR">    10</i>
   <i type="int" name="NBANDS">   288</i>
   <i type="int" name="NBANDSLOW">    -1</i>
   <i type="int" name="NBANDSHIGH">    -1</i>
   <i name="NELECT">    480.00000000</i>
   <i type="int" name="TURBO">     0</i>
   <i type="int" name="IRESTART">     0</i>
   <i type="int" name="NREBOOT">     0</i>
   <i type="int" name="NMIN">     0</i>
   <i name="EREF">      0.00000000</i>
   <separator name="electronic smearing" >
    <i type="int" name="ISMEAR">     0</i>
    <i name="SIGMA">      0.01000000</i>
    <i name="KSPACING">      0.50000000</i>
    <i type="logical" name="KGAMMA"> T  </i>
    <i type="logical" name="KBLOWUP"> F  </i>
   </separator>
   <separator name="electronic projectors" >
    <i type="logical" name="LREAL"> T  </i>
    <v name="ROPT">     -0.00050000     -0.00050000</v>
    <i type="int" name="LMAXPAW">  -100</i>
    <i type="int" name="LMAXMIX">     6</i>
    <i type="logical" name="NLSPLINE"> F  </i>
   </separator>
   <separator name="electronic startup" >
    <i type="int" name="ISTART">     0</i>
    <i type="int" name="ICHARG">     2</i>
    <i type="int" name="INIWAV">     1</i>
   </separator>
   <separator name="electronic spin" >
    <i type="int" name="ISPIN">     2</i>
    <i type="logical" name="LNONCOLLINEAR"> F  </i>
    <v name="MAGMOM">      0.00833333      0.00833333      0.00833333      0.00833333      0.00833333      0.00833333      0.00833333      0.00833333      0.00833333      0.00833333      0.00833333      0.00833333      0.00833333      0.00833333      0.00833333      0.00833333      0.00833333      0.00833333      0.00833333      0.00833333
      0.00833333      0.00833333      0.00833333      0.00833333      0.00833333      0.00833333      0.00833333      0.00833333      0.00833333      0.00833333      0.00833333      0.00833333      0.00833333      0.00833333      0.00833333      0.00833333      0.00833333      0.00833333      0.00833333      0.00833333
      0.00833333      0.00833333      0.00833333      0.00833333      0.00833333      0.00833333      0.00833333      0.00833333      0.00833333      0.00833333      0.00833333      0.00833333      0.00833333      0.00833333      0.00833333      0.00833333      0.00833333      0.00833333      0.00833333      0.00833333
      0.00833333      0.00833333      0.00833333      0.00833333      0.00833333      0.00833333      0.00833333      0.00833333      0.00833333      0.00833333      0.00833333      0.00833333      0.00833333      0.00833333      0.00833333      0.00833333      0.00833333      0.00833333      0.00833333      0.00833333
      0.00833333      0.00833333      0.00833333      0.00833333      0.00833333      0.00833333      0.00833333      0.00833333      0.00833333      0.00833333      0.00833333      0.00833333      0.00833333      0.00833333      0.00833333      0.00833333      0.00833333      0.00833333      0.00833333      0.00833333
      0.00833333      0.00833333      0.00833333      0.00833333      0.00833333      0.00833333      0.00833333      0.00833333      0.00833333      0.00833333      0.00833333      0.00833333      0.00833333      0.00833333      0.00833333      0.00833333      0.00833333      0.00833333      0.00833333      0.00833333
</v>
    <i name="NUPDOWN">      1.00000000</i>
    <i type="logical" name="LSORBIT"> F  </i>
    <v name="SAXIS">      0.00000000      0.00000000      1.00000000</v>
    <i type="logical" name="LSPIRAL"> F  </i>
    <v name="QSPIRAL">      0.00000000      0.00000000      0.00000000</v>
    <i type="logical" name="LZEROZ"> F  </i>
   </separator>
   <separator name="electronic exchange-correlation" >
    <i type="logical" name="LASPH"> T  </i>
   </separator>
   <separator name="electronic convergence" >
    <i type="int" name="NELM">   100</i>
    <i type="int" name="NELMDL">    -5</i>
    <i type="int" name="NELMIN">     2</i>
    <i name="ENINI">    700.00000000</i>
    <separator name="electronic convergence detail" >
     <i type="logical" name="LDIAG"> T  </i>
     <i type="logical" name="LSUBROT"> F  </i>
     <i name="WEIMIN">      0.00000000</i>
     <i name="EBREAK">      0.00000000</i>
     <i name="DEPER">      0.30000000</i>
     <i type="int" name="NRMM">     4</i>
     <i name="TIME">      0.40000000</i>
    </separator>
   </separator>
   <separator name="electronic mixer" >
    <i name="AMIX">      0.60000000</i>
    <i name="BMIX">      1.00000000</i>
    <i name="AMIN">      0.10000000</i>
    <i name="AMIX_MAG">      2.40000000</i>
    <i name="BMIX_MAG">      1.00000000</i>
    <separator name="electronic mixer details" >
     <i type="int" name="IMIX">     4</i>
     <i type="logical" name="MIXFIRST"> F  </i>
     <i type="int" name="MAXMIX">   -45</i>
     <i name="WC">    100.00000000</i>
     <i type="int" name="INIMIX">     1</i>
     <i type="int" name="MIXPRE">     1</i>
     <i type="int" name="MREMOVE">     5</i>
    </separator>
   </separator>
   <separator name="electronic dipolcorrection" >
    <i type="logical" name="LDIPOL"> F  </i>
    <i type="logical" name="LMONO"> F  </i>
    <i type="int" name="IDIPOL">     0</i>
    <i name="EPSILON">      1.00000000</i>
    <v name="DIPOL">   -100.00000000   -100.00000000   -100.00000000</v>
    <i name="EFIELD">      0.00000000</i>
    <i type="logical" name="LVACPOTAV"> F  </i>
   </separator>
  </separator>
  <separator name="grids" >
   <i type="int" name="NGX">    90</i>
   <i type="int" name="NGY">   108</i>
   <i type="int" name="NGZ">   140</i>
   <i type="int" name="NGXF">   180</i>
   <i type="int" name="NGYF">   216</i>
   <i type="int" name="NGZF">   280</i>
   <i type="logical" name="ADDGRID"> T  </i>
  </separator>
  <separator name="ionic" >
   <i type="int" name="NSW">     0</i>
   <i type="int" name="IBRION">    -1</i>
   <i type="int" name="MDALGO">     0</i>
   <i type="int" name="ISIF">     2</i>
   <i name="PSTRESS">      0.00000000</i>
   <i name="EDIFFG">      0.00000100</i>
   <i type="int" name="NFREE">     0</i>
   <i name="POTIM">      0.50000000</i>
   <i name="SMASS">     -3.00000000</i>
   <i name="SCALEE">      1.00000000</i>
  </separator>
  <separator name="ionic md" >
   <i name="TEBEG">      0.00010000</i>
   <i name="TEEND">      0.00010000</i>
   <i type="int" name="NBLOCK">     1</i>
   <i type="int" name="KBLOCK">     1</i>
   <i type="int" name="NPACO">   256</i>
   <i name="APACO">     10.00000000</i>
  </separator>
  <separator name="symmetry" >
   <i type="int" name="ISYM">     2</i>
   <i name="SYMPREC">      0.00001000</i>
  </separator>
  <separator name="dos" >
   <i type="int" name="LORBIT">     0</i>
   <v name="RWIGS">     -1.00000000     -1.00000000</v>
   <i type="int" name="NEDOS">   301</i>
   <i name="EMIN">     10.00000000</i>
   <i name="EMAX">    -10.00000000</i>
   <i name="EFERMI">      0.00000000</i>
  </separator>
  <separator name="writing" >
   <i type="int" name="NWRITE">     2</i>
   <i type="logical" name="LWAVE"> F  </i>
   <i type="logical" name="LDOWNSAMPLE"> F  </i>
   <i type="logical" name="LCHARG"> T  </i>
   <i type="logical" name="LPARD"> F  </i>
   <i type="logical" name="LVTOT"> F  </i>
   <i type="logical" name="LVHAR"> T  </i>
   <i type="logical" name="LELF"> F  </i>
   <i type="logical" name="LOPTICS"> F  </i>
   <v name="STM">      0.00000000      0.00000000      0.00000000      0.00000000      0.00000000      0.00000000      0.00000000</v>
  </separator>
  <separator name="performance" >
   <i type="int" name="NPAR">     4</i>
   <i type="int" name="NSIM">     4</i>
   <i type="int" name="NBLK">    -1</i>
   <i type="logical" name="LPLANE"> T  </i>
   <i type="logical" name="LSCALAPACK"> T  </i>
   <i type="logical" name="LSCAAWARE"> F  </i>
   <i type="logical" name="LSCALU"> F  </i>
   <i type="logical" name="LASYNC"> F  </i>
   <i type="logical" name="LORBITALREAL"> F  </i>
  </separator>
  <separator name="miscellaneous" >
   <i type="int" name="IDIOT">     3</i>
   <i type="int" name="PHON_NSTRUCT">    -1</i>
   <i type="logical" name="LMUSIC"> F  </i>
   <v name="POMASS">     28.08500000    118.71000000</v>
   <v name="DARWINR">      0.00000000      0.00000000</v>
   <v name="DARWINV">      1.00000000      1.00000000</v>
   <i type="logical" name="LCORR"> T  </i>
  </separator>
  <i type="logical" name="GGA_COMPAT"> T  </i>
  <i type="logical" name="LBERRY"> F  </i>
  <i type="int" name="ICORELEVEL">     0</i>
  <i type="logical" name="LDAU"> F  </i>
  <i type="int" name="I_CONSTRAINED_M">     0</i>
  <separator name="electronic exchange-correlation" >
   <i type="string" name="GGA    ">PE</i>
   <i type="string" name="XC_C">1</i>
   <i type="int" name="VOSKOWN">     0</i>
   <i type="logical" name="LHFCALC"> F  </i>
   <i type="string" name="PRECFOCK"></i>
   <i type="logical" name="LSYMGRAD"> F  </i>
   <i type="logical" name="LHFONE"> F  </i>
   <i type="logical" name="LRHFCALC"> F  </i>
   <i type="logical" name="LTHOMAS"> F  </i>
   <i type="logical" name="LMODELHF"> F  </i>
   <i type="logical" name="LFOCKACE"> F  </i>
   <i name="ENCUT4O">     -1.00000000</i>
   <i type="int" name="EXXOEP">     0</i>
   <i type="int" name="FOURORBIT">     0</i>
   <i name="AEXX">      0.00000000</i>
   <i name="HFALPHA">      0.00000000</i>
   <i name="MCALPHA">      0.00000000</i>
   <i name="ALDAX">      1.00000000</i>
   <i name="AGGAX">      1.00000000</i>
   <i name="AMGGAX">      1.00000000</i>
   <i name="ALDAC">      1.00000000</i>
   <i name="AGGAC">      1.00000000</i>
   <i name="AMGGAC">      1.00000000</i>
   <i type="int" name="NKREDX">     1</i>
   <i type="int" name="NKREDY">     1</i>
   <i type="int" name="NKREDZ">     1</i>
   <i type="logical" name="SHIFTRED"> F  </i>
   <i type="logical" name="ODDONLY"> F  </i>
   <i type="logical" name="EVENONLY"> F  </i>
   <i type="int" name="LMAXFOCK">     0</i>
   <i type="int" name="NMAXFOCKAE">     0</i>
   <i type="logical" name="LFOCKAEDFT"> F  </i>
   <i name="HFSCREEN">      0.00000000</i>
   <i name="HFSCREENC">      0.00000000</i>
   <i type="int" name="NBANDSGWLOW">     0</i>
  </separator>
  <separator name="vdW DFT" >
   <i type="logical" name="LUSE_VDW"> F  </i>
   <i type="int" name="IVDW_NL">    -1</i>
   <i type="logical" name="LSPIN_VDW"> F  </i>
   <i name="ZAB_VDW">     -0.84910000</i>
   <i name="GAMMA_VDW">      1.39626340</i>
   <i name="ALPHA_VDW">      0.00000000</i>
   <i name="PARAM1">      0.12340000</i>
   <i name="PARAM2">      1.00000000</i>
   <i name="BPARAM">      6.30000000</i>
   <i name="CPARAM">      0.00930000</i>
  </separator>
  <separator name="model GW" >
   <i type="int" name="MODEL_GW">     0</i>
   <i name="MODEL_EPS0">     13.18482977</i>
   <i name="MODEL_ALPHA">      1.00000000</i>
  </separator>
  <separator name="linear response parameters" >
   <i type="logical" name="LEPSILON"> F  </i>
   <i type="logical" name="LRPA"> F  </i>
   <i type="logical" name="LNABLA"> F  </i>
   <i type="logical" name="LVEL"> F  </i>
   <i name="CSHIFT">      0.10000000</i>
   <i name="OMEGAMAX">     -1.00000000</i>
   <i name="DEG_THRESHOLD">      0.00200000</i>
   <i name="RTIME">     -0.10000000</i>
   <i name="WPLASMAI">      0.00000000</i>
   <v name="DFIELD">      0.00000000      0.00000000      0.00000000</v>
   <v name="WPLASMA">      0.00000000      0.00000000      0.00000000      0.00000000      0.00000000      0.00000000      0.00000000      0.00000000      0.00000000</v>
  </separator>
  <separator name="orbital magnetization" >
   <i type="logical" name="NUCIND"> F  </i>
   <v name="MAGPOS">      0.00000000      0.00000000      0.00000000</v>
   <i type="logical" name="LNICSALL"> T  </i>
   <i type="logical" name="ORBITALMAG"> F  </i>
   <i type="logical" name="LMAGBLOCH"> F  </i>
   <i type="logical" name="LCHIMAG"> F  </i>
   <i type="logical" name="LGAUGE"> T  </i>
   <i type="int" name="MAGATOM">     0</i>
   <v name="MAGDIPOL">      0.00000000      0.00000000      0.00000000</v>
   <v name="AVECCONST">      0.00000000      0.00000000      0.00000000</v>
  </separator>
  <separator name="response functions" >
   <i type="logical" name="LALL_IN_ONE"> F  </i>
   <i type="int" name="IALL_IN_ONE">    -1</i>
   <i type="int" name="NBANDS_WAVE">    -1</i>
   <i type="logical" name="LFINITE_TEMPERATURE"> F  </i>
   <i type="logical" name="LADDER"> F  </i>
   <i type="logical" name="LRPAFORCE"> F  </i>
   <i type="logical" name="LFXC"> F  </i>
   <i type="logical" name="LHARTREE"> T  </i>
   <i type="int" name="IBSE">     0</i>
   <v type="int" name="KPOINT">    -1     0     0     0</v>
   <i type="logical" name="LTCTC"> F  </i>
   <i type="logical" name="LTCTE"> F  </i>
   <i type="logical" name="LTETE"> F  </i>
   <i type="logical" name="LTRIPLET"> F  </i>
   <i type="logical" name="LFXCEPS"> F  </i>
   <i type="logical" name="LFXHEG"> F  </i>
   <i type="int" name="NATURALO">     2</i>
   <i type="logical" name="LHOLEGF"> F  </i>
   <i type="logical" name="L2ORDER"> F  </i>
   <i type="logical" name="LDMP1"> F  </i>
   <i type="logical" name="LMP2LT"> F  </i>
   <i type="logical" name="LSMP2LT"> F  </i>
   <i type="logical" name="LGWLF"> F  </i>
   <i name="ENCUTGW">     -1.60000002</i>
   <i name="ENCUTGWSOFT">     -1.60000002</i>
   <i name="ENCUTLF">     -1.00000000</i>
   <i type="logical" name="ESF_SPLINES"> F  </i>
   <i name="ESF_CONV">      0.01000000</i>
   <i type="int" name="ESF_NINTER">    15</i>
   <i type="int" name="LMAXMP2">    -1</i>
   <i name="SCISSOR">      0.00000000</i>
   <i type="int" name="NOMEGA">     0</i>
   <i type="int" name="NOMEGAR">     0</i>
   <i type="int" name="NBANDSGW">    -1</i>
   <i type="int" name="NBANDSO">    -1</i>
   <i type="int" name="NBANDSV">    -1</i>
   <i type="int" name="NELMGW">     1</i>
   <i type="int" name="NELMHF">     1</i>
   <i type="int" name="DIM">     3</i>
   <i type="int" name="IESPILON">     4</i>
   <i type="int" name="ANTIRES">     0</i>
   <i name="OMEGAMAX">    -30.00000000</i>
   <i name="OMEGAMIN">    -30.00000000</i>
   <i name="OMEGATL">   -200.00000000</i>
   <i type="int" name="OMEGAGRID">     0</i>
   <i name="CSHIFT">     -0.10000000</i>
   <i type="logical" name="LSELFENERGY"> F  </i>
   <i type="logical" name="LSPECTRAL"> F  </i>
   <i type="logical" name="LSPECTRALGW"> F  </i>
   <i type="logical" name="LSINGLES"> F  </i>
   <i type="logical" name="LFERMIGW"> F  </i>
   <i type="logical" name="ODDONLYGW"> F  </i>
   <i type="logical" name="EVENONLYGW"> F  </i>
   <i type="int" name="NKREDLFX">     1</i>
   <i type="int" name="NKREDLFY">     1</i>
   <i type="int" name="NKREDLFZ">     1</i>
   <i type="int" name="MAXMEM">  2800</i>
   <i type="int" name="TELESCOPE">     0</i>
   <i type="int" name="NTAUPAR">    -1</i>
   <i type="int" name="NOMEGAPAR">    -1</i>
   <i name="DAMP_NEWTON">      0.80000001</i>
   <i name="LAMBDA">      1.00000000</i>
  </separator>
  <separator name="External order field" >
   <i name="OFIELD_KAPPA">      0.00000000</i>
   <v name="OFIELD_K">      0.00000000      0.00000000      0.00000000</v>
   <i name="OFIELD_Q6_NEAR">      0.00000000</i>
   <i name="OFIELD_Q6_FAR">      0.00000000</i>
   <i name="OFIELD_A">      0.00000000</i>
  </separator>
  <separator name="optional k-points parameters" >
   <i type="int" name="KPOINTS_OPT_MODE">     1</i>
   <i type="logical" name="LKPOINTS_OPT"> F  </i>
  </separator>
 </parameters>
 <atominfo>
  <atoms>     120 </atoms>
  <types>       2 </types>
  <array name="atoms" >
   <dimension dim="1">ion</dimension>
   <field type="string">element</field>
   <field type="int">atomtype</field>
   <set>
    <rc><c>Si</c><c>   1</c></rc>
    <rc><c>Si</c><c>   1</c></rc>
    <rc><c>Si</c><c>   1</c></rc>
    <rc><c>Si</c><c>   1</c></rc>
    <rc><c>Si</c><c>   1</c></rc>
    <rc><c>Si</c><c>   1</c></rc>
    <rc><c>Si</c><c>   1</c></rc>
    <rc><c>Si</c><c>   1</c></rc>
    <rc><c>Si</c><c>   1</c></rc>
    <rc><c>Si</c><c>   1</c></rc>
    <rc><c>Si</c><c>   1</c></rc>
    <rc><c>Si</c><c>   1</c></rc>
    <rc><c>Si</c><c>   1</c></rc>
    <rc><c>Si</c><c>   1</c></rc>
    <rc><c>Si</c><c>   1</c></rc>
    <rc><c>Si</c><c>   1</c></rc>
    <rc><c>Si</c><c>   1</c></rc>
    <rc><c>Si</c><c>   1</c></rc>
    <rc><c>Si</c><c>   1</c></rc>
    <rc><c>Si</c><c>   1</c></rc>
    <rc><c>Si</c><c>   1</c></rc>
    <rc><c>Si</c><c>   1</c></rc>
    <rc><c>Si</c><c>   1</c></rc>
    <rc><c>Si</c><c>   1</c></rc>
    <rc><c>Si</c><c>   1</c></rc>
    <rc><c>Si</c><c>   1</c></rc>
    <rc><c>Si</c><c>   1</c></rc>
    <rc><c>Si</c><c>   1</c></rc>
    <rc><c>Si</c><c>   1</c></rc>
    <rc><c>Si</c><c>   1</c></rc>
    <rc><c>Si</c><c>   1</c></rc>
    <rc><c>Si</c><c>   1</c></rc>
    <rc><c>Si</c><c>   1</c></rc>
    <rc><c>Si</c><c>   1</c></rc>
    <rc><c>Si</c><c>   1</c></rc>
    <rc><c>Si</c><c>   1</c></rc>
    <rc><c>Si</c><c>   1</c></rc>
    <rc><c>Si</c><c>   1</c></rc>
    <rc><c>Si</c><c>   1</c></rc>
    <rc><c>Si</c><c>   1</c></rc>
    <rc><c>Si</c><c>   1</c></rc>
    <rc><c>Si</c><c>   1</c></rc>
    <rc><c>Si</c><c>   1</c></rc>
    <rc><c>Si</c><c>   1</c></rc>
    <rc><c>Si</c><c>   1</c></rc>
    <rc><c>Si</c><c>   1</c></rc>
    <rc><c>Si</c><c>   1</c></rc>
    <rc><c>Si</c><c>   1</c></rc>
    <rc><c>Si</c><c>   1</c></rc>
    <rc><c>Si</c><c>   1</c></rc>
    <rc><c>Si</c><c>   1</c></rc>
    <rc><c>Si</c><c>   1</c></rc>
    <rc><c>Si</c><c>   1</c></rc>
    <rc><c>Si</c><c>   1</c></rc>
    <rc><c>Si</c><c>   1</c></rc>
    <rc><c>Si</c><c>   1</c></rc>
    <rc><c>Si</c><c>   1</c></rc>
    <rc><c>Si</c><c>   1</c></rc>
    <rc><c>Si</c><c>   1</c></rc>
    <rc><c>Si</c><c>   1</c></rc>
    <rc><c>Si</c><c>   1</c></rc>
    <rc><c>Si</c><c>   1</c></rc>
    <rc><c>Si</c><c>   1</c></rc>
    <rc><c>Si</c><c>   1</c></rc>
    <rc><c>Si</c><c>   1</c></rc>
    <rc><c>Si</c><c>   1</c></rc>
    <rc><c>Si</c><c>   1</c></rc>
    <rc><c>Si</c><c>   1</c></rc>
    <rc><c>Si</c><c>   1</c></rc>
    <rc><c>Si</c><c>   1</c></rc>
    <rc><c>Si</c><c>   1</c></rc>
    <rc><c>Si</c><c>   1</c></rc>
    <rc><c>Sn</c><c>   2</c></rc>
    <rc><c>Sn</c><c>   2</c></rc>
    <rc><c>Sn</c><c>   2</c></rc>
    <rc><c>Sn</c><c>   2</c></rc>
    <rc><c>Sn</c><c>   2</c></rc>
    <rc><c>Sn</c><c>   2</c></rc>
    <rc><c>Sn</c><c>   2</c></rc>
    <rc><c>Sn</c><c>   2</c></rc>
    <rc><c>Sn</c><c>   2</c></rc>
    <rc><c>Sn</c><c>   2</c></rc>
    <rc><c>Sn</c><c>   2</c></rc>
    <rc><c>Sn</c><c>   2</c></rc>
    <rc><c>Sn</c><c>   2</c></rc>
    <rc><c>Sn</c><c>   2</c></rc>
    <rc><c>Sn</c><c>   2</c></rc>
    <rc><c>Sn</c><c>   2</c></rc>
    <rc><c>Sn</c><c>   2</c></rc>
    <rc><c>Sn</c><c>   2</c></rc>
    <rc><c>Sn</c><c>   2</c></rc>
    <rc><c>Sn</c><c>   2</c></rc>
    <rc><c>Sn</c><c>   2</c></rc>
    <rc><c>Sn</c><c>   2</c></rc>
    <rc><c>Sn</c><c>   2</c></rc>
    <rc><c>Sn</c><c>   2</c></rc>
    <rc><c>Sn</c><c>   2</c></rc>
    <rc><c>Sn</c><c>   2</c></rc>
    <rc><c>Sn</c><c>   2</c></rc>
    <rc><c>Sn</c><c>   2</c></rc>
    <rc><c>Sn</c><c>   2</c></rc>
    <rc><c>Sn</c><c>   2</c></rc>
    <rc><c>Sn</c><c>   2</c></rc>
    <rc><c>Sn</c><c>   2</c></rc>
    <rc><c>Sn</c><c>   2</c></rc>
    <rc><c>Sn</c><c>   2</c></rc>
    <rc><c>Sn</c><c>   2</c></rc>
    <rc><c>Sn</c><c>   2</c></rc>
    <rc><c>Sn</c><c>   2</c></rc>
    <rc><c>Sn</c><c>   2</c></rc>
    <rc><c>Sn</c><c>   2</c></rc>
    <rc><c>Sn</c><c>   2</c></rc>
    <rc><c>Sn</c><c>   2</c></rc>
    <rc><c>Sn</c><c>   2</c></rc>
    <rc><c>Sn</c><c>   2</c></rc>
    <rc><c>Sn</c><c>   2</c></rc>
    <rc><c>Sn</c><c>   2</c></rc>
    <rc><c>Sn</c><c>   2</c></rc>
    <rc><c>Sn</c><c>   2</c></rc>
    <rc><c>Sn</c><c>   2</c></rc>
   </set>
  </array>
  <array name="atomtypes" >
   <dimension dim="1">type</dimension>
   <field type="int">atomspertype</field>
   <field type="string">element</field>
   <field>mass</field>
   <field>valence</field>
   <field type="string">pseudopotential</field>
   <set>
    <rc><c>  72</c><c>Si</c><c>     28.08500000</c><c>      4.00000000</c><c>  PAW_PBE Si 05Jan2001                  </c></rc>
    <rc><c>  48</c><c>Sn</c><c>    118.71000000</c><c>      4.00000000</c><c>  PAW_PBE Sn 08Apr2002                  </c></rc>
   </set>
  </array>
 </atominfo>
 <structure name="initialpos" >
  <crystal>
   <varray name="basis" >
    <v>      13.30317974       0.00000000       0.00000000 </v>
    <v>     -13.30317879       9.40676784       0.00000000 </v>
    <v>       0.00000000       0.00000000      21.07213974 </v>
   </varray>
   <i name="volume">   2636.96595344 </i>
   <varray name="rec_basis" >
    <v>       0.07517000       0.10630643       0.00000000 </v>
    <v>       0.00000000       0.10630644       0.00000000 </v>
    <v>       0.00000000       0.00000000       0.04745603 </v>
   </varray>
  </crystal>
  <varray name="positions" >
   <v>       0.97851729       0.00000000       0.00000000 </v>
   <v>       0.72851723       0.99999994       0.09112263 </v>
   <v>       0.47851718       0.99999988       0.18224525 </v>
   <v>       0.22851723       0.99999982       0.27336782 </v>
   <v>       0.97851718       0.99999976       0.36449048 </v>
   <v>       0.72851718       0.99999970       0.45561311 </v>
   <v>       0.97851729       0.33333337       0.00000000 </v>
   <v>       0.72851723       0.33333328       0.09112263 </v>
   <v>       0.47851718       0.33333322       0.18224525 </v>
   <v>       0.22851723       0.33333316       0.27336782 </v>
   <v>       0.97851718       0.33333302       0.36449048 </v>
   <v>       0.72851718       0.33333305       0.45561311 </v>
   <v>       0.97851729       0.66666675       0.00000000 </v>
   <v>       0.72851723       0.66666669       0.09112263 </v>
   <v>       0.47851718       0.66666663       0.18224525 </v>
   <v>       0.22851723       0.66666663       0.27336782 </v>
   <v>       0.97851718       0.66666651       0.36449048 </v>
   <v>       0.72851718       0.66666645       0.45561311 </v>
   <v>       0.47851729       0.00000000       0.00000000 </v>
   <v>       0.22851725       0.99999994       0.09112263 </v>
   <v>       0.97851723       0.99999988       0.18224525 </v>
   <v>       0.72851729       0.99999982       0.27336782 </v>
   <v>       0.47851718       0.99999976       0.36449048 </v>
   <v>       0.22851712       0.99999964       0.45561311 </v>
   <v>       0.47851729       0.33333334       0.00000000 </v>
   <v>       0.22851725       0.33333328       0.09112263 </v>
   <v>       0.97851723       0.33333322       0.18224525 </v>
   <v>       0.72851729       0.33333316       0.27336782 </v>
   <v>       0.47851718       0.33333311       0.36449048 </v>
   <v>       0.22851712       0.33333296       0.45561311 </v>
   <v>       0.47851729       0.66666675       0.00000000 </v>
   <v>       0.22851725       0.66666663       0.09112263 </v>
   <v>       0.97851723       0.66666657       0.18224525 </v>
   <v>       0.72851729       0.66666657       0.27336782 </v>
   <v>       0.47851718       0.66666633       0.36449048 </v>
   <v>       0.22851712       0.66666633       0.45561311 </v>
   <v>       0.72851735       0.08333331       0.00000000 </v>
   <v>       0.47851729       0.08333327       0.09112262 </v>
   <v>       0.22851726       0.08333321       0.18224525 </v>
   <v>       0.97851729       0.08333313       0.27336782 </v>
   <v>       0.72851723       0.08333310       0.36449048 </v>
   <v>       0.47851723       0.08333304       0.45561308 </v>
   <v>       0.72851735       0.41666666       0.00000000 </v>
   <v>       0.47851729       0.41666663       0.09112262 </v>
   <v>       0.22851726       0.41666657       0.18224525 </v>
   <v>       0.97851729       0.41666651       0.27336782 </v>
   <v>       0.72851723       0.41666642       0.36449048 </v>
   <v>       0.47851723       0.41666636       0.45561308 </v>
   <v>       0.72851735       0.75000000       0.00000000 </v>
   <v>       0.47851729       0.75000000       0.09112262 </v>
   <v>       0.22851726       0.74999994       0.18224525 </v>
   <v>       0.97851729       0.74999988       0.27336782 </v>
   <v>       0.72851723       0.74999976       0.36449048 </v>
   <v>       0.47851723       0.74999970       0.45561308 </v>
   <v>       0.22851729       0.08333334       0.00000000 </v>
   <v>       0.97851723       0.08333328       0.09112263 </v>
   <v>       0.72851718       0.08333319       0.18224525 </v>
   <v>       0.47851729       0.08333316       0.27336782 </v>
   <v>       0.22851718       0.08333310       0.36449048 </v>
   <v>       0.97851706       0.08333302       0.45561311 </v>
   <v>       0.22851729       0.41666672       0.00000000 </v>
   <v>       0.97851723       0.41666663       0.09112263 </v>
   <v>       0.72851718       0.41666657       0.18224525 </v>
   <v>       0.47851729       0.41666654       0.27336782 </v>
   <v>       0.22851718       0.41666648       0.36449048 </v>
   <v>       0.97851706       0.41666639       0.45561311 </v>
   <v>       0.22851729       0.75000000       0.00000000 </v>
   <v>       0.97851723       0.74999994       0.09112263 </v>
   <v>       0.72851718       0.74999994       0.18224525 </v>
   <v>       0.47851729       0.74999982       0.27336782 </v>
   <v>       0.22851718       0.74999970       0.36449048 </v>
   <v>       0.97851706       0.74999976       0.45561311 </v>
   <v>       0.00000000       0.98202050       0.45561314 </v>
   <v>       0.00000000       0.73202050       0.56449044 </v>
   <v>       0.00000000       0.48202044       0.67336780 </v>
   <v>       0.00000000       0.23202044       0.78224510 </v>
   <v>       0.00000003       0.98202038       0.89112252 </v>
   <v>       0.99999994       0.73202038       0.00000000 </v>
   <v>       0.49999994       0.98202050       0.45561314 </v>
   <v>       0.50000000       0.73202050       0.56449044 </v>
   <v>       0.49999991       0.48202044       0.67336780 </v>
   <v>       0.49999991       0.23202044       0.78224510 </v>
   <v>       0.49999991       0.98202038       0.89112252 </v>
   <v>       0.50000006       0.73202038       0.00000000 </v>
   <v>       0.99999994       0.48202047       0.45561314 </v>
   <v>       0.00000000       0.23202047       0.56449044 </v>
   <v>       0.00000000       0.98202044       0.67336780 </v>
   <v>       0.00000000       0.73202038       0.78224510 </v>
   <v>       0.00000003       0.48202038       0.89112252 </v>
   <v>       0.99999994       0.23202032       0.00000000 </v>
   <v>       0.49999997       0.48202047       0.45561314 </v>
   <v>       0.50000000       0.23202047       0.56449044 </v>
   <v>       0.50000000       0.98202044       0.67336780 </v>
   <v>       0.49999988       0.73202038       0.78224510 </v>
   <v>       0.50000006       0.48202038       0.89112252 </v>
   <v>       0.49999994       0.23202032       0.00000000 </v>
   <v>       0.12500001       0.73202044       0.45561314 </v>
   <v>       0.12500000       0.48202044       0.56449044 </v>
   <v>       0.12500000       0.23202038       0.67336780 </v>
   <v>       0.12500003       0.98202032       0.78224510 </v>
   <v>       0.12499996       0.73202032       0.89112258 </v>
   <v>       0.12500008       0.48202032       0.00000000 </v>
   <v>       0.62499994       0.73202044       0.45561314 </v>
   <v>       0.62499994       0.48202044       0.56449044 </v>
   <v>       0.62499994       0.23202038       0.67336780 </v>
   <v>       0.62499988       0.98202032       0.78224510 </v>
   <v>       0.62499982       0.73202032       0.89112258 </v>
   <v>       0.62499994       0.48202032       0.00000000 </v>
   <v>       0.12500000       0.23202048       0.45561314 </v>
   <v>       0.12499999       0.98202050       0.56449044 </v>
   <v>       0.12499999       0.73202038       0.67336780 </v>
   <v>       0.12500003       0.48202032       0.78224510 </v>
   <v>       0.12499991       0.23202038       0.89112252 </v>
   <v>       0.12499995       0.98202038       0.00000000 </v>
   <v>       0.62499994       0.23202048       0.45561314 </v>
   <v>       0.62499994       0.98202050       0.56449044 </v>
   <v>       0.62499994       0.73202038       0.67336780 </v>
   <v>       0.62499982       0.48202032       0.78224510 </v>
   <v>       0.62500006       0.23202038       0.89112252 </v>
   <v>       0.62499994       0.98202038       0.00000000 </v>
  </varray>
 </structure>
 <calculation>
  <scstep>
   <time name="dav">   32.66   32.98</time>
   <time name="total">   34.52   34.86</time>
   <energy>
    <i name="alphaZ">    383.53918962 </i>
    <i name="ewald">  -5783.26433573 </i>
    <i name="hartreedc">  -6843.80950488 </i>
    <i name="XCdc">  -6358.89206217 </i>
    <i name="pawpsdc">  15436.84863564 </i>
    <i name="pawaedc">  -8225.15040161 </i>
    <i name="eentropy">     -0.00305195 </i>
    <i name="bandstr">   2835.76286264 </i>
    <i name="atom">  11936.92408711 </i>
    <i name="e_fr_energy">   3381.95541866 </i>
    <i name="e_wo_entrp">   3381.95847062 </i>
    <i name="e_0_energy">   3381.95694464 </i>
   </energy>
  </scstep>
  <scstep>
   <time name="dav">   37.07   37.46</time>
   <time name="total">   37.07   37.46</time>
   <energy>
    <i name="e_fr_energy">    784.62485977 </i>
    <i name="e_wo_entrp">    784.62667836 </i>
    <i name="e_0_energy">    784.62576907 </i>
   </energy>
  </scstep>
  <scstep>
   <time name="dav">   40.21   40.62</time>
   <time name="total">   40.21   40.62</time>
   <energy>
    <i name="e_fr_energy">    507.95941562 </i>
    <i name="e_wo_entrp">    507.96167477 </i>
    <i name="e_0_energy">    507.96054519 </i>
   </energy>
  </scstep>
  <scstep>
   <time name="dav">   43.16   43.60</time>
   <time name="total">   43.16   43.61</time>
   <energy>
    <i name="e_fr_energy">    491.38612705 </i>
    <i name="e_wo_entrp">    491.38909433 </i>
    <i name="e_0_energy">    491.38761069 </i>
   </energy>
  </scstep>
  <scstep>
   <time name="dav">   46.70   47.15</time>
   <time name="total">   49.47   49.96</time>
   <energy>
    <i name="e_fr_energy">    490.54273050 </i>
    <i name="e_wo_entrp">    490.54546100 </i>
    <i name="e_0_energy">    490.54409575 </i>
   </energy>
  </scstep>
  <scstep>
   <time name="dav">   42.71   43.13</time>
   <time name="total">   47.33   47.80</time>
   <energy>
    <i name="e_fr_energy">    528.52117641 </i>
    <i name="e_wo_entrp">    528.52272893 </i>
    <i name="e_0_energy">    528.52195267 </i>
   </energy>
  </scstep>
  <scstep>
   <time name="dav">   50.05   50.55</time>
   <time name="total">   54.67   55.22</time>
   <energy>
    <i name="e_fr_energy">    252.95356337 </i>
    <i name="e_wo_entrp">    252.95645116 </i>
    <i name="e_0_energy">    252.95500727 </i>
   </energy>
  </scstep>
  <scstep>
   <time name="dav">   44.29   44.76</time>
   <time name="total">   48.92   49.43</time>
   <energy>
    <i name="e_fr_energy">    560.47109777 </i>
    <i name="e_wo_entrp">    560.47301221 </i>
    <i name="e_0_energy">    560.47205499 </i>
   </energy>
  </scstep>
  <scstep>
   <time name="dav">   40.90   41.33</time>
   <time name="total">   45.53   46.02</time>
   <energy>
    <i name="e_fr_energy">    541.67811954 </i>
    <i name="e_wo_entrp">    541.68007692 </i>
    <i name="e_0_energy">    541.67909823 </i>
   </energy>
  </scstep>
  <scstep>
   <time name="dav">   40.52   40.90</time>
   <time name="total">   45.15   45.57</time>
   <energy>
    <i name="e_fr_energy">    548.18150165 </i>
    <i name="e_wo_entrp">    548.18300996 </i>
    <i name="e_0_energy">    548.18225581 </i>
   </energy>
  </scstep>
  <scstep>
   <time name="dav">   38.63   39.00</time>
   <time name="total">   43.25   43.67</time>
   <energy>
    <i name="e_fr_energy">    547.69085886 </i>
    <i name="e_wo_entrp">    547.69251290 </i>
    <i name="e_0_energy">    547.69168588 </i>
   </energy>
  </scstep>
  <scstep>
   <time name="dav">   40.42   40.80</time>
   <time name="total">   45.02   45.44</time>
   <energy>
    <i name="e_fr_energy">    552.31439247 </i>
    <i name="e_wo_entrp">    552.31613124 </i>
    <i name="e_0_energy">    552.31526185 </i>
   </energy>
  </scstep>
  <scstep>
   <time name="dav">   39.92   40.30</time>
   <time name="total">   44.53   44.95</time>
   <energy>
    <i name="e_fr_energy">    552.54345746 </i>
    <i name="e_wo_entrp">    552.54596059 </i>
    <i name="e_0_energy">    552.54470903 </i>
   </energy>
  </scstep>
  <scstep>
   <time name="dav">   38.53   38.90</time>
   <time name="total">   43.13   43.55</time>
   <energy>
    <i name="e_fr_energy">    551.08913837 </i>
    <i name="e_wo_entrp">    551.09196494 </i>
    <i name="e_0_energy">    551.09055166 </i>
   </energy>
  </scstep>
  <scstep>
   <time name="dav">   36.83   37.17</time>
   <time name="total">   41.44   41.83</time>
   <energy>
    <i name="e_fr_energy">    552.02505724 </i>
    <i name="e_wo_entrp">    552.02685835 </i>
    <i name="e_0_energy">    552.02595780 </i>
   </energy>
  </scstep>
  <scstep>
   <time name="dav">   37.02   37.37</time>
   <time name="total">   41.64   42.03</time>
   <energy>
    <i name="e_fr_energy">    551.70410519 </i>
    <i name="e_wo_entrp">    551.70538120 </i>
    <i name="e_0_energy">    551.70474319 </i>
   </energy>
  </scstep>
  <scstep>
   <time name="dav">   39.22   39.58</time>
   <time name="total">   43.83   44.23</time>
   <energy>
    <i name="e_fr_energy">    551.86764137 </i>
    <i name="e_wo_entrp">    551.86902308 </i>
    <i name="e_0_energy">    551.86833223 </i>
   </energy>
  </scstep>
  <scstep>
   <time name="dav">   39.93   40.32</time>
   <time name="total">   44.55   44.98</time>
   <energy>
    <i name="e_fr_energy">    551.85575868 </i>
    <i name="e_wo_entrp">    551.85723067 </i>
    <i name="e_0_energy">    551.85649468 </i>
   </energy>
  </scstep>
  <scstep>
   <time name="dav">   38.92   39.28</time>
   <time name="total">   43.53   43.94</time>
   <energy>
    <i name="e_fr_energy">    551.75075843 </i>
    <i name="e_wo_entrp">    551.75203046 </i>
    <i name="e_0_energy">    551.75139445 </i>
   </energy>
  </scstep>
  <scstep>
   <time name="dav">   38.27   38.66</time>
   <time name="total">   42.86   43.30</time>
   <energy>
    <i name="e_fr_energy">    551.97448834 </i>
    <i name="e_wo_entrp">    551.97624138 </i>
    <i name="e_0_energy">    551.97536486 </i>
   </energy>
  </scstep>
  <scstep>
   <time name="dav">   38.08   38.46</time>
   <time name="total">   42.73   43.16</time>
   <energy>
    <i name="e_fr_energy">    552.18389460 </i>
    <i name="e_wo_entrp">    552.18568985 </i>
    <i name="e_0_energy">    552.18479223 </i>
   </energy>
  </scstep>
  <scstep>
   <time name="dav">   37.95   38.31</time>
   <time name="total">   42.60   43.01</time>
   <energy>
    <i name="e_fr_energy">    552.73101326 </i>
    <i name="e_wo_entrp">    552.73295141 </i>
    <i name="e_0_energy">    552.73198233 </i>
   </energy>
  </scstep>
  <scstep>
   <time name="dav">   44.34   44.77</time>
   <time name="total">   48.99   49.46</time>
   <energy>
    <i name="e_fr_energy">    553.17191896 </i>
    <i name="e_wo_entrp">    553.17384703 </i>
    <i name="e_0_energy">    553.17288300 </i>
   </energy>
  </scstep>
  <scstep>
   <time name="dav">   41.18   41.58</time>
   <time name="total">   45.84   46.28</time>
   <energy>
    <i name="e_fr_energy">    553.27828787 </i>
    <i name="e_wo_entrp">    553.28008559 </i>
    <i name="e_0_energy">    553.27918673 </i>
   </energy>
  </scstep>
  <scstep>
   <time name="dav">   38.20   38.59</time>
   <time name="total">   42.87   43.30</time>
   <energy>
    <i name="e_fr_energy">    553.41544519 </i>
    <i name="e_wo_entrp">    553.41703938 </i>
    <i name="e_0_energy">    553.41624229 </i>
   </energy>
  </scstep>
  <scstep>
   <time name="dav">   44.90   45.33</time>
   <time name="total">   49.54   50.01</time>
   <energy>
    <i name="e_fr_energy">    553.47585495 </i>
    <i name="e_wo_entrp">    553.47732497 </i>
    <i name="e_0_energy">    553.47658996 </i>
   </energy>
  </scstep>
  <scstep>
   <time name="dav">   39.99   40.38</time>
   <time name="total">   44.65   45.08</time>
   <energy>
    <i name="e_fr_energy">    553.48594492 </i>
    <i name="e_wo_entrp">    553.48748446 </i>
    <i name="e_0_energy">    553.48671469 </i>
   </energy>
  </scstep>
  <scstep>
   <time name="dav">   38.56   38.95</time>
   <time name="total">   43.19   43.62</time>
   <energy>
    <i name="e_fr_energy">    553.48783722 </i>
    <i name="e_wo_entrp">    553.48935400 </i>
    <i name="e_0_energy">    553.48859561 </i>
   </energy>
  </scstep>
  <scstep>
   <time name="dav">   41.45   41.85</time>
   <time name="total">   46.07   46.52</time>
   <energy>
    <i name="e_fr_energy">    553.49071743 </i>
    <i name="e_wo_entrp">    553.49225333 </i>
    <i name="e_0_energy">    553.49148538 </i>
   </energy>
  </scstep>
  <scstep>
   <time name="dav">   38.42   38.81</time>
   <time name="total">   43.03   43.47</time>
   <energy>
    <i name="e_fr_energy">    553.49341133 </i>
    <i name="e_wo_entrp">    553.49498728 </i>
    <i name="e_0_energy">    553.49419931 </i>
   </energy>
  </scstep>
  <scstep>
   <time name="dav">   40.01   40.40</time>
   <time name="total">   44.61   45.05</time>
   <energy>
    <i name="e_fr_energy">    553.49619445 </i>
    <i name="e_wo_entrp">    553.49778695 </i>
    <i name="e_0_energy">    553.49699070 </i>
   </energy>
  </scstep>
  <scstep>
   <time name="dav">   38.56   38.94</time>
   <time name="total">   43.17   43.61</time>
   <energy>
    <i name="e_fr_energy">    553.49917084 </i>
    <i name="e_wo_entrp">    553.50076746 </i>
    <i name="e_0_energy">    553.49996915 </i>
   </energy>
  </scstep>
  <scstep>
   <time name="dav">   39.07   39.44</time>
   <time name="total">   43.69   44.10</time>
   <energy>
    <i name="e_fr_energy">    553.50251565 </i>
    <i name="e_wo_entrp">    553.50411274 </i>
    <i name="e_0_energy">    553.50331419 </i>
   </energy>
  </scstep>
  <scstep>
   <time name="dav">   37.87   38.29</time>
   <time name="total">   42.46   42.93</time>
   <energy>
    <i name="e_fr_energy">    553.50818370 </i>
    <i name="e_wo_entrp">    553.50977457 </i>
    <i name="e_0_energy">    553.50897914 </i>
   </energy>
  </scstep>
  <scstep>
   <time name="dav">   39.90   40.28</time>
   <time name="total">   44.51   44.93</time>
   <energy>
    <i name="e_fr_energy">    553.51224270 </i>
    <i name="e_wo_entrp">    553.51384131 </i>
    <i name="e_0_energy">    553.51304200 </i>
   </energy>
  </scstep>
  <scstep>
   <time name="dav">   39.18   39.54</time>
   <time name="total">   43.77   44.18</time>
   <energy>
    <i name="e_fr_energy">    553.51274540 </i>
    <i name="e_wo_entrp">    553.51434630 </i>
    <i name="e_0_energy">    553.51354585 </i>
   </energy>
  </scstep>
  <scstep>
   <time name="dav">   39.13   39.49</time>
   <time name="total">   43.73   44.13</time>
   <energy>
    <i name="e_fr_energy">    553.51276695 </i>
    <i name="e_wo_entrp">    553.51436624 </i>
    <i name="e_0_energy">    553.51356660 </i>
   </energy>
  </scstep>
  <scstep>
   <time name="dav">   39.79   40.15</time>
   <time name="total">   44.44   44.84</time>
   <energy>
    <i name="e_fr_energy">    553.51311675 </i>
    <i name="e_wo_entrp">    553.51471699 </i>
    <i name="e_0_energy">    553.51391687 </i>
   </energy>
  </scstep>
  <scstep>
   <time name="dav">   38.97   39.34</time>
   <time name="total">   43.62   44.03</time>
   <energy>
    <i name="e_fr_energy">    553.51543812 </i>
    <i name="e_wo_entrp">    553.51705791 </i>
    <i name="e_0_energy">    553.51624802 </i>
   </energy>
  </scstep>
  <scstep>
   <time name="dav">   38.05   38.39</time>
   <time name="total">   42.66   43.05</time>
   <energy>
    <i name="e_fr_energy">    553.51730563 </i>
    <i name="e_wo_entrp">    553.51893258 </i>
    <i name="e_0_energy">    553.51811910 </i>
   </energy>
  </scstep>
  <scstep>
   <time name="dav">   40.86   41.22</time>
   <time name="total">   45.44   45.85</time>
   <energy>
    <i name="e_fr_energy">    553.51777775 </i>
    <i name="e_wo_entrp">    553.51941052 </i>
    <i name="e_0_energy">    553.51859414 </i>
   </energy>
  </scstep>
  <scstep>
   <time name="dav">   38.49   38.84</time>
   <time name="total">   43.08   43.48</time>
   <energy>
    <i name="e_fr_energy">    553.51787335 </i>
    <i name="e_wo_entrp">    553.51950981 </i>
    <i name="e_0_energy">    553.51869158 </i>
   </energy>
  </scstep>
  <scstep>
   <time name="dav">   37.85   38.20</time>
   <time name="total">   42.43   42.83</time>
   <energy>
    <i name="e_fr_energy">    553.51816134 </i>
    <i name="e_wo_entrp">    553.51980412 </i>
    <i name="e_0_energy">    553.51898273 </i>
   </energy>
  </scstep>
  <scstep>
   <time name="dav">   38.89   39.26</time>
   <time name="total">   43.48   43.89</time>
   <energy>
    <i name="e_fr_energy">    553.51828345 </i>
    <i name="e_wo_entrp">    553.51993084 </i>
    <i name="e_0_energy">    553.51910714 </i>
   </energy>
  </scstep>
  <scstep>
   <time name="dav">   39.02   39.40</time>
   <time name="total">   43.61   44.04</time>
   <energy>
    <i name="e_fr_energy">    553.51829489 </i>
    <i name="e_wo_entrp">    553.51994303 </i>
    <i name="e_0_energy">    553.51911896 </i>
   </energy>
  </scstep>
  <scstep>
   <time name="dav">   38.01   38.39</time>
   <time name="total">   42.62   43.05</time>
   <energy>
    <i name="e_fr_energy">    553.51830495 </i>
    <i name="e_wo_entrp">    553.51995503 </i>
    <i name="e_0_energy">    553.51912999 </i>
   </energy>
  </scstep>
  <scstep>
   <time name="dav">   41.05   41.43</time>
   <time name="total">   45.67   46.09</time>
   <energy>
    <i name="e_fr_energy">    553.51830909 </i>
    <i name="e_wo_entrp">    553.51996155 </i>
    <i name="e_0_energy">    553.51913532 </i>
   </energy>
  </scstep>
  <scstep>
   <time name="dav">   38.24   38.60</time>
   <time name="total">   42.85   43.25</time>
   <energy>
    <i name="e_fr_energy">    553.51831230 </i>
    <i name="e_wo_entrp">    553.51996598 </i>
    <i name="e_0_energy">    553.51913914 </i>
   </energy>
  </scstep>
  <scstep>
   <time name="dav">   38.47   38.83</time>
   <time name="total">   43.07   43.48</time>
   <energy>
    <i name="e_fr_energy">    553.51831460 </i>
    <i name="e_wo_entrp">    553.51996933 </i>
    <i name="e_0_energy">    553.51914197 </i>
   </energy>
  </scstep>
  <scstep>
   <time name="dav">   40.27   40.69</time>
   <time name="total">   44.88   45.35</time>
   <energy>
    <i name="e_fr_energy">    553.51831508 </i>
    <i name="e_wo_entrp">    553.51997023 </i>
    <i name="e_0_energy">    553.51914265 </i>
   </energy>
  </scstep>
  <scstep>
   <time name="dav">   38.73   39.10</time>
   <time name="total">   43.34   43.76</time>
   <energy>
    <i name="e_fr_energy">    553.51831565 </i>
    <i name="e_wo_entrp">    553.51997082 </i>
    <i name="e_0_energy">    553.51914323 </i>
   </energy>
  </scstep>
  <scstep>
   <time name="dav">   34.28   34.62</time>
   <time name="total">   36.12   36.49</time>
   <energy>
    <i name="alphaZ">    383.53918962 </i>
    <i name="ewald">  -5783.26433573 </i>
    <i name="hartreedc">  -7117.70563045 </i>
    <i name="XCdc">  -6309.99064559 </i>
    <i name="pawpsdc">3349796.76790541 </i>
    <i name="pawaedc">**************** </i>
    <i name="eentropy">     -0.00165498 </i>
    <i name="bandstr">    305.83352237 </i>
    <i name="atom">  11936.92408711 </i>
    <i name="e_fr_energy">    553.51831564 </i>
    <i name="e_wo_entrp">    553.51997062 </i>
    <i name="e_0_energy">    553.51914313 </i>
   </energy>
  </scstep>
  <structure>
   <crystal>
    <varray name="basis" >
     <v>      13.30317974       0.00000000       0.00000000 </v>
     <v>     -13.30317879       9.40676784       0.00000000 </v>
     <v>       0.00000000       0.00000000      21.07213974 </v>
    </varray>
    <i name="volume">   2636.96595344 </i>
    <varray name="rec_basis" >
     <v>       0.07517000       0.10630643       0.00000000 </v>
     <v>       0.00000000       0.10630644       0.00000000 </v>
     <v>       0.00000000       0.00000000       0.04745603 </v>
    </varray>
   </crystal>
   <varray name="positions" >
    <v>       0.97851729       0.00000000       0.00000000 </v>
    <v>       0.72851723       0.99999994       0.09112263 </v>
    <v>       0.47851718       0.99999988       0.18224525 </v>
    <v>       0.22851723       0.99999982       0.27336782 </v>
    <v>       0.97851718       0.99999976       0.36449048 </v>
    <v>       0.72851718       0.99999970       0.45561311 </v>
    <v>       0.97851729       0.33333337       0.00000000 </v>
    <v>       0.72851723       0.33333328       0.09112263 </v>
    <v>       0.47851718       0.33333322       0.18224525 </v>
    <v>       0.22851723       0.33333316       0.27336782 </v>
    <v>       0.97851718       0.33333302       0.36449048 </v>
    <v>       0.72851718       0.33333305       0.45561311 </v>
    <v>       0.97851729       0.66666675       0.00000000 </v>
    <v>       0.72851723       0.66666669       0.09112263 </v>
    <v>       0.47851718       0.66666663       0.18224525 </v>
    <v>       0.22851723       0.66666663       0.27336782 </v>
    <v>       0.97851718       0.66666651       0.36449048 </v>
    <v>       0.72851718       0.66666645       0.45561311 </v>
    <v>       0.47851729       0.00000000       0.00000000 </v>
    <v>       0.22851725       0.99999994       0.09112263 </v>
    <v>       0.97851723       0.99999988       0.18224525 </v>
    <v>       0.72851729       0.99999982       0.27336782 </v>
    <v>       0.47851718       0.99999976       0.36449048 </v>
    <v>       0.22851712       0.99999964       0.45561311 </v>
    <v>       0.47851729       0.33333334       0.00000000 </v>
    <v>       0.22851725       0.33333328       0.09112263 </v>
    <v>       0.97851723       0.33333322       0.18224525 </v>
    <v>       0.72851729       0.33333316       0.27336782 </v>
    <v>       0.47851718       0.33333311       0.36449048 </v>
    <v>       0.22851712       0.33333296       0.45561311 </v>
    <v>       0.47851729       0.66666675       0.00000000 </v>
    <v>       0.22851725       0.66666663       0.09112263 </v>
    <v>       0.97851723       0.66666657       0.18224525 </v>
    <v>       0.72851729       0.66666657       0.27336782 </v>
    <v>       0.47851718       0.66666633       0.36449048 </v>
    <v>       0.22851712       0.66666633       0.45561311 </v>
    <v>       0.72851735       0.08333331       0.00000000 </v>
    <v>       0.47851729       0.08333327       0.09112262 </v>
    <v>       0.22851726       0.08333321       0.18224525 </v>
    <v>       0.97851729       0.08333313       0.27336782 </v>
    <v>       0.72851723       0.08333310       0.36449048 </v>
    <v>       0.47851723       0.08333304       0.45561308 </v>
    <v>       0.72851735       0.41666666       0.00000000 </v>
    <v>       0.47851729       0.41666663       0.09112262 </v>
    <v>       0.22851726       0.41666657       0.18224525 </v>
    <v>       0.97851729       0.41666651       0.27336782 </v>
    <v>       0.72851723       0.41666642       0.36449048 </v>
    <v>       0.47851723       0.41666636       0.45561308 </v>
    <v>       0.72851735       0.75000000       0.00000000 </v>
    <v>       0.47851729       0.75000000       0.09112262 </v>
    <v>       0.22851726       0.74999994       0.18224525 </v>
    <v>       0.97851729       0.74999988       0.27336782 </v>
    <v>       0.72851723       0.74999976       0.36449048 </v>
    <v>       0.47851723       0.74999970       0.45561308 </v>
    <v>       0.22851729       0.08333334       0.00000000 </v>
    <v>       0.97851723       0.08333328       0.09112263 </v>
    <v>       0.72851718       0.08333319       0.18224525 </v>
    <v>       0.47851729       0.08333316       0.27336782 </v>
    <v>       0.22851718       0.08333310       0.36449048 </v>
    <v>       0.97851706       0.08333302       0.45561311 </v>
    <v>       0.22851729       0.41666672       0.00000000 </v>
    <v>       0.97851723       0.41666663       0.09112263 </v>
    <v>       0.72851718       0.41666657       0.18224525 </v>
    <v>       0.47851729       0.41666654       0.27336782 </v>
    <v>       0.22851718       0.41666648       0.36449048 </v>
    <v>       0.97851706       0.41666639       0.45561311 </v>
    <v>       0.22851729       0.75000000       0.00000000 </v>
    <v>       0.97851723       0.74999994       0.09112263 </v>
    <v>       0.72851718       0.74999994       0.18224525 </v>
    <v>       0.47851729       0.74999982       0.27336782 </v>
    <v>       0.22851718       0.74999970       0.36449048 </v>
    <v>       0.97851706       0.74999976       0.45561311 </v>
    <v>       0.00000000       0.98202050       0.45561314 </v>
    <v>       0.00000000       0.73202050       0.56449044 </v>
    <v>       0.00000000       0.48202044       0.67336780 </v>
    <v>       0.00000000       0.23202044       0.78224510 </v>
    <v>       0.00000003       0.98202038       0.89112252 </v>
    <v>       0.99999994       0.73202038       0.00000000 </v>
    <v>       0.49999994       0.98202050       0.45561314 </v>
    <v>       0.50000000       0.73202050       0.56449044 </v>
    <v>       0.49999991       0.48202044       0.67336780 </v>
    <v>       0.49999991       0.23202044       0.78224510 </v>
    <v>       0.49999991       0.98202038       0.89112252 </v>
    <v>       0.50000006       0.73202038       0.00000000 </v>
    <v>       0.99999994       0.48202047       0.45561314 </v>
    <v>       0.00000000       0.23202047       0.56449044 </v>
    <v>       0.00000000       0.98202044       0.67336780 </v>
    <v>       0.00000000       0.73202038       0.78224510 </v>
    <v>       0.00000003       0.48202038       0.89112252 </v>
    <v>       0.99999994       0.23202032       0.00000000 </v>
    <v>       0.49999997       0.48202047       0.45561314 </v>
    <v>       0.50000000       0.23202047       0.56449044 </v>
    <v>       0.50000000       0.98202044       0.67336780 </v>
    <v>       0.49999988       0.73202038       0.78224510 </v>
    <v>       0.50000006       0.48202038       0.89112252 </v>
    <v>       0.49999994       0.23202032       0.00000000 </v>
    <v>       0.12500001       0.73202044       0.45561314 </v>
    <v>       0.12500000       0.48202044       0.56449044 </v>
    <v>       0.12500000       0.23202038       0.67336780 </v>
    <v>       0.12500003       0.98202032       0.78224510 </v>
    <v>       0.12499996       0.73202032       0.89112258 </v>
    <v>       0.12500008       0.48202032       0.00000000 </v>
    <v>       0.62499994       0.73202044       0.45561314 </v>
    <v>       0.62499994       0.48202044       0.56449044 </v>
    <v>       0.62499994       0.23202038       0.67336780 </v>
    <v>       0.62499988       0.98202032       0.78224510 </v>
    <v>       0.62499982       0.73202032       0.89112258 </v>
    <v>       0.62499994       0.48202032       0.00000000 </v>
    <v>       0.12500000       0.23202048       0.45561314 </v>
    <v>       0.12499999       0.98202050       0.56449044 </v>
    <v>       0.12499999       0.73202038       0.67336780 </v>
    <v>       0.12500003       0.48202032       0.78224510 </v>
    <v>       0.12499991       0.23202038       0.89112252 </v>
    <v>       0.12499995       0.98202038       0.00000000 </v>
    <v>       0.62499994       0.23202048       0.45561314 </v>
    <v>       0.62499994       0.98202050       0.56449044 </v>
    <v>       0.62499994       0.73202038       0.67336780 </v>
    <v>       0.62499982       0.48202032       0.78224510 </v>
    <v>       0.62500006       0.23202038       0.89112252 </v>
    <v>       0.62499994       0.98202038       0.00000000 </v>
   </varray>
  </structure>
  <varray name="forces" >
   <v>      -7.00608901       0.74163542       3.35220539 </v>
   <v>       2.73420025       0.42602810       5.90696620 </v>
   <v>       0.08217174      -0.05367410       0.12199343 </v>
   <v>       0.05626274      -0.00885963      -0.12488387 </v>
   <v>      -3.10396846       0.51372240     -14.04821352 </v>
   <v>       0.00990333      -0.82353886      -1.35709783 </v>
   <v>     -15.18076056     -79.99544665       0.07160796 </v>
   <v>       0.78878830       0.33329132       1.01383647 </v>
   <v>       0.18682334      -0.07811565       0.09617210 </v>
   <v>       0.03253813       0.01076010      -0.15485909 </v>
   <v>      -0.20776396       0.22712139       0.56336041 </v>
   <v>       2.84258203     232.09225700      -0.52404073 </v>
   <v>     209.27228975    -220.03631733      -0.81510684 </v>
   <v>      -0.50178455       0.52362542       0.69137147 </v>
   <v>       0.18728141      -0.12774008       0.15168452 </v>
   <v>      -0.09945731      -0.25895710      -0.16604753 </v>
   <v>      -2.49580863      -1.92022133      -4.32184911 </v>
   <v>      10.44453464      22.78318516      -0.30444978 </v>
   <v>      -7.00608901       0.74163542       3.35220539 </v>
   <v>       2.73420025       0.42602810       5.90696620 </v>
   <v>       0.08217174      -0.05367410       0.12199343 </v>
   <v>       0.05626274      -0.00885963      -0.12488387 </v>
   <v>      -3.10396846       0.51372240     -14.04821352 </v>
   <v>       0.00990333      -0.82353886      -1.35709783 </v>
   <v>     -15.18076056     -79.99544665       0.07160796 </v>
   <v>       0.78878830       0.33329132       1.01383647 </v>
   <v>       0.18682334      -0.07811565       0.09617210 </v>
   <v>       0.03253813       0.01076010      -0.15485909 </v>
   <v>      -0.20776396       0.22712139       0.56336041 </v>
   <v>       2.84258203     232.09225700      -0.52404073 </v>
   <v>     209.27228975    -220.03631733      -0.81510684 </v>
   <v>      -0.50178455       0.52362542       0.69137147 </v>
   <v>       0.18728141      -0.12774008       0.15168452 </v>
   <v>      -0.09945731      -0.25895710      -0.16604753 </v>
   <v>      -2.49580863      -1.92022133      -4.32184911 </v>
   <v>      10.44453464      22.78318516      -0.30444978 </v>
   <v>       1.91186768     230.53128546       0.49621358 </v>
   <v>       0.26705261      -0.19137909       0.57605240 </v>
   <v>      -0.10373946       0.04958309       0.08479583 </v>
   <v>      -0.11206456       0.15528974      -0.20959347 </v>
   <v>       0.81971487       0.59689139      -0.87386459 </v>
   <v>     -14.41097467     -78.24140301      -0.41548104 </v>
   <v>      11.87794184      22.94965595       0.21028797 </v>
   <v>      -2.35134989      -1.28935236       4.47895314 </v>
   <v>       0.13284174       0.05197545       0.10067751 </v>
   <v>       0.00513832       0.04023944      -0.17559481 </v>
   <v>      -0.34596553       0.45403866      -0.30557096 </v>
   <v>     207.30587402    -221.49365065      -0.21532354 </v>
   <v>      -0.19700202      -0.96940058       1.99046121 </v>
   <v>      -3.74606379       1.04262270      13.85940421 </v>
   <v>      -0.05718265      -0.01630737       0.23530217 </v>
   <v>      -0.13831833       0.25527985      -0.13441648 </v>
   <v>       3.17319962       0.42692738      -6.07822205 </v>
   <v>      -6.91503526       1.00742302      -3.01068293 </v>
   <v>       1.91186768     230.53128546       0.49621358 </v>
   <v>       0.26705261      -0.19137909       0.57605240 </v>
   <v>      -0.10373946       0.04958309       0.08479583 </v>
   <v>      -0.11206456       0.15528974      -0.20959347 </v>
   <v>       0.81971487       0.59689139      -0.87386459 </v>
   <v>     -14.41097467     -78.24140301      -0.41548104 </v>
   <v>      11.87794184      22.94965595       0.21028797 </v>
   <v>      -2.35134989      -1.28935236       4.47895314 </v>
   <v>       0.13284174       0.05197545       0.10067751 </v>
   <v>       0.00513832       0.04023944      -0.17559481 </v>
   <v>      -0.34596553       0.45403866      -0.30557096 </v>
   <v>     207.30587402    -221.49365065      -0.21532354 </v>
   <v>      -0.19700202      -0.96940058       1.99046121 </v>
   <v>      -3.74606379       1.04262270      13.85940421 </v>
   <v>      -0.05718265      -0.01630737       0.23530217 </v>
   <v>      -0.13831833       0.25527985      -0.13441648 </v>
   <v>       3.17319962       0.42692738      -6.07822205 </v>
   <v>      -6.91503526       1.00742302      -3.01068293 </v>
   <v>      20.19180231     -10.91102059      14.54438343 </v>
   <v>      -0.15858602      -0.54356176       3.76986552 </v>
   <v>      -0.34333834      -0.11906321       0.09843759 </v>
   <v>      -0.28781674       0.11171130      -0.10587154 </v>
   <v>      -0.22421103       0.26495660      -4.23726521 </v>
   <v>    -205.15802077     219.09217742     -12.09288305 </v>
   <v>      20.19180231     -10.91102059      14.54438343 </v>
   <v>      -0.15858602      -0.54356176       3.76986552 </v>
   <v>      -0.34333834      -0.11906321       0.09843759 </v>
   <v>      -0.28781674       0.11171130      -0.10587154 </v>
   <v>      -0.22421103       0.26495660      -4.23726521 </v>
   <v>    -205.15802077     219.09217742     -12.09288305 </v>
   <v>    -209.69656826     202.23164013      -0.48537962 </v>
   <v>      -0.98033504       0.68090595       1.42642657 </v>
   <v>      -0.38331911       0.12319185       0.20640262 </v>
   <v>      -0.45509156      -0.02060695      -0.19420093 </v>
   <v>      -0.86638652       0.28193694      -0.74664780 </v>
   <v>      14.86012523     -29.02629373      -1.57883091 </v>
   <v>    -209.69656826     202.23164013      -0.48537962 </v>
   <v>      -0.98033504       0.68090595       1.42642657 </v>
   <v>      -0.38331911       0.12319185       0.20640262 </v>
   <v>      -0.45509156      -0.02060695      -0.19420093 </v>
   <v>      -0.86638652       0.28193694      -0.74664780 </v>
   <v>      14.86012523     -29.02629373      -1.57883091 </v>
   <v>       1.93836606       1.01855710       8.71128143 </v>
   <v>       0.97640930      -0.63127583       1.01374328 </v>
   <v>       0.38810347       0.06407572       0.02005281 </v>
   <v>       0.35895547       0.04747425      -0.32427439 </v>
   <v>       0.27612839      -0.44249719      -2.62803602 </v>
   <v>      -4.65057701      91.64115975      -4.47992123 </v>
   <v>       1.93836606       1.01855710       8.71128143 </v>
   <v>       0.97640930      -0.63127583       1.01374328 </v>
   <v>       0.38810347       0.06407572       0.02005281 </v>
   <v>       0.35895547       0.04747425      -0.32427439 </v>
   <v>       0.27612839      -0.44249719      -2.62803602 </v>
   <v>      -4.65057701      91.64115975      -4.47992123 </v>
   <v>      -9.35585054    -147.87847098       0.53244410 </v>
   <v>       0.08484752       0.28515529       1.36441186 </v>
   <v>       0.40673198      -0.05857089       0.06067852 </v>
   <v>       0.32743662      -0.07657380      -0.09325761 </v>
   <v>       0.65469899      -0.01840011      -0.97149947 </v>
   <v>      -3.06118214    -235.82508192      -4.57610775 </v>
   <v>      -9.35585054    -147.87847098       0.53244410 </v>
   <v>       0.08484752       0.28515529       1.36441186 </v>
   <v>       0.40673198      -0.05857089       0.06067852 </v>
   <v>       0.32743662      -0.07657380      -0.09325761 </v>
   <v>       0.65469899      -0.01840011      -0.97149947 </v>
   <v>      -3.06118214    -235.82508192      -4.57610775 </v>
  </varray>
  <varray name="stress" >
   <v>     535.28112305    -297.22228448       1.60649963 </v>
   <v>    -297.22231722    1391.25158334      -0.65165549 </v>
   <v>       1.60639192      -0.65159914     196.52003457 </v>
  </varray>
  <energy>
   <i name="e_fr_energy">    553.51831564 </i>
   <i name="e_wo_entrp">    553.51997062 </i>
   <i name="e_0_energy">    553.51914313 </i>
  </energy>
  <time name="totalsc"> 2366.40 2390.27</time>
  <eigenvalues>
   <array>
    <dimension dim="1">band</dimension>
    <dimension dim="2">kpoint</dimension>
    <dimension dim="3">spin</dimension>
    <field>eigene</field>
    <field>occ</field>
    <set>
     <set comment="spin 1">
      <set comment="kpoint 1">
       <r>   -9.4129    1.0000 </r>
       <r>   -9.3509    1.0000 </r>
       <r>   -8.5565    1.0000 </r>
       <r>   -8.3897    1.0000 </r>
       <r>   -7.4377    1.0000 </r>
       <r>   -7.2602    1.0000 </r>
       <r>   -6.8565    1.0000 </r>
       <r>   -6.6558    1.0000 </r>
       <r>   -6.5399    1.0000 </r>
       <r>   -6.3938    1.0000 </r>
       <r>   -6.3232    1.0000 </r>
       <r>   -6.1329    1.0000 </r>
       <r>   -5.7454    1.0000 </r>
       <r>   -5.7372    1.0000 </r>
       <r>   -5.7355    1.0000 </r>
       <r>   -5.5460    1.0000 </r>
       <r>   -5.5287    1.0000 </r>
       <r>   -5.2568    1.0000 </r>
       <r>   -5.1628    1.0000 </r>
       <r>   -4.9992    1.0000 </r>
       <r>   -4.9612    1.0000 </r>
       <r>   -4.9069    1.0000 </r>
       <r>   -4.7269    1.0000 </r>
       <r>   -4.7150    1.0000 </r>
       <r>   -4.5243    1.0000 </r>
       <r>   -4.4224    1.0000 </r>
       <r>   -4.2682    1.0000 </r>
       <r>   -4.2226    1.0000 </r>
       <r>   -4.0447    1.0000 </r>
       <r>   -4.0222    1.0000 </r>
       <r>   -4.0109    1.0000 </r>
       <r>   -3.9576    1.0000 </r>
       <r>   -3.8614    1.0000 </r>
       <r>   -3.8018    1.0000 </r>
       <r>   -3.6638    1.0000 </r>
       <r>   -3.6292    1.0000 </r>
       <r>   -3.5629    1.0000 </r>
       <r>   -3.4892    1.0000 </r>
       <r>   -3.4446    1.0000 </r>
       <r>   -3.4358    1.0000 </r>
       <r>   -3.3530    1.0000 </r>
       <r>   -3.2684    1.0000 </r>
       <r>   -3.2477    1.0000 </r>
       <r>   -3.0813    1.0000 </r>
       <r>   -3.0784    1.0000 </r>
       <r>   -3.0404    1.0000 </r>
       <r>   -2.9814    1.0000 </r>
       <r>   -2.8401    1.0000 </r>
       <r>   -2.8213    1.0000 </r>
       <r>   -2.7771    1.0000 </r>
       <r>   -2.7298    1.0000 </r>
       <r>   -2.6827    1.0000 </r>
       <r>   -2.6338    1.0000 </r>
       <r>   -2.5530    1.0000 </r>
       <r>   -2.4785    1.0000 </r>
       <r>   -2.3739    1.0000 </r>
       <r>   -2.3544    1.0000 </r>
       <r>   -2.3081    1.0000 </r>
       <r>   -2.1585    1.0000 </r>
       <r>   -2.1550    1.0000 </r>
       <r>   -2.1025    1.0000 </r>
       <r>   -2.0418    1.0000 </r>
       <r>   -1.9531    1.0000 </r>
       <r>   -1.8734    1.0000 </r>
       <r>   -1.8723    1.0000 </r>
       <r>   -1.7450    1.0000 </r>
       <r>   -1.7020    1.0000 </r>
       <r>   -1.6777    1.0000 </r>
       <r>   -1.6432    1.0000 </r>
       <r>   -1.6242    1.0000 </r>
       <r>   -1.5633    1.0000 </r>
       <r>   -1.5032    1.0000 </r>
       <r>   -1.4737    1.0000 </r>
       <r>   -1.4356    1.0000 </r>
       <r>   -1.3837    1.0000 </r>
       <r>   -1.2523    1.0000 </r>
       <r>   -1.2236    1.0000 </r>
       <r>   -1.1566    1.0000 </r>
       <r>   -1.1322    1.0000 </r>
       <r>   -1.0684    1.0000 </r>
       <r>   -0.9554    1.0000 </r>
       <r>   -0.9014    1.0000 </r>
       <r>   -0.8910    1.0000 </r>
       <r>   -0.8493    1.0000 </r>
       <r>   -0.8094    1.0000 </r>
       <r>   -0.6818    1.0000 </r>
       <r>   -0.6533    1.0000 </r>
       <r>   -0.6379    1.0000 </r>
       <r>   -0.4592    1.0000 </r>
       <r>   -0.3913    1.0000 </r>
       <r>   -0.3505    1.0000 </r>
       <r>   -0.2518    1.0000 </r>
       <r>   -0.2070    1.0000 </r>
       <r>   -0.1608    1.0000 </r>
       <r>   -0.1445    1.0000 </r>
       <r>   -0.1023    1.0000 </r>
       <r>   -0.0930    1.0000 </r>
       <r>   -0.0525    1.0000 </r>
       <r>    0.0169    1.0000 </r>
       <r>    0.0510    1.0000 </r>
       <r>    0.0779    1.0000 </r>
       <r>    0.1561    1.0000 </r>
       <r>    0.2022    1.0000 </r>
       <r>    0.3024    1.0000 </r>
       <r>    0.3379    1.0000 </r>
       <r>    0.4493    1.0000 </r>
       <r>    0.5997    1.0000 </r>
       <r>    0.6035    1.0000 </r>
       <r>    0.6882    1.0000 </r>
       <r>    0.6884    1.0000 </r>
       <r>    0.7579    1.0000 </r>
       <r>    0.7753    1.0000 </r>
       <r>    0.8245    1.0000 </r>
       <r>    0.9032    1.0000 </r>
       <r>    0.9239    1.0000 </r>
       <r>    0.9579    1.0000 </r>
       <r>    1.0042    1.0000 </r>
       <r>    1.1219    1.0000 </r>
       <r>    1.1320    1.0000 </r>
       <r>    1.2128    1.0000 </r>
       <r>    1.2263    1.0000 </r>
       <r>    1.3227    1.0000 </r>
       <r>    1.3622    1.0000 </r>
       <r>    1.3919    1.0000 </r>
       <r>    1.4134    1.0000 </r>
       <r>    1.4772    1.0000 </r>
       <r>    1.4903    1.0000 </r>
       <r>    1.5939    1.0000 </r>
       <r>    1.6252    1.0000 </r>
       <r>    1.6629    1.0000 </r>
       <r>    1.6861    1.0000 </r>
       <r>    1.7832    1.0000 </r>
       <r>    1.8456    1.0000 </r>
       <r>    1.8995    1.0000 </r>
       <r>    1.9258    1.0000 </r>
       <r>    2.0005    1.0000 </r>
       <r>    2.0648    1.0000 </r>
       <r>    2.1004    1.0000 </r>
       <r>    2.1106    1.0000 </r>
       <r>    2.1640    1.0000 </r>
       <r>    2.1677    1.0000 </r>
       <r>    2.2459    1.0000 </r>
       <r>    2.3073    1.0000 </r>
       <r>    2.3524    1.0000 </r>
       <r>    2.3827    1.0000 </r>
       <r>    2.4187    1.0000 </r>
       <r>    2.4739    1.0000 </r>
       <r>    2.5033    1.0000 </r>
       <r>    2.5121    1.0000 </r>
       <r>    2.5422    1.0000 </r>
       <r>    2.5817    1.0000 </r>
       <r>    2.6147    1.0000 </r>
       <r>    2.6499    1.0000 </r>
       <r>    2.7481    1.0000 </r>
       <r>    2.7670    1.0000 </r>
       <r>    2.7959    1.0000 </r>
       <r>    2.8213    1.0000 </r>
       <r>    2.8777    1.0000 </r>
       <r>    2.8885    1.0000 </r>
       <r>    2.9413    1.0000 </r>
       <r>    3.0227    1.0000 </r>
       <r>    3.0558    1.0000 </r>
       <r>    3.1543    1.0000 </r>
       <r>    3.1868    1.0000 </r>
       <r>    3.2017    1.0000 </r>
       <r>    3.2709    1.0000 </r>
       <r>    3.2742    1.0000 </r>
       <r>    3.3238    1.0000 </r>
       <r>    3.3488    1.0000 </r>
       <r>    3.3713    1.0000 </r>
       <r>    3.4016    1.0000 </r>
       <r>    3.4492    1.0000 </r>
       <r>    3.4612    1.0000 </r>
       <r>    3.4837    1.0000 </r>
       <r>    3.5134    1.0000 </r>
       <r>    3.5241    1.0000 </r>
       <r>    3.5656    1.0000 </r>
       <r>    3.6305    1.0000 </r>
       <r>    3.6549    1.0000 </r>
       <r>    3.7327    1.0000 </r>
       <r>    3.7386    1.0000 </r>
       <r>    3.7826    1.0000 </r>
       <r>    3.8270    1.0000 </r>
       <r>    3.8273    1.0000 </r>
       <r>    3.8542    1.0000 </r>
       <r>    3.8764    1.0000 </r>
       <r>    3.9114    1.0000 </r>
       <r>    3.9622    1.0000 </r>
       <r>    3.9763    1.0000 </r>
       <r>    4.0681    1.0000 </r>
       <r>    4.1041    1.0000 </r>
       <r>    4.1255    1.0000 </r>
       <r>    4.1266    1.0000 </r>
       <r>    4.1787    1.0000 </r>
       <r>    4.2557    1.0000 </r>
       <r>    4.2755    1.0000 </r>
       <r>    4.3296    1.0000 </r>
       <r>    4.3702    1.0000 </r>
       <r>    4.4322    1.0000 </r>
       <r>    4.4494    1.0000 </r>
       <r>    4.4899    1.0000 </r>
       <r>    4.5076    1.0000 </r>
       <r>    4.6168    1.0000 </r>
       <r>    4.6490    1.0000 </r>
       <r>    4.7165    1.0000 </r>
       <r>    4.7428    1.0000 </r>
       <r>    4.7721    1.0000 </r>
       <r>    4.7740    1.0000 </r>
       <r>    4.8525    1.0000 </r>
       <r>    4.8828    1.0000 </r>
       <r>    4.9179    1.0000 </r>
       <r>    4.9305    1.0000 </r>
       <r>    5.0190    1.0000 </r>
       <r>    5.0397    1.0000 </r>
       <r>    5.0405    1.0000 </r>
       <r>    5.0905    1.0000 </r>
       <r>    5.2113    1.0000 </r>
       <r>    5.2583    1.0000 </r>
       <r>    5.2633    1.0000 </r>
       <r>    5.3165    1.0000 </r>
       <r>    5.3910    1.0000 </r>
       <r>    5.4264    1.0000 </r>
       <r>    5.4758    1.0000 </r>
       <r>    5.4827    1.0000 </r>
       <r>    5.5568    1.0000 </r>
       <r>    5.6288    1.0000 </r>
       <r>    5.6887    1.0000 </r>
       <r>    5.7175    1.0000 </r>
       <r>    5.7540    1.0000 </r>
       <r>    5.7787    1.0000 </r>
       <r>    5.8093    1.0000 </r>
       <r>    5.8477    1.0000 </r>
       <r>    5.9563    1.0000 </r>
       <r>    5.9619    1.0000 </r>
       <r>    5.9648    1.0000 </r>
       <r>    6.0721    1.0000 </r>
       <r>    6.1180    1.0000 </r>
       <r>    6.1930    1.0000 </r>
       <r>    6.2188    1.0000 </r>
       <r>    6.2422    1.0000 </r>
       <r>    6.2811    1.0000 </r>
       <r>    6.3229    0.1505 </r>
       <r>    6.3629    0.0000 </r>
       <r>    6.4059    0.0000 </r>
       <r>    6.4607    0.0000 </r>
       <r>    6.4711    0.0000 </r>
       <r>    6.6012    0.0000 </r>
       <r>    6.6093    0.0000 </r>
       <r>    6.6643    0.0000 </r>
       <r>    6.6692    0.0000 </r>
       <r>    6.7255    0.0000 </r>
       <r>    6.7618    0.0000 </r>
       <r>    6.8027    0.0000 </r>
       <r>    6.8356    0.0000 </r>
       <r>    6.9487    0.0000 </r>
       <r>    6.9544    0.0000 </r>
       <r>    6.9627    0.0000 </r>
       <r>    7.0648    0.0000 </r>
       <r>    7.0665    0.0000 </r>
       <r>    7.1302    0.0000 </r>
       <r>    7.1587    0.0000 </r>
       <r>    7.2080    0.0000 </r>
       <r>    7.2612    0.0000 </r>
       <r>    7.2740    0.0000 </r>
       <r>    7.3095    0.0000 </r>
       <r>    7.3255    0.0000 </r>
       <r>    7.3401    0.0000 </r>
       <r>    7.3972    0.0000 </r>
       <r>    7.4857    0.0000 </r>
       <r>    7.5004    0.0000 </r>
       <r>    7.5319    0.0000 </r>
       <r>    7.5386    0.0000 </r>
       <r>    7.5919    0.0000 </r>
       <r>    7.6168    0.0000 </r>
       <r>    7.6297    0.0000 </r>
       <r>    7.6589    0.0000 </r>
       <r>    7.6691    0.0000 </r>
       <r>    7.6835    0.0000 </r>
[...]
       <r>    -6.3011    10.2345    18.5668 </r>
       <r>    -6.2368    19.6157    19.8289 </r>
       <r>    -6.1725     2.2540    19.9784 </r>
       <r>    -6.1081    24.6215    21.5625 </r>
       <r>    -6.0438     7.6546    22.0552 </r>
       <r>    -5.9794    10.3222    22.7193 </r>
       <r>    -5.9151    19.4556    23.9711 </r>
       <r>    -5.8508    10.8107    24.6667 </r>
       <r>    -5.7864     6.7529    25.1011 </r>
       <r>    -5.7221    35.9113    27.4120 </r>
       <r>    -5.6577    23.9140    28.9525 </r>
       <r>    -5.5934    23.4757    30.4629 </r>
       <r>    -5.5290    18.8037    31.6728 </r>
       <r>    -5.4647     8.2448    32.2040 </r>
       <r>    -5.4004    14.6030    33.1443 </r>
       <r>    -5.3360    11.0687    33.8565 </r>
       <r>    -5.2717    12.7531    34.6770 </r>
       <r>    -5.2073    10.1462    35.3298 </r>
       <r>    -5.1430    12.7220    36.1519 </r>
       <r>    -5.0787    20.9478    37.4997 </r>
       <r>    -5.0143    25.1495    39.1183 </r>
       <r>    -4.9500     6.5624    39.5408 </r>
       <r>    -4.8856    12.2396    40.3283 </r>
       <r>    -4.8213    10.7068    41.0172 </r>
       <r>    -4.7570    37.6290    43.4383 </r>
       <r>    -4.6926    29.3400    45.3289 </r>
       <r>    -4.6283    18.3328    46.5085 </r>
       <r>    -4.5639    32.8403    48.6215 </r>
       <r>    -4.4996    25.8286    50.2837 </r>
       <r>    -4.4353    14.1610    51.1996 </r>
       <r>    -4.3709    17.5691    52.3300 </r>
       <r>    -4.3066     5.1538    52.6649 </r>
       <r>    -4.2422    11.5216    53.4080 </r>
       <r>    -4.1779    52.0178    56.7582 </r>
       <r>    -4.1136    26.5408    58.4681 </r>
       <r>    -4.0492    21.4860    59.8528 </r>
       <r>    -3.9849    30.6940    61.8277 </r>
       <r>    -3.9205    32.9859    63.9503 </r>
       <r>    -3.8562    25.1911    65.5712 </r>
       <r>    -3.7919    22.9157    67.0456 </r>
       <r>    -3.7275    24.8085    68.6420 </r>
       <r>    -3.6632    23.2071    70.1361 </r>
       <r>    -3.5988    42.1907    72.8506 </r>
       <r>    -3.5345    29.5892    74.7545 </r>
       <r>    -3.4702    31.5127    76.7824 </r>
       <r>    -3.4058    32.9978    78.9068 </r>
       <r>    -3.3415    21.2400    80.2734 </r>
       <r>    -3.2771    43.9017    83.0984 </r>
       <r>    -3.2128    28.7638    84.9539 </r>
       <r>    -3.1484    32.8573    87.0680 </r>
       <r>    -3.0841    19.1078    88.2975 </r>
       <r>    -3.0198    55.8872    91.8933 </r>
       <r>    -2.9554    35.9075    94.2051 </r>
       <r>    -2.8911    30.0114    96.1368 </r>
       <r>    -2.8267    40.2128    98.7242 </r>
       <r>    -2.7624    17.7379    99.8655 </r>
       <r>    -2.6981    22.2150   101.2948 </r>
       <r>    -2.6337    41.9725   103.9957 </r>
       <r>    -2.5694    21.5518   105.3823 </r>
       <r>    -2.5050    46.1043   108.3487 </r>
       <r>    -2.4407    29.4851   110.2465 </r>
       <r>    -2.3764    35.7073   112.5440 </r>
       <r>    -2.3120    40.9802   115.1814 </r>
       <r>    -2.2477    51.8187   118.5164 </r>
       <r>    -2.1833    41.8445   121.2109 </r>
       <r>    -2.1190    19.4631   122.4645 </r>
       <r>    -2.0547    21.3606   123.8389 </r>
       <r>    -1.9903    30.1507   125.7813 </r>
       <r>    -1.9260    22.8977   127.2546 </r>
       <r>    -1.8616    25.5027   128.8962 </r>
       <r>    -1.7973    43.4524   131.6948 </r>
       <r>    -1.7330    42.2552   134.4136 </r>
       <r>    -1.6686    49.3820   137.5909 </r>
       <r>    -1.6043    30.0798   139.5266 </r>
       <r>    -1.5399    30.8403   141.5109 </r>
       <r>    -1.4756    36.4036   143.8534 </r>
       <r>    -1.4113    40.3390   146.4497 </r>
       <r>    -1.3469    39.8545   149.0139 </r>
       <r>    -1.2826    22.5247   150.4660 </r>
       <r>    -1.2182    25.4937   152.1063 </r>
       <r>    -1.1539    21.6689   153.5005 </r>
       <r>    -1.0896    36.1917   155.8306 </r>
       <r>    -1.0252    43.8413   158.6514 </r>
       <r>    -0.9609    13.1822   159.4995 </r>
       <r>    -0.8965    44.6929   162.3751 </r>
       <r>    -0.8322    31.5970   164.4098 </r>
       <r>    -0.7678    37.2985   166.8135 </r>
       <r>    -0.7035    40.0788   169.3941 </r>
       <r>    -0.6392    25.9043   171.0619 </r>
       <r>    -0.5748    38.1259   173.5149 </r>
       <r>    -0.5105    38.8690   176.0158 </r>
       <r>    -0.4461    26.1252   177.6970 </r>
       <r>    -0.3818    34.8447   179.9395 </r>
       <r>    -0.3175    26.5181   181.6466 </r>
       <r>    -0.2531    34.0622   183.8422 </r>
       <r>    -0.1888    46.4955   186.8348 </r>
       <r>    -0.1244    25.4904   188.4751 </r>
       <r>    -0.0601    40.1006   191.0552 </r>
       <r>     0.0042    44.6581   193.9285 </r>
       <r>     0.0686    26.8278   195.6547 </r>
       <r>     0.1329    42.4213   198.3841 </r>
       <r>     0.1973    36.3525   200.7236 </r>
       <r>     0.2616    37.9588   203.1691 </r>
       <r>     0.3259    48.0898   206.2634 </r>
       <r>     0.3903    22.4595   207.7087 </r>
       <r>     0.4546    46.6307   210.7089 </r>
       <r>     0.5190    30.7039   212.6846 </r>
       <r>     0.5833    43.7331   215.4985 </r>
       <r>     0.6476    39.5210   218.0438 </r>
       <r>     0.7120    37.4234   220.4531 </r>
       <r>     0.7763    42.5600   223.1935 </r>
       <r>     0.8407    35.8623   225.5013 </r>
       <r>     0.9050    29.7910   227.4197 </r>
       <r>     0.9693    40.5781   230.0305 </r>
       <r>     1.0337    50.7444   233.2954 </r>
       <r>     1.0980    35.4876   235.5789 </r>
       <r>     1.1624    42.1022   238.2883 </r>
       <r>     1.2267    29.1092   240.1659 </r>
       <r>     1.2910    30.8888   242.1553 </r>
       <r>     1.3554    45.2936   245.0695 </r>
       <r>     1.4197    26.0622   246.7476 </r>
       <r>     1.4841    34.5828   248.9729 </r>
       <r>     1.5484    41.1960   251.6264 </r>
       <r>     1.6128    35.0921   253.8935 </r>
       <r>     1.6771    53.8347   257.3573 </r>
       <r>     1.7414    47.0378   260.3844 </r>
       <r>     1.8058    29.6217   262.2930 </r>
       <r>     1.8701    44.8517   265.1804 </r>
       <r>     1.9345    49.2861   268.3525 </r>
       <r>     1.9988    35.2741   270.6221 </r>
       <r>     2.0631    54.7080   274.1424 </r>
       <r>     2.1275    50.4937   277.3927 </r>
       <r>     2.1918    47.5151   280.4524 </r>
       <r>     2.2562    33.6278   282.6182 </r>
       <r>     2.3205    56.0813   286.2267 </r>
       <r>     2.3848    38.4213   288.7009 </r>
       <r>     2.4492    53.5986   292.1495 </r>
       <r>     2.5135    26.0504   293.8280 </r>
       <r>     2.5779    57.1221   297.5033 </r>
       <r>     2.6422    49.4636   300.6859 </r>
       <r>     2.7065    53.0805   304.1014 </r>
       <r>     2.7709    27.6913   305.8846 </r>
       <r>     2.8352    69.2929   310.3465 </r>
       <r>     2.8996    57.2701   314.0313 </r>
       <r>     2.9639    46.3978   317.0202 </r>
       <r>     3.0282    35.7465   319.3248 </r>
       <r>     3.0926    62.2623   323.3311 </r>
       <r>     3.1569    54.0986   326.8119 </r>
       <r>     3.2213    53.4407   330.2524 </r>
       <r>     3.2856    50.0021   333.4695 </r>
       <r>     3.3499    55.3436   337.0317 </r>
       <r>     3.4143    61.7531   341.0084 </r>
       <r>     3.4786    62.7060   345.0430 </r>
       <r>     3.5430    65.6088   349.2672 </r>
       <r>     3.6073    53.0118   352.6816 </r>
       <r>     3.6716    56.6882   356.3310 </r>
       <r>     3.7360    67.8830   360.6991 </r>
       <r>     3.8003    73.3887   365.4213 </r>
       <r>     3.8647    75.1058   370.2539 </r>
       <r>     3.9290    64.1665   374.3848 </r>
       <r>     3.9934    60.0638   378.2523 </r>
       <r>     4.0577    60.0784   382.1192 </r>
       <r>     4.1220    60.1342   385.9890 </r>
       <r>     4.1864    56.6191   389.6320 </r>
       <r>     4.2507    51.6607   392.9568 </r>
       <r>     4.3151    49.5275   396.1435 </r>
       <r>     4.3794    47.6845   399.2117 </r>
       <r>     4.4437    48.8048   402.3527 </r>
       <r>     4.5081    55.5819   405.9289 </r>
       <r>     4.5724    49.5511   409.1171 </r>
       <r>     4.6368    34.7078   411.3502 </r>
       <r>     4.7011    54.8925   414.8821 </r>
       <r>     4.7654    40.3853   417.4847 </r>
       <r>     4.8298    42.7876   420.2381 </r>
       <r>     4.8941    41.4434   422.9046 </r>
       <r>     4.9585    43.4941   425.7049 </r>
       <r>     5.0228    44.6118   428.5757 </r>
       <r>     5.0871    58.7925   432.3603 </r>
       <r>     5.1515    40.3769   434.9582 </r>
       <r>     5.2158    40.5457   437.5672 </r>
       <r>     5.2802    33.2357   439.7058 </r>
       <r>     5.3445    33.8747   441.8858 </r>
       <r>     5.4088    24.8327   443.4861 </r>
       <r>     5.4732    34.3599   445.6968 </r>
       <r>     5.5375    26.0165   447.3729 </r>
       <r>     5.6019    40.9427   450.0072 </r>
       <r>     5.6662    43.9239   452.8341 </r>
       <r>     5.7305    36.8222   455.2037 </r>
       <r>     5.7949    47.0162   458.2303 </r>
       <r>     5.8592    35.4511   460.5112 </r>
       <r>     5.9236    53.5198   463.9548 </r>
       <r>     5.9879    38.0705   466.4055 </r>
       <r>     6.0522    51.4386   469.7170 </r>
       <r>     6.1166    35.4286   471.9965 </r>
       <r>     6.1809    36.1074   474.3206 </r>
       <r>     6.2453    47.5974   477.3831 </r>
       <r>     6.3096    40.6830   480.0041 </r>
       <r>     6.3740    35.0721   482.2613 </r>
       <r>     6.4383    44.3241   485.1145 </r>
       <r>     6.5026    55.3297   488.6755 </r>
       <r>     6.5670    42.4986   491.4105 </r>
       <r>     6.6313    46.7641   494.4207 </r>
       <r>     6.6957    34.2944   496.6302 </r>
       <r>     6.7600    49.2548   499.7995 </r>
       <r>     6.8243    53.2080   503.2233 </r>
       <r>     6.8887    47.2211   506.2680 </r>
       <r>     6.9530    51.6325   509.5905 </r>
       <r>     7.0174    50.7603   512.8600 </r>
       <r>     7.0817    47.7420   515.9329 </r>
       <r>     7.1460    49.9213   519.1449 </r>
       <r>     7.2104    52.1033   522.4977 </r>
       <r>     7.2747    42.2143   525.2139 </r>
       <r>     7.3391    58.1200   528.9533 </r>
       <r>     7.4034    60.9917   532.8778 </r>
       <r>     7.4677    48.3924   535.9914 </r>
       <r>     7.5321    62.1989   539.9933 </r>
       <r>     7.5964    69.4495   544.4664 </r>
       <r>     7.6608    65.9455   548.7107 </r>
       <r>     7.7251    51.9178   552.0521 </r>
       <r>     7.7894    81.3969   557.2903 </r>
       <r>     7.8538    60.4852   561.1893 </r>
       <r>     7.9181    53.1510   564.6112 </r>
       <r>     7.9825    67.0868   568.9284 </r>
       <r>     8.0468    57.9867   572.6600 </r>
       <r>     8.1111    41.6462   575.3425 </r>
       <r>     8.1755    10.1738   576.0000 </r>
       <r>     8.2398     0.0000   576.0000 </r>
       <r>     8.3042     0.0000   576.0000 </r>
       <r>     8.3685     0.0000   576.0000 </r>
       <r>     8.4328     0.0000   576.0000 </r>
       <r>     8.4972     0.0000   576.0000 </r>
       <r>     8.5615     0.0000   576.0000 </r>
       <r>     8.6259     0.0000   576.0000 </r>
       <r>     8.6902     0.0000   576.0000 </r>
       <r>     8.7546     0.0000   576.0000 </r>
       <r>     8.8189     0.0000   576.0000 </r>
       <r>     8.8832     0.0000   576.0000 </r>
       <r>     8.9476     0.0000   576.0000 </r>
       <r>     9.0119     0.0000   576.0000 </r>
      </set>
     </set>
    </array>
   </total>
  </dos>
 </calculation>
 <structure name="finalpos" >
  <crystal>
   <varray name="basis" >
    <v>      13.30317974       0.00000000       0.00000000 </v>
    <v>     -13.30317879       9.40676784       0.00000000 </v>
    <v>       0.00000000       0.00000000      21.07213974 </v>
   </varray>
   <i name="volume">   2636.96595344 </i>
   <varray name="rec_basis" >
    <v>       0.07517000       0.10630643       0.00000000 </v>
    <v>       0.00000000       0.10630644       0.00000000 </v>
    <v>       0.00000000       0.00000000       0.04745603 </v>
   </varray>
  </crystal>
  <varray name="positions" >
   <v>       0.97851729       0.00000000       0.00000000 </v>
   <v>       0.72851723       0.99999994       0.09112263 </v>
   <v>       0.47851718       0.99999988       0.18224525 </v>
   <v>       0.22851723       0.99999982       0.27336782 </v>
   <v>       0.97851718       0.99999976       0.36449048 </v>
   <v>       0.72851718       0.99999970       0.45561311 </v>
   <v>       0.97851729       0.33333337       0.00000000 </v>
   <v>       0.72851723       0.33333328       0.09112263 </v>
   <v>       0.47851718       0.33333322       0.18224525 </v>
   <v>       0.22851723       0.33333316       0.27336782 </v>
   <v>       0.97851718       0.33333302       0.36449048 </v>
   <v>       0.72851718       0.33333305       0.45561311 </v>
   <v>       0.97851729       0.66666675       0.00000000 </v>
   <v>       0.72851723       0.66666669       0.09112263 </v>
   <v>       0.47851718       0.66666663       0.18224525 </v>
   <v>       0.22851723       0.66666663       0.27336782 </v>
   <v>       0.97851718       0.66666651       0.36449048 </v>
   <v>       0.72851718       0.66666645       0.45561311 </v>
   <v>       0.47851729       0.00000000       0.00000000 </v>
   <v>       0.22851725       0.99999994       0.09112263 </v>
   <v>       0.97851723       0.99999988       0.18224525 </v>
   <v>       0.72851729       0.99999982       0.27336782 </v>
   <v>       0.47851718       0.99999976       0.36449048 </v>
   <v>       0.22851712       0.99999964       0.45561311 </v>
   <v>       0.47851729       0.33333334       0.00000000 </v>
   <v>       0.22851725       0.33333328       0.09112263 </v>
   <v>       0.97851723       0.33333322       0.18224525 </v>
   <v>       0.72851729       0.33333316       0.27336782 </v>
   <v>       0.47851718       0.33333311       0.36449048 </v>
   <v>       0.22851712       0.33333296       0.45561311 </v>
   <v>       0.47851729       0.66666675       0.00000000 </v>
   <v>       0.22851725       0.66666663       0.09112263 </v>
   <v>       0.97851723       0.66666657       0.18224525 </v>
   <v>       0.72851729       0.66666657       0.27336782 </v>
   <v>       0.47851718       0.66666633       0.36449048 </v>
   <v>       0.22851712       0.66666633       0.45561311 </v>
   <v>       0.72851735       0.08333331       0.00000000 </v>
   <v>       0.47851729       0.08333327       0.09112262 </v>
   <v>       0.22851726       0.08333321       0.18224525 </v>
   <v>       0.97851729       0.08333313       0.27336782 </v>
   <v>       0.72851723       0.08333310       0.36449048 </v>
   <v>       0.47851723       0.08333304       0.45561308 </v>
   <v>       0.72851735       0.41666666       0.00000000 </v>
   <v>       0.47851729       0.41666663       0.09112262 </v>
   <v>       0.22851726       0.41666657       0.18224525 </v>
   <v>       0.97851729       0.41666651       0.27336782 </v>
   <v>       0.72851723       0.41666642       0.36449048 </v>
   <v>       0.47851723       0.41666636       0.45561308 </v>
   <v>       0.72851735       0.75000000       0.00000000 </v>
   <v>       0.47851729       0.75000000       0.09112262 </v>
   <v>       0.22851726       0.74999994       0.18224525 </v>
   <v>       0.97851729       0.74999988       0.27336782 </v>
   <v>       0.72851723       0.74999976       0.36449048 </v>
   <v>       0.47851723       0.74999970       0.45561308 </v>
   <v>       0.22851729       0.08333334       0.00000000 </v>
   <v>       0.97851723       0.08333328       0.09112263 </v>
   <v>       0.72851718       0.08333319       0.18224525 </v>
   <v>       0.47851729       0.08333316       0.27336782 </v>
   <v>       0.22851718       0.08333310       0.36449048 </v>
   <v>       0.97851706       0.08333302       0.45561311 </v>
   <v>       0.22851729       0.41666672       0.00000000 </v>
   <v>       0.97851723       0.41666663       0.09112263 </v>
   <v>       0.72851718       0.41666657       0.18224525 </v>
   <v>       0.47851729       0.41666654       0.27336782 </v>
   <v>       0.22851718       0.41666648       0.36449048 </v>
   <v>       0.97851706       0.41666639       0.45561311 </v>
   <v>       0.22851729       0.75000000       0.00000000 </v>
   <v>       0.97851723       0.74999994       0.09112263 </v>
   <v>       0.72851718       0.74999994       0.18224525 </v>
   <v>       0.47851729       0.74999982       0.27336782 </v>
   <v>       0.22851718       0.74999970       0.36449048 </v>
   <v>       0.97851706       0.74999976       0.45561311 </v>
   <v>       0.00000000       0.98202050       0.45561314 </v>
   <v>       0.00000000       0.73202050       0.56449044 </v>
   <v>       0.00000000       0.48202044       0.67336780 </v>
   <v>       0.00000000       0.23202044       0.78224510 </v>
   <v>       0.00000003       0.98202038       0.89112252 </v>
   <v>       0.99999994       0.73202038       0.00000000 </v>
   <v>       0.49999994       0.98202050       0.45561314 </v>
   <v>       0.50000000       0.73202050       0.56449044 </v>
   <v>       0.49999991       0.48202044       0.67336780 </v>
   <v>       0.49999991       0.23202044       0.78224510 </v>
   <v>       0.49999991       0.98202038       0.89112252 </v>
   <v>       0.50000006       0.73202038       0.00000000 </v>
   <v>       0.99999994       0.48202047       0.45561314 </v>
   <v>       0.00000000       0.23202047       0.56449044 </v>
   <v>       0.00000000       0.98202044       0.67336780 </v>
   <v>       0.00000000       0.73202038       0.78224510 </v>
   <v>       0.00000003       0.48202038       0.89112252 </v>
   <v>       0.99999994       0.23202032       0.00000000 </v>
   <v>       0.49999997       0.48202047       0.45561314 </v>
   <v>       0.50000000       0.23202047       0.56449044 </v>
   <v>       0.50000000       0.98202044       0.67336780 </v>
   <v>       0.49999988       0.73202038       0.78224510 </v>
   <v>       0.50000006       0.48202038       0.89112252 </v>
   <v>       0.49999994       0.23202032       0.00000000 </v>
   <v>       0.12500001       0.73202044       0.45561314 </v>
   <v>       0.12500000       0.48202044       0.56449044 </v>
   <v>       0.12500000       0.23202038       0.67336780 </v>
   <v>       0.12500003       0.98202032       0.78224510 </v>
   <v>       0.12499996       0.73202032       0.89112258 </v>
   <v>       0.12500008       0.48202032       0.00000000 </v>
   <v>       0.62499994       0.73202044       0.45561314 </v>
   <v>       0.62499994       0.48202044       0.56449044 </v>
   <v>       0.62499994       0.23202038       0.67336780 </v>
   <v>       0.62499988       0.98202032       0.78224510 </v>
   <v>       0.62499982       0.73202032       0.89112258 </v>
   <v>       0.62499994       0.48202032       0.00000000 </v>
   <v>       0.12500000       0.23202048       0.45561314 </v>
   <v>       0.12499999       0.98202050       0.56449044 </v>
   <v>       0.12499999       0.73202038       0.67336780 </v>
   <v>       0.12500003       0.48202032       0.78224510 </v>
   <v>       0.12499991       0.23202038       0.89112252 </v>
   <v>       0.12499995       0.98202038       0.00000000 </v>
   <v>       0.62499994       0.23202048       0.45561314 </v>
   <v>       0.62499994       0.98202050       0.56449044 </v>
   <v>       0.62499994       0.73202038       0.67336780 </v>
   <v>       0.62499982       0.48202032       0.78224510 </v>
   <v>       0.62500006       0.23202038       0.89112252 </v>
   <v>       0.62499994       0.98202038       0.00000000 </v>
  </varray>
 </structure>
</modeling>
