 168 168   0   0
  0.2780971E+02  0.1131560E-08  0.1959920E-08  0.2580094E-08  0.5000000E-15
  1.000000000000000E-004
  CAR 
 Si and Ge interface calculation         
      6.30054589     -9.85429555  301      3.35058308      1.00000000
     -9.854  0.0000E+00  0.0000E+00  0.0000E+00  0.0000E+00
     -9.800  0.0000E+00  0.0000E+00  0.0000E+00  0.0000E+00
     -9.747  0.0000E+00  0.0000E+00  0.0000E+00  0.0000E+00
     -9.693  0.0000E+00  0.0000E+00  0.0000E+00  0.0000E+00
     -9.639  0.0000E+00  0.0000E+00  0.0000E+00  0.0000E+00
     -9.585  0.0000E+00  0.0000E+00  0.0000E+00  0.0000E+00
     -9.531  0.0000E+00  0.0000E+00  0.0000E+00  0.0000E+00
     -9.477  0.0000E+00  0.0000E+00  0.0000E+00  0.0000E+00
     -9.423  0.0000E+00  0.0000E+00  0.0000E+00  0.0000E+00
     -9.370  0.0000E+00  0.0000E+00  0.0000E+00  0.0000E+00
     -9.316  0.0000E+00  0.0000E+00  0.0000E+00  0.0000E+00
     -9.262  0.0000E+00  0.0000E+00  0.0000E+00  0.0000E+00
     -9.208  0.0000E+00  0.0000E+00  0.0000E+00  0.0000E+00
     -9.154  0.3895E-05  0.5096E-07  0.2097E-06  0.2744E-08
     -9.100  0.6173E+01  0.6039E+01  0.3324E+00  0.3252E+00
     -9.047  0.1739E-01  0.1512E+00  0.3333E+00  0.3333E+00
     -8.993  0.1955E+02  0.1361E+02  0.1386E+01  0.1066E+01
     -8.939  0.1758E+02  0.2339E+02  0.2333E+01  0.2326E+01
     -8.885  0.1229E-01  0.1359E+00  0.2333E+01  0.2333E+01
     -8.831  0.1800E+00  0.1823E-01  0.2343E+01  0.2334E+01
     -8.777  0.1839E+02  0.1854E+02  0.3333E+01  0.3332E+01
     -8.723  0.1331E+02  0.1250E+02  0.4050E+01  0.4006E+01
     -8.670  0.3711E+02  0.3468E+02  0.6048E+01  0.5873E+01
     -8.616  0.3463E+02  0.3499E+02  0.7913E+01  0.7757E+01
     -8.562  0.1375E+02  0.1532E+02  0.8654E+01  0.8582E+01
     -8.508  0.4045E+00  0.1588E+01  0.8675E+01  0.8667E+01
     -8.454  0.5791E+02  0.5294E+02  0.1179E+02  0.1152E+02
     -8.400  0.1622E+02  0.2127E+02  0.1267E+02  0.1266E+02
     -8.347  0.3755E+02  0.3527E+02  0.1469E+02  0.1456E+02
     -8.293  0.2302E+02  0.1859E+02  0.1593E+02  0.1556E+02
     -8.239  0.3090E+02  0.3448E+02  0.1759E+02  0.1742E+02
     -8.185  0.1701E+02  0.1418E+02  0.1851E+02  0.1818E+02
     -8.131  0.2764E+02  0.2910E+02  0.2000E+02  0.1975E+02
     -8.077  0.4955E+02  0.5397E+02  0.2267E+02  0.2266E+02
     -8.023  0.1253E+02  0.1255E+02  0.2334E+02  0.2333E+02
     -7.970  0.1041E+02  0.7745E+01  0.2390E+02  0.2375E+02
     -7.916  0.2043E+02  0.2320E+02  0.2500E+02  0.2500E+02
     -7.862  0.3049E+02  0.2658E+02  0.2664E+02  0.2643E+02
     -7.808  0.3135E+02  0.3495E+02  0.2833E+02  0.2831E+02
     -7.754  0.1620E+02  0.1225E+02  0.2920E+02  0.2897E+02
     -7.700  0.2102E+02  0.2525E+02  0.3034E+02  0.3033E+02
     -7.646  0.1313E+02  0.1250E+02  0.3104E+02  0.3101E+02
     -7.593  0.4180E+02  0.3492E+02  0.3329E+02  0.3289E+02
     -7.539  0.3835E+02  0.4516E+02  0.3536E+02  0.3532E+02
     -7.485  0.5094E+02  0.4512E+02  0.3810E+02  0.3775E+02
     -7.431  0.2667E+02  0.3056E+02  0.3954E+02  0.3939E+02
     -7.377  0.3063E+02  0.2956E+02  0.4119E+02  0.4099E+02
     -7.323  0.1631E+02  0.1875E+02  0.4207E+02  0.4200E+02
     -7.270  0.3292E+02  0.2908E+02  0.4384E+02  0.4356E+02
     -7.216  0.4850E+02  0.4763E+02  0.4645E+02  0.4613E+02
     -7.162  0.7081E+02  0.7277E+02  0.5026E+02  0.5004E+02
     -7.108  0.1989E+02  0.2376E+02  0.5133E+02  0.5132E+02
     -7.054  0.4103E+02  0.3931E+02  0.5354E+02  0.5344E+02
     -7.000  0.2939E+02  0.2770E+02  0.5513E+02  0.5493E+02
     -6.946  0.4737E+02  0.4747E+02  0.5768E+02  0.5749E+02
     -6.893  0.4739E+02  0.4489E+02  0.6023E+02  0.5991E+02
     -6.839  0.4720E+02  0.4777E+02  0.6277E+02  0.6248E+02
     -6.785  0.6483E+02  0.6224E+02  0.6626E+02  0.6583E+02
     -6.731  0.3570E+02  0.3886E+02  0.6818E+02  0.6792E+02
     -6.677  0.2669E+02  0.2919E+02  0.6962E+02  0.6949E+02
     -6.623  0.5116E+02  0.4919E+02  0.7238E+02  0.7214E+02
     -6.569  0.3191E+02  0.2916E+02  0.7409E+02  0.7371E+02
     -6.516  0.4383E+02  0.4604E+02  0.7645E+02  0.7619E+02
     -6.462  0.2245E+02  0.2458E+02  0.7766E+02  0.7752E+02
     -6.408  0.5292E+02  0.4903E+02  0.8051E+02  0.8016E+02
     -6.354  0.7339E+02  0.7718E+02  0.8447E+02  0.8431E+02
     -6.300  0.3093E+02  0.3163E+02  0.8613E+02  0.8602E+02
     -6.246  0.7022E+02  0.6363E+02  0.8991E+02  0.8944E+02
     -6.193  0.6291E+02  0.6364E+02  0.9330E+02  0.9287E+02
     -6.139  0.4621E+02  0.5237E+02  0.9579E+02  0.9569E+02
     -6.085  0.3491E+02  0.3673E+02  0.9767E+02  0.9767E+02
     -6.031  0.3698E+02  0.3615E+02  0.9966E+02  0.9961E+02
     -5.977  0.4882E+02  0.4643E+02  0.1023E+03  0.1021E+03
     -5.923  0.2449E+02  0.2594E+02  0.1036E+03  0.1035E+03
     -5.869  0.3217E+02  0.3384E+02  0.1053E+03  0.1053E+03
     -5.816  0.4204E+02  0.3913E+02  0.1076E+03  0.1074E+03
     -5.762  0.4901E+02  0.4804E+02  0.1102E+03  0.1100E+03
     -5.708  0.3585E+02  0.3772E+02  0.1122E+03  0.1121E+03
     -5.654  0.2260E+02  0.2399E+02  0.1134E+03  0.1134E+03
     -5.600  0.2415E+02  0.2409E+02  0.1147E+03  0.1146E+03
     -5.546  0.2846E+02  0.2520E+02  0.1162E+03  0.1160E+03
     -5.492  0.7609E+02  0.7314E+02  0.1203E+03  0.1199E+03
     -5.439  0.5524E+02  0.5889E+02  0.1233E+03  0.1231E+03
     -5.385  0.6957E+02  0.6496E+02  0.1270E+03  0.1266E+03
     -5.331  0.6671E+02  0.6916E+02  0.1306E+03  0.1303E+03
     -5.277  0.3682E+02  0.3938E+02  0.1326E+03  0.1325E+03
     -5.223  0.7848E+02  0.7826E+02  0.1368E+03  0.1367E+03
     -5.169  0.3746E+02  0.3719E+02  0.1389E+03  0.1387E+03
     -5.116  0.7253E+02  0.7347E+02  0.1428E+03  0.1426E+03
     -5.062  0.3373E+02  0.3156E+02  0.1446E+03  0.1443E+03
     -5.008  0.2640E+02  0.3103E+02  0.1460E+03  0.1460E+03
     -4.954  0.5371E+02  0.4364E+02  0.1489E+03  0.1484E+03
     -4.900  0.5732E+02  0.6573E+02  0.1520E+03  0.1519E+03
     -4.846  0.6016E+02  0.5807E+02  0.1552E+03  0.1550E+03
     -4.792  0.7255E+02  0.7229E+02  0.1591E+03  0.1589E+03
     -4.739  0.3321E+02  0.3387E+02  0.1609E+03  0.1607E+03
     -4.685  0.7531E+02  0.7456E+02  0.1650E+03  0.1647E+03
     -4.631  0.4581E+02  0.4795E+02  0.1674E+03  0.1673E+03
     -4.577  0.6622E+02  0.6797E+02  0.1710E+03  0.1710E+03
     -4.523  0.2441E+02  0.2307E+02  0.1723E+03  0.1722E+03
     -4.469  0.3736E+02  0.3249E+02  0.1743E+03  0.1740E+03
     -4.415  0.6205E+02  0.6416E+02  0.1777E+03  0.1774E+03
     -4.362  0.5849E+02  0.6018E+02  0.1808E+03  0.1807E+03
     -4.308  0.6501E+02  0.6091E+02  0.1843E+03  0.1840E+03
     -4.254  0.3025E+02  0.3485E+02  0.1860E+03  0.1858E+03
     -4.200  0.2130E+02  0.1499E+02  0.1871E+03  0.1866E+03
     -4.146  0.5032E+02  0.5111E+02  0.1898E+03  0.1894E+03
     -4.092  0.7409E+02  0.6599E+02  0.1938E+03  0.1929E+03
     -4.039  0.6468E+02  0.7466E+02  0.1973E+03  0.1970E+03
     -3.985  0.3371E+02  0.3301E+02  0.1991E+03  0.1987E+03
     -3.931  0.7530E+02  0.7892E+02  0.2032E+03  0.2030E+03
     -3.877  0.6463E+02  0.6516E+02  0.2066E+03  0.2065E+03
     -3.823  0.3029E+02  0.2540E+02  0.2083E+03  0.2079E+03
     -3.769  0.3337E+02  0.3984E+02  0.2101E+03  0.2100E+03
     -3.715  0.5866E+02  0.4976E+02  0.2132E+03  0.2127E+03
     -3.662  0.8686E+02  0.8505E+02  0.2179E+03  0.2173E+03
     -3.608  0.3468E+02  0.4475E+02  0.2198E+03  0.2197E+03
     -3.554  0.6578E+02  0.6418E+02  0.2233E+03  0.2231E+03
     -3.500  0.3420E+02  0.3160E+02  0.2251E+03  0.2248E+03
     -3.446  0.4336E+02  0.4235E+02  0.2275E+03  0.2271E+03
     -3.392  0.2968E+02  0.3528E+02  0.2291E+03  0.2290E+03
     -3.339  0.5966E+02  0.5503E+02  0.2323E+03  0.2320E+03
     -3.285  0.3871E+02  0.3850E+02  0.2344E+03  0.2341E+03
     -3.231  0.5107E+02  0.5313E+02  0.2371E+03  0.2369E+03
     -3.177  0.2824E+02  0.3017E+02  0.2386E+03  0.2385E+03
     -3.123  0.4502E+02  0.4293E+02  0.2411E+03  0.2409E+03
     -3.069  0.4867E+02  0.5226E+02  0.2437E+03  0.2437E+03
     -3.015  0.3948E+02  0.3573E+02  0.2458E+03  0.2456E+03
     -2.962  0.6248E+02  0.6319E+02  0.2492E+03  0.2490E+03
     -2.908  0.4823E+02  0.4493E+02  0.2518E+03  0.2514E+03
     -2.854  0.4693E+02  0.5206E+02  0.2543E+03  0.2542E+03
     -2.800  0.2531E+02  0.2681E+02  0.2557E+03  0.2557E+03
     -2.746  0.6319E+02  0.5738E+02  0.2591E+03  0.2588E+03
     -2.692  0.7052E+02  0.7099E+02  0.2629E+03  0.2626E+03
     -2.638  0.4206E+02  0.4104E+02  0.2651E+03  0.2648E+03
     -2.585  0.6436E+02  0.6768E+02  0.2686E+03  0.2684E+03
     -2.531  0.5270E+02  0.4821E+02  0.2714E+03  0.2710E+03
     -2.477  0.5349E+02  0.5822E+02  0.2743E+03  0.2742E+03
     -2.423  0.4117E+02  0.3889E+02  0.2765E+03  0.2763E+03
     -2.369  0.6439E+02  0.6168E+02  0.2800E+03  0.2796E+03
     -2.315  0.4311E+02  0.5067E+02  0.2823E+03  0.2823E+03
     -2.262  0.2557E+02  0.2428E+02  0.2837E+03  0.2836E+03
     -2.208  0.2762E+02  0.2647E+02  0.2852E+03  0.2850E+03
     -2.154  0.4328E+02  0.4267E+02  0.2875E+03  0.2873E+03
     -2.100  0.1452E+02  0.1314E+02  0.2883E+03  0.2880E+03
     -2.046  0.3003E+02  0.3038E+02  0.2899E+03  0.2897E+03
     -1.992  0.2548E+02  0.2086E+02  0.2913E+03  0.2908E+03
     -1.938  0.5655E+02  0.6545E+02  0.2943E+03  0.2943E+03
     -1.885  0.3130E+02  0.2840E+02  0.2960E+03  0.2959E+03
     -1.831  0.3062E+02  0.3263E+02  0.2977E+03  0.2976E+03
     -1.777  0.3274E+02  0.2729E+02  0.2994E+03  0.2991E+03
     -1.723  0.4145E+02  0.4791E+02  0.3017E+03  0.3017E+03
     -1.669  0.4169E+02  0.3476E+02  0.3039E+03  0.3035E+03
     -1.615  0.3876E+02  0.4571E+02  0.3060E+03  0.3060E+03
     -1.561  0.2471E+02  0.2373E+02  0.3073E+03  0.3073E+03
     -1.508  0.2050E+02  0.1981E+02  0.3084E+03  0.3083E+03
     -1.454  0.5409E+02  0.5308E+02  0.3113E+03  0.3112E+03
     -1.400  0.1723E+02  0.1812E+02  0.3123E+03  0.3122E+03
     -1.346  0.7248E+01  0.9002E+01  0.3127E+03  0.3127E+03
     -1.292  0.6361E+01  0.2477E+01  0.3130E+03  0.3128E+03
     -1.238  0.4315E+02  0.4698E+02  0.3153E+03  0.3153E+03
     -1.185  0.2196E+01  0.8928E+00  0.3155E+03  0.3154E+03
     -1.131  0.2258E+02  0.2395E+02  0.3167E+03  0.3167E+03
     -1.077  0.1334E+02  0.1157E+02  0.3174E+03  0.3173E+03
     -1.023  0.2460E+02  0.2573E+02  0.3187E+03  0.3187E+03
     -0.969  0.3386E+02  0.3012E+02  0.3205E+03  0.3203E+03
     -0.915  0.1486E+02  0.1928E+02  0.3213E+03  0.3213E+03
     -0.861  0.4468E-03  0.2116E-04  0.3213E+03  0.3213E+03
     -0.808  0.2485E+02  0.2465E+02  0.3227E+03  0.3227E+03
     -0.754  0.1870E+02  0.1870E+02  0.3237E+03  0.3237E+03
     -0.700  0.3258E+02  0.2752E+02  0.3254E+03  0.3251E+03
     -0.646  0.5862E+02  0.5699E+02  0.3286E+03  0.3282E+03
     -0.592  0.8070E+02  0.8161E+02  0.3329E+03  0.3326E+03
     -0.538  0.5136E+02  0.4846E+02  0.3357E+03  0.3352E+03
     -0.484  0.5014E+02  0.5193E+02  0.3384E+03  0.3380E+03
     -0.431  0.7784E+02  0.8072E+02  0.3426E+03  0.3424E+03
     -0.377  0.4386E+02  0.4156E+02  0.3450E+03  0.3446E+03
     -0.323  0.7516E+02  0.7629E+02  0.3490E+03  0.3487E+03
     -0.269  0.9790E+02  0.9315E+02  0.3543E+03  0.3537E+03
     -0.215  0.9114E+02  0.9839E+02  0.3592E+03  0.3590E+03
     -0.161  0.6994E+02  0.6752E+02  0.3629E+03  0.3627E+03
     -0.108  0.6003E+02  0.5807E+02  0.3662E+03  0.3658E+03
     -0.054  0.8283E+02  0.8364E+02  0.3706E+03  0.3703E+03
      0.000  0.6250E+02  0.6208E+02  0.3740E+03  0.3736E+03
      0.054  0.6490E+02  0.6723E+02  0.3775E+03  0.3773E+03
      0.108  0.8157E+02  0.7298E+02  0.3819E+03  0.3812E+03
      0.162  0.8003E+02  0.8371E+02  0.3862E+03  0.3857E+03
      0.216  0.9252E+02  0.9771E+02  0.3912E+03  0.3910E+03
      0.269  0.6644E+02  0.6544E+02  0.3948E+03  0.3945E+03
      0.323  0.1109E+03  0.1068E+03  0.4007E+03  0.4002E+03
      0.377  0.9471E+02  0.9359E+02  0.4058E+03  0.4053E+03
      0.431  0.1119E+03  0.1174E+03  0.4119E+03  0.4116E+03
      0.485  0.1268E+03  0.1145E+03  0.4187E+03  0.4178E+03
      0.539  0.1281E+03  0.1338E+03  0.4256E+03  0.4250E+03
      0.593  0.1207E+03  0.1190E+03  0.4321E+03  0.4314E+03
      0.646  0.1384E+03  0.1373E+03  0.4395E+03  0.4388E+03
      0.700  0.1240E+03  0.1267E+03  0.4462E+03  0.4456E+03
      0.754  0.1254E+03  0.1241E+03  0.4530E+03  0.4523E+03
      0.808  0.1221E+03  0.1270E+03  0.4595E+03  0.4591E+03
      0.862  0.9173E+02  0.9686E+02  0.4645E+03  0.4643E+03
      0.916  0.8907E+02  0.8025E+02  0.4693E+03  0.4687E+03
      0.969  0.1124E+03  0.1173E+03  0.4753E+03  0.4750E+03
      1.023  0.8002E+02  0.7933E+02  0.4796E+03  0.4792E+03
      1.077  0.9621E+02  0.9316E+02  0.4848E+03  0.4843E+03
      1.131  0.1331E+03  0.1287E+03  0.4920E+03  0.4912E+03
      1.185  0.1077E+03  0.1176E+03  0.4978E+03  0.4975E+03
      1.239  0.1191E+03  0.1100E+03  0.5042E+03  0.5034E+03
      1.293  0.1206E+03  0.1206E+03  0.5107E+03  0.5099E+03
      1.346  0.1079E+03  0.1091E+03  0.5165E+03  0.5158E+03
      1.400  0.9020E+02  0.9456E+02  0.5214E+03  0.5209E+03
      1.454  0.1132E+03  0.1135E+03  0.5275E+03  0.5270E+03
      1.508  0.1257E+03  0.1226E+03  0.5342E+03  0.5336E+03
      1.562  0.1276E+03  0.1242E+03  0.5411E+03  0.5403E+03
      1.616  0.1114E+03  0.1201E+03  0.5471E+03  0.5468E+03
      1.669  0.1209E+03  0.1162E+03  0.5536E+03  0.5530E+03
      1.723  0.9910E+02  0.1050E+03  0.5589E+03  0.5587E+03
      1.777  0.1013E+03  0.9405E+02  0.5644E+03  0.5637E+03
      1.831  0.1454E+03  0.1455E+03  0.5722E+03  0.5716E+03
      1.885  0.5510E+02  0.5888E+02  0.5752E+03  0.5748E+03
      1.939  0.1259E+03  0.1323E+03  0.5820E+03  0.5819E+03
      1.993  0.7014E+02  0.5574E+02  0.5858E+03  0.5849E+03
      2.046  0.1027E+03  0.1136E+03  0.5913E+03  0.5910E+03
      2.100  0.7180E+02  0.6961E+02  0.5951E+03  0.5947E+03
      2.154  0.7635E+02  0.7500E+02  0.5993E+03  0.5988E+03
      2.208  0.8763E+02  0.9176E+02  0.6040E+03  0.6037E+03
      2.262  0.7065E+02  0.6515E+02  0.6078E+03  0.6072E+03
      2.316  0.8489E+02  0.9454E+02  0.6124E+03  0.6123E+03
      2.370  0.6518E+02  0.5975E+02  0.6159E+03  0.6155E+03
      2.423  0.6930E+02  0.6612E+02  0.6196E+03  0.6191E+03
      2.477  0.9613E+02  0.9138E+02  0.6248E+03  0.6240E+03
      2.531  0.9342E+02  0.9692E+02  0.6298E+03  0.6292E+03
      2.585  0.6672E+02  0.6194E+02  0.6334E+03  0.6326E+03
      2.639  0.4331E+02  0.5110E+02  0.6357E+03  0.6353E+03
      2.693  0.9552E+02  0.8777E+02  0.6409E+03  0.6401E+03
      2.746  0.5460E+02  0.6602E+02  0.6438E+03  0.6436E+03
      2.800  0.5966E+02  0.5577E+02  0.6470E+03  0.6466E+03
      2.854  0.4428E+02  0.4530E+02  0.6494E+03  0.6491E+03
      2.908  0.4764E+02  0.4713E+02  0.6520E+03  0.6516E+03
      2.962  0.5502E+02  0.5732E+02  0.6549E+03  0.6547E+03
      3.016  0.2637E+02  0.2802E+02  0.6564E+03  0.6562E+03
      3.070  0.5470E+02  0.4832E+02  0.6593E+03  0.6588E+03
      3.123  0.3322E+02  0.3689E+02  0.6611E+03  0.6608E+03
      3.177  0.5383E+02  0.4151E+02  0.6640E+03  0.6630E+03
      3.231  0.4494E+02  0.5622E+02  0.6664E+03  0.6660E+03
      3.285  0.5353E+02  0.5246E+02  0.6693E+03  0.6689E+03
      3.339  0.3200E+02  0.3241E+02  0.6710E+03  0.6706E+03
      3.393  0.1804E+02  0.2378E+02  0.6720E+03  0.6719E+03
      3.447  0.3112E+02  0.2829E+02  0.6737E+03  0.6734E+03
      3.500  0.2768E+02  0.2615E+02  0.6752E+03  0.6748E+03
      3.554  0.4694E+02  0.4615E+02  0.6777E+03  0.6773E+03
      3.608  0.1958E+02  0.1743E+02  0.6787E+03  0.6782E+03
      3.662  0.6592E+02  0.6688E+02  0.6823E+03  0.6818E+03
      3.716  0.1920E+02  0.2521E+02  0.6833E+03  0.6832E+03
      3.770  0.1594E+02  0.8793E+01  0.6842E+03  0.6837E+03
      3.823  0.9074E+01  0.1838E+02  0.6847E+03  0.6847E+03
      3.877  0.7076E+01  0.6203E+01  0.6850E+03  0.6850E+03
      3.931  0.2055E+02  0.1730E+02  0.6862E+03  0.6859E+03
      3.985  0.1471E+02  0.1486E+02  0.6869E+03  0.6867E+03
      4.039  0.4861E+02  0.4941E+02  0.6896E+03  0.6894E+03
      4.093  0.3099E+02  0.3008E+02  0.6912E+03  0.6910E+03
      4.147  0.5042E+02  0.5098E+02  0.6939E+03  0.6938E+03
      4.200  0.2512E+02  0.2700E+02  0.6953E+03  0.6952E+03
      4.254  0.1710E+02  0.1626E+02  0.6962E+03  0.6961E+03
      4.308  0.3664E+02  0.3250E+02  0.6982E+03  0.6978E+03
      4.362  0.5682E+02  0.5808E+02  0.7013E+03  0.7010E+03
      4.416  0.6349E+02  0.6210E+02  0.7047E+03  0.7043E+03
      4.470  0.6914E+02  0.6949E+02  0.7084E+03  0.7081E+03
      4.524  0.5993E+02  0.6226E+02  0.7116E+03  0.7114E+03
      4.577  0.5077E+02  0.5066E+02  0.7144E+03  0.7141E+03
      4.631  0.7309E+02  0.7103E+02  0.7183E+03  0.7180E+03
      4.685  0.8655E+02  0.8512E+02  0.7230E+03  0.7225E+03
      4.739  0.9370E+02  0.9404E+02  0.7280E+03  0.7276E+03
      4.793  0.5537E+02  0.5495E+02  0.7310E+03  0.7306E+03
      4.847  0.9304E+02  0.9672E+02  0.7360E+03  0.7358E+03
      4.900  0.1018E+03  0.1034E+03  0.7415E+03  0.7413E+03
      4.954  0.1120E+03  0.1045E+03  0.7475E+03  0.7470E+03
      5.008  0.1004E+03  0.1005E+03  0.7529E+03  0.7524E+03
      5.062  0.1284E+03  0.1276E+03  0.7598E+03  0.7592E+03
      5.116  0.9662E+02  0.9614E+02  0.7650E+03  0.7644E+03
      5.170  0.1061E+03  0.1116E+03  0.7707E+03  0.7704E+03
      5.224  0.1005E+03  0.9745E+02  0.7762E+03  0.7757E+03
      5.277  0.9810E+02  0.9698E+02  0.7814E+03  0.7809E+03
      5.331  0.1241E+03  0.1287E+03  0.7881E+03  0.7878E+03
      5.385  0.9948E+02  0.9652E+02  0.7935E+03  0.7930E+03
      5.439  0.9059E+02  0.9408E+02  0.7984E+03  0.7981E+03
      5.493  0.1012E+03  0.9694E+02  0.8038E+03  0.8033E+03
      5.547  0.6857E+02  0.7716E+02  0.8075E+03  0.8075E+03
      5.601  0.9392E+01  0.9804E+01  0.8080E+03  0.8080E+03
      5.654  0.0000E+00  0.0000E+00  0.8080E+03  0.8080E+03
      5.708  0.0000E+00  0.0000E+00  0.8080E+03  0.8080E+03
      5.762  0.0000E+00  0.0000E+00  0.8080E+03  0.8080E+03
      5.816  0.0000E+00  0.0000E+00  0.8080E+03  0.8080E+03
      5.870  0.0000E+00  0.0000E+00  0.8080E+03  0.8080E+03
      5.924  0.0000E+00  0.0000E+00  0.8080E+03  0.8080E+03
      5.977  0.0000E+00  0.0000E+00  0.8080E+03  0.8080E+03
      6.031  0.0000E+00  0.0000E+00  0.8080E+03  0.8080E+03
      6.085  0.0000E+00  0.0000E+00  0.8080E+03  0.8080E+03
      6.139  0.0000E+00  0.0000E+00  0.8080E+03  0.8080E+03
      6.193  0.0000E+00  0.0000E+00  0.8080E+03  0.8080E+03
      6.247  0.0000E+00  0.0000E+00  0.8080E+03  0.8080E+03
      6.301  0.0000E+00  0.0000E+00  0.8080E+03  0.8080E+03
