Si and Ge interface calculation         
           1
    11.315600    0.000000    0.000000
   -11.315600   16.002676    0.000000
     0.000000    0.000000   25.800940
   Ge   Sn
    96    72
Direct configuration=     1
   0.98533142  0.45599416  0.00000002
   0.86033142  0.08099414  0.07752953
   0.73533142  0.70599413  0.15505907
   0.61033142  0.33099425  0.23258853
   0.48533136  0.95599413  0.31011808
   0.36033136  0.58099413  0.38764763
   0.48533139  0.45599416  0.00000002
   0.36033142  0.08099414  0.07752953
   0.23533136  0.70599413  0.15505907
   0.11033138  0.33099425  0.23258853
   0.98533148  0.95599413  0.31011808
   0.86033142  0.58099413  0.38764763
   0.98533136  0.95599413  0.00000002
   0.86033142  0.58099413  0.07752954
   0.73533142  0.20599413  0.15505905
   0.61033142  0.83099437  0.23258853
   0.48533142  0.45599413  0.31011811
   0.36033136  0.08099413  0.38764760
   0.48533139  0.95599413  0.00000002
   0.36033136  0.58099413  0.07752954
   0.23533145  0.20599413  0.15505905
   0.11033149  0.83099437  0.23258853
   0.98533130  0.45599413  0.31011811
   0.86033136  0.08099413  0.38764760
   0.23533137  0.70599413  0.00000002
   0.11033137  0.33099413  0.07752953
   0.98533136  0.95599413  0.15505905
   0.86033136  0.58099425  0.23258856
   0.73533136  0.20599419  0.31011811
   0.61033130  0.83099413  0.38764763
   0.73533136  0.70599413  0.00000002
   0.61033136  0.33099413  0.07752953
   0.48533133  0.95599413  0.15505905
   0.36033136  0.58099425  0.23258856
   0.23533137  0.20599419  0.31011811
   0.11033136  0.83099413  0.38764763
   0.23533139  0.20599414  0.00000002
   0.11033139  0.83099413  0.07752953
   0.98533136  0.45599413  0.15505905
   0.86033136  0.08099425  0.23258856
   0.73533148  0.70599425  0.31011808
   0.61033136  0.33099413  0.38764760
   0.73533130  0.20599414  0.00000002
   0.61033136  0.83099413  0.07752953
   0.48533139  0.45599413  0.15505905
   0.36033130  0.08099425  0.23258856
   0.23533139  0.70599425  0.31011808
   0.11033126  0.33099413  0.38764760
   0.98533142  0.58099419  0.00000003
   0.86033142  0.20599416  0.07752953
   0.73533136  0.83099413  0.15505905
   0.61033142  0.45599425  0.23258853
   0.48533136  0.08099419  0.31011811
   0.36033136  0.70599413  0.38764763
   0.48533142  0.58099419  0.00000003
   0.36033142  0.20599416  0.07752953
   0.23533140  0.83099413  0.15505905
   0.11033143  0.45599425  0.23258853
   0.98533136  0.08099419  0.31011811
   0.86033142  0.70599413  0.38764763
   0.98533136  0.08099414  0.00000001
   0.86033142  0.70599413  0.07752953
   0.73533142  0.33099413  0.15505905
   0.61033142  0.95599425  0.23258856
   0.48533142  0.58099425  0.31011808
   0.36033136  0.20599401  0.38764760
   0.48533139  0.08099414  0.00000001
   0.36033136  0.70599413  0.07752953
   0.23533140  0.33099413  0.15505905
   0.11033145  0.95599425  0.23258856
   0.98533154  0.58099425  0.31011808
   0.86033124  0.20599401  0.38764760
   0.23533145  0.83099419  0.00000000
   0.11033142  0.45599419  0.07752953
   0.98533142  0.08099417  0.15505905
   0.86033142  0.70599431  0.23258853
   0.73533142  0.33099425  0.31011808
   0.61033142  0.95599413  0.38764757
   0.73533142  0.83099419  0.00000000
   0.61033142  0.45599419  0.07752953
   0.48533139  0.08099417  0.15505905
   0.36033142  0.70599431  0.23258853
   0.23533142  0.33099425  0.31011808
   0.11033136  0.95599413  0.38764757
   0.23533137  0.33099413  0.00000002
   0.11033138  0.95599413  0.07752954
   0.98533136  0.58099413  0.15505905
   0.86033142  0.20599425  0.23258856
   0.73533136  0.83099413  0.31011808
   0.61033142  0.45599413  0.38764760
   0.73533136  0.33099413  0.00000002
   0.61033136  0.95599413  0.07752954
   0.48533139  0.58099413  0.15505905
   0.36033142  0.20599425  0.23258856
   0.23533146  0.83099413  0.31011808
   0.11033130  0.45599413  0.38764760
   0.24094903  0.74099487  0.47151801
   0.99094903  0.49099481  0.56044036
   0.74094891  0.24099469  0.64936268
   0.49094889  0.99099457  0.73828494
   0.24094880  0.74099457  0.82720721
   0.99094880  0.49099445  0.91612959
   0.24094903  0.40766153  0.47151801
   0.99094903  0.15766148  0.56044036
   0.74094891  0.90766132  0.64936268
   0.49094889  0.65766120  0.73828494
   0.24094880  0.40766120  0.82720721
   0.99094880  0.15766108  0.91612959
   0.24094903  0.07432818  0.47151801
   0.99094903  0.82432813  0.56044036
   0.74094891  0.57432795  0.64936268
   0.49094889  0.32432783  0.73828494
   0.24094880  0.07432783  0.82720721
   0.99094880  0.82432771  0.91612959
   0.74094903  0.90766156  0.47151801
   0.49094903  0.65766144  0.56044036
   0.24094891  0.40766138  0.64936262
   0.99094891  0.15766129  0.73828494
   0.74094891  0.90766120  0.82720721
   0.49094883  0.65766108  0.91612959
   0.74094903  0.57432818  0.47151801
   0.49094903  0.32432813  0.56044036
   0.24094891  0.07432807  0.64936262
   0.99094891  0.82432789  0.73828494
   0.74094891  0.57432783  0.82720721
   0.49094883  0.32432777  0.91612959
   0.74094903  0.24099487  0.47151801
   0.49094903  0.99099481  0.56044036
   0.24094891  0.74099469  0.64936262
   0.99094891  0.49099451  0.73828494
   0.74094891  0.24099445  0.82720721
   0.49094883  0.99099433  0.91612959
   0.99094903  0.74099493  0.47151801
   0.74094903  0.49099490  0.56044042
   0.49094898  0.24099478  0.64936268
   0.24094891  0.99099463  0.73828494
   0.99094880  0.74099463  0.82720727
   0.74094880  0.49099451  0.91612959
   0.99094903  0.40766153  0.47151801
   0.74094903  0.15766147  0.56044042
   0.49094898  0.90766132  0.64936268
   0.24094891  0.65766120  0.73828494
   0.99094880  0.40766120  0.82720727
   0.74094880  0.15766108  0.91612959
   0.99094903  0.07432818  0.47151801
   0.74094903  0.82432813  0.56044042
   0.49094898  0.57432800  0.64936268
   0.24094891  0.32432789  0.73828494
   0.99094880  0.07432783  0.82720727
   0.74094880  0.82432783  0.91612959
   0.49094906  0.90766150  0.47151801
   0.24094903  0.65766144  0.56044042
   0.99094891  0.40766126  0.64936268
   0.74094880  0.15766117  0.73828494
   0.49094889  0.90766114  0.82720721
   0.24094880  0.65766102  0.91612959
   0.49094906  0.57432818  0.47151801
   0.24094903  0.32432813  0.56044042
   0.99094891  0.07432807  0.64936268
   0.74094880  0.82432789  0.73828494
   0.49094889  0.57432783  0.82720721
   0.24094880  0.32432777  0.91612959
   0.49094906  0.24099484  0.47151801
   0.24094903  0.99099481  0.56044042
   0.99094891  0.74099469  0.64936268
   0.74094880  0.49099451  0.73828494
   0.49094889  0.24099457  0.82720721
   0.24094880  0.99099433  0.91612959
