Si and Ge interface calculation         
           1
    12.651226    0.000000    0.000000
   -10.120981    7.590735    0.000000
     0.000000    0.000000   11.611744
   Ge
    48
Direct configuration=     1
   0.34472227  0.67236114  0.00000000
   0.67805564  0.83902782  0.24362405
   0.01138902  0.00569463  0.48724812
   0.01138897  0.00569449  0.00000000
   0.34472233  0.17236123  0.24362405
   0.67805570  0.33902797  0.48724812
   0.67805564  0.33902782  0.00000000
   0.01138890  0.50569451  0.24362405
   0.34472239  0.67236131  0.48724812
   0.09472227  0.92236114  0.12181202
   0.42805564  0.08902788  0.36543608
   0.76138902  0.25569463  0.60906023
   0.42805564  0.58902788  0.12181202
   0.76138902  0.75569457  0.36543608
   0.09472239  0.92236137  0.60906023
   0.76138890  0.25569448  0.12181202
   0.09472239  0.42236123  0.36543608
   0.42805564  0.58902794  0.60906023
   0.17805557  0.83902770  0.00000000
   0.51138896  0.00569451  0.24362405
   0.84472227  0.17236114  0.48724812
   0.51138896  0.50569451  0.00000000
   0.84472227  0.67236120  0.24362405
   0.17805564  0.83902794  0.48724812
   0.84472233  0.17236118  0.00000000
   0.17805564  0.33902791  0.24362405
   0.51138902  0.50569463  0.48724812
   0.26138896  0.75569445  0.12181202
   0.59472233  0.92236120  0.36543608
   0.92805576  0.08902800  0.60906023
   0.59472233  0.42236116  0.12181202
   0.92805570  0.58902788  0.36543608
   0.26138902  0.75569463  0.60906023
   0.92805564  0.08902787  0.12181202
   0.26138902  0.25569463  0.36543608
   0.59472239  0.42236134  0.60906023
   0.28303552  0.16919589  0.70302004
   0.17192435  0.78030688  0.78422809
   0.06081319  0.39141798  0.86543614
   0.78303552  0.66919583  0.70302004
   0.67192435  0.28030688  0.78422809
   0.56081319  0.89141792  0.86543614
   0.97747988  0.97475135  0.74362409
   0.86636877  0.58586240  0.82483214
   0.75525755  0.19697356  0.90604019
   0.47747996  0.47475135  0.74362409
   0.36636883  0.08586240  0.82483214
   0.25525761  0.69697338  0.90604019
