  84  84   0   0
  0.2183197E+02  0.5431000E-09  0.1629300E-08  0.2072485E-08  0.5000000E-15
  1.000000000000000E-004
  CAR 
 Si and Ge interface calculation         
      7.90770569     -9.11299459  301      4.46014110      1.00000000
     -9.113  0.0000E+00  0.0000E+00  0.0000E+00  0.0000E+00
     -9.056  0.0000E+00  0.0000E+00  0.0000E+00  0.0000E+00
     -9.000  0.0000E+00  0.0000E+00  0.0000E+00  0.0000E+00
     -8.943  0.0000E+00  0.0000E+00  0.0000E+00  0.0000E+00
     -8.886  0.0000E+00  0.0000E+00  0.0000E+00  0.0000E+00
     -8.829  0.0000E+00  0.0000E+00  0.0000E+00  0.0000E+00
     -8.773  0.0000E+00  0.0000E+00  0.0000E+00  0.0000E+00
     -8.716  0.0000E+00  0.0000E+00  0.0000E+00  0.0000E+00
     -8.659  0.0000E+00  0.0000E+00  0.0000E+00  0.0000E+00
     -8.602  0.0000E+00  0.0000E+00  0.0000E+00  0.0000E+00
     -8.546  0.0000E+00  0.0000E+00  0.0000E+00  0.0000E+00
     -8.489  0.0000E+00  0.0000E+00  0.0000E+00  0.0000E+00
     -8.432  0.0000E+00  0.0000E+00  0.0000E+00  0.0000E+00
     -8.375  0.2464E-06  0.6094E-09  0.1398E-07  0.3457E-10
     -8.319  0.2915E+01  0.2724E+01  0.1654E+00  0.1546E+00
     -8.262  0.2508E-01  0.2133E+00  0.1668E+00  0.1667E+00
     -8.205  0.1050E+02  0.9069E+01  0.7628E+00  0.6812E+00
     -8.148  0.1305E+01  0.2684E+01  0.8368E+00  0.8335E+00
     -8.092  0.1025E+02  0.7619E+01  0.1418E+01  0.1266E+01
     -8.035  0.4374E+01  0.7064E+01  0.1667E+01  0.1667E+01
     -7.978  0.3744E+01  0.2551E+01  0.1879E+01  0.1811E+01
     -7.922  0.5136E+01  0.6017E+01  0.2170E+01  0.2153E+01
     -7.865  0.1096E+02  0.8839E+01  0.2793E+01  0.2654E+01
     -7.808  0.1244E+02  0.1438E+02  0.3499E+01  0.3470E+01
     -7.751  0.1748E+02  0.1495E+02  0.4491E+01  0.4318E+01
     -7.695  0.8990E+01  0.1201E+02  0.5001E+01  0.5000E+01
     -7.638  0.7451E+01  0.7263E+01  0.5423E+01  0.5412E+01
     -7.581  0.1666E+02  0.1364E+02  0.6369E+01  0.6186E+01
     -7.524  0.9948E+01  0.1164E+02  0.6933E+01  0.6846E+01
     -7.468  0.2184E+02  0.1980E+02  0.8172E+01  0.7969E+01
     -7.411  0.8677E+01  0.1175E+02  0.8664E+01  0.8636E+01
     -7.354  0.1100E+02  0.6000E+01  0.9288E+01  0.8977E+01
     -7.297  0.1580E+02  0.1733E+02  0.1018E+02  0.9960E+01
     -7.241  0.1656E+02  0.1645E+02  0.1112E+02  0.1089E+02
     -7.184  0.2276E+02  0.2538E+02  0.1242E+02  0.1233E+02
     -7.127  0.1001E+02  0.9164E+01  0.1298E+02  0.1285E+02
     -7.071  0.2529E+02  0.1974E+02  0.1442E+02  0.1397E+02
     -7.014  0.1324E+02  0.1875E+02  0.1517E+02  0.1504E+02
     -6.957  0.2646E+02  0.2590E+02  0.1667E+02  0.1651E+02
     -6.900  0.1797E+02  0.1650E+02  0.1769E+02  0.1744E+02
     -6.844  0.2113E+02  0.2218E+02  0.1889E+02  0.1870E+02
     -6.787  0.1959E+02  0.1815E+02  0.2000E+02  0.1973E+02
     -6.730  0.1877E+02  0.2007E+02  0.2107E+02  0.2087E+02
     -6.673  0.1894E+02  0.1778E+02  0.2214E+02  0.2188E+02
     -6.617  0.1276E+02  0.1430E+02  0.2286E+02  0.2269E+02
     -6.560  0.1249E+02  0.1345E+02  0.2357E+02  0.2345E+02
     -6.503  0.2258E+02  0.2097E+02  0.2485E+02  0.2464E+02
     -6.446  0.2936E+02  0.2600E+02  0.2652E+02  0.2612E+02
     -6.390  0.2451E+02  0.2731E+02  0.2791E+02  0.2767E+02
     -6.333  0.2303E+02  0.2374E+02  0.2922E+02  0.2901E+02
     -6.276  0.2662E+02  0.2719E+02  0.3073E+02  0.3056E+02
     -6.219  0.3734E+02  0.3680E+02  0.3285E+02  0.3264E+02
     -6.163  0.3100E+02  0.2900E+02  0.3460E+02  0.3429E+02
     -6.106  0.3009E+02  0.2982E+02  0.3631E+02  0.3598E+02
     -6.049  0.1978E+02  0.2409E+02  0.3743E+02  0.3735E+02
     -5.993  0.2620E+02  0.2206E+02  0.3892E+02  0.3860E+02
     -5.936  0.2473E+02  0.2872E+02  0.4032E+02  0.4023E+02
     -5.879  0.2446E+02  0.2320E+02  0.4171E+02  0.4155E+02
     -5.822  0.1813E+02  0.1593E+02  0.4274E+02  0.4245E+02
     -5.766  0.1249E+02  0.1538E+02  0.4345E+02  0.4332E+02
     -5.709  0.1862E+02  0.1760E+02  0.4450E+02  0.4432E+02
     -5.652  0.3456E+02  0.3129E+02  0.4647E+02  0.4610E+02
     -5.595  0.3471E+02  0.3341E+02  0.4843E+02  0.4799E+02
     -5.539  0.2524E+02  0.2686E+02  0.4987E+02  0.4952E+02
     -5.482  0.2490E+02  0.2836E+02  0.5128E+02  0.5112E+02
     -5.425  0.3699E+02  0.3347E+02  0.5338E+02  0.5302E+02
     -5.368  0.2994E+02  0.2961E+02  0.5508E+02  0.5470E+02
     -5.312  0.3122E+02  0.3145E+02  0.5685E+02  0.5649E+02
     -5.255  0.3572E+02  0.3480E+02  0.5887E+02  0.5846E+02
     -5.198  0.3235E+02  0.3402E+02  0.6071E+02  0.6039E+02
     -5.141  0.2284E+02  0.2569E+02  0.6201E+02  0.6185E+02
     -5.085  0.2345E+02  0.2461E+02  0.6334E+02  0.6325E+02
     -5.028  0.1214E+02  0.1069E+02  0.6403E+02  0.6385E+02
     -4.971  0.1322E+02  0.1331E+02  0.6478E+02  0.6461E+02
     -4.915  0.1471E+02  0.1445E+02  0.6561E+02  0.6543E+02
     -4.858  0.1498E+02  0.1616E+02  0.6646E+02  0.6634E+02
     -4.801  0.2155E+02  0.1759E+02  0.6768E+02  0.6734E+02
     -4.744  0.1301E+02  0.1876E+02  0.6842E+02  0.6841E+02
     -4.688  0.1426E+02  0.1096E+02  0.6923E+02  0.6903E+02
     -4.631  0.2089E+02  0.1725E+02  0.7042E+02  0.7001E+02
     -4.574  0.2977E+02  0.3146E+02  0.7210E+02  0.7179E+02
     -4.517  0.2151E+02  0.2428E+02  0.7332E+02  0.7317E+02
     -4.461  0.2054E+02  0.2014E+02  0.7449E+02  0.7431E+02
     -4.404  0.1329E+02  0.1449E+02  0.7524E+02  0.7514E+02
     -4.347  0.1498E+02  0.1469E+02  0.7609E+02  0.7597E+02
     -4.290  0.1885E+02  0.2035E+02  0.7716E+02  0.7712E+02
     -4.234  0.1615E+02  0.1130E+02  0.7808E+02  0.7776E+02
     -4.177  0.1248E+02  0.1521E+02  0.7879E+02  0.7863E+02
     -4.120  0.2517E+02  0.2347E+02  0.8022E+02  0.7996E+02
     -4.064  0.1441E+02  0.1556E+02  0.8103E+02  0.8084E+02
     -4.007  0.1368E+02  0.1367E+02  0.8181E+02  0.8162E+02
     -3.950  0.3213E+02  0.2630E+02  0.8363E+02  0.8311E+02
     -3.893  0.2044E+02  0.2742E+02  0.8479E+02  0.8466E+02
     -3.837  0.2649E+02  0.2219E+02  0.8629E+02  0.8592E+02
     -3.780  0.1774E+02  0.2190E+02  0.8730E+02  0.8717E+02
     -3.723  0.1295E+02  0.1279E+02  0.8804E+02  0.8789E+02
     -3.666  0.1628E+02  0.1358E+02  0.8896E+02  0.8866E+02
     -3.610  0.9444E+01  0.1284E+02  0.8950E+02  0.8939E+02
     -3.553  0.2466E+02  0.2045E+02  0.9089E+02  0.9055E+02
     -3.496  0.1415E+02  0.1688E+02  0.9170E+02  0.9151E+02
     -3.439  0.2353E+02  0.2393E+02  0.9303E+02  0.9287E+02
     -3.383  0.2833E+02  0.2370E+02  0.9464E+02  0.9421E+02
     -3.326  0.2031E+02  0.2517E+02  0.9579E+02  0.9564E+02
     -3.269  0.2680E+02  0.2472E+02  0.9731E+02  0.9704E+02
     -3.212  0.2628E+02  0.2657E+02  0.9880E+02  0.9855E+02
     -3.156  0.2689E+02  0.2655E+02  0.1003E+03  0.1001E+03
     -3.099  0.3444E+02  0.3255E+02  0.1023E+03  0.1019E+03
     -3.042  0.3017E+02  0.3240E+02  0.1040E+03  0.1037E+03
     -2.986  0.2638E+02  0.2449E+02  0.1055E+03  0.1051E+03
     -2.929  0.1962E+02  0.2106E+02  0.1066E+03  0.1063E+03
     -2.872  0.2715E+02  0.2899E+02  0.1081E+03  0.1080E+03
     -2.815  0.2765E+02  0.2496E+02  0.1097E+03  0.1094E+03
     -2.759  0.2303E+02  0.2415E+02  0.1110E+03  0.1108E+03
     -2.702  0.2824E+02  0.2439E+02  0.1126E+03  0.1121E+03
     -2.645  0.1989E+02  0.2404E+02  0.1138E+03  0.1135E+03
     -2.588  0.2200E+02  0.2302E+02  0.1150E+03  0.1148E+03
     -2.532  0.2040E+02  0.1853E+02  0.1162E+03  0.1159E+03
     -2.475  0.2438E+02  0.2688E+02  0.1175E+03  0.1174E+03
     -2.418  0.2282E+02  0.2258E+02  0.1188E+03  0.1187E+03
     -2.361  0.2304E+02  0.2103E+02  0.1201E+03  0.1199E+03
     -2.305  0.1877E+02  0.1758E+02  0.1212E+03  0.1209E+03
     -2.248  0.2535E+02  0.2731E+02  0.1226E+03  0.1224E+03
     -2.191  0.2189E+02  0.2091E+02  0.1239E+03  0.1236E+03
     -2.135  0.2199E+02  0.2015E+02  0.1251E+03  0.1247E+03
     -2.078  0.3722E+02  0.4038E+02  0.1272E+03  0.1270E+03
     -2.021  0.2094E+02  0.2051E+02  0.1284E+03  0.1282E+03
     -1.964  0.2818E+02  0.2442E+02  0.1300E+03  0.1296E+03
     -1.908  0.2867E+02  0.3312E+02  0.1317E+03  0.1315E+03
     -1.851  0.2997E+02  0.2699E+02  0.1334E+03  0.1330E+03
     -1.794  0.2075E+02  0.2353E+02  0.1345E+03  0.1343E+03
     -1.737  0.1831E+02  0.1675E+02  0.1356E+03  0.1353E+03
     -1.681  0.1699E+02  0.1787E+02  0.1365E+03  0.1363E+03
     -1.624  0.2210E+02  0.2280E+02  0.1378E+03  0.1376E+03
     -1.567  0.1075E+02  0.1155E+02  0.1384E+03  0.1382E+03
     -1.510  0.1991E+02  0.1925E+02  0.1395E+03  0.1393E+03
     -1.454  0.1806E+02  0.1761E+02  0.1406E+03  0.1403E+03
     -1.397  0.1659E+02  0.1986E+02  0.1415E+03  0.1415E+03
     -1.340  0.1410E+02  0.9174E+01  0.1423E+03  0.1420E+03
     -1.283  0.1912E+02  0.1918E+02  0.1434E+03  0.1431E+03
     -1.227  0.1564E+02  0.1572E+02  0.1443E+03  0.1440E+03
     -1.170  0.2083E+02  0.1948E+02  0.1455E+03  0.1451E+03
     -1.113  0.1962E+02  0.2484E+02  0.1466E+03  0.1465E+03
     -1.057  0.1433E+02  0.1373E+02  0.1474E+03  0.1472E+03
     -1.000  0.6558E+01  0.7682E+01  0.1478E+03  0.1477E+03
     -0.943  0.1447E+02  0.1250E+02  0.1486E+03  0.1484E+03
     -0.886  0.1770E+02  0.1906E+02  0.1496E+03  0.1495E+03
     -0.830  0.2130E+02  0.1735E+02  0.1508E+03  0.1505E+03
     -0.773  0.1340E+02  0.1691E+02  0.1515E+03  0.1514E+03
     -0.716  0.1623E+02  0.1377E+02  0.1525E+03  0.1522E+03
     -0.659  0.1279E+02  0.1489E+02  0.1532E+03  0.1530E+03
     -0.603  0.1118E+02  0.1064E+02  0.1538E+03  0.1536E+03
     -0.546  0.1909E+02  0.1863E+02  0.1549E+03  0.1547E+03
     -0.489  0.1474E+02  0.1379E+02  0.1557E+03  0.1555E+03
     -0.432  0.1708E+02  0.1713E+02  0.1567E+03  0.1565E+03
     -0.376  0.1191E+02  0.1415E+02  0.1574E+03  0.1573E+03
     -0.319  0.1273E+02  0.1174E+02  0.1581E+03  0.1579E+03
     -0.262  0.1385E+02  0.1515E+02  0.1589E+03  0.1588E+03
     -0.205  0.5293E+01  0.3849E+01  0.1592E+03  0.1590E+03
     -0.149  0.6941E+01  0.9897E+01  0.1596E+03  0.1596E+03
     -0.092  0.9615E+01  0.8100E+01  0.1601E+03  0.1600E+03
     -0.035  0.1622E+02  0.1595E+02  0.1611E+03  0.1609E+03
      0.021  0.2246E+02  0.2137E+02  0.1623E+03  0.1621E+03
      0.078  0.2513E+02  0.2429E+02  0.1638E+03  0.1635E+03
      0.135  0.3183E+02  0.3163E+02  0.1656E+03  0.1653E+03
      0.192  0.3481E+02  0.3134E+02  0.1675E+03  0.1671E+03
      0.248  0.3261E+02  0.3574E+02  0.1694E+03  0.1691E+03
      0.305  0.5053E+02  0.4927E+02  0.1723E+03  0.1719E+03
      0.362  0.3659E+02  0.3655E+02  0.1743E+03  0.1740E+03
      0.419  0.4930E+02  0.4273E+02  0.1771E+03  0.1764E+03
      0.475  0.4741E+02  0.5296E+02  0.1798E+03  0.1794E+03
      0.532  0.4857E+02  0.4741E+02  0.1826E+03  0.1821E+03
      0.589  0.4008E+02  0.3959E+02  0.1848E+03  0.1844E+03
      0.646  0.4141E+02  0.4403E+02  0.1872E+03  0.1869E+03
      0.702  0.5283E+02  0.4976E+02  0.1902E+03  0.1897E+03
      0.759  0.5160E+02  0.5071E+02  0.1931E+03  0.1926E+03
      0.816  0.4956E+02  0.5410E+02  0.1959E+03  0.1956E+03
      0.872  0.3875E+02  0.3862E+02  0.1981E+03  0.1978E+03
      0.929  0.5082E+02  0.4978E+02  0.2010E+03  0.2006E+03
      0.986  0.4768E+02  0.4823E+02  0.2037E+03  0.2034E+03
      1.043  0.4302E+02  0.4145E+02  0.2062E+03  0.2057E+03
      1.099  0.4785E+02  0.4738E+02  0.2089E+03  0.2084E+03
      1.156  0.4543E+02  0.4291E+02  0.2115E+03  0.2109E+03
      1.213  0.4562E+02  0.4705E+02  0.2140E+03  0.2135E+03
      1.270  0.5446E+02  0.5408E+02  0.2171E+03  0.2166E+03
      1.326  0.3664E+02  0.4144E+02  0.2192E+03  0.2189E+03
      1.383  0.5704E+02  0.5279E+02  0.2224E+03  0.2219E+03
      1.440  0.5574E+02  0.5197E+02  0.2256E+03  0.2249E+03
      1.497  0.5620E+02  0.5967E+02  0.2288E+03  0.2283E+03
      1.553  0.5828E+02  0.6024E+02  0.2321E+03  0.2317E+03
      1.610  0.4824E+02  0.4755E+02  0.2348E+03  0.2344E+03
      1.667  0.5708E+02  0.5363E+02  0.2381E+03  0.2374E+03
      1.724  0.3658E+02  0.3974E+02  0.2402E+03  0.2397E+03
      1.780  0.6812E+02  0.6659E+02  0.2440E+03  0.2435E+03
      1.837  0.5048E+02  0.5620E+02  0.2469E+03  0.2467E+03
      1.894  0.5598E+02  0.5013E+02  0.2501E+03  0.2495E+03
      1.950  0.5566E+02  0.5567E+02  0.2532E+03  0.2527E+03
      2.007  0.5043E+02  0.5118E+02  0.2561E+03  0.2556E+03
      2.064  0.3469E+02  0.3606E+02  0.2581E+03  0.2576E+03
      2.121  0.4730E+02  0.5165E+02  0.2607E+03  0.2605E+03
      2.177  0.4918E+02  0.4528E+02  0.2635E+03  0.2631E+03
      2.234  0.4578E+02  0.4468E+02  0.2661E+03  0.2656E+03
      2.291  0.4733E+02  0.4819E+02  0.2688E+03  0.2684E+03
      2.348  0.4625E+02  0.4457E+02  0.2714E+03  0.2709E+03
      2.404  0.5104E+02  0.5080E+02  0.2743E+03  0.2738E+03
      2.461  0.4159E+02  0.4076E+02  0.2767E+03  0.2761E+03
      2.518  0.3992E+02  0.4544E+02  0.2790E+03  0.2787E+03
      2.575  0.4329E+02  0.4034E+02  0.2814E+03  0.2810E+03
      2.631  0.4626E+02  0.4515E+02  0.2840E+03  0.2835E+03
      2.688  0.4212E+02  0.4389E+02  0.2864E+03  0.2860E+03
      2.745  0.4683E+02  0.4129E+02  0.2891E+03  0.2884E+03
      2.801  0.3240E+02  0.4043E+02  0.2909E+03  0.2906E+03
      2.858  0.5503E+02  0.4776E+02  0.2940E+03  0.2934E+03
      2.915  0.3174E+02  0.3753E+02  0.2958E+03  0.2955E+03
      2.972  0.4090E+02  0.3309E+02  0.2982E+03  0.2974E+03
      3.028  0.4622E+02  0.5572E+02  0.3008E+03  0.3005E+03
      3.085  0.4557E+02  0.4238E+02  0.3034E+03  0.3029E+03
      3.142  0.3449E+02  0.3366E+02  0.3053E+03  0.3048E+03
      3.199  0.3733E+02  0.3799E+02  0.3074E+03  0.3070E+03
      3.255  0.2315E+02  0.2689E+02  0.3088E+03  0.3085E+03
      3.312  0.3424E+02  0.2900E+02  0.3107E+03  0.3102E+03
      3.369  0.3224E+02  0.3179E+02  0.3125E+03  0.3120E+03
      3.426  0.2619E+02  0.2717E+02  0.3140E+03  0.3135E+03
      3.482  0.2029E+02  0.2516E+02  0.3152E+03  0.3149E+03
      3.539  0.1753E+02  0.1735E+02  0.3162E+03  0.3159E+03
      3.596  0.1990E+02  0.1737E+02  0.3173E+03  0.3169E+03
      3.653  0.2058E+02  0.2302E+02  0.3185E+03  0.3182E+03
      3.709  0.1629E+02  0.1497E+02  0.3194E+03  0.3191E+03
      3.766  0.1993E+02  0.1738E+02  0.3205E+03  0.3201E+03
      3.823  0.2157E+02  0.2276E+02  0.3217E+03  0.3213E+03
      3.879  0.1130E+02  0.1052E+02  0.3224E+03  0.3219E+03
      3.936  0.2435E+02  0.2354E+02  0.3238E+03  0.3233E+03
      3.993  0.2235E+02  0.1906E+02  0.3250E+03  0.3244E+03
      4.050  0.2990E+02  0.2548E+02  0.3267E+03  0.3258E+03
      4.106  0.1665E+02  0.2360E+02  0.3277E+03  0.3271E+03
      4.163  0.2327E+02  0.2228E+02  0.3290E+03  0.3284E+03
      4.220  0.2361E+02  0.2120E+02  0.3303E+03  0.3296E+03
      4.277  0.2539E+02  0.1746E+02  0.3318E+03  0.3306E+03
      4.333  0.2321E+02  0.2991E+02  0.3331E+03  0.3323E+03
      4.390  0.2275E+02  0.2299E+02  0.3344E+03  0.3336E+03
      4.447  0.1975E+02  0.2068E+02  0.3355E+03  0.3348E+03
      4.504  0.2246E+02  0.2165E+02  0.3368E+03  0.3360E+03
      4.560  0.3043E+02  0.2583E+02  0.3385E+03  0.3375E+03
      4.617  0.2571E+02  0.2516E+02  0.3400E+03  0.3389E+03
      4.674  0.2181E+02  0.2918E+02  0.3412E+03  0.3406E+03
      4.731  0.2012E+02  0.2031E+02  0.3423E+03  0.3417E+03
      4.787  0.6257E+01  0.1435E+02  0.3427E+03  0.3425E+03
      4.844  0.1982E+02  0.9687E+01  0.3438E+03  0.3431E+03
      4.901  0.1363E+02  0.2181E+02  0.3446E+03  0.3443E+03
      4.957  0.2622E+02  0.1783E+02  0.3461E+03  0.3453E+03
      5.014  0.1338E+02  0.2250E+02  0.3468E+03  0.3466E+03
      5.071  0.2528E+02  0.2105E+02  0.3483E+03  0.3478E+03
      5.128  0.2672E+02  0.2894E+02  0.3498E+03  0.3494E+03
      5.184  0.1867E+02  0.1853E+02  0.3508E+03  0.3505E+03
      5.241  0.3180E+02  0.3290E+02  0.3526E+03  0.3523E+03
      5.298  0.2543E+02  0.2301E+02  0.3541E+03  0.3537E+03
      5.355  0.2968E+02  0.2315E+02  0.3558E+03  0.3550E+03
      5.411  0.1389E+02  0.2587E+02  0.3566E+03  0.3564E+03
      5.468  0.2770E+02  0.2084E+02  0.3581E+03  0.3576E+03
      5.525  0.2874E+02  0.3319E+02  0.3598E+03  0.3595E+03
      5.582  0.3037E+02  0.2395E+02  0.3615E+03  0.3609E+03
      5.638  0.2838E+02  0.3356E+02  0.3631E+03  0.3628E+03
      5.695  0.4015E+02  0.3727E+02  0.3654E+03  0.3649E+03
      5.752  0.2642E+02  0.2819E+02  0.3669E+03  0.3665E+03
      5.808  0.3037E+02  0.2731E+02  0.3686E+03  0.3680E+03
      5.865  0.4361E+02  0.4291E+02  0.3711E+03  0.3705E+03
      5.922  0.3523E+02  0.4270E+02  0.3731E+03  0.3729E+03
      5.979  0.3502E+02  0.3121E+02  0.3751E+03  0.3747E+03
      6.035  0.3607E+02  0.3547E+02  0.3771E+03  0.3767E+03
      6.092  0.4073E+02  0.3656E+02  0.3794E+03  0.3787E+03
      6.149  0.3270E+02  0.3680E+02  0.3813E+03  0.3808E+03
      6.206  0.4634E+02  0.4587E+02  0.3839E+03  0.3834E+03
      6.262  0.5175E+02  0.5051E+02  0.3868E+03  0.3863E+03
      6.319  0.3467E+02  0.4037E+02  0.3888E+03  0.3886E+03
      6.376  0.4731E+02  0.4427E+02  0.3915E+03  0.3911E+03
      6.433  0.4164E+02  0.3872E+02  0.3939E+03  0.3933E+03
      6.489  0.3701E+02  0.4087E+02  0.3960E+03  0.3956E+03
      6.546  0.5109E+02  0.4977E+02  0.3988E+03  0.3984E+03
      6.603  0.3055E+02  0.3041E+02  0.4006E+03  0.4002E+03
      6.660  0.2384E+02  0.2580E+02  0.4019E+03  0.4016E+03
      6.716  0.1434E+02  0.1750E+02  0.4027E+03  0.4026E+03
      6.773  0.2754E+02  0.2460E+02  0.4043E+03  0.4040E+03
      6.830  0.2216E+02  0.2532E+02  0.4056E+03  0.4055E+03
      6.886  0.1529E+02  0.1630E+02  0.4064E+03  0.4064E+03
      6.943  0.9736E+01  0.9192E+01  0.4070E+03  0.4069E+03
      7.000  0.1188E+02  0.1157E+02  0.4077E+03  0.4076E+03
      7.057  0.4497E+01  0.5438E+01  0.4079E+03  0.4079E+03
      7.113  0.4300E+00  0.9627E+00  0.4079E+03  0.4079E+03
      7.170  0.1039E+01  0.1466E+01  0.4080E+03  0.4080E+03
      7.227  0.0000E+00  0.0000E+00  0.4080E+03  0.4080E+03
      7.284  0.0000E+00  0.0000E+00  0.4080E+03  0.4080E+03
      7.340  0.0000E+00  0.0000E+00  0.4080E+03  0.4080E+03
      7.397  0.0000E+00  0.0000E+00  0.4080E+03  0.4080E+03
      7.454  0.0000E+00  0.0000E+00  0.4080E+03  0.4080E+03
      7.511  0.0000E+00  0.0000E+00  0.4080E+03  0.4080E+03
      7.567  0.0000E+00  0.0000E+00  0.4080E+03  0.4080E+03
      7.624  0.0000E+00  0.0000E+00  0.4080E+03  0.4080E+03
      7.681  0.0000E+00  0.0000E+00  0.4080E+03  0.4080E+03
      7.737  0.0000E+00  0.0000E+00  0.4080E+03  0.4080E+03
      7.794  0.0000E+00  0.0000E+00  0.4080E+03  0.4080E+03
      7.851  0.0000E+00  0.0000E+00  0.4080E+03  0.4080E+03
      7.908  0.0000E+00  0.0000E+00  0.4080E+03  0.4080E+03
