Si and Ge interface calculation         
           1
     5.431000    0.000000    0.000000
     0.000000   16.293001    0.000000
     0.000000    0.000000   20.724850
   Si   Ge
    36    48
Direct configuration=     1
   0.01779686  0.66666675  0.00000000
   0.51779687  0.66666675  0.13102630
   0.01779687  0.66666675  0.26205260
   0.01779686  0.33333337  0.00000000
   0.51779687  0.33333337  0.13102630
   0.01779687  0.33333337  0.26205260
   0.01779686  0.00000000  0.00000000
   0.51779687  0.00000000  0.13102630
   0.01779687  0.00000000  0.26205260
   0.26779687  0.91666675  0.06551315
   0.76779693  0.91666675  0.19653946
   0.26779699  0.91666675  0.32756573
   0.26779687  0.58333343  0.06551315
   0.76779693  0.58333343  0.19653946
   0.26779699  0.58333343  0.32756573
   0.26779687  0.25000000  0.06551315
   0.76779693  0.25000000  0.19653946
   0.26779699  0.25000000  0.32756573
   0.51779687  0.83333331  0.00000000
   0.01779687  0.83333331  0.13102630
   0.51779699  0.83333331  0.26205260
   0.51779687  0.50000000  0.00000000
   0.01779687  0.50000000  0.13102630
   0.51779699  0.50000000  0.26205260
   0.51779687  0.16666669  0.00000000
   0.01779687  0.16666669  0.13102630
   0.51779699  0.16666669  0.26205260
   0.76779693  0.75000006  0.06551315
   0.26779687  0.75000006  0.19653946
   0.76779699  0.75000006  0.32756573
   0.76779693  0.41666669  0.06551315
   0.26779687  0.41666669  0.19653946
   0.76779699  0.41666669  0.32756573
   0.76779693  0.08333335  0.06551315
   0.26779687  0.08333335  0.19653946
   0.76779699  0.08333335  0.32756573
   0.54924053  0.54241389  0.42248627
   0.04924059  0.16741389  0.51900494
   0.54924047  0.79241389  0.61552358
   0.04924023  0.41741401  0.71204221
   0.54924059  0.04241383  0.80856091
   0.04924059  0.66741389  0.90507960
   0.54924053  0.04241383  0.42248627
   0.04924059  0.66741389  0.51900500
   0.54924047  0.29241389  0.61552358
   0.04924023  0.91741413  0.71204221
   0.54924059  0.54241389  0.80856091
   0.04924059  0.16741389  0.90507948
   0.54924053  0.79241389  0.42248627
   0.04924059  0.41741389  0.51900494
   0.54924047  0.04241383  0.61552358
   0.04924023  0.66741401  0.71204227
   0.54924059  0.29241395  0.80856091
   0.04924059  0.91741389  0.90507960
   0.54924053  0.29241389  0.42248627
   0.04924059  0.91741389  0.51900494
   0.54924047  0.54241389  0.61552358
   0.04924023  0.16741401  0.71204227
   0.54924059  0.79241401  0.80856091
   0.04924059  0.41741389  0.90507948
   0.29924047  0.66741395  0.42248627
   0.79924047  0.29241392  0.51900494
   0.29924059  0.91741389  0.61552358
   0.79924035  0.54241401  0.71204221
   0.29924059  0.16741395  0.80856091
   0.79924035  0.79241389  0.90507960
   0.29924047  0.16741389  0.42248627
   0.79924047  0.79241389  0.51900494
   0.29924059  0.41741389  0.61552358
   0.79924035  0.04241395  0.71204227
   0.29924059  0.66741401  0.80856091
   0.79924035  0.29241377  0.90507948
   0.29924047  0.91741395  0.42248625
   0.79924047  0.54241395  0.51900494
   0.29924059  0.16741392  0.61552358
   0.79924035  0.79241407  0.71204221
   0.29924059  0.41741401  0.80856091
   0.79924035  0.04241383  0.90507948
   0.29924047  0.41741389  0.42248627
   0.79924047  0.04241383  0.51900500
   0.29924059  0.66741389  0.61552358
   0.79924035  0.29241401  0.71204227
   0.29924059  0.91741389  0.80856091
   0.79924035  0.54241389  0.90507948
