Si Bulk DFT energetics calculations using VASP\n
This script is running on comp019.cluster.local in /lustre/home/ah1365/projects/127870/upgrade_report/case_studies/common/structures/interfaces/120_Si72Ge48_011_001_a0.368421_b0.222222_c2.163935_interface6shift5swap8\n
Job started on: Sun  8 Jun 11:37:31 UTC 2025\n
 running   64 mpi-ranks, on    4 nodes
 distrk:  each k-point on   64 cores,    1 groups
 distr:  one band on   16 cores,    4 groups
 vasp.6.4.3 19Mar24 (build Oct 22 2024 11:23:12) complex                        
  
 POSCAR found type information on POSCAR SiGe
 POSCAR found :  2 types and     120 ions
 -----------------------------------------------------------------------------
|                                                                             |
|           W    W    AA    RRRRR   N    N  II  N    N   GGGG   !!!           |
|           W    W   A  A   R    R  NN   N  II  NN   N  G    G  !!!           |
|           W    W  A    A  R    R  N N  N  II  N N  N  G       !!!           |
|           W WW W  AAAAAA  RRRRR   N  N N  II  N  N N  G  GGG   !            |
|           WW  WW  A    A  R   R   N   NN  II  N   NN  G    G                |
|           W    W  A    A  R    R  N    N  II  N    N   GGGG   !!!           |
|                                                                             |
|     You use a magnetic or noncollinear calculation, but did not specify     |
|     the initial magnetic moment with the MAGMOM tag. Note that a            |
|     default of 8.333e-3 will be used for all atoms. This ferromagnetic      |
|     setup may break the symmetry of the crystal, in particular it may       |
|     rule out finding an antiferromagnetic solution. Thence, we              |
|     recommend setting the initial magnetic moment manually or verifying     |
|     carefully that this magnetic setup is desired.                          |
|                                                                             |
 -----------------------------------------------------------------------------

 scaLAPACK will be used
 LDA part: xc-table for (Slater+PW92), standard interpolation
 POSCAR, INCAR and KPOINTS ok, starting setup
 FFT: planning ... GRIDC
 FFT: planning ... GRID_SOFT
 FFT: planning ... GRID
 WAVECAR not read
 entering main loop
       N       E                     dE             d eps       ncg     rms          rms(c)
DAV:   1     0.196837218798E+04    0.19684E+04   -0.21441E+05 13824   0.173E+03
DAV:   2    -0.361086098105E+03   -0.23295E+04   -0.22469E+04 16200   0.215E+02
DAV:   3    -0.577540757180E+03   -0.21645E+03   -0.21031E+03 17056   0.573E+01
DAV:   4    -0.585260274885E+03   -0.77195E+01   -0.76014E+01 16336   0.117E+01
DAV:   5    -0.585545751648E+03   -0.28548E+00   -0.28385E+00 18120   0.221E+00    0.318E+01
DAV:   6    -0.576397049258E+03    0.91487E+01   -0.14290E+01 16672   0.783E+00    0.145E+01
DAV:   7    -0.576320407702E+03    0.76642E-01   -0.14054E+01 16760   0.822E+00    0.609E+00
DAV:   8    -0.575649203435E+03    0.67120E+00   -0.36999E+00 16704   0.462E+00    0.161E+00
DAV:   9    -0.575673424143E+03   -0.24221E-01   -0.99447E-01 16352   0.146E+00    0.107E+00
DAV:  10    -0.575664803155E+03    0.86210E-02   -0.12384E-01 16120   0.623E-01    0.688E-01
DAV:  11    -0.575665449986E+03   -0.64683E-03   -0.32347E-02 16280   0.306E-01    0.431E-01
DAV:  12    -0.575665046712E+03    0.40327E-03   -0.14687E-02 17176   0.239E-01    0.229E-01
DAV:  13    -0.575664763872E+03    0.28284E-03   -0.59975E-03 17160   0.153E-01    0.130E-01
DAV:  14    -0.575664577876E+03    0.18600E-03   -0.19603E-03 16904   0.839E-02    0.635E-02
DAV:  15    -0.575664606967E+03   -0.29091E-04   -0.48310E-04 15616   0.344E-02    0.529E-02
DAV:  16    -0.575664611645E+03   -0.46784E-05   -0.10681E-04 15560   0.157E-02    0.355E-02
DAV:  17    -0.575664620320E+03   -0.86748E-05   -0.52078E-05 16344   0.102E-02    0.160E-02
DAV:  18    -0.575664623393E+03   -0.30728E-05   -0.15103E-05 15864   0.611E-03    0.122E-02
DAV:  19    -0.575664626400E+03   -0.30065E-05   -0.38587E-06 15888   0.311E-03    0.852E-03
DAV:  20    -0.575664630845E+03   -0.44458E-05   -0.69920E-06 16440   0.333E-03    0.470E-03
DAV:  21    -0.575664632653E+03   -0.18081E-05   -0.33774E-06 16400   0.231E-03    0.444E-03
DAV:  22    -0.575664632906E+03   -0.25247E-06   -0.74511E-07 15776   0.110E-03    0.325E-03
DAV:  23    -0.575664633251E+03   -0.34482E-06   -0.16706E-06 15992   0.143E-03    0.218E-03
DAV:  24    -0.575664633085E+03    0.16548E-06   -0.39663E-07 12152   0.796E-04    0.149E-03
DAV:  25    -0.575664632817E+03    0.26868E-06   -0.12410E-07  8304   0.488E-04    0.783E-04
DAV:  26    -0.575664632593E+03    0.22360E-06   -0.64692E-08  8160   0.350E-04    0.342E-04
DAV:  27    -0.575664632533E+03    0.59792E-07   -0.25286E-08  7904   0.233E-04
   1 F= -.57566463E+03 E0= -.57566375E+03  d E =-.176297E-02  mag=     1.0000
Job ended on: Sun  8 Jun 11:58:47 UTC 2025\n
