 120 120   0   0
  0.1187863E+02  0.1330318E-08  0.1629300E-08  0.7204130E-09  0.5000000E-15
  1.000000000000000E-004
  CAR 
 Si and Ge interface calculation         
      9.10492556    -14.32357706  301      5.38490777      1.00000000
    -14.324  0.0000E+00  0.0000E+00  0.0000E+00  0.0000E+00
    -14.245  0.0000E+00  0.0000E+00  0.0000E+00  0.0000E+00
    -14.167  0.0000E+00  0.0000E+00  0.0000E+00  0.0000E+00
    -14.089  0.0000E+00  0.0000E+00  0.0000E+00  0.0000E+00
    -14.011  0.0000E+00  0.0000E+00  0.0000E+00  0.0000E+00
    -13.933  0.0000E+00  0.0000E+00  0.0000E+00  0.0000E+00
    -13.855  0.0000E+00  0.0000E+00  0.0000E+00  0.0000E+00
    -13.777  0.0000E+00  0.0000E+00  0.0000E+00  0.0000E+00
    -13.699  0.0000E+00  0.0000E+00  0.0000E+00  0.0000E+00
    -13.621  0.0000E+00  0.0000E+00  0.0000E+00  0.0000E+00
    -13.543  0.0000E+00  0.0000E+00  0.0000E+00  0.0000E+00
    -13.465  0.0000E+00  0.0000E+00  0.0000E+00  0.0000E+00
    -13.386  0.0000E+00  0.0000E+00  0.0000E+00  0.0000E+00
    -13.308  0.1245E-11  0.1185E-15  0.9722E-13  0.9252E-17
    -13.230  0.4267E+01  0.4228E+01  0.3333E+00  0.3302E+00
    -13.152  0.1205E+02  0.9120E+01  0.1274E+01  0.1046E+01
    -13.074  0.1356E+02  0.1648E+02  0.2333E+01  0.2333E+01
    -12.996  0.1505E+02  0.1016E+02  0.3509E+01  0.3127E+01
    -12.918  0.8455E+01  0.1417E+02  0.4333E+01  0.4333E+01
    -12.840  0.1455E+02  0.1167E+02  0.5470E+01  0.5244E+01
    -12.762  0.1915E+02  0.1834E+02  0.6983E+01  0.6749E+01
    -12.684  0.1337E+02  0.1435E+02  0.8103E+01  0.7927E+01
    -12.605  0.1063E+02  0.9362E+01  0.8951E+01  0.8754E+01
    -12.527  0.7454E+01  0.6478E+01  0.9582E+01  0.9425E+01
    -12.449  0.1158E+02  0.1215E+02  0.1057E+02  0.1037E+02
    -12.371  0.2252E+02  0.2462E+02  0.1233E+02  0.1230E+02
    -12.293  0.1115E-09  0.4040E-13  0.1233E+02  0.1233E+02
    -12.215  0.6220E+01  0.4429E+01  0.1282E+02  0.1268E+02
    -12.137  0.2352E+02  0.2439E+02  0.1466E+02  0.1458E+02
    -12.059  0.8805E+01  0.8526E+01  0.1535E+02  0.1533E+02
    -11.981  0.8206E+01  0.6649E+01  0.1600E+02  0.1585E+02
    -11.903  0.2010E+02  0.1919E+02  0.1759E+02  0.1738E+02
    -11.825  0.1374E+02  0.1649E+02  0.1867E+02  0.1867E+02
    -11.746  0.1482E+02  0.9946E+01  0.1982E+02  0.1944E+02
    -11.668  0.1102E+02  0.1523E+02  0.2090E+02  0.2073E+02
    -11.590  0.9511E+01  0.1196E+02  0.2167E+02  0.2167E+02
    -11.512  0.2135E+02  0.2134E+02  0.2334E+02  0.2333E+02
    -11.434  0.1151E+02  0.9766E+01  0.2423E+02  0.2410E+02
    -11.356  0.1721E+01  0.3626E+01  0.2447E+02  0.2438E+02
    -11.278  0.1958E+02  0.2027E+02  0.2600E+02  0.2596E+02
    -11.200  0.4273E+01  0.4268E+01  0.2633E+02  0.2633E+02
    -11.122  0.2071E+02  0.1852E+02  0.2795E+02  0.2778E+02
    -11.044  0.0000E+00  0.2118E+01  0.2800E+02  0.2800E+02
    -10.965  0.0000E+00  0.0000E+00  0.2800E+02  0.2800E+02
    -10.887  0.1478E-07  0.8303E-11  0.2800E+02  0.2800E+02
    -10.809  0.8537E+01  0.8535E+01  0.2867E+02  0.2867E+02
    -10.731  0.4268E+01  0.4268E+01  0.2900E+02  0.2900E+02
    -10.653  0.8536E+01  0.8501E+01  0.2967E+02  0.2966E+02
    -10.575  0.2161E+00  0.6543E-02  0.2968E+02  0.2967E+02
    -10.497  0.2404E+02  0.2026E+02  0.3156E+02  0.3125E+02
    -10.419  0.1693E+02  0.2241E+02  0.3300E+02  0.3300E+02
    -10.341  0.1694E+02  0.1353E+02  0.3432E+02  0.3406E+02
    -10.263  0.2848E+02  0.2778E+02  0.3657E+02  0.3629E+02
    -10.185  0.1207E+02  0.1470E+02  0.3761E+02  0.3744E+02
    -10.106  0.8537E+01  0.9491E+01  0.3833E+02  0.3833E+02
    -10.028  0.2041E+02  0.1835E+02  0.3993E+02  0.3977E+02
     -9.950  0.1277E+02  0.1386E+02  0.4100E+02  0.4096E+02
     -9.872  0.8387E+01  0.6952E+01  0.4165E+02  0.4154E+02
     -9.794  0.3989E-06  0.1274E-09  0.4167E+02  0.4167E+02
     -9.716  0.1854E+02  0.1536E+02  0.4311E+02  0.4287E+02
     -9.638  0.1967E+02  0.2293E+02  0.4468E+02  0.4466E+02
     -9.560  0.1267E+02  0.1279E+02  0.4567E+02  0.4567E+02
     -9.482  0.6569E+00  0.2663E-01  0.4572E+02  0.4567E+02
     -9.404  0.1227E+02  0.1278E+02  0.4668E+02  0.4667E+02
     -9.325  0.9347E+01  0.8568E+01  0.4741E+02  0.4734E+02
     -9.247  0.1188E+02  0.1277E+02  0.4833E+02  0.4833E+02
     -9.169  0.8537E+01  0.8537E+01  0.4900E+02  0.4900E+02
     -9.091  0.7932E+01  0.5357E+01  0.4962E+02  0.4942E+02
     -9.013  0.1757E+02  0.1832E+02  0.5104E+02  0.5098E+02
     -8.935  0.1974E+02  0.1755E+02  0.5258E+02  0.5238E+02
     -8.857  0.4645E+01  0.7955E+01  0.5300E+02  0.5300E+02
     -8.779  0.1134E+02  0.6293E+01  0.5389E+02  0.5349E+02
     -8.701  0.3579E+02  0.3894E+02  0.5673E+02  0.5659E+02
     -8.623  0.1565E+02  0.1365E+02  0.5795E+02  0.5773E+02
     -8.545  0.3372E+02  0.2347E+02  0.6060E+02  0.5963E+02
     -8.466  0.1853E+02  0.2951E+02  0.6220E+02  0.6195E+02
     -8.388  0.9040E+01  0.1297E+02  0.6300E+02  0.6300E+02
     -8.310  0.1769E+02  0.1100E+02  0.6438E+02  0.6386E+02
     -8.232  0.2448E+02  0.3015E+02  0.6639E+02  0.6626E+02
     -8.154  0.1440E+02  0.1300E+02  0.6757E+02  0.6729E+02
     -8.076  0.1115E+02  0.1315E+02  0.6854E+02  0.6832E+02
     -7.998  0.3822E+02  0.3606E+02  0.7152E+02  0.7116E+02
     -7.920  0.2020E+02  0.2322E+02  0.7311E+02  0.7302E+02
     -7.842  0.1543E+02  0.1350E+02  0.7431E+02  0.7407E+02
     -7.764  0.1986E+02  0.2023E+02  0.7592E+02  0.7569E+02
     -7.686  0.1093E+02  0.1151E+02  0.7683E+02  0.7662E+02
     -7.607  0.1008E+02  0.1322E+02  0.7767E+02  0.7767E+02
     -7.529  0.8252E+01  0.5193E+01  0.7831E+02  0.7807E+02
     -7.451  0.1280E+02  0.1493E+02  0.7933E+02  0.7933E+02
     -7.373  0.8479E+01  0.7592E+01  0.8000E+02  0.7993E+02
     -7.295  0.1642E+02  0.1225E+02  0.8128E+02  0.8096E+02
     -7.217  0.7624E+01  0.8160E+01  0.8193E+02  0.8159E+02
     -7.139  0.3470E-03  0.5193E+01  0.8200E+02  0.8200E+02
     -7.061  0.8142E+01  0.5540E+01  0.8264E+02  0.8243E+02
     -6.983  0.2943E-06  0.2997E+01  0.8267E+02  0.8267E+02
     -6.905  0.4240E+01  0.3789E+01  0.8300E+02  0.8296E+02
     -6.826  0.1278E+02  0.1278E+02  0.8400E+02  0.8396E+02
     -6.748  0.1122E-03  0.3511E-06  0.8400E+02  0.8400E+02
     -6.670  0.8536E+01  0.8532E+01  0.8467E+02  0.8467E+02
     -6.592  0.8539E+01  0.8534E+01  0.8533E+02  0.8533E+02
     -6.514  0.8376E+01  0.7948E+01  0.8599E+02  0.8595E+02
     -6.436  0.4930E+01  0.2593E+01  0.8638E+02  0.8617E+02
     -6.358  0.1893E+02  0.2059E+02  0.8791E+02  0.8778E+02
     -6.280  0.3497E+01  0.3536E+01  0.8819E+02  0.8813E+02
     -6.202  0.8984E+01  0.8571E+01  0.8890E+02  0.8884E+02
     -6.124  0.1657E+02  0.1555E+02  0.9019E+02  0.9005E+02
     -6.046  0.3048E+02  0.2980E+02  0.9258E+02  0.9242E+02
     -5.967  0.2247E+02  0.1967E+02  0.9435E+02  0.9401E+02
     -5.889  0.1996E+02  0.2085E+02  0.9600E+02  0.9579E+02
     -5.811  0.2750E+02  0.2527E+02  0.9824E+02  0.9778E+02
     -5.733  0.2203E+02  0.2388E+02  0.1001E+03  0.9965E+02
     -5.655  0.1112E+02  0.1707E+02  0.1011E+03  0.1011E+03
     -5.577  0.2206E+02  0.2043E+02  0.1028E+03  0.1027E+03
     -5.499  0.1441E+02  0.1481E+02  0.1040E+03  0.1039E+03
     -5.421  0.2472E+02  0.2545E+02  0.1059E+03  0.1059E+03
     -5.343  0.2106E+02  0.1741E+02  0.1076E+03  0.1073E+03
     -5.265  0.1457E+02  0.1766E+02  0.1089E+03  0.1087E+03
     -5.186  0.1622E+02  0.1583E+02  0.1101E+03  0.1100E+03
     -5.108  0.1264E+02  0.1407E+02  0.1112E+03  0.1111E+03
     -5.030  0.2050E+02  0.1744E+02  0.1128E+03  0.1124E+03
     -4.952  0.1794E+02  0.2288E+02  0.1143E+03  0.1142E+03
     -4.874  0.1740E+02  0.1537E+02  0.1156E+03  0.1155E+03
     -4.796  0.2680E+02  0.2477E+02  0.1178E+03  0.1175E+03
     -4.718  0.3261E+02  0.3325E+02  0.1204E+03  0.1201E+03
     -4.640  0.3224E+02  0.3214E+02  0.1229E+03  0.1227E+03
     -4.562  0.3248E+02  0.3147E+02  0.1255E+03  0.1252E+03
     -4.484  0.3599E+02  0.3384E+02  0.1283E+03  0.1279E+03
     -4.406  0.2313E+02  0.2653E+02  0.1302E+03  0.1300E+03
     -4.327  0.2527E+02  0.2654E+02  0.1323E+03  0.1322E+03
     -4.249  0.3137E+02  0.2928E+02  0.1347E+03  0.1345E+03
     -4.171  0.2366E+02  0.2448E+02  0.1366E+03  0.1365E+03
     -4.093  0.2843E+02  0.2813E+02  0.1388E+03  0.1387E+03
     -4.015  0.2741E+02  0.2363E+02  0.1410E+03  0.1406E+03
     -3.937  0.2897E+02  0.2739E+02  0.1433E+03  0.1430E+03
     -3.859  0.3071E+02  0.3013E+02  0.1457E+03  0.1454E+03
     -3.781  0.2650E+02  0.2732E+02  0.1478E+03  0.1476E+03
     -3.703  0.2403E+02  0.2237E+02  0.1497E+03  0.1494E+03
     -3.625  0.1899E+02  0.2275E+02  0.1513E+03  0.1512E+03
     -3.546  0.1632E+02  0.1548E+02  0.1526E+03  0.1524E+03
     -3.468  0.3123E+02  0.2875E+02  0.1551E+03  0.1547E+03
     -3.390  0.3168E+02  0.3376E+02  0.1576E+03  0.1574E+03
     -3.312  0.3202E+02  0.3225E+02  0.1602E+03  0.1600E+03
     -3.234  0.3164E+02  0.3033E+02  0.1627E+03  0.1624E+03
     -3.156  0.3638E+02  0.3378E+02  0.1656E+03  0.1651E+03
     -3.078  0.2675E+02  0.2754E+02  0.1677E+03  0.1673E+03
     -3.000  0.3143E+02  0.3099E+02  0.1702E+03  0.1698E+03
     -2.922  0.2138E+02  0.2290E+02  0.1720E+03  0.1718E+03
     -2.844  0.3262E+02  0.3139E+02  0.1746E+03  0.1743E+03
     -2.766  0.2465E+02  0.2429E+02  0.1765E+03  0.1762E+03
     -2.687  0.2347E+02  0.2490E+02  0.1785E+03  0.1782E+03
     -2.609  0.3569E+02  0.3654E+02  0.1813E+03  0.1811E+03
     -2.531  0.2554E+02  0.2559E+02  0.1834E+03  0.1832E+03
     -2.453  0.2852E+02  0.2649E+02  0.1856E+03  0.1853E+03
     -2.375  0.1619E+02  0.1487E+02  0.1869E+03  0.1866E+03
     -2.297  0.2500E+02  0.2800E+02  0.1890E+03  0.1888E+03
     -2.219  0.3163E+02  0.2872E+02  0.1915E+03  0.1911E+03
     -2.141  0.3577E+02  0.3690E+02  0.1944E+03  0.1940E+03
     -2.063  0.2011E+02  0.2008E+02  0.1960E+03  0.1957E+03
     -1.985  0.3015E+02  0.3196E+02  0.1985E+03  0.1982E+03
     -1.906  0.3046E+02  0.2821E+02  0.2009E+03  0.2006E+03
     -1.828  0.3361E+02  0.3514E+02  0.2037E+03  0.2033E+03
     -1.750  0.2852E+02  0.2901E+02  0.2059E+03  0.2056E+03
     -1.672  0.2204E+02  0.2253E+02  0.2078E+03  0.2075E+03
     -1.594  0.3329E+02  0.3338E+02  0.2105E+03  0.2101E+03
     -1.516  0.2583E+02  0.2738E+02  0.2125E+03  0.2123E+03
     -1.438  0.2653E+02  0.2668E+02  0.2147E+03  0.2145E+03
     -1.360  0.2393E+02  0.2532E+02  0.2166E+03  0.2165E+03
     -1.282  0.2892E+02  0.2604E+02  0.2189E+03  0.2186E+03
     -1.204  0.2566E+02  0.2681E+02  0.2209E+03  0.2207E+03
     -1.126  0.3419E+02  0.3341E+02  0.2237E+03  0.2233E+03
     -1.047  0.4383E+02  0.4476E+02  0.2272E+03  0.2269E+03
     -0.969  0.2247E+02  0.2481E+02  0.2291E+03  0.2289E+03
     -0.891  0.4378E+02  0.4168E+02  0.2325E+03  0.2322E+03
     -0.813  0.2688E+02  0.2675E+02  0.2346E+03  0.2344E+03
     -0.735  0.3989E+02  0.3595E+02  0.2378E+03  0.2373E+03
     -0.657  0.3206E+02  0.3448E+02  0.2404E+03  0.2401E+03
     -0.579  0.3677E+02  0.3543E+02  0.2433E+03  0.2429E+03
     -0.501  0.3391E+02  0.3658E+02  0.2461E+03  0.2458E+03
     -0.423  0.4294E+02  0.4345E+02  0.2495E+03  0.2492E+03
     -0.345  0.3457E+02  0.3101E+02  0.2522E+03  0.2518E+03
     -0.266  0.4093E+02  0.4161E+02  0.2555E+03  0.2551E+03
     -0.188  0.3791E+02  0.3713E+02  0.2585E+03  0.2581E+03
     -0.110  0.4087E+02  0.4227E+02  0.2618E+03  0.2615E+03
     -0.032  0.2806E+02  0.2672E+02  0.2641E+03  0.2637E+03
      0.046  0.4312E+02  0.4200E+02  0.2675E+03  0.2672E+03
      0.124  0.3074E+02  0.2624E+02  0.2700E+03  0.2695E+03
      0.202  0.3765E+02  0.4002E+02  0.2731E+03  0.2726E+03
      0.280  0.3506E+02  0.3599E+02  0.2759E+03  0.2756E+03
      0.358  0.3598E+02  0.3826E+02  0.2788E+03  0.2786E+03
      0.436  0.3899E+02  0.3425E+02  0.2818E+03  0.2814E+03
      0.514  0.3566E+02  0.3696E+02  0.2847E+03  0.2843E+03
      0.593  0.4466E+02  0.4392E+02  0.2883E+03  0.2878E+03
      0.671  0.4145E+02  0.4385E+02  0.2916E+03  0.2913E+03
      0.749  0.4230E+02  0.4274E+02  0.2950E+03  0.2947E+03
      0.827  0.3654E+02  0.3249E+02  0.2979E+03  0.2972E+03
      0.905  0.3458E+02  0.4072E+02  0.3008E+03  0.3005E+03
      0.983  0.3860E+02  0.3459E+02  0.3039E+03  0.3034E+03
      1.061  0.3381E+02  0.3338E+02  0.3065E+03  0.3061E+03
      1.139  0.3672E+02  0.4046E+02  0.3095E+03  0.3093E+03
      1.217  0.4262E+02  0.4248E+02  0.3129E+03  0.3127E+03
      1.295  0.4510E+02  0.4087E+02  0.3164E+03  0.3160E+03
      1.374  0.3706E+02  0.3619E+02  0.3194E+03  0.3190E+03
      1.452  0.3893E+02  0.4107E+02  0.3225E+03  0.3223E+03
      1.530  0.3043E+02  0.2726E+02  0.3249E+03  0.3246E+03
      1.608  0.4251E+02  0.4079E+02  0.3282E+03  0.3278E+03
      1.686  0.3296E+02  0.3624E+02  0.3309E+03  0.3307E+03
      1.764  0.3232E+02  0.2893E+02  0.3334E+03  0.3330E+03
      1.842  0.3891E+02  0.4186E+02  0.3365E+03  0.3363E+03
      1.920  0.3710E+02  0.3581E+02  0.3395E+03  0.3392E+03
      1.998  0.3364E+02  0.3069E+02  0.3421E+03  0.3416E+03
      2.076  0.4303E+02  0.4480E+02  0.3456E+03  0.3452E+03
      2.154  0.3290E+02  0.3184E+02  0.3482E+03  0.3478E+03
      2.233  0.4719E+02  0.4411E+02  0.3520E+03  0.3514E+03
      2.311  0.3263E+02  0.3378E+02  0.3546E+03  0.3541E+03
      2.389  0.3182E+02  0.3452E+02  0.3572E+03  0.3568E+03
      2.467  0.4416E+02  0.3992E+02  0.3607E+03  0.3600E+03
      2.545  0.3179E+02  0.3478E+02  0.3633E+03  0.3628E+03
      2.623  0.3750E+02  0.4047E+02  0.3664E+03  0.3660E+03
      2.701  0.3649E+02  0.3507E+02  0.3692E+03  0.3688E+03
      2.779  0.4141E+02  0.3830E+02  0.3726E+03  0.3719E+03
      2.857  0.3856E+02  0.4316E+02  0.3757E+03  0.3753E+03
      2.935  0.4311E+02  0.3668E+02  0.3791E+03  0.3783E+03
      3.014  0.3896E+02  0.4397E+02  0.3823E+03  0.3819E+03
      3.092  0.4313E+02  0.4017E+02  0.3857E+03  0.3851E+03
      3.170  0.3769E+02  0.3630E+02  0.3889E+03  0.3880E+03
      3.248  0.4107E+02  0.5118E+02  0.3923E+03  0.3920E+03
      3.326  0.3880E+02  0.3401E+02  0.3953E+03  0.3948E+03
      3.404  0.4734E+02  0.3662E+02  0.3991E+03  0.3978E+03
      3.482  0.4467E+02  0.5482E+02  0.4028E+03  0.4022E+03
      3.560  0.4460E+02  0.4134E+02  0.4063E+03  0.4054E+03
      3.638  0.3765E+02  0.4422E+02  0.4093E+03  0.4090E+03
      3.716  0.3847E+02  0.3498E+02  0.4124E+03  0.4118E+03
      3.794  0.3969E+02  0.3430E+02  0.4155E+03  0.4147E+03
      3.873  0.3795E+02  0.4253E+02  0.4187E+03  0.4180E+03
      3.951  0.3888E+02  0.3998E+02  0.4218E+03  0.4212E+03
      4.029  0.3678E+02  0.3737E+02  0.4248E+03  0.4242E+03
      4.107  0.3886E+02  0.4204E+02  0.4280E+03  0.4276E+03
      4.185  0.4433E+02  0.3727E+02  0.4315E+03  0.4306E+03
      4.263  0.3631E+02  0.4186E+02  0.4344E+03  0.4340E+03
      4.341  0.3337E+02  0.3118E+02  0.4370E+03  0.4366E+03
      4.419  0.4225E+02  0.4310E+02  0.4404E+03  0.4400E+03
      4.497  0.4606E+02  0.3924E+02  0.4440E+03  0.4432E+03
      4.575  0.3061E+02  0.3569E+02  0.4465E+03  0.4460E+03
      4.654  0.4495E+02  0.4368E+02  0.4501E+03  0.4495E+03
      4.732  0.3848E+02  0.4106E+02  0.4531E+03  0.4527E+03
      4.810  0.3809E+02  0.3245E+02  0.4561E+03  0.4553E+03
      4.888  0.4444E+02  0.4808E+02  0.4596E+03  0.4591E+03
      4.966  0.3891E+02  0.3781E+02  0.4627E+03  0.4621E+03
      5.044  0.4516E+02  0.3668E+02  0.4663E+03  0.4651E+03
      5.122  0.4484E+02  0.4865E+02  0.4698E+03  0.4689E+03
      5.200  0.3246E+02  0.2891E+02  0.4724E+03  0.4714E+03
      5.278  0.4209E+02  0.4026E+02  0.4758E+03  0.4746E+03
      5.356  0.3908E+02  0.4005E+02  0.4789E+03  0.4778E+03
      5.434  0.4473E+02  0.4579E+02  0.4824E+03  0.4815E+03
      5.513  0.4737E+02  0.3975E+02  0.4862E+03  0.4848E+03
      5.591  0.3984E+02  0.4920E+02  0.4895E+03  0.4888E+03
      5.669  0.4673E+02  0.3699E+02  0.4931E+03  0.4918E+03
      5.747  0.3553E+02  0.4543E+02  0.4960E+03  0.4954E+03
      5.825  0.4960E+02  0.4368E+02  0.4999E+03  0.4988E+03
      5.903  0.4012E+02  0.4364E+02  0.5032E+03  0.5023E+03
      5.981  0.3488E+02  0.3144E+02  0.5060E+03  0.5048E+03
      6.059  0.4002E+02  0.4167E+02  0.5094E+03  0.5081E+03
      6.137  0.2769E+02  0.3530E+02  0.5118E+03  0.5109E+03
      6.215  0.4093E+02  0.4163E+02  0.5151E+03  0.5142E+03
      6.294  0.3505E+02  0.3567E+02  0.5178E+03  0.5171E+03
      6.372  0.3129E+02  0.3046E+02  0.5203E+03  0.5195E+03
      6.450  0.3237E+02  0.3384E+02  0.5229E+03  0.5222E+03
      6.528  0.3910E+02  0.3447E+02  0.5261E+03  0.5250E+03
      6.606  0.3124E+02  0.3071E+02  0.5286E+03  0.5275E+03
      6.684  0.3682E+02  0.4456E+02  0.5315E+03  0.5310E+03
      6.762  0.2820E+02  0.3170E+02  0.5338E+03  0.5335E+03
      6.840  0.3149E+02  0.2681E+02  0.5364E+03  0.5356E+03
      6.918  0.4127E+02  0.4390E+02  0.5396E+03  0.5391E+03
      6.996  0.4258E+02  0.4126E+02  0.5429E+03  0.5424E+03
      7.074  0.3290E+02  0.3147E+02  0.5456E+03  0.5450E+03
      7.153  0.3574E+02  0.3603E+02  0.5484E+03  0.5479E+03
      7.231  0.4376E+02  0.4230E+02  0.5519E+03  0.5512E+03
      7.309  0.2581E+02  0.2758E+02  0.5540E+03  0.5535E+03
      7.387  0.3839E+02  0.3408E+02  0.5571E+03  0.5562E+03
      7.465  0.3028E+02  0.2890E+02  0.5596E+03  0.5586E+03
      7.543  0.4467E+02  0.4517E+02  0.5632E+03  0.5621E+03
      7.621  0.4647E+02  0.5068E+02  0.5669E+03  0.5661E+03
      7.699  0.3337E+02  0.3281E+02  0.5695E+03  0.5689E+03
      7.777  0.2720E+02  0.3295E+02  0.5718E+03  0.5715E+03
      7.855  0.2673E+02  0.2525E+02  0.5739E+03  0.5735E+03
      7.934  0.1623E+02  0.1574E+02  0.5752E+03  0.5748E+03
      8.012  0.8369E+01  0.1191E+02  0.5758E+03  0.5758E+03
      8.090  0.2008E+01  0.3071E+01  0.5760E+03  0.5760E+03
      8.168  0.0000E+00  0.0000E+00  0.5760E+03  0.5760E+03
      8.246  0.0000E+00  0.0000E+00  0.5760E+03  0.5760E+03
      8.324  0.0000E+00  0.0000E+00  0.5760E+03  0.5760E+03
      8.402  0.0000E+00  0.0000E+00  0.5760E+03  0.5760E+03
      8.480  0.0000E+00  0.0000E+00  0.5760E+03  0.5760E+03
      8.558  0.0000E+00  0.0000E+00  0.5760E+03  0.5760E+03
      8.636  0.0000E+00  0.0000E+00  0.5760E+03  0.5760E+03
      8.714  0.0000E+00  0.0000E+00  0.5760E+03  0.5760E+03
      8.793  0.0000E+00  0.0000E+00  0.5760E+03  0.5760E+03
      8.871  0.0000E+00  0.0000E+00  0.5760E+03  0.5760E+03
      8.949  0.0000E+00  0.0000E+00  0.5760E+03  0.5760E+03
      9.027  0.0000E+00  0.0000E+00  0.5760E+03  0.5760E+03
      9.105  0.0000E+00  0.0000E+00  0.5760E+03  0.5760E+03
