 120 120   0   0
  0.2169524E+02  0.7680595E-09  0.1629300E-08  0.2080414E-08  0.5000000E-15
  1.000000000000000E-004
  CAR 
 Si and Ge interface calculation         
      7.92298643     -8.59779790  301      4.86718373      1.00000000
     -8.598  0.0000E+00  0.0000E+00  0.0000E+00  0.0000E+00
     -8.543  0.0000E+00  0.0000E+00  0.0000E+00  0.0000E+00
     -8.488  0.0000E+00  0.0000E+00  0.0000E+00  0.0000E+00
     -8.433  0.0000E+00  0.0000E+00  0.0000E+00  0.0000E+00
     -8.378  0.0000E+00  0.0000E+00  0.0000E+00  0.0000E+00
     -8.322  0.0000E+00  0.0000E+00  0.0000E+00  0.0000E+00
     -8.267  0.0000E+00  0.0000E+00  0.0000E+00  0.0000E+00
     -8.212  0.0000E+00  0.0000E+00  0.0000E+00  0.0000E+00
     -8.157  0.0000E+00  0.0000E+00  0.0000E+00  0.0000E+00
     -8.102  0.0000E+00  0.0000E+00  0.0000E+00  0.0000E+00
     -8.047  0.0000E+00  0.0000E+00  0.0000E+00  0.0000E+00
     -7.992  0.0000E+00  0.0000E+00  0.0000E+00  0.0000E+00
     -7.937  0.0000E+00  0.0000E+00  0.0000E+00  0.0000E+00
     -7.882  0.8168E-06  0.4304E-08  0.4498E-07  0.2370E-09
     -7.827  0.3924E+01  0.3026E+01  0.2161E+00  0.1666E+00
     -7.772  0.2271E+01  0.1890E+01  0.3412E+00  0.2707E+00
     -7.717  0.8690E+01  0.8995E+01  0.8197E+00  0.7661E+00
     -7.662  0.1172E+02  0.1198E+02  0.1465E+01  0.1426E+01
     -7.607  0.1874E+02  0.1900E+02  0.2497E+01  0.2472E+01
     -7.551  0.4599E+01  0.5038E+01  0.2750E+01  0.2749E+01
     -7.496  0.7182E+01  0.6573E+01  0.3146E+01  0.3111E+01
     -7.441  0.4203E+01  0.4791E+01  0.3377E+01  0.3375E+01
     -7.386  0.9271E+01  0.9124E+01  0.3888E+01  0.3878E+01
     -7.331  0.1952E+02  0.1770E+02  0.4963E+01  0.4853E+01
     -7.276  0.3714E+02  0.3568E+02  0.7009E+01  0.6817E+01
     -7.221  0.5319E+01  0.8134E+01  0.7301E+01  0.7265E+01
     -7.166  0.2847E+02  0.2528E+02  0.8869E+01  0.8658E+01
     -7.111  0.1598E+02  0.1971E+02  0.9749E+01  0.9743E+01
     -7.056  0.1778E+02  0.1698E+02  0.1073E+02  0.1068E+02
     -7.001  0.1589E+02  0.1553E+02  0.1160E+02  0.1153E+02
     -6.946  0.2071E+02  0.1931E+02  0.1274E+02  0.1260E+02
     -6.891  0.2124E+02  0.2244E+02  0.1391E+02  0.1383E+02
     -6.836  0.3120E+02  0.2456E+02  0.1563E+02  0.1519E+02
     -6.781  0.2040E+02  0.2586E+02  0.1676E+02  0.1661E+02
     -6.725  0.1736E+02  0.1854E+02  0.1771E+02  0.1763E+02
     -6.670  0.1849E+02  0.1665E+02  0.1873E+02  0.1855E+02
     -6.615  0.3410E+02  0.3662E+02  0.2061E+02  0.2056E+02
     -6.560  0.2446E+02  0.2146E+02  0.2195E+02  0.2175E+02
     -6.505  0.3661E+02  0.3856E+02  0.2397E+02  0.2387E+02
     -6.450  0.2618E+02  0.2411E+02  0.2541E+02  0.2520E+02
     -6.395  0.2394E+02  0.2479E+02  0.2673E+02  0.2656E+02
     -6.340  0.2733E+02  0.2650E+02  0.2824E+02  0.2802E+02
     -6.285  0.2738E+02  0.2717E+02  0.2974E+02  0.2952E+02
     -6.230  0.3451E+02  0.3432E+02  0.3164E+02  0.3141E+02
     -6.175  0.2471E+02  0.2733E+02  0.3301E+02  0.3291E+02
     -6.120  0.4386E+02  0.3951E+02  0.3542E+02  0.3509E+02
     -6.065  0.1773E+02  0.2181E+02  0.3640E+02  0.3629E+02
     -6.010  0.4175E+02  0.3793E+02  0.3870E+02  0.3838E+02
     -5.954  0.2136E+02  0.2483E+02  0.3987E+02  0.3975E+02
     -5.899  0.2586E+02  0.2449E+02  0.4130E+02  0.4109E+02
     -5.844  0.4517E+02  0.4401E+02  0.4378E+02  0.4352E+02
     -5.789  0.3750E+02  0.3788E+02  0.4585E+02  0.4560E+02
     -5.734  0.4355E+02  0.4511E+02  0.4825E+02  0.4809E+02
     -5.679  0.4380E+02  0.4358E+02  0.5066E+02  0.5049E+02
     -5.624  0.3642E+02  0.3716E+02  0.5267E+02  0.5253E+02
     -5.569  0.3421E+02  0.3371E+02  0.5455E+02  0.5439E+02
     -5.514  0.4248E+02  0.4064E+02  0.5689E+02  0.5663E+02
     -5.459  0.3435E+02  0.3688E+02  0.5878E+02  0.5866E+02
     -5.404  0.5958E+02  0.5451E+02  0.6206E+02  0.6166E+02
     -5.349  0.2711E+02  0.3043E+02  0.6355E+02  0.6334E+02
     -5.294  0.3804E+02  0.3994E+02  0.6565E+02  0.6554E+02
     -5.239  0.3952E+02  0.3922E+02  0.6783E+02  0.6770E+02
     -5.184  0.4834E+02  0.4704E+02  0.7049E+02  0.7029E+02
     -5.128  0.3361E+02  0.3414E+02  0.7234E+02  0.7217E+02
     -5.073  0.5381E+02  0.5230E+02  0.7530E+02  0.7505E+02
     -5.018  0.4456E+02  0.4522E+02  0.7776E+02  0.7754E+02
     -4.963  0.3802E+02  0.3789E+02  0.7985E+02  0.7962E+02
     -4.908  0.3371E+02  0.3580E+02  0.8171E+02  0.8159E+02
     -4.853  0.2140E+02  0.1842E+02  0.8288E+02  0.8261E+02
     -4.798  0.3680E+02  0.3701E+02  0.8491E+02  0.8465E+02
     -4.743  0.3256E+02  0.3345E+02  0.8670E+02  0.8649E+02
     -4.688  0.4316E+02  0.4177E+02  0.8908E+02  0.8879E+02
     -4.633  0.4391E+02  0.4487E+02  0.9150E+02  0.9126E+02
     -4.578  0.2767E+02  0.2612E+02  0.9302E+02  0.9270E+02
     -4.523  0.3443E+02  0.3621E+02  0.9492E+02  0.9469E+02
     -4.468  0.3178E+02  0.3406E+02  0.9667E+02  0.9657E+02
     -4.413  0.3578E+02  0.3300E+02  0.9864E+02  0.9839E+02
     -4.357  0.4875E+02  0.4921E+02  0.1013E+03  0.1011E+03
     -4.302  0.3575E+02  0.3583E+02  0.1033E+03  0.1031E+03
     -4.247  0.2907E+02  0.2961E+02  0.1049E+03  0.1047E+03
     -4.192  0.3026E+02  0.3090E+02  0.1066E+03  0.1064E+03
     -4.137  0.2594E+02  0.2394E+02  0.1080E+03  0.1077E+03
     -4.082  0.2380E+02  0.2664E+02  0.1093E+03  0.1092E+03
     -4.027  0.9934E+01  0.1035E+02  0.1098E+03  0.1098E+03
     -3.972  0.2282E+02  0.2125E+02  0.1111E+03  0.1109E+03
     -3.917  0.1967E+02  0.1792E+02  0.1122E+03  0.1119E+03
     -3.862  0.2011E+02  0.2177E+02  0.1133E+03  0.1131E+03
     -3.807  0.2124E+02  0.2203E+02  0.1145E+03  0.1143E+03
     -3.752  0.1487E+02  0.1469E+02  0.1153E+03  0.1151E+03
     -3.697  0.1189E+02  0.1256E+02  0.1159E+03  0.1158E+03
     -3.642  0.1761E+02  0.1866E+02  0.1169E+03  0.1169E+03
     -3.586  0.8970E+01  0.9516E+01  0.1174E+03  0.1174E+03
     -3.531  0.2016E+02  0.1583E+02  0.1185E+03  0.1182E+03
     -3.476  0.2561E+02  0.2554E+02  0.1199E+03  0.1197E+03
     -3.421  0.2030E+02  0.2088E+02  0.1210E+03  0.1208E+03
     -3.366  0.2321E+02  0.2581E+02  0.1223E+03  0.1222E+03
     -3.311  0.1910E+02  0.1715E+02  0.1234E+03  0.1232E+03
     -3.256  0.1742E+02  0.1935E+02  0.1243E+03  0.1242E+03
     -3.201  0.1906E+02  0.1653E+02  0.1254E+03  0.1251E+03
     -3.146  0.3076E+02  0.2934E+02  0.1271E+03  0.1268E+03
     -3.091  0.2759E+02  0.2738E+02  0.1286E+03  0.1283E+03
     -3.036  0.9493E+01  0.1450E+02  0.1291E+03  0.1291E+03
     -2.981  0.2460E+02  0.2358E+02  0.1305E+03  0.1304E+03
     -2.926  0.1591E+02  0.1541E+02  0.1313E+03  0.1312E+03
     -2.871  0.3898E+02  0.3468E+02  0.1335E+03  0.1331E+03
     -2.816  0.2219E+02  0.2423E+02  0.1347E+03  0.1345E+03
     -2.760  0.3064E+02  0.3261E+02  0.1364E+03  0.1363E+03
     -2.705  0.4334E+02  0.4103E+02  0.1388E+03  0.1385E+03
     -2.650  0.4478E+02  0.4388E+02  0.1413E+03  0.1409E+03
     -2.595  0.3193E+02  0.3280E+02  0.1430E+03  0.1427E+03
     -2.540  0.4334E+02  0.4084E+02  0.1454E+03  0.1450E+03
     -2.485  0.4251E+02  0.4636E+02  0.1477E+03  0.1475E+03
     -2.430  0.5874E+02  0.5791E+02  0.1510E+03  0.1507E+03
     -2.375  0.5453E+02  0.5250E+02  0.1540E+03  0.1536E+03
     -2.320  0.6053E+02  0.5739E+02  0.1573E+03  0.1568E+03
     -2.265  0.6225E+02  0.6664E+02  0.1607E+03  0.1605E+03
     -2.210  0.5139E+02  0.5138E+02  0.1636E+03  0.1633E+03
     -2.155  0.5492E+02  0.5260E+02  0.1666E+03  0.1662E+03
     -2.100  0.4939E+02  0.4986E+02  0.1693E+03  0.1689E+03
     -2.045  0.3175E+02  0.3316E+02  0.1711E+03  0.1707E+03
     -1.989  0.5147E+02  0.5320E+02  0.1739E+03  0.1737E+03
     -1.934  0.3877E+02  0.3391E+02  0.1760E+03  0.1755E+03
     -1.879  0.4363E+02  0.4665E+02  0.1784E+03  0.1781E+03
     -1.824  0.2758E+02  0.2947E+02  0.1800E+03  0.1797E+03
     -1.769  0.2466E+02  0.2628E+02  0.1813E+03  0.1812E+03
     -1.714  0.3583E+02  0.3382E+02  0.1833E+03  0.1830E+03
     -1.659  0.2747E+02  0.2904E+02  0.1848E+03  0.1846E+03
     -1.604  0.3871E+02  0.3723E+02  0.1869E+03  0.1867E+03
     -1.549  0.4282E+02  0.4239E+02  0.1893E+03  0.1890E+03
     -1.494  0.3278E+02  0.2981E+02  0.1911E+03  0.1907E+03
     -1.439  0.3743E+02  0.3909E+02  0.1932E+03  0.1928E+03
     -1.384  0.4209E+02  0.4443E+02  0.1955E+03  0.1953E+03
     -1.329  0.2328E+02  0.2506E+02  0.1968E+03  0.1967E+03
     -1.274  0.2225E+02  0.2345E+02  0.1980E+03  0.1979E+03
     -1.219  0.1184E+02  0.1044E+02  0.1986E+03  0.1985E+03
     -1.163  0.1114E+02  0.1240E+02  0.1992E+03  0.1992E+03
     -1.108  0.1237E+02  0.1144E+02  0.1999E+03  0.1998E+03
     -1.053  0.2321E+02  0.2083E+02  0.2012E+03  0.2010E+03
     -0.998  0.2792E+02  0.3053E+02  0.2027E+03  0.2027E+03
     -0.943  0.2942E+02  0.2325E+02  0.2044E+03  0.2039E+03
     -0.888  0.1873E+02  0.2434E+02  0.2054E+03  0.2053E+03
     -0.833  0.2047E+02  0.2048E+02  0.2065E+03  0.2064E+03
     -0.778  0.2004E+02  0.1912E+02  0.2076E+03  0.2075E+03
     -0.723  0.1774E+02  0.1997E+02  0.2086E+03  0.2086E+03
     -0.668  0.1746E+02  0.1466E+02  0.2096E+03  0.2094E+03
     -0.613  0.1580E+02  0.1822E+02  0.2104E+03  0.2104E+03
     -0.558  0.2564E+02  0.2038E+02  0.2118E+03  0.2115E+03
     -0.503  0.2703E+02  0.2844E+02  0.2133E+03  0.2131E+03
     -0.448  0.3979E+02  0.4128E+02  0.2155E+03  0.2153E+03
     -0.392  0.2523E+02  0.2613E+02  0.2169E+03  0.2168E+03
     -0.337  0.2155E+02  0.2202E+02  0.2181E+03  0.2180E+03
     -0.282  0.1400E+02  0.1530E+02  0.2189E+03  0.2188E+03
     -0.227  0.1529E+02  0.1287E+02  0.2197E+03  0.2195E+03
     -0.172  0.1340E+02  0.1396E+02  0.2204E+03  0.2203E+03
     -0.117  0.1652E+02  0.1730E+02  0.2214E+03  0.2213E+03
     -0.062  0.1203E+02  0.1255E+02  0.2220E+03  0.2219E+03
     -0.007  0.1243E+02  0.1195E+02  0.2227E+03  0.2226E+03
      0.048  0.2301E+02  0.2217E+02  0.2240E+03  0.2238E+03
      0.103  0.8458E+01  0.9861E+01  0.2244E+03  0.2244E+03
      0.158  0.1533E+02  0.1489E+02  0.2253E+03  0.2252E+03
      0.213  0.3784E+02  0.3596E+02  0.2274E+03  0.2272E+03
      0.268  0.4305E+02  0.4323E+02  0.2297E+03  0.2296E+03
      0.323  0.7424E+02  0.7240E+02  0.2338E+03  0.2335E+03
      0.378  0.3296E+02  0.3234E+02  0.2356E+03  0.2353E+03
      0.434  0.3139E+02  0.3377E+02  0.2374E+03  0.2372E+03
      0.489  0.5291E+02  0.4761E+02  0.2403E+03  0.2398E+03
      0.544  0.4996E+02  0.5422E+02  0.2430E+03  0.2428E+03
      0.599  0.6789E+02  0.6768E+02  0.2468E+03  0.2465E+03
      0.654  0.4164E+02  0.3965E+02  0.2491E+03  0.2487E+03
      0.709  0.6317E+02  0.6635E+02  0.2525E+03  0.2524E+03
      0.764  0.4974E+02  0.4417E+02  0.2553E+03  0.2548E+03
      0.819  0.9217E+02  0.9000E+02  0.2604E+03  0.2597E+03
      0.874  0.7541E+02  0.8097E+02  0.2645E+03  0.2642E+03
      0.929  0.5574E+02  0.4975E+02  0.2676E+03  0.2669E+03
      0.984  0.5561E+02  0.6299E+02  0.2706E+03  0.2704E+03
      1.039  0.4889E+02  0.4957E+02  0.2733E+03  0.2731E+03
      1.094  0.6477E+02  0.5782E+02  0.2769E+03  0.2763E+03
      1.149  0.7706E+02  0.7969E+02  0.2811E+03  0.2807E+03
      1.205  0.6014E+02  0.6044E+02  0.2845E+03  0.2840E+03
      1.260  0.8307E+02  0.8045E+02  0.2890E+03  0.2885E+03
      1.315  0.7419E+02  0.7362E+02  0.2931E+03  0.2925E+03
      1.370  0.7872E+02  0.8130E+02  0.2975E+03  0.2970E+03
      1.425  0.6299E+02  0.6825E+02  0.3009E+03  0.3008E+03
      1.480  0.5687E+02  0.4743E+02  0.3041E+03  0.3034E+03
      1.535  0.9990E+02  0.1036E+03  0.3096E+03  0.3091E+03
      1.590  0.3923E+02  0.4421E+02  0.3117E+03  0.3115E+03
      1.645  0.7730E+02  0.7042E+02  0.3160E+03  0.3154E+03
      1.700  0.7983E+02  0.7635E+02  0.3204E+03  0.3196E+03
      1.755  0.7788E+02  0.8369E+02  0.3247E+03  0.3242E+03
      1.810  0.8250E+02  0.8235E+02  0.3292E+03  0.3287E+03
      1.865  0.9891E+02  0.9778E+02  0.3347E+03  0.3341E+03
      1.920  0.7997E+02  0.8233E+02  0.3391E+03  0.3387E+03
      1.976  0.6888E+02  0.6979E+02  0.3428E+03  0.3425E+03
      2.031  0.7578E+02  0.7415E+02  0.3470E+03  0.3466E+03
      2.086  0.6337E+02  0.6511E+02  0.3505E+03  0.3502E+03
      2.141  0.5905E+02  0.5591E+02  0.3538E+03  0.3532E+03
      2.196  0.7127E+02  0.6950E+02  0.3577E+03  0.3571E+03
      2.251  0.6168E+02  0.6080E+02  0.3611E+03  0.3604E+03
      2.306  0.1019E+03  0.1045E+03  0.3667E+03  0.3662E+03
      2.361  0.4766E+02  0.4984E+02  0.3693E+03  0.3689E+03
      2.416  0.7105E+02  0.7367E+02  0.3732E+03  0.3730E+03
      2.471  0.5970E+02  0.5763E+02  0.3765E+03  0.3762E+03
      2.526  0.9390E+02  0.8506E+02  0.3817E+03  0.3808E+03
      2.581  0.7097E+02  0.7642E+02  0.3856E+03  0.3850E+03
      2.636  0.6606E+02  0.7050E+02  0.3892E+03  0.3889E+03
      2.691  0.7130E+02  0.6838E+02  0.3932E+03  0.3927E+03
      2.746  0.6073E+02  0.6309E+02  0.3965E+03  0.3962E+03
      2.802  0.4431E+02  0.4098E+02  0.3990E+03  0.3984E+03
      2.857  0.6126E+02  0.6718E+02  0.4023E+03  0.4021E+03
      2.912  0.4175E+02  0.4042E+02  0.4046E+03  0.4043E+03
      2.967  0.7022E+02  0.6517E+02  0.4085E+03  0.4079E+03
      3.022  0.7186E+02  0.7453E+02  0.4124E+03  0.4120E+03
      3.077  0.6519E+02  0.6226E+02  0.4160E+03  0.4155E+03
      3.132  0.7103E+02  0.7020E+02  0.4199E+03  0.4193E+03
      3.187  0.6747E+02  0.7157E+02  0.4237E+03  0.4233E+03
      3.242  0.5888E+02  0.5677E+02  0.4269E+03  0.4264E+03
      3.297  0.6363E+02  0.5937E+02  0.4304E+03  0.4297E+03
      3.352  0.7735E+02  0.8145E+02  0.4347E+03  0.4342E+03
      3.407  0.6311E+02  0.6863E+02  0.4381E+03  0.4379E+03
      3.462  0.5972E+02  0.5121E+02  0.4414E+03  0.4408E+03
      3.517  0.5926E+02  0.6323E+02  0.4447E+03  0.4442E+03
      3.573  0.3778E+02  0.4276E+02  0.4468E+03  0.4466E+03
      3.628  0.4780E+02  0.4155E+02  0.4494E+03  0.4489E+03
      3.683  0.4547E+02  0.5009E+02  0.4519E+03  0.4516E+03
      3.738  0.4536E+02  0.4477E+02  0.4544E+03  0.4541E+03
      3.793  0.3636E+02  0.3345E+02  0.4564E+03  0.4559E+03
      3.848  0.3619E+02  0.3886E+02  0.4584E+03  0.4581E+03
      3.903  0.2465E+02  0.2647E+02  0.4598E+03  0.4595E+03
      3.958  0.2987E+02  0.2917E+02  0.4614E+03  0.4612E+03
      4.013  0.3254E+02  0.3498E+02  0.4632E+03  0.4631E+03
      4.068  0.3675E+02  0.3408E+02  0.4652E+03  0.4650E+03
      4.123  0.2880E+02  0.3224E+02  0.4668E+03  0.4667E+03
      4.178  0.1689E+02  0.1511E+02  0.4677E+03  0.4676E+03
      4.233  0.2184E+02  0.1734E+02  0.4689E+03  0.4685E+03
      4.288  0.3017E+02  0.2208E+02  0.4706E+03  0.4697E+03
      4.343  0.1845E+02  0.3013E+02  0.4716E+03  0.4714E+03
      4.399  0.2130E+02  0.2097E+02  0.4728E+03  0.4725E+03
      4.454  0.5319E+01  0.5906E+01  0.4731E+03  0.4729E+03
      4.509  0.1886E+02  0.8716E+01  0.4741E+03  0.4734E+03
      4.564  0.2213E+02  0.1714E+02  0.4753E+03  0.4743E+03
      4.619  0.1157E+02  0.1978E+02  0.4760E+03  0.4754E+03
      4.674  0.9565E+01  0.1282E+02  0.4765E+03  0.4761E+03
      4.729  0.1573E+02  0.9612E+01  0.4774E+03  0.4766E+03
      4.784  0.1275E+02  0.1446E+02  0.4781E+03  0.4774E+03
      4.839  0.3253E+02  0.1085E+02  0.4799E+03  0.4780E+03
      4.894  0.2170E+02  0.3981E+02  0.4811E+03  0.4802E+03
      4.949  0.2062E+02  0.2707E+02  0.4822E+03  0.4817E+03
      5.004  0.2720E+02  0.1935E+02  0.4837E+03  0.4828E+03
      5.059  0.2795E+02  0.2638E+02  0.4852E+03  0.4842E+03
      5.114  0.2940E+02  0.3209E+02  0.4869E+03  0.4860E+03
      5.170  0.3887E+02  0.2493E+02  0.4890E+03  0.4874E+03
      5.225  0.4496E+02  0.4267E+02  0.4915E+03  0.4897E+03
      5.280  0.3010E+02  0.5002E+02  0.4931E+03  0.4925E+03
      5.335  0.2459E+02  0.2726E+02  0.4945E+03  0.4940E+03
      5.390  0.4413E+02  0.3643E+02  0.4969E+03  0.4960E+03
      5.445  0.3806E+02  0.4600E+02  0.4990E+03  0.4985E+03
      5.500  0.3335E+02  0.3825E+02  0.5008E+03  0.5006E+03
      5.555  0.3232E+02  0.2322E+02  0.5026E+03  0.5019E+03
      5.610  0.4375E+02  0.4627E+02  0.5050E+03  0.5044E+03
      5.665  0.5440E+02  0.5851E+02  0.5080E+03  0.5077E+03
      5.720  0.2945E+02  0.3284E+02  0.5097E+03  0.5095E+03
      5.775  0.5466E+02  0.4101E+02  0.5127E+03  0.5117E+03
      5.830  0.5043E+02  0.5710E+02  0.5154E+03  0.5149E+03
      5.885  0.4725E+02  0.5400E+02  0.5180E+03  0.5178E+03
      5.940  0.4785E+02  0.3905E+02  0.5207E+03  0.5200E+03
      5.996  0.7209E+02  0.6527E+02  0.5246E+03  0.5236E+03
      6.051  0.5560E+02  0.6575E+02  0.5277E+03  0.5272E+03
      6.106  0.4668E+02  0.4818E+02  0.5303E+03  0.5299E+03
      6.161  0.4114E+02  0.4050E+02  0.5325E+03  0.5321E+03
      6.216  0.3406E+02  0.3116E+02  0.5344E+03  0.5338E+03
      6.271  0.6564E+02  0.6245E+02  0.5380E+03  0.5372E+03
      6.326  0.4049E+02  0.4638E+02  0.5403E+03  0.5398E+03
      6.381  0.5413E+02  0.5313E+02  0.5432E+03  0.5427E+03
      6.436  0.4111E+02  0.4482E+02  0.5455E+03  0.5452E+03
      6.491  0.6824E+02  0.6380E+02  0.5493E+03  0.5487E+03
      6.546  0.5994E+02  0.5925E+02  0.5526E+03  0.5520E+03
      6.601  0.6371E+02  0.6590E+02  0.5561E+03  0.5556E+03
      6.656  0.5275E+02  0.5465E+02  0.5590E+03  0.5586E+03
      6.711  0.4473E+02  0.4408E+02  0.5614E+03  0.5610E+03
      6.767  0.5000E+02  0.4704E+02  0.5642E+03  0.5636E+03
      6.822  0.3853E+02  0.4187E+02  0.5663E+03  0.5659E+03
      6.877  0.5050E+02  0.4861E+02  0.5691E+03  0.5686E+03
      6.932  0.4768E+02  0.5045E+02  0.5717E+03  0.5714E+03
      6.987  0.3816E+02  0.3972E+02  0.5738E+03  0.5736E+03
      7.042  0.7695E+01  0.1189E+02  0.5743E+03  0.5742E+03
      7.097  0.1169E+02  0.9505E+01  0.5749E+03  0.5748E+03
      7.152  0.1494E+02  0.1735E+02  0.5757E+03  0.5757E+03
      7.207  0.5095E+01  0.5215E+01  0.5760E+03  0.5760E+03
      7.262  0.0000E+00  0.0000E+00  0.5760E+03  0.5760E+03
      7.317  0.0000E+00  0.0000E+00  0.5760E+03  0.5760E+03
      7.372  0.0000E+00  0.0000E+00  0.5760E+03  0.5760E+03
      7.427  0.0000E+00  0.0000E+00  0.5760E+03  0.5760E+03
      7.482  0.0000E+00  0.0000E+00  0.5760E+03  0.5760E+03
      7.538  0.0000E+00  0.0000E+00  0.5760E+03  0.5760E+03
      7.593  0.0000E+00  0.0000E+00  0.5760E+03  0.5760E+03
      7.648  0.0000E+00  0.0000E+00  0.5760E+03  0.5760E+03
      7.703  0.0000E+00  0.0000E+00  0.5760E+03  0.5760E+03
      7.758  0.0000E+00  0.0000E+00  0.5760E+03  0.5760E+03
      7.813  0.0000E+00  0.0000E+00  0.5760E+03  0.5760E+03
      7.868  0.0000E+00  0.0000E+00  0.5760E+03  0.5760E+03
      7.923  0.0000E+00  0.0000E+00  0.5760E+03  0.5760E+03
