 264 264   0   0
  0.2774202E+02  0.1958175E-08  0.1958175E-08  0.1910025E-08  0.5000000E-15
  1.000000000000000E-004
  CAR 
 Si and Ge interface calculation         
      6.63185640     -9.09629859  301      4.04894851      1.00000000
     -9.096  0.0000E+00  0.0000E+00  0.0000E+00  0.0000E+00
     -9.044  0.0000E+00  0.0000E+00  0.0000E+00  0.0000E+00
     -8.991  0.0000E+00  0.0000E+00  0.0000E+00  0.0000E+00
     -8.939  0.0000E+00  0.0000E+00  0.0000E+00  0.0000E+00
     -8.887  0.0000E+00  0.0000E+00  0.0000E+00  0.0000E+00
     -8.834  0.0000E+00  0.0000E+00  0.0000E+00  0.0000E+00
     -8.782  0.0000E+00  0.0000E+00  0.0000E+00  0.0000E+00
     -8.729  0.0000E+00  0.0000E+00  0.0000E+00  0.0000E+00
     -8.677  0.0000E+00  0.0000E+00  0.0000E+00  0.0000E+00
     -8.624  0.0000E+00  0.0000E+00  0.0000E+00  0.0000E+00
     -8.572  0.0000E+00  0.0000E+00  0.0000E+00  0.0000E+00
     -8.520  0.0000E+00  0.0000E+00  0.0000E+00  0.0000E+00
     -8.467  0.0000E+00  0.0000E+00  0.0000E+00  0.0000E+00
     -8.415  0.1124E-04  0.3735E-05  0.5891E-06  0.1958E-06
     -8.362  0.1286E+02  0.1192E+02  0.6740E+00  0.6248E+00
     -8.310  0.2529E+02  0.2623E+02  0.2000E+01  0.2000E+01
     -8.257  0.1649E-02  0.6685E-03  0.2000E+01  0.2000E+01
     -8.205  0.1863E+02  0.1839E+02  0.2977E+01  0.2964E+01
     -8.153  0.1115E+02  0.1100E+02  0.3561E+01  0.3541E+01
     -8.100  0.2137E+02  0.2101E+02  0.4682E+01  0.4643E+01
     -8.048  0.6066E+01  0.6817E+01  0.5000E+01  0.5000E+01
     -7.995  0.2695E+01  0.1852E+01  0.5141E+01  0.5097E+01
     -7.943  0.2863E+02  0.2879E+02  0.6642E+01  0.6607E+01
     -7.890  0.1725E+02  0.1758E+02  0.7547E+01  0.7528E+01
     -7.838  0.2376E+02  0.2278E+02  0.8793E+01  0.8723E+01
     -7.786  0.1377E+02  0.1498E+02  0.9514E+01  0.9508E+01
     -7.733  0.1880E+02  0.1892E+02  0.1050E+02  0.1050E+02
     -7.681  0.1906E+02  0.1904E+02  0.1150E+02  0.1150E+02
     -7.628  0.1627E-01  0.3171E-01  0.1150E+02  0.1150E+02
     -7.576  0.3076E+02  0.2956E+02  0.1311E+02  0.1305E+02
     -7.523  0.2892E+02  0.2933E+02  0.1463E+02  0.1459E+02
     -7.471  0.2321E+02  0.2287E+02  0.1585E+02  0.1579E+02
     -7.419  0.1189E+02  0.1232E+02  0.1647E+02  0.1643E+02
     -7.366  0.1013E+02  0.1084E+02  0.1700E+02  0.1700E+02
     -7.314  0.2702E+02  0.2633E+02  0.1842E+02  0.1838E+02
     -7.261  0.2194E+02  0.2000E+02  0.1957E+02  0.1943E+02
     -7.209  0.3210E+02  0.3366E+02  0.2125E+02  0.2119E+02
     -7.156  0.4575E+02  0.4491E+02  0.2365E+02  0.2355E+02
     -7.104  0.9693E+01  0.1036E+02  0.2416E+02  0.2409E+02
     -7.052  0.4912E+02  0.4919E+02  0.2673E+02  0.2667E+02
     -6.999  0.2697E+02  0.2485E+02  0.2815E+02  0.2797E+02
     -6.947  0.2110E+02  0.2293E+02  0.2925E+02  0.2918E+02
     -6.894  0.3943E+02  0.3812E+02  0.3132E+02  0.3117E+02
     -6.842  0.4928E+02  0.4981E+02  0.3390E+02  0.3379E+02
     -6.790  0.4772E+02  0.4726E+02  0.3640E+02  0.3626E+02
     -6.737  0.4043E+02  0.4190E+02  0.3852E+02  0.3846E+02
     -6.685  0.5411E+02  0.5258E+02  0.4136E+02  0.4122E+02
     -6.632  0.3808E+02  0.3978E+02  0.4336E+02  0.4330E+02
     -6.580  0.1488E+02  0.1490E+02  0.4414E+02  0.4408E+02
     -6.527  0.5716E+02  0.5531E+02  0.4713E+02  0.4698E+02
     -6.475  0.2848E+02  0.3057E+02  0.4863E+02  0.4858E+02
     -6.423  0.5222E+02  0.5178E+02  0.5137E+02  0.5130E+02
     -6.370  0.3942E+02  0.3770E+02  0.5343E+02  0.5328E+02
     -6.318  0.6352E+02  0.6313E+02  0.5676E+02  0.5659E+02
     -6.265  0.5953E+02  0.5907E+02  0.5988E+02  0.5968E+02
     -6.213  0.6332E+02  0.6423E+02  0.6320E+02  0.6305E+02
     -6.160  0.4864E+02  0.4913E+02  0.6575E+02  0.6563E+02
     -6.108  0.6096E+02  0.5923E+02  0.6895E+02  0.6873E+02
     -6.056  0.7257E+02  0.7213E+02  0.7275E+02  0.7251E+02
     -6.003  0.7059E+02  0.7334E+02  0.7645E+02  0.7636E+02
     -5.951  0.6769E+02  0.6609E+02  0.8000E+02  0.7982E+02
     -5.898  0.4447E+02  0.4570E+02  0.8233E+02  0.8222E+02
     -5.846  0.7575E+02  0.7536E+02  0.8631E+02  0.8617E+02
     -5.793  0.6641E+02  0.6447E+02  0.8979E+02  0.8955E+02
     -5.741  0.8412E+02  0.8439E+02  0.9420E+02  0.9397E+02
     -5.689  0.9641E+02  0.9515E+02  0.9925E+02  0.9896E+02
     -5.636  0.9418E+02  0.9586E+02  0.1042E+03  0.1040E+03
     -5.584  0.6334E+02  0.6212E+02  0.1075E+03  0.1072E+03
     -5.531  0.5969E+02  0.6105E+02  0.1106E+03  0.1104E+03
     -5.479  0.6814E+02  0.6899E+02  0.1142E+03  0.1141E+03
     -5.426  0.7733E+02  0.7620E+02  0.1183E+03  0.1181E+03
     -5.374  0.9595E+02  0.9530E+02  0.1233E+03  0.1231E+03
     -5.322  0.9286E+02  0.9346E+02  0.1282E+03  0.1280E+03
     -5.269  0.7510E+02  0.7508E+02  0.1321E+03  0.1319E+03
     -5.217  0.6497E+02  0.6600E+02  0.1355E+03  0.1354E+03
     -5.164  0.5984E+02  0.6140E+02  0.1386E+03  0.1386E+03
     -5.112  0.7391E+02  0.7308E+02  0.1425E+03  0.1424E+03
     -5.059  0.7135E+02  0.6849E+02  0.1463E+03  0.1460E+03
     -5.007  0.8221E+02  0.8360E+02  0.1506E+03  0.1504E+03
     -4.955  0.6400E+02  0.6527E+02  0.1539E+03  0.1538E+03
     -4.902  0.6977E+02  0.7082E+02  0.1576E+03  0.1575E+03
     -4.850  0.5123E+02  0.4966E+02  0.1603E+03  0.1601E+03
     -4.797  0.8515E+02  0.8309E+02  0.1647E+03  0.1645E+03
     -4.745  0.1264E+03  0.1268E+03  0.1714E+03  0.1711E+03
     -4.692  0.1147E+03  0.1139E+03  0.1774E+03  0.1771E+03
     -4.640  0.1040E+03  0.1029E+03  0.1828E+03  0.1825E+03
     -4.588  0.1089E+03  0.1088E+03  0.1885E+03  0.1882E+03
     -4.535  0.1084E+03  0.1053E+03  0.1942E+03  0.1937E+03
     -4.483  0.9151E+02  0.9417E+02  0.1990E+03  0.1986E+03
     -4.430  0.1036E+03  0.1039E+03  0.2045E+03  0.2041E+03
     -4.378  0.9962E+02  0.9947E+02  0.2097E+03  0.2093E+03
     -4.325  0.8201E+02  0.8371E+02  0.2140E+03  0.2137E+03
     -4.273  0.7700E+02  0.7581E+02  0.2180E+03  0.2177E+03
     -4.221  0.8866E+02  0.8848E+02  0.2227E+03  0.2223E+03
     -4.168  0.9064E+02  0.9234E+02  0.2274E+03  0.2272E+03
     -4.116  0.1019E+03  0.1037E+03  0.2328E+03  0.2326E+03
     -4.063  0.5383E+02  0.5271E+02  0.2356E+03  0.2354E+03
     -4.011  0.6743E+02  0.7081E+02  0.2391E+03  0.2391E+03
     -3.958  0.5138E+02  0.4640E+02  0.2418E+03  0.2415E+03
     -3.906  0.2012E+02  0.2474E+02  0.2429E+03  0.2428E+03
     -3.854  0.7308E+02  0.6907E+02  0.2467E+03  0.2464E+03
     -3.801  0.5823E+02  0.6139E+02  0.2497E+03  0.2496E+03
     -3.749  0.6257E+02  0.6025E+02  0.2530E+03  0.2528E+03
     -3.696  0.7545E+02  0.7674E+02  0.2570E+03  0.2568E+03
     -3.644  0.5968E+02  0.5813E+02  0.2601E+03  0.2599E+03
     -3.591  0.8670E+02  0.8816E+02  0.2647E+03  0.2645E+03
     -3.539  0.3405E+02  0.3317E+02  0.2664E+03  0.2662E+03
     -3.487  0.9147E+02  0.9111E+02  0.2712E+03  0.2710E+03
     -3.434  0.8660E+02  0.8482E+02  0.2758E+03  0.2754E+03
     -3.382  0.7170E+02  0.7409E+02  0.2795E+03  0.2793E+03
     -3.329  0.9140E+02  0.9001E+02  0.2843E+03  0.2841E+03
     -3.277  0.4763E+02  0.5064E+02  0.2868E+03  0.2867E+03
     -3.224  0.7931E+02  0.7349E+02  0.2910E+03  0.2906E+03
     -3.172  0.6320E+02  0.6757E+02  0.2943E+03  0.2941E+03
     -3.120  0.8713E+02  0.8504E+02  0.2989E+03  0.2986E+03
     -3.067  0.6070E+02  0.6216E+02  0.3020E+03  0.3018E+03
     -3.015  0.6942E+02  0.6610E+02  0.3057E+03  0.3053E+03
     -2.962  0.7328E+02  0.7569E+02  0.3095E+03  0.3093E+03
     -2.910  0.1113E+03  0.1106E+03  0.3154E+03  0.3150E+03
     -2.857  0.9600E+02  0.9608E+02  0.3204E+03  0.3201E+03
     -2.805  0.7550E+02  0.7586E+02  0.3244E+03  0.3241E+03
     -2.753  0.1025E+03  0.1001E+03  0.3297E+03  0.3293E+03
     -2.700  0.9840E+02  0.1000E+03  0.3349E+03  0.3346E+03
     -2.648  0.9521E+02  0.9597E+02  0.3399E+03  0.3396E+03
     -2.595  0.1186E+03  0.1162E+03  0.3461E+03  0.3457E+03
     -2.543  0.1241E+03  0.1248E+03  0.3526E+03  0.3522E+03
     -2.490  0.9815E+02  0.9964E+02  0.3577E+03  0.3574E+03
     -2.438  0.9522E+02  0.9711E+02  0.3627E+03  0.3625E+03
     -2.386  0.1060E+03  0.1040E+03  0.3683E+03  0.3680E+03
     -2.333  0.9109E+02  0.9107E+02  0.3731E+03  0.3728E+03
     -2.281  0.1061E+03  0.1018E+03  0.3786E+03  0.3781E+03
     -2.228  0.7223E+02  0.7953E+02  0.3824E+03  0.3823E+03
     -2.176  0.3904E+02  0.4007E+02  0.3845E+03  0.3844E+03
     -2.123  0.4434E+02  0.4245E+02  0.3868E+03  0.3866E+03
     -2.071  0.7359E+02  0.7285E+02  0.3906E+03  0.3904E+03
     -2.019  0.7994E+02  0.7790E+02  0.3948E+03  0.3945E+03
     -1.966  0.9478E+02  0.9475E+02  0.3998E+03  0.3995E+03
     -1.914  0.1064E+03  0.1057E+03  0.4054E+03  0.4050E+03
     -1.861  0.6917E+02  0.7324E+02  0.4090E+03  0.4088E+03
     -1.809  0.6640E+02  0.6368E+02  0.4125E+03  0.4122E+03
     -1.756  0.1171E+03  0.1143E+03  0.4186E+03  0.4182E+03
     -1.704  0.9830E+02  0.1023E+03  0.4238E+03  0.4235E+03
     -1.652  0.7275E+02  0.7330E+02  0.4276E+03  0.4274E+03
     -1.599  0.8894E+02  0.8498E+02  0.4323E+03  0.4318E+03
     -1.547  0.8196E+02  0.8585E+02  0.4366E+03  0.4363E+03
     -1.494  0.6429E+02  0.6676E+02  0.4399E+03  0.4398E+03
     -1.442  0.4426E+02  0.4325E+02  0.4423E+03  0.4421E+03
     -1.390  0.7710E+02  0.7541E+02  0.4463E+03  0.4461E+03
     -1.337  0.6438E+02  0.6529E+02  0.4497E+03  0.4495E+03
     -1.285  0.3327E+02  0.3278E+02  0.4514E+03  0.4512E+03
     -1.232  0.5900E+02  0.5997E+02  0.4545E+03  0.4544E+03
     -1.180  0.5691E+02  0.5655E+02  0.4575E+03  0.4573E+03
     -1.127  0.5181E+02  0.5207E+02  0.4602E+03  0.4600E+03
     -1.075  0.4629E+02  0.4562E+02  0.4626E+03  0.4624E+03
     -1.023  0.5304E+02  0.5202E+02  0.4654E+03  0.4652E+03
     -0.970  0.4039E+02  0.4318E+02  0.4675E+03  0.4674E+03
     -0.918  0.2690E+02  0.2721E+02  0.4689E+03  0.4689E+03
     -0.865  0.7755E+02  0.7428E+02  0.4730E+03  0.4728E+03
     -0.813  0.7769E+02  0.7860E+02  0.4771E+03  0.4769E+03
     -0.760  0.3929E+02  0.4038E+02  0.4791E+03  0.4790E+03
     -0.708  0.6235E+02  0.5982E+02  0.4824E+03  0.4821E+03
     -0.656  0.7180E+02  0.7266E+02  0.4862E+03  0.4859E+03
     -0.603  0.4039E+02  0.4201E+02  0.4883E+03  0.4881E+03
     -0.551  0.2123E+02  0.2272E+02  0.4894E+03  0.4893E+03
     -0.498  0.1838E+02  0.1861E+02  0.4904E+03  0.4903E+03
     -0.446  0.3351E+02  0.3348E+02  0.4921E+03  0.4921E+03
     -0.393  0.2902E+02  0.2803E+02  0.4936E+03  0.4935E+03
     -0.341  0.6190E+02  0.5984E+02  0.4969E+03  0.4967E+03
     -0.289  0.7317E+02  0.7516E+02  0.5007E+03  0.5006E+03
     -0.236  0.8344E+02  0.8231E+02  0.5051E+03  0.5049E+03
     -0.184  0.9605E+02  0.9560E+02  0.5101E+03  0.5099E+03
     -0.131  0.1004E+03  0.9947E+02  0.5154E+03  0.5151E+03
     -0.079  0.1407E+03  0.1403E+03  0.5228E+03  0.5225E+03
     -0.026  0.1011E+03  0.1019E+03  0.5281E+03  0.5279E+03
      0.026  0.1138E+03  0.1114E+03  0.5340E+03  0.5337E+03
      0.078  0.1307E+03  0.1325E+03  0.5409E+03  0.5406E+03
      0.131  0.1089E+03  0.1097E+03  0.5466E+03  0.5464E+03
      0.183  0.1067E+03  0.1083E+03  0.5522E+03  0.5521E+03
      0.236  0.5905E+02  0.5868E+02  0.5553E+03  0.5551E+03
      0.288  0.9674E+02  0.9305E+02  0.5604E+03  0.5600E+03
      0.341  0.9373E+02  0.9735E+02  0.5653E+03  0.5651E+03
      0.393  0.8279E+02  0.7895E+02  0.5696E+03  0.5693E+03
      0.445  0.1040E+03  0.1083E+03  0.5751E+03  0.5749E+03
      0.498  0.7660E+02  0.7703E+02  0.5791E+03  0.5790E+03
      0.550  0.1214E+03  0.1172E+03  0.5855E+03  0.5851E+03
      0.603  0.1333E+03  0.1339E+03  0.5924E+03  0.5921E+03
      0.655  0.1099E+03  0.1069E+03  0.5982E+03  0.5977E+03
      0.708  0.1630E+03  0.1633E+03  0.6068E+03  0.6063E+03
      0.760  0.1200E+03  0.1195E+03  0.6130E+03  0.6126E+03
      0.812  0.1226E+03  0.1284E+03  0.6195E+03  0.6193E+03
      0.865  0.1068E+03  0.1039E+03  0.6251E+03  0.6247E+03
      0.917  0.1068E+03  0.1076E+03  0.6307E+03  0.6304E+03
      0.970  0.1192E+03  0.1190E+03  0.6369E+03  0.6366E+03
      1.022  0.1087E+03  0.1085E+03  0.6426E+03  0.6423E+03
      1.075  0.1514E+03  0.1479E+03  0.6506E+03  0.6501E+03
      1.127  0.1831E+03  0.1828E+03  0.6602E+03  0.6597E+03
      1.179  0.1573E+03  0.1588E+03  0.6684E+03  0.6680E+03
      1.232  0.1960E+03  0.1964E+03  0.6787E+03  0.6783E+03
      1.284  0.1750E+03  0.1730E+03  0.6879E+03  0.6873E+03
      1.337  0.2044E+03  0.2048E+03  0.6986E+03  0.6981E+03
      1.389  0.1544E+03  0.1561E+03  0.7067E+03  0.7063E+03
      1.442  0.1398E+03  0.1387E+03  0.7140E+03  0.7135E+03
      1.494  0.1929E+03  0.1868E+03  0.7241E+03  0.7233E+03
      1.546  0.1938E+03  0.1985E+03  0.7343E+03  0.7337E+03
      1.599  0.1923E+03  0.1915E+03  0.7444E+03  0.7438E+03
      1.651  0.1722E+03  0.1744E+03  0.7534E+03  0.7529E+03
      1.704  0.1944E+03  0.1926E+03  0.7636E+03  0.7630E+03
      1.756  0.2052E+03  0.2059E+03  0.7743E+03  0.7738E+03
      1.809  0.1698E+03  0.1663E+03  0.7832E+03  0.7825E+03
      1.861  0.1363E+03  0.1433E+03  0.7904E+03  0.7900E+03
      1.913  0.1769E+03  0.1710E+03  0.7997E+03  0.7990E+03
      1.966  0.2183E+03  0.2205E+03  0.8111E+03  0.8106E+03
      2.018  0.1526E+03  0.1526E+03  0.8191E+03  0.8186E+03
      2.071  0.1885E+03  0.1877E+03  0.8290E+03  0.8284E+03
      2.123  0.1993E+03  0.2014E+03  0.8394E+03  0.8390E+03
      2.176  0.1834E+03  0.1834E+03  0.8490E+03  0.8486E+03
      2.228  0.1305E+03  0.1271E+03  0.8559E+03  0.8552E+03
      2.280  0.1733E+03  0.1738E+03  0.8650E+03  0.8644E+03
      2.333  0.1541E+03  0.1539E+03  0.8730E+03  0.8724E+03
      2.385  0.2009E+03  0.2005E+03  0.8836E+03  0.8829E+03
      2.438  0.1556E+03  0.1598E+03  0.8917E+03  0.8913E+03
      2.490  0.1401E+03  0.1391E+03  0.8991E+03  0.8986E+03
      2.543  0.1153E+03  0.1152E+03  0.9051E+03  0.9046E+03
      2.595  0.1420E+03  0.1409E+03  0.9126E+03  0.9120E+03
      2.647  0.1457E+03  0.1470E+03  0.9202E+03  0.9197E+03
      2.700  0.1197E+03  0.1169E+03  0.9265E+03  0.9259E+03
      2.752  0.1679E+03  0.1636E+03  0.9353E+03  0.9344E+03
      2.805  0.1226E+03  0.1253E+03  0.9417E+03  0.9410E+03
      2.857  0.1636E+03  0.1623E+03  0.9503E+03  0.9495E+03
      2.910  0.1395E+03  0.1468E+03  0.9576E+03  0.9572E+03
      2.962  0.1030E+03  0.1033E+03  0.9630E+03  0.9626E+03
      3.014  0.1252E+03  0.1218E+03  0.9696E+03  0.9690E+03
      3.067  0.1278E+03  0.1286E+03  0.9763E+03  0.9758E+03
      3.119  0.9681E+02  0.9630E+02  0.9813E+03  0.9808E+03
      3.172  0.1136E+03  0.1110E+03  0.9873E+03  0.9866E+03
      3.224  0.1194E+03  0.1248E+03  0.9936E+03  0.9932E+03
      3.277  0.1100E+03  0.1097E+03  0.9993E+03  0.9989E+03
      3.329  0.1083E+03  0.1062E+03  0.1005E+04  0.1004E+04
      3.381  0.9338E+02  0.9824E+02  0.1010E+04  0.1010E+04
      3.434  0.5698E+02  0.5293E+02  0.1013E+04  0.1012E+04
      3.486  0.1037E+03  0.1014E+03  0.1018E+04  0.1018E+04
      3.539  0.1053E+03  0.1061E+03  0.1024E+04  0.1023E+04
      3.591  0.9033E+02  0.8482E+02  0.1029E+04  0.1028E+04
      3.644  0.7566E+02  0.8469E+02  0.1033E+04  0.1032E+04
      3.696  0.6951E+02  0.5836E+02  0.1036E+04  0.1035E+04
      3.748  0.4197E+02  0.5594E+02  0.1038E+04  0.1038E+04
      3.801  0.4999E+02  0.4827E+02  0.1041E+04  0.1041E+04
      3.853  0.5031E+02  0.4953E+02  0.1044E+04  0.1043E+04
      3.906  0.3266E+02  0.3044E+02  0.1045E+04  0.1045E+04
      3.958  0.6705E+02  0.6096E+02  0.1049E+04  0.1048E+04
      4.010  0.6742E+02  0.6915E+02  0.1052E+04  0.1052E+04
      4.063  0.1075E+03  0.9281E+02  0.1058E+04  0.1057E+04
      4.115  0.1075E+03  0.1157E+03  0.1064E+04  0.1063E+04
      4.168  0.9718E+02  0.9971E+02  0.1069E+04  0.1068E+04
      4.220  0.9631E+02  0.9363E+02  0.1074E+04  0.1073E+04
      4.273  0.9973E+02  0.1022E+03  0.1079E+04  0.1078E+04
      4.325  0.1007E+03  0.9267E+02  0.1084E+04  0.1083E+04
      4.377  0.1206E+03  0.1234E+03  0.1091E+04  0.1089E+04
      4.430  0.1072E+03  0.1170E+03  0.1096E+04  0.1096E+04
      4.482  0.1399E+03  0.1313E+03  0.1104E+04  0.1102E+04
      4.535  0.1110E+03  0.1118E+03  0.1109E+04  0.1108E+04
      4.587  0.8179E+02  0.8681E+02  0.1114E+04  0.1113E+04
      4.640  0.1172E+03  0.1159E+03  0.1120E+04  0.1119E+04
      4.692  0.1182E+03  0.1211E+03  0.1126E+04  0.1125E+04
      4.744  0.1204E+03  0.1184E+03  0.1132E+04  0.1132E+04
      4.797  0.1136E+03  0.1104E+03  0.1138E+04  0.1137E+04
      4.849  0.1279E+03  0.1265E+03  0.1145E+04  0.1144E+04
      4.902  0.1077E+03  0.1192E+03  0.1151E+04  0.1150E+04
      4.954  0.9669E+02  0.9134E+02  0.1156E+04  0.1155E+04
      5.007  0.1129E+03  0.1173E+03  0.1162E+04  0.1161E+04
      5.059  0.1603E+03  0.1496E+03  0.1170E+04  0.1169E+04
      5.111  0.1149E+03  0.1263E+03  0.1176E+04  0.1176E+04
      5.164  0.1159E+03  0.1137E+03  0.1182E+04  0.1182E+04
      5.216  0.9388E+02  0.9561E+02  0.1187E+04  0.1187E+04
      5.269  0.9607E+02  0.9278E+02  0.1192E+04  0.1191E+04
      5.321  0.1178E+03  0.1196E+03  0.1198E+04  0.1198E+04
      5.374  0.1299E+03  0.1258E+03  0.1205E+04  0.1204E+04
      5.426  0.1424E+03  0.1443E+03  0.1213E+04  0.1212E+04
      5.478  0.1367E+03  0.1361E+03  0.1220E+04  0.1219E+04
      5.531  0.1685E+03  0.1704E+03  0.1229E+04  0.1228E+04
      5.583  0.1378E+03  0.1380E+03  0.1236E+04  0.1235E+04
      5.636  0.1320E+03  0.1364E+03  0.1243E+04  0.1242E+04
      5.688  0.9715E+02  0.9975E+02  0.1248E+04  0.1248E+04
      5.741  0.1169E+03  0.1112E+03  0.1254E+04  0.1253E+04
      5.793  0.1289E+03  0.1302E+03  0.1261E+04  0.1260E+04
      5.845  0.1256E+03  0.1279E+03  0.1267E+04  0.1267E+04
      5.898  0.7914E+02  0.8017E+02  0.1271E+04  0.1271E+04
      5.950  0.1054E+02  0.1660E+02  0.1272E+04  0.1272E+04
      6.003  0.0000E+00  0.0000E+00  0.1272E+04  0.1272E+04
      6.055  0.0000E+00  0.0000E+00  0.1272E+04  0.1272E+04
      6.108  0.0000E+00  0.0000E+00  0.1272E+04  0.1272E+04
      6.160  0.0000E+00  0.0000E+00  0.1272E+04  0.1272E+04
      6.212  0.0000E+00  0.0000E+00  0.1272E+04  0.1272E+04
      6.265  0.0000E+00  0.0000E+00  0.1272E+04  0.1272E+04
      6.317  0.0000E+00  0.0000E+00  0.1272E+04  0.1272E+04
      6.370  0.0000E+00  0.0000E+00  0.1272E+04  0.1272E+04
      6.422  0.0000E+00  0.0000E+00  0.1272E+04  0.1272E+04
      6.475  0.0000E+00  0.0000E+00  0.1272E+04  0.1272E+04
      6.527  0.0000E+00  0.0000E+00  0.1272E+04  0.1272E+04
      6.579  0.0000E+00  0.0000E+00  0.1272E+04  0.1272E+04
      6.632  0.0000E+00  0.0000E+00  0.1272E+04  0.1272E+04
