  24  24   0   0
  0.1886564E+02  0.5657800E-09  0.5657800E-09  0.1414450E-08  0.5000000E-15
  1.000000000000000E-004
  CAR 
 Si and Ge interface calculation         
      9.50376669    -13.04167114  301      5.32070595      1.00000000
    -13.042  0.0000E+00  0.0000E+00  0.0000E+00  0.0000E+00
    -12.967  0.0000E+00  0.0000E+00  0.0000E+00  0.0000E+00
    -12.891  0.0000E+00  0.0000E+00  0.0000E+00  0.0000E+00
    -12.816  0.0000E+00  0.0000E+00  0.0000E+00  0.0000E+00
    -12.741  0.0000E+00  0.0000E+00  0.0000E+00  0.0000E+00
    -12.666  0.0000E+00  0.0000E+00  0.0000E+00  0.0000E+00
    -12.591  0.0000E+00  0.0000E+00  0.0000E+00  0.0000E+00
    -12.516  0.0000E+00  0.0000E+00  0.0000E+00  0.0000E+00
    -12.440  0.0000E+00  0.0000E+00  0.0000E+00  0.0000E+00
    -12.365  0.0000E+00  0.0000E+00  0.0000E+00  0.0000E+00
    -12.290  0.0000E+00  0.0000E+00  0.0000E+00  0.0000E+00
    -12.215  0.0000E+00  0.0000E+00  0.0000E+00  0.0000E+00
    -12.140  0.0000E+00  0.0000E+00  0.0000E+00  0.0000E+00
    -12.065  0.2493E-11  0.0000E+00  0.1874E-12  0.0000E+00
    -11.990  0.1388E+01  0.3506E-02  0.1043E+00  0.2635E-03
    -11.914  0.8277E+01  0.1494E+01  0.7331E+00  0.1126E+00
    -11.839  0.4677E+00  0.8852E+01  0.7778E+00  0.7778E+00
    -11.764  0.1108E+02  0.1334E+01  0.1610E+01  0.8780E+00
    -11.689  0.7015E+01  0.1049E+02  0.2156E+01  0.1667E+01
    -11.614  0.6504E+01  0.1215E+02  0.2667E+01  0.2580E+01
    -11.539  0.5030E+01  0.5200E+00  0.3045E+01  0.2667E+01
    -11.463  0.4760E+01  0.5914E+01  0.3432E+01  0.3111E+01
    -11.388  0.4428E+01  0.8867E+01  0.3778E+01  0.3777E+01
    -11.313  0.5859E+01  0.2425E-01  0.4218E+01  0.3780E+01
    -11.238  0.2709E-07  0.5890E+01  0.4222E+01  0.4222E+01
    -11.163  0.5914E+01  0.5516E+00  0.4667E+01  0.4264E+01
    -11.088  0.3716E+00  0.5362E+01  0.4695E+01  0.4667E+01
    -11.013  0.3567E+01  0.2898E+01  0.4963E+01  0.4884E+01
    -10.937  0.4932E+01  0.5883E+01  0.5333E+01  0.5331E+01
    -10.862  0.2582E+00  0.6396E-12  0.5353E+01  0.5333E+01
    -10.787  0.5662E+01  0.5875E+01  0.5778E+01  0.5775E+01
    -10.712  0.2951E+01  0.2814E+01  0.6000E+01  0.5989E+01
    -10.637  0.0000E+00  0.0000E+00  0.6000E+01  0.6000E+01
    -10.562  0.1514E+00  0.3077E-12  0.6011E+01  0.6000E+01
    -10.487  0.5763E+01  0.5586E+01  0.6444E+01  0.6420E+01
    -10.411  0.3266E+01  0.9778E-06  0.6690E+01  0.6444E+01
    -10.336  0.2425E+01  0.5914E+01  0.6889E+01  0.6889E+01
    -10.261  0.5363E+01  0.6445E-04  0.7292E+01  0.6889E+01
    -10.186  0.0000E+00  0.5914E+01  0.7333E+01  0.7333E+01
    -10.111  0.0000E+00  0.0000E+00  0.7333E+01  0.7333E+01
    -10.036  0.0000E+00  0.0000E+00  0.7333E+01  0.7333E+01
     -9.960  0.5283E+00  0.8229E-09  0.7373E+01  0.7333E+01
     -9.885  0.3249E+01  0.2955E+01  0.7617E+01  0.7555E+01
     -9.810  0.5094E+01  0.5911E+01  0.8000E+01  0.8000E+01
     -9.735  0.1194E-01  0.8207E-16  0.8001E+01  0.8000E+01
     -9.660  0.5902E+01  0.5714E+01  0.8444E+01  0.8429E+01
     -9.585  0.2957E+01  0.1708E+01  0.8667E+01  0.8573E+01
     -9.510  0.0000E+00  0.1249E+01  0.8667E+01  0.8667E+01
     -9.434  0.0000E+00  0.0000E+00  0.8667E+01  0.8667E+01
     -9.359  0.0000E+00  0.0000E+00  0.8667E+01  0.8667E+01
     -9.284  0.7418E-06  0.0000E+00  0.8667E+01  0.8667E+01
     -9.209  0.5914E+01  0.2651E+01  0.9111E+01  0.8866E+01
     -9.134  0.1319E-04  0.3263E+01  0.9111E+01  0.9111E+01
     -9.059  0.5914E+01  0.4151E+01  0.9556E+01  0.9423E+01
     -8.983  0.1660E-07  0.1763E+01  0.9556E+01  0.9556E+01
     -8.908  0.5914E+01  0.1501E+01  0.1000E+02  0.9668E+01
     -8.833  0.0000E+00  0.4413E+01  0.1000E+02  0.1000E+02
     -8.758  0.0000E+00  0.0000E+00  0.1000E+02  0.1000E+02
     -8.683  0.0000E+00  0.0000E+00  0.1000E+02  0.1000E+02
     -8.608  0.4697E-02  0.6402E-14  0.1000E+02  0.1000E+02
     -8.533  0.2801E+01  0.1068E+01  0.1021E+02  0.1008E+02
     -8.457  0.4467E+01  0.2354E+01  0.1056E+02  0.1026E+02
     -8.382  0.1317E+01  0.5448E+01  0.1067E+02  0.1067E+02
     -8.307  0.1296E-05  0.0000E+00  0.1067E+02  0.1067E+02
     -8.232  0.5913E+01  0.1893E+01  0.1111E+02  0.1081E+02
     -8.157  0.6431E+00  0.3657E+01  0.1116E+02  0.1111E+02
     -8.082  0.2314E+01  0.2957E+01  0.1133E+02  0.1133E+02
     -8.007  0.9839E+00  0.1085E-04  0.1141E+02  0.1133E+02
     -7.931  0.9285E+00  0.1478E+01  0.1148E+02  0.1144E+02
     -7.856  0.2523E+01  0.2957E+01  0.1167E+02  0.1167E+02
     -7.781  0.1833E+01  0.1462E+01  0.1180E+02  0.1178E+02
     -7.706  0.3022E+01  0.2217E+01  0.1203E+02  0.1194E+02
     -7.631  0.4981E+01  0.4679E+01  0.1241E+02  0.1230E+02
     -7.556  0.2957E+01  0.4381E+01  0.1264E+02  0.1263E+02
     -7.480  0.8840E+00  0.5448E+00  0.1271E+02  0.1268E+02
     -7.405  0.1242E+02  0.9418E+01  0.1364E+02  0.1339E+02
     -7.330  0.7392E+00  0.2510E+01  0.1369E+02  0.1366E+02
     -7.255  0.2957E+01  0.1948E+01  0.1392E+02  0.1381E+02
     -7.180  0.1478E+01  0.2916E+01  0.1403E+02  0.1403E+02
     -7.105  0.1750E+01  0.1387E+01  0.1416E+02  0.1413E+02
     -7.030  0.7476E+01  0.4525E+01  0.1472E+02  0.1448E+02
     -6.954  0.2185E+00  0.3166E+01  0.1474E+02  0.1472E+02
     -6.879  0.2686E+01  0.2219E+01  0.1494E+02  0.1489E+02
     -6.804  0.9560E+00  0.7419E+00  0.1502E+02  0.1494E+02
     -6.729  0.4932E+01  0.5574E+01  0.1539E+02  0.1536E+02
     -6.654  0.1224E+01  0.3355E+00  0.1548E+02  0.1539E+02
     -6.579  0.2519E+00  0.1478E+01  0.1552E+02  0.1550E+02
     -6.503  0.3434E+01  0.2976E+01  0.1578E+02  0.1572E+02
     -6.428  0.1478E+01  0.1251E+01  0.1589E+02  0.1582E+02
     -6.353  0.4718E+00  0.1317E+01  0.1592E+02  0.1592E+02
     -6.278  0.9587E+00  0.7400E+00  0.1600E+02  0.1597E+02
     -6.203  0.0000E+00  0.3689E+00  0.1600E+02  0.1600E+02
     -6.128  0.2252E-01  0.3019E-10  0.1600E+02  0.1600E+02
     -6.053  0.3494E+00  0.3696E+00  0.1603E+02  0.1603E+02
     -5.977  0.2215E+01  0.1555E+01  0.1619E+02  0.1614E+02
     -5.902  0.2558E+00  0.6588E+00  0.1621E+02  0.1619E+02
     -5.827  0.1558E+01  0.7393E+00  0.1633E+02  0.1625E+02
     -5.752  0.2621E+01  0.2066E+01  0.1653E+02  0.1641E+02
     -5.677  0.1565E+00  0.1630E+01  0.1654E+02  0.1653E+02
     -5.602  0.7991E+01  0.5137E+01  0.1714E+02  0.1691E+02
     -5.527  0.5409E+01  0.4170E+01  0.1755E+02  0.1723E+02
     -5.451  0.8379E+01  0.6479E+01  0.1820E+02  0.1772E+02
     -5.376  0.9865E+01  0.1085E+02  0.1895E+02  0.1853E+02
     -5.301  0.1281E+02  0.1312E+02  0.1992E+02  0.1952E+02
     -5.226  0.6410E+01  0.1081E+02  0.2043E+02  0.2034E+02
     -5.151  0.6640E+01  0.3643E+01  0.2093E+02  0.2062E+02
     -5.076  0.6332E+01  0.7638E+01  0.2141E+02  0.2121E+02
     -5.000  0.2752E+01  0.2687E+01  0.2162E+02  0.2142E+02
     -4.925  0.2236E+01  0.4424E+01  0.2181E+02  0.2175E+02
     -4.850  0.4145E+01  0.2807E+01  0.2212E+02  0.2196E+02
     -4.775  0.4568E+01  0.6055E+01  0.2246E+02  0.2242E+02
     -4.700  0.5782E+01  0.2217E+01  0.2291E+02  0.2258E+02
     -4.625  0.2424E+01  0.4429E+01  0.2310E+02  0.2292E+02
     -4.550  0.5599E+01  0.6828E+01  0.2353E+02  0.2343E+02
     -4.474  0.3407E+00  0.9687E+00  0.2355E+02  0.2353E+02
     -4.399  0.6744E+01  0.5748E+01  0.2406E+02  0.2396E+02
     -4.324  0.8271E+01  0.8253E+01  0.2468E+02  0.2459E+02
     -4.249  0.4153E+01  0.5356E+01  0.2500E+02  0.2500E+02
     -4.174  0.7159E+01  0.2508E+01  0.2554E+02  0.2519E+02
     -4.099  0.1024E+02  0.1345E+02  0.2636E+02  0.2623E+02
     -4.023  0.2219E+02  0.9165E+01  0.2802E+02  0.2693E+02
     -3.948  0.9671E+01  0.1877E+02  0.2877E+02  0.2834E+02
     -3.873  0.7468E+01  0.6124E+01  0.2934E+02  0.2880E+02
     -3.798  0.9343E+01  0.1239E+02  0.3004E+02  0.2973E+02
     -3.723  0.9775E+01  0.1166E+02  0.3078E+02  0.3061E+02
     -3.648  0.3696E+01  0.2850E+01  0.3106E+02  0.3083E+02
     -3.573  0.1773E+01  0.2962E+01  0.3119E+02  0.3106E+02
     -3.497  0.3511E+01  0.4749E+01  0.3145E+02  0.3141E+02
     -3.422  0.4095E+01  0.2748E+01  0.3176E+02  0.3162E+02
     -3.347  0.3585E+01  0.2689E+01  0.3203E+02  0.3184E+02
     -3.272  0.2620E+01  0.4653E+01  0.3225E+02  0.3219E+02
     -3.197  0.6555E+01  0.3448E+01  0.3274E+02  0.3245E+02
     -3.122  0.2934E+01  0.4525E+01  0.3297E+02  0.3282E+02
     -3.047  0.2958E+01  0.3308E+01  0.3319E+02  0.3307E+02
     -2.971  0.1276E+02  0.5318E+01  0.3415E+02  0.3350E+02
     -2.896  0.1243E-05  0.8663E+01  0.3417E+02  0.3417E+02
     -2.821  0.4492E+01  0.1100E+01  0.3450E+02  0.3425E+02
     -2.746  0.2074E+01  0.4627E+01  0.3466E+02  0.3460E+02
     -2.671  0.4613E+01  0.2924E+01  0.3501E+02  0.3482E+02
     -2.596  0.4821E+01  0.3703E+01  0.3537E+02  0.3511E+02
     -2.520  0.9714E+00  0.4428E+01  0.3544E+02  0.3544E+02
     -2.445  0.3848E-01  0.5162E-10  0.3545E+02  0.3544E+02
     -2.370  0.8155E+00  0.7392E+00  0.3551E+02  0.3550E+02
     -2.295  0.1069E+02  0.4433E+01  0.3631E+02  0.3583E+02
     -2.220  0.1176E+02  0.1543E+02  0.3723E+02  0.3699E+02
     -2.145  0.2333E+01  0.4173E+01  0.3740E+02  0.3733E+02
     -2.070  0.8976E+01  0.7251E+01  0.3808E+02  0.3788E+02
     -1.994  0.1293E+02  0.1049E+02  0.3905E+02  0.3868E+02
     -1.919  0.2968E+01  0.7485E+01  0.3928E+02  0.3926E+02
     -1.844  0.2240E+01  0.2573E+00  0.3945E+02  0.3928E+02
     -1.769  0.8127E+01  0.7530E+01  0.4006E+02  0.3984E+02
     -1.694  0.1075E+02  0.6604E+01  0.4088E+02  0.4035E+02
     -1.619  0.5600E+01  0.8699E+01  0.4130E+02  0.4101E+02
     -1.543  0.3665E+01  0.4590E+01  0.4158E+02  0.4135E+02
     -1.468  0.4685E+01  0.4733E+01  0.4194E+02  0.4171E+02
     -1.393  0.1300E+02  0.1145E+02  0.4291E+02  0.4257E+02
     -1.318  0.7005E+01  0.7276E+01  0.4344E+02  0.4313E+02
     -1.243  0.3384E+01  0.7392E+01  0.4370E+02  0.4369E+02
     -1.168  0.1062E+02  0.4931E+01  0.4450E+02  0.4406E+02
     -1.093  0.7740E+01  0.7627E+01  0.4508E+02  0.4468E+02
     -1.017  0.4330E+01  0.5801E+01  0.4541E+02  0.4513E+02
     -0.942  0.6583E+01  0.5226E+01  0.4593E+02  0.4553E+02
     -0.867  0.3162E+01  0.6941E+01  0.4619E+02  0.4605E+02
     -0.792  0.5957E+01  0.2019E+01  0.4664E+02  0.4621E+02
     -0.717  0.4566E+01  0.6299E+01  0.4699E+02  0.4668E+02
     -0.642  0.4545E+01  0.5084E+01  0.4733E+02  0.4706E+02
     -0.567  0.6646E+01  0.5270E+01  0.4783E+02  0.4746E+02
     -0.491  0.3403E+01  0.5569E+01  0.4809E+02  0.4788E+02
     -0.416  0.6438E+01  0.3480E+01  0.4857E+02  0.4814E+02
     -0.341  0.9206E+01  0.9573E+01  0.4927E+02  0.4886E+02
     -0.266  0.1061E+02  0.1043E+02  0.5007E+02  0.4965E+02
     -0.191  0.3017E+01  0.8029E+01  0.5031E+02  0.5026E+02
     -0.116  0.5082E+01  0.5728E+00  0.5069E+02  0.5031E+02
     -0.040  0.3413E+01  0.6654E+01  0.5095E+02  0.5081E+02
      0.035  0.1692E+01  0.2958E+01  0.5110E+02  0.5103E+02
      0.110  0.8654E+01  0.7758E+01  0.5175E+02  0.5161E+02
      0.185  0.1110E+01  0.1478E+01  0.5183E+02  0.5175E+02
      0.260  0.8144E+01  0.3366E+01  0.5245E+02  0.5200E+02
      0.335  0.5053E+01  0.7935E+01  0.5287E+02  0.5260E+02
      0.410  0.1479E+01  0.4058E+01  0.5300E+02  0.5292E+02
      0.486  0.7638E+01  0.3215E+01  0.5357E+02  0.5316E+02
      0.561  0.6696E+01  0.8279E+01  0.5408E+02  0.5378E+02
      0.636  0.1272E+02  0.1039E+02  0.5504E+02  0.5456E+02
      0.711  0.8870E+01  0.8908E+01  0.5572E+02  0.5523E+02
      0.786  0.7559E+00  0.6201E+01  0.5578E+02  0.5572E+02
      0.861  0.6263E+01  0.4043E+01  0.5625E+02  0.5603E+02
      0.937  0.2737E+01  0.4452E+01  0.5646E+02  0.5636E+02
      1.012  0.6892E+01  0.2857E+01  0.5699E+02  0.5658E+02
      1.087  0.7635E+01  0.8642E+01  0.5758E+02  0.5723E+02
      1.162  0.1154E+02  0.1129E+02  0.5845E+02  0.5810E+02
      1.237  0.8589E+01  0.1069E+02  0.5912E+02  0.5890E+02
      1.312  0.1444E+02  0.1056E+02  0.6020E+02  0.5970E+02
      1.387  0.6295E+01  0.6885E+01  0.6070E+02  0.6023E+02
      1.463  0.1411E+02  0.1508E+02  0.6178E+02  0.6136E+02
      1.538  0.6893E+01  0.7084E+01  0.6230E+02  0.6190E+02
      1.613  0.6177E+01  0.7984E+01  0.6276E+02  0.6251E+02
      1.688  0.7148E+01  0.6197E+01  0.6330E+02  0.6297E+02
      1.763  0.1592E+02  0.1198E+02  0.6450E+02  0.6387E+02
      1.838  0.1621E+02  0.1608E+02  0.6573E+02  0.6511E+02
      1.913  0.1025E+02  0.8500E+01  0.6650E+02  0.6579E+02
      1.989  0.1535E+02  0.1938E+02  0.6767E+02  0.6724E+02
      2.064  0.7483E+01  0.7200E+01  0.6823E+02  0.6781E+02
      2.139  0.6349E+01  0.8184E+01  0.6873E+02  0.6842E+02
      2.214  0.1425E+02  0.1175E+02  0.6984E+02  0.6931E+02
      2.289  0.7630E+01  0.1031E+02  0.7044E+02  0.7009E+02
      2.364  0.1030E+02  0.1319E+02  0.7123E+02  0.7108E+02
      2.440  0.1137E+02  0.8653E+01  0.7208E+02  0.7175E+02
      2.515  0.7828E+01  0.8269E+01  0.7267E+02  0.7237E+02
      2.590  0.8922E+01  0.9094E+01  0.7334E+02  0.7306E+02
      2.665  0.2603E+01  0.5071E+01  0.7354E+02  0.7344E+02
      2.740  0.1029E+02  0.9779E+01  0.7431E+02  0.7418E+02
      2.815  0.1203E+02  0.5532E+01  0.7523E+02  0.7461E+02
      2.890  0.1263E+02  0.1350E+02  0.7625E+02  0.7567E+02
      2.966  0.4039E+01  0.9615E+01  0.7657E+02  0.7639E+02
      3.041  0.1204E+02  0.5267E+01  0.7748E+02  0.7679E+02
      3.116  0.8701E+01  0.1173E+02  0.7815E+02  0.7767E+02
      3.191  0.5959E+01  0.7824E+01  0.7863E+02  0.7826E+02
      3.266  0.1623E+02  0.1055E+02  0.7985E+02  0.7905E+02
      3.341  0.7728E+01  0.1544E+02  0.8044E+02  0.8021E+02
      3.416  0.6220E+01  0.4867E+01  0.8091E+02  0.8058E+02
      3.492  0.7633E+01  0.7015E+01  0.8152E+02  0.8111E+02
      3.567  0.4542E+01  0.8201E+01  0.8189E+02  0.8173E+02
      3.642  0.5705E+01  0.2148E+01  0.8232E+02  0.8189E+02
      3.717  0.1740E+02  0.1322E+02  0.8365E+02  0.8288E+02
      3.792  0.7865E+01  0.1261E+02  0.8424E+02  0.8387E+02
      3.867  0.6274E+01  0.8837E+01  0.8471E+02  0.8455E+02
      3.943  0.1126E+02  0.5607E+01  0.8556E+02  0.8498E+02
      4.018  0.6844E+01  0.8487E+01  0.8609E+02  0.8564E+02
      4.093  0.1085E+02  0.1111E+02  0.8691E+02  0.8647E+02
      4.168  0.5549E+01  0.6025E+01  0.8733E+02  0.8694E+02
      4.243  0.4015E+01  0.8210E+01  0.8764E+02  0.8756E+02
      4.318  0.4259E+01  0.3225E+01  0.8796E+02  0.8780E+02
      4.393  0.4371E+01  0.2369E+01  0.8830E+02  0.8798E+02
      4.469  0.7331E+01  0.6625E+01  0.8885E+02  0.8848E+02
      4.544  0.5877E+01  0.6158E+01  0.8933E+02  0.8894E+02
      4.619  0.9017E+01  0.1065E+02  0.9001E+02  0.8974E+02
      4.694  0.8236E+01  0.5951E+01  0.9064E+02  0.9023E+02
      4.769  0.1101E+02  0.8962E+01  0.9147E+02  0.9092E+02
      4.844  0.1037E+02  0.1264E+02  0.9226E+02  0.9188E+02
      4.920  0.6277E+01  0.9189E+01  0.9273E+02  0.9258E+02
      4.995  0.7507E+01  0.5045E+01  0.9330E+02  0.9296E+02
      5.070  0.5577E+01  0.6892E+01  0.9375E+02  0.9349E+02
      5.145  0.4348E+01  0.6127E+01  0.9408E+02  0.9397E+02
      5.220  0.8854E+01  0.2794E+01  0.9475E+02  0.9418E+02
      5.295  0.7387E+01  0.8966E+01  0.9531E+02  0.9487E+02
      5.370  0.4401E+01  0.5993E+01  0.9564E+02  0.9533E+02
      5.446  0.1319E+01  0.5621E+01  0.9576E+02  0.9575E+02
      5.521  0.6184E+01  0.2612E+01  0.9622E+02  0.9595E+02
      5.596  0.6882E+01  0.6760E+01  0.9674E+02  0.9649E+02
      5.671  0.6270E+01  0.5329E+01  0.9722E+02  0.9691E+02
      5.746  0.2036E+01  0.4126E+01  0.9738E+02  0.9722E+02
      5.821  0.2298E+01  0.2573E+01  0.9755E+02  0.9742E+02
      5.896  0.4161E+00  0.2210E+01  0.9758E+02  0.9758E+02
      5.972  0.8265E+01  0.2138E+01  0.9821E+02  0.9774E+02
      6.047  0.9357E+01  0.8015E+01  0.9891E+02  0.9835E+02
      6.122  0.2529E+01  0.9327E+01  0.9913E+02  0.9905E+02
      6.197  0.5983E+01  0.4091E+01  0.9959E+02  0.9936E+02
      6.272  0.6165E+01  0.5490E+01  0.1001E+03  0.9978E+02
      6.347  0.5737E+01  0.7712E+01  0.1005E+03  0.1004E+03
      6.423  0.8976E+01  0.4547E+01  0.1012E+03  0.1007E+03
      6.498  0.1549E+02  0.8484E+01  0.1023E+03  0.1013E+03
      6.573  0.6233E+01  0.1750E+02  0.1028E+03  0.1027E+03
      6.648  0.1125E+02  0.2846E+01  0.1037E+03  0.1029E+03
      6.723  0.4733E+01  0.1178E+02  0.1040E+03  0.1038E+03
      6.798  0.2072E+01  0.4587E+01  0.1042E+03  0.1042E+03
      6.873  0.1390E+02  0.6120E+01  0.1052E+03  0.1046E+03
      6.949  0.1238E+02  0.1295E+02  0.1062E+03  0.1056E+03
      7.024  0.2201E+02  0.1606E+02  0.1079E+03  0.1068E+03
      7.099  0.1017E+02  0.1721E+02  0.1087E+03  0.1082E+03
      7.174  0.1487E+02  0.1211E+02  0.1098E+03  0.1091E+03
      7.249  0.1261E+02  0.1720E+02  0.1108E+03  0.1104E+03
      7.324  0.1209E+02  0.1246E+02  0.1117E+03  0.1113E+03
      7.400  0.7347E+01  0.9016E+01  0.1123E+03  0.1120E+03
      7.475  0.1130E+02  0.6827E+01  0.1131E+03  0.1125E+03
      7.550  0.1780E+02  0.1420E+02  0.1145E+03  0.1136E+03
      7.625  0.1497E+02  0.1587E+02  0.1156E+03  0.1148E+03
      7.700  0.7925E+01  0.1345E+02  0.1162E+03  0.1158E+03
      7.775  0.1238E+02  0.1044E+02  0.1171E+03  0.1166E+03
      7.850  0.1040E+02  0.1302E+02  0.1179E+03  0.1176E+03
      7.926  0.5632E+01  0.6013E+01  0.1184E+03  0.1181E+03
      8.001  0.6407E+01  0.6715E+01  0.1189E+03  0.1186E+03
      8.076  0.6270E+01  0.4205E+01  0.1194E+03  0.1189E+03
      8.151  0.2221E+01  0.7669E+01  0.1195E+03  0.1195E+03
      8.226  0.3800E+00  0.9995E+00  0.1196E+03  0.1196E+03
      8.301  0.7834E+00  0.6973E+00  0.1196E+03  0.1196E+03
      8.376  0.3652E+01  0.3301E+01  0.1199E+03  0.1199E+03
      8.452  0.1475E+01  0.8341E-04  0.1200E+03  0.1199E+03
      8.527  0.0000E+00  0.1478E+01  0.1200E+03  0.1200E+03
      8.602  0.0000E+00  0.0000E+00  0.1200E+03  0.1200E+03
      8.677  0.0000E+00  0.0000E+00  0.1200E+03  0.1200E+03
      8.752  0.0000E+00  0.0000E+00  0.1200E+03  0.1200E+03
      8.827  0.0000E+00  0.0000E+00  0.1200E+03  0.1200E+03
      8.903  0.0000E+00  0.0000E+00  0.1200E+03  0.1200E+03
      8.978  0.0000E+00  0.0000E+00  0.1200E+03  0.1200E+03
      9.053  0.0000E+00  0.0000E+00  0.1200E+03  0.1200E+03
      9.128  0.0000E+00  0.0000E+00  0.1200E+03  0.1200E+03
      9.203  0.0000E+00  0.0000E+00  0.1200E+03  0.1200E+03
      9.278  0.0000E+00  0.0000E+00  0.1200E+03  0.1200E+03
      9.353  0.0000E+00  0.0000E+00  0.1200E+03  0.1200E+03
      9.429  0.0000E+00  0.0000E+00  0.1200E+03  0.1200E+03
      9.504  0.0000E+00  0.0000E+00  0.1200E+03  0.1200E+03
