 228 228   0   0
  0.2256881E+02  0.1697340E-08  0.1697340E-08  0.1786100E-08  0.5000000E-15
  1.000000000000000E-004
  CAR 
 Si and Ge interface calculation         
      7.16076070     -8.86589352  301      4.30408564      1.00000000
     -8.866  0.0000E+00  0.0000E+00  0.0000E+00  0.0000E+00
     -8.812  0.0000E+00  0.0000E+00  0.0000E+00  0.0000E+00
     -8.759  0.0000E+00  0.0000E+00  0.0000E+00  0.0000E+00
     -8.706  0.0000E+00  0.0000E+00  0.0000E+00  0.0000E+00
     -8.652  0.0000E+00  0.0000E+00  0.0000E+00  0.0000E+00
     -8.599  0.0000E+00  0.0000E+00  0.0000E+00  0.0000E+00
     -8.545  0.0000E+00  0.0000E+00  0.0000E+00  0.0000E+00
     -8.492  0.0000E+00  0.0000E+00  0.0000E+00  0.0000E+00
     -8.439  0.0000E+00  0.0000E+00  0.0000E+00  0.0000E+00
     -8.385  0.0000E+00  0.0000E+00  0.0000E+00  0.0000E+00
     -8.332  0.0000E+00  0.0000E+00  0.0000E+00  0.0000E+00
     -8.278  0.0000E+00  0.0000E+00  0.0000E+00  0.0000E+00
     -8.225  0.0000E+00  0.0000E+00  0.0000E+00  0.0000E+00
     -8.171  0.3575E-05  0.6349E-06  0.1910E-06  0.3392E-07
     -8.118  0.9028E+01  0.8752E+01  0.4823E+00  0.4675E+00
     -8.065  0.3319E+00  0.6075E+00  0.5000E+00  0.5000E+00
     -8.011  0.3598E+02  0.3484E+02  0.2422E+01  0.2361E+01
     -7.958  0.6367E+01  0.6866E+01  0.2762E+01  0.2728E+01
     -7.904  0.1780E+02  0.1728E+02  0.3713E+01  0.3651E+01
     -7.851  0.1473E+02  0.1589E+02  0.4500E+01  0.4500E+01
     -7.797  0.1528E-07  0.6221E-03  0.4500E+01  0.4500E+01
     -7.744  0.8845E+01  0.7440E+01  0.4972E+01  0.4897E+01
     -7.691  0.1596E+02  0.1660E+02  0.5825E+01  0.5784E+01
     -7.637  0.3567E+02  0.3261E+02  0.7731E+01  0.7526E+01
     -7.584  0.7909E+02  0.8074E+02  0.1196E+02  0.1184E+02
     -7.530  0.2965E+02  0.3142E+02  0.1354E+02  0.1352E+02
     -7.477  0.8886E+01  0.9122E+01  0.1401E+02  0.1401E+02
     -7.423  0.1732E+02  0.1680E+02  0.1494E+02  0.1490E+02
     -7.370  0.7064E+01  0.7009E+01  0.1532E+02  0.1528E+02
     -7.317  0.1822E+02  0.1857E+02  0.1629E+02  0.1627E+02
     -7.263  0.5979E+02  0.5956E+02  0.1949E+02  0.1945E+02
     -7.210  0.3338E+02  0.3127E+02  0.2127E+02  0.2112E+02
     -7.156  0.7988E+02  0.8003E+02  0.2554E+02  0.2540E+02
     -7.103  0.5382E+02  0.5417E+02  0.2841E+02  0.2829E+02
     -7.050  0.5634E+02  0.5309E+02  0.3142E+02  0.3113E+02
     -6.996  0.3382E+02  0.3898E+02  0.3323E+02  0.3321E+02
     -6.943  0.9793E+01  0.1003E+02  0.3375E+02  0.3374E+02
     -6.889  0.6092E+02  0.5649E+02  0.3701E+02  0.3676E+02
     -6.836  0.6744E+02  0.6516E+02  0.4061E+02  0.4024E+02
     -6.782  0.6767E+02  0.7270E+02  0.4422E+02  0.4413E+02
     -6.729  0.3172E+02  0.3099E+02  0.4592E+02  0.4578E+02
     -6.676  0.8201E+02  0.8003E+02  0.5030E+02  0.5006E+02
     -6.622  0.4395E+02  0.4716E+02  0.5265E+02  0.5258E+02
     -6.569  0.5152E+02  0.4856E+02  0.5540E+02  0.5517E+02
     -6.515  0.6213E+02  0.6193E+02  0.5872E+02  0.5848E+02
     -6.462  0.8563E+02  0.8043E+02  0.6329E+02  0.6278E+02
     -6.408  0.8740E+02  0.9254E+02  0.6796E+02  0.6772E+02
     -6.355  0.8410E+02  0.8636E+02  0.7245E+02  0.7233E+02
     -6.302  0.1007E+03  0.9981E+02  0.7783E+02  0.7767E+02
     -6.248  0.8330E+02  0.8408E+02  0.8228E+02  0.8216E+02
     -6.195  0.8206E+02  0.7964E+02  0.8667E+02  0.8641E+02
     -6.141  0.6934E+02  0.7109E+02  0.9037E+02  0.9021E+02
     -6.088  0.3875E+02  0.4021E+02  0.9244E+02  0.9236E+02
     -6.035  0.6951E+02  0.6649E+02  0.9615E+02  0.9591E+02
     -5.981  0.9071E+02  0.8845E+02  0.1010E+03  0.1006E+03
     -5.928  0.6449E+02  0.6824E+02  0.1044E+03  0.1043E+03
     -5.874  0.4949E+02  0.4908E+02  0.1071E+03  0.1069E+03
     -5.821  0.6966E+02  0.6852E+02  0.1108E+03  0.1106E+03
     -5.767  0.7928E+02  0.7911E+02  0.1150E+03  0.1148E+03
     -5.714  0.8028E+02  0.8022E+02  0.1193E+03  0.1191E+03
     -5.661  0.9460E+02  0.9439E+02  0.1244E+03  0.1241E+03
     -5.607  0.4140E+02  0.4467E+02  0.1266E+03  0.1265E+03
     -5.554  0.1023E+03  0.9440E+02  0.1321E+03  0.1315E+03
     -5.500  0.1104E+03  0.1153E+03  0.1380E+03  0.1377E+03
     -5.447  0.8175E+02  0.8038E+02  0.1423E+03  0.1420E+03
     -5.393  0.4513E+02  0.4883E+02  0.1447E+03  0.1446E+03
     -5.340  0.5124E+02  0.5129E+02  0.1475E+03  0.1474E+03
     -5.287  0.9024E+02  0.8827E+02  0.1523E+03  0.1521E+03
     -5.233  0.8988E+02  0.8637E+02  0.1571E+03  0.1567E+03
     -5.180  0.9468E+02  0.9488E+02  0.1622E+03  0.1617E+03
     -5.126  0.5529E+02  0.5774E+02  0.1651E+03  0.1648E+03
     -5.073  0.6653E+02  0.6793E+02  0.1687E+03  0.1685E+03
     -5.019  0.6168E+02  0.6095E+02  0.1720E+03  0.1717E+03
     -4.966  0.6744E+02  0.6602E+02  0.1756E+03  0.1752E+03
     -4.913  0.8280E+02  0.8134E+02  0.1800E+03  0.1796E+03
     -4.859  0.6015E+02  0.6417E+02  0.1832E+03  0.1830E+03
     -4.806  0.4880E+02  0.4720E+02  0.1858E+03  0.1855E+03
     -4.752  0.5346E+02  0.5562E+02  0.1887E+03  0.1885E+03
     -4.699  0.5877E+02  0.5705E+02  0.1918E+03  0.1916E+03
     -4.646  0.5950E+02  0.6089E+02  0.1950E+03  0.1948E+03
     -4.592  0.4621E+02  0.4707E+02  0.1975E+03  0.1973E+03
     -4.539  0.6321E+02  0.6291E+02  0.2008E+03  0.2007E+03
     -4.485  0.6709E+02  0.6589E+02  0.2044E+03  0.2042E+03
     -4.432  0.6212E+02  0.6321E+02  0.2077E+03  0.2076E+03
     -4.378  0.6188E+02  0.5962E+02  0.2110E+03  0.2108E+03
     -4.325  0.5832E+02  0.5941E+02  0.2142E+03  0.2139E+03
     -4.272  0.1582E+02  0.1953E+02  0.2150E+03  0.2150E+03
     -4.218  0.3892E+02  0.3714E+02  0.2171E+03  0.2170E+03
     -4.165  0.5252E+02  0.5071E+02  0.2199E+03  0.2197E+03
     -4.111  0.3682E+02  0.3742E+02  0.2218E+03  0.2217E+03
     -4.058  0.2153E+02  0.2471E+02  0.2230E+03  0.2230E+03
     -4.004  0.4631E+02  0.3926E+02  0.2255E+03  0.2251E+03
     -3.951  0.6920E+02  0.6949E+02  0.2292E+03  0.2288E+03
     -3.898  0.2572E+02  0.3195E+02  0.2305E+03  0.2305E+03
     -3.844  0.3740E+02  0.3379E+02  0.2325E+03  0.2323E+03
     -3.791  0.3495E+02  0.3427E+02  0.2344E+03  0.2342E+03
     -3.737  0.4311E+02  0.4690E+02  0.2367E+03  0.2367E+03
     -3.684  0.1958E+02  0.1994E+02  0.2378E+03  0.2377E+03
     -3.631  0.3703E+02  0.3403E+02  0.2397E+03  0.2395E+03
     -3.577  0.4708E+02  0.4733E+02  0.2423E+03  0.2421E+03
     -3.524  0.1861E+02  0.1918E+02  0.2432E+03  0.2431E+03
     -3.470  0.7411E+02  0.6631E+02  0.2472E+03  0.2466E+03
     -3.417  0.1111E+03  0.1151E+03  0.2531E+03  0.2528E+03
     -3.363  0.8958E+02  0.8875E+02  0.2579E+03  0.2575E+03
     -3.310  0.5305E+02  0.5572E+02  0.2608E+03  0.2605E+03
     -3.257  0.9996E+02  0.9885E+02  0.2661E+03  0.2658E+03
     -3.203  0.6722E+02  0.6504E+02  0.2697E+03  0.2693E+03
     -3.150  0.9467E+02  0.9362E+02  0.2748E+03  0.2743E+03
     -3.096  0.6759E+02  0.7299E+02  0.2784E+03  0.2782E+03
     -3.043  0.9045E+02  0.8767E+02  0.2832E+03  0.2828E+03
     -2.989  0.7392E+02  0.7576E+02  0.2871E+03  0.2869E+03
     -2.936  0.6141E+02  0.6075E+02  0.2904E+03  0.2901E+03
     -2.883  0.8785E+02  0.8888E+02  0.2951E+03  0.2949E+03
     -2.829  0.5400E+02  0.5520E+02  0.2980E+03  0.2978E+03
     -2.776  0.7151E+02  0.6711E+02  0.3018E+03  0.3014E+03
     -2.722  0.8298E+02  0.8446E+02  0.3063E+03  0.3059E+03
     -2.669  0.6457E+02  0.6698E+02  0.3097E+03  0.3095E+03
     -2.615  0.7279E+02  0.7265E+02  0.3136E+03  0.3134E+03
     -2.562  0.5869E+02  0.6036E+02  0.3167E+03  0.3166E+03
     -2.509  0.5582E+02  0.5112E+02  0.3197E+03  0.3193E+03
     -2.455  0.7777E+02  0.7984E+02  0.3239E+03  0.3236E+03
     -2.402  0.6051E+02  0.6292E+02  0.3271E+03  0.3270E+03
     -2.348  0.7593E+02  0.7298E+02  0.3312E+03  0.3309E+03
     -2.295  0.1088E+03  0.1100E+03  0.3370E+03  0.3367E+03
     -2.242  0.7328E+02  0.7017E+02  0.3409E+03  0.3405E+03
     -2.188  0.9612E+02  0.9686E+02  0.3460E+03  0.3457E+03
     -2.135  0.5144E+02  0.5712E+02  0.3488E+03  0.3487E+03
     -2.081  0.6189E+02  0.5767E+02  0.3521E+03  0.3518E+03
     -2.028  0.5473E+02  0.5692E+02  0.3550E+03  0.3548E+03
     -1.974  0.5634E+02  0.5416E+02  0.3580E+03  0.3577E+03
     -1.921  0.7254E+02  0.6978E+02  0.3619E+03  0.3615E+03
     -1.868  0.9513E+02  0.9673E+02  0.3670E+03  0.3666E+03
     -1.814  0.3601E+02  0.4034E+02  0.3689E+03  0.3688E+03
     -1.761  0.3867E+02  0.3851E+02  0.3710E+03  0.3708E+03
     -1.707  0.2966E+02  0.3086E+02  0.3725E+03  0.3725E+03
     -1.654  0.8185E+02  0.8020E+02  0.3769E+03  0.3768E+03
     -1.600  0.3328E+02  0.3358E+02  0.3787E+03  0.3786E+03
     -1.547  0.5130E+02  0.4924E+02  0.3814E+03  0.3812E+03
     -1.494  0.3711E+02  0.3966E+02  0.3834E+03  0.3833E+03
     -1.440  0.3729E+02  0.3509E+02  0.3854E+03  0.3852E+03
     -1.387  0.3735E+02  0.3814E+02  0.3874E+03  0.3872E+03
     -1.333  0.2242E+02  0.2279E+02  0.3886E+03  0.3884E+03
     -1.280  0.4630E+02  0.4599E+02  0.3911E+03  0.3909E+03
     -1.227  0.3575E+02  0.3652E+02  0.3930E+03  0.3929E+03
     -1.173  0.9436E+02  0.9541E+02  0.3980E+03  0.3980E+03
     -1.120  0.4491E+02  0.4266E+02  0.4004E+03  0.4002E+03
     -1.066  0.3235E+02  0.3275E+02  0.4021E+03  0.4020E+03
     -1.013  0.3966E+02  0.4245E+02  0.4043E+03  0.4042E+03
     -0.959  0.2803E+02  0.2752E+02  0.4058E+03  0.4057E+03
     -0.906  0.6406E+02  0.6058E+02  0.4092E+03  0.4090E+03
     -0.853  0.1998E+02  0.2424E+02  0.4103E+03  0.4103E+03
     -0.799  0.4187E+02  0.3928E+02  0.4125E+03  0.4123E+03
     -0.746  0.2613E+02  0.2721E+02  0.4139E+03  0.4138E+03
     -0.692  0.2261E+02  0.2263E+02  0.4151E+03  0.4150E+03
     -0.639  0.4986E+02  0.5130E+02  0.4178E+03  0.4178E+03
     -0.585  0.2428E+02  0.2226E+02  0.4191E+03  0.4189E+03
     -0.532  0.1076E+02  0.1145E+02  0.4196E+03  0.4196E+03
     -0.479  0.3579E+02  0.3623E+02  0.4215E+03  0.4215E+03
     -0.425  0.2626E+02  0.2399E+02  0.4229E+03  0.4228E+03
     -0.372  0.4278E+02  0.3990E+02  0.4252E+03  0.4249E+03
     -0.318  0.2383E+02  0.2985E+02  0.4265E+03  0.4265E+03
     -0.265  0.3475E+02  0.3116E+02  0.4284E+03  0.4282E+03
     -0.212  0.4403E+02  0.4450E+02  0.4307E+03  0.4305E+03
     -0.158  0.5984E+02  0.6031E+02  0.4339E+03  0.4338E+03
     -0.105  0.3838E+02  0.3989E+02  0.4360E+03  0.4359E+03
     -0.051  0.4578E+02  0.3862E+02  0.4384E+03  0.4380E+03
      0.002  0.6749E+02  0.7400E+02  0.4420E+03  0.4419E+03
      0.056  0.9483E+02  0.9015E+02  0.4471E+03  0.4467E+03
      0.109  0.1092E+03  0.1110E+03  0.4529E+03  0.4527E+03
      0.162  0.5803E+02  0.5750E+02  0.4560E+03  0.4557E+03
      0.216  0.1212E+03  0.1141E+03  0.4625E+03  0.4618E+03
      0.269  0.1409E+03  0.1448E+03  0.4700E+03  0.4696E+03
      0.323  0.1261E+03  0.1232E+03  0.4768E+03  0.4761E+03
      0.376  0.1023E+03  0.1057E+03  0.4822E+03  0.4818E+03
      0.430  0.1412E+03  0.1421E+03  0.4898E+03  0.4894E+03
      0.483  0.6339E+02  0.6497E+02  0.4931E+03  0.4929E+03
      0.536  0.1530E+03  0.1447E+03  0.5013E+03  0.5006E+03
      0.590  0.1540E+03  0.1559E+03  0.5095E+03  0.5089E+03
      0.643  0.1405E+03  0.1382E+03  0.5171E+03  0.5163E+03
      0.697  0.1371E+03  0.1406E+03  0.5244E+03  0.5238E+03
      0.750  0.1511E+03  0.1512E+03  0.5324E+03  0.5319E+03
      0.804  0.1129E+03  0.1140E+03  0.5385E+03  0.5380E+03
      0.857  0.1287E+03  0.1312E+03  0.5454E+03  0.5450E+03
      0.910  0.1575E+03  0.1536E+03  0.5538E+03  0.5532E+03
      0.964  0.1288E+03  0.1311E+03  0.5606E+03  0.5602E+03
      1.017  0.1128E+03  0.1143E+03  0.5667E+03  0.5663E+03
      1.071  0.1009E+03  0.9940E+02  0.5721E+03  0.5716E+03
      1.124  0.1335E+03  0.1346E+03  0.5792E+03  0.5788E+03
      1.177  0.1380E+03  0.1399E+03  0.5866E+03  0.5863E+03
      1.231  0.1405E+03  0.1424E+03  0.5941E+03  0.5939E+03
      1.284  0.1750E+03  0.1692E+03  0.6034E+03  0.6029E+03
      1.338  0.1532E+03  0.1591E+03  0.6116E+03  0.6114E+03
      1.391  0.1249E+03  0.1205E+03  0.6183E+03  0.6178E+03
      1.445  0.1153E+03  0.1162E+03  0.6244E+03  0.6241E+03
      1.498  0.1210E+03  0.1215E+03  0.6309E+03  0.6305E+03
      1.551  0.1603E+03  0.1593E+03  0.6395E+03  0.6391E+03
      1.605  0.1657E+03  0.1613E+03  0.6483E+03  0.6477E+03
      1.658  0.1569E+03  0.1627E+03  0.6567E+03  0.6564E+03
      1.712  0.1169E+03  0.1184E+03  0.6630E+03  0.6627E+03
      1.765  0.1214E+03  0.1181E+03  0.6694E+03  0.6690E+03
      1.819  0.1803E+03  0.1819E+03  0.6791E+03  0.6787E+03
      1.872  0.1109E+03  0.1083E+03  0.6850E+03  0.6845E+03
      1.925  0.1128E+03  0.1135E+03  0.6910E+03  0.6906E+03
      1.979  0.1308E+03  0.1318E+03  0.6980E+03  0.6976E+03
      2.032  0.1085E+03  0.1094E+03  0.7038E+03  0.7034E+03
      2.086  0.9187E+02  0.9162E+02  0.7087E+03  0.7083E+03
      2.139  0.1364E+03  0.1258E+03  0.7160E+03  0.7151E+03
      2.192  0.1866E+03  0.1930E+03  0.7260E+03  0.7254E+03
      2.246  0.1278E+03  0.1308E+03  0.7328E+03  0.7324E+03
      2.299  0.1309E+03  0.1320E+03  0.7398E+03  0.7394E+03
      2.353  0.1207E+03  0.1177E+03  0.7462E+03  0.7457E+03
      2.406  0.1387E+03  0.1361E+03  0.7536E+03  0.7530E+03
      2.460  0.1329E+03  0.1342E+03  0.7607E+03  0.7601E+03
      2.513  0.1102E+03  0.1102E+03  0.7666E+03  0.7660E+03
      2.566  0.1053E+03  0.1055E+03  0.7723E+03  0.7717E+03
      2.620  0.1553E+03  0.1575E+03  0.7806E+03  0.7801E+03
      2.673  0.9121E+02  0.9070E+02  0.7854E+03  0.7849E+03
      2.727  0.1291E+03  0.1259E+03  0.7923E+03  0.7917E+03
      2.780  0.1105E+03  0.1110E+03  0.7982E+03  0.7976E+03
      2.834  0.1223E+03  0.1197E+03  0.8048E+03  0.8040E+03
      2.887  0.1453E+03  0.1544E+03  0.8125E+03  0.8122E+03
      2.940  0.1259E+03  0.1252E+03  0.8192E+03  0.8189E+03
      2.994  0.1212E+03  0.1212E+03  0.8257E+03  0.8254E+03
      3.047  0.7149E+02  0.6635E+02  0.8295E+03  0.8289E+03
      3.101  0.1145E+03  0.1185E+03  0.8357E+03  0.8353E+03
      3.154  0.7058E+02  0.7009E+02  0.8394E+03  0.8390E+03
      3.208  0.7791E+02  0.7982E+02  0.8436E+03  0.8433E+03
      3.261  0.5123E+02  0.4818E+02  0.8463E+03  0.8458E+03
      3.314  0.9547E+02  0.9608E+02  0.8514E+03  0.8510E+03
      3.368  0.9341E+02  0.8789E+02  0.8564E+03  0.8557E+03
      3.421  0.1086E+03  0.1071E+03  0.8622E+03  0.8614E+03
      3.475  0.8796E+02  0.9127E+02  0.8669E+03  0.8663E+03
      3.528  0.5686E+02  0.6117E+02  0.8700E+03  0.8695E+03
      3.581  0.8879E+02  0.9144E+02  0.8747E+03  0.8744E+03
      3.635  0.4222E+02  0.4307E+02  0.8770E+03  0.8767E+03
      3.688  0.3118E+02  0.3151E+02  0.8786E+03  0.8784E+03
      3.742  0.8265E+02  0.8010E+02  0.8830E+03  0.8827E+03
      3.795  0.6441E+02  0.6020E+02  0.8865E+03  0.8859E+03
      3.849  0.5674E+02  0.6526E+02  0.8895E+03  0.8894E+03
      3.902  0.3174E+02  0.2685E+02  0.8912E+03  0.8908E+03
      3.955  0.4551E+02  0.4080E+02  0.8936E+03  0.8930E+03
      4.009  0.7433E+02  0.7821E+02  0.8976E+03  0.8972E+03
      4.062  0.3065E+02  0.3354E+02  0.8992E+03  0.8990E+03
      4.116  0.2535E+02  0.2176E+02  0.9006E+03  0.9001E+03
      4.169  0.3762E+02  0.4310E+02  0.9026E+03  0.9024E+03
      4.223  0.5762E+02  0.4852E+02  0.9057E+03  0.9050E+03
      4.276  0.8423E+02  0.8401E+02  0.9102E+03  0.9095E+03
      4.329  0.3909E+02  0.4568E+02  0.9123E+03  0.9120E+03
      4.383  0.8826E+02  0.7611E+02  0.9170E+03  0.9160E+03
      4.436  0.6125E+02  0.6597E+02  0.9203E+03  0.9195E+03
      4.490  0.4583E+02  0.5166E+02  0.9227E+03  0.9223E+03
      4.543  0.5848E+02  0.5620E+02  0.9258E+03  0.9253E+03
      4.596  0.8244E+02  0.8121E+02  0.9302E+03  0.9296E+03
      4.650  0.5198E+02  0.4819E+02  0.9330E+03  0.9322E+03
      4.703  0.6725E+02  0.7068E+02  0.9366E+03  0.9360E+03
      4.757  0.9186E+02  0.9328E+02  0.9415E+03  0.9410E+03
      4.810  0.5769E+02  0.5643E+02  0.9446E+03  0.9440E+03
      4.864  0.8895E+02  0.8264E+02  0.9493E+03  0.9484E+03
      4.917  0.8914E+02  0.9641E+02  0.9541E+03  0.9536E+03
      4.970  0.7838E+02  0.7394E+02  0.9583E+03  0.9575E+03
      5.024  0.8616E+02  0.8380E+02  0.9629E+03  0.9620E+03
      5.077  0.7456E+02  0.7872E+02  0.9669E+03  0.9662E+03
      5.131  0.1134E+03  0.1095E+03  0.9729E+03  0.9720E+03
      5.184  0.1094E+03  0.1100E+03  0.9788E+03  0.9779E+03
      5.238  0.7389E+02  0.7495E+02  0.9827E+03  0.9819E+03
      5.291  0.7632E+02  0.7321E+02  0.9868E+03  0.9858E+03
      5.344  0.7824E+02  0.8300E+02  0.9910E+03  0.9903E+03
      5.398  0.1018E+03  0.1051E+03  0.9964E+03  0.9959E+03
      5.451  0.6989E+02  0.6955E+02  0.1000E+04  0.9996E+03
      5.505  0.1367E+03  0.1377E+03  0.1007E+04  0.1007E+04
      5.558  0.1002E+03  0.9446E+02  0.1013E+04  0.1012E+04
      5.612  0.9165E+02  0.9711E+02  0.1018E+04  0.1017E+04
      5.665  0.1259E+03  0.1246E+03  0.1024E+04  0.1024E+04
      5.718  0.1031E+03  0.1008E+03  0.1030E+04  0.1029E+04
      5.772  0.8117E+02  0.8426E+02  0.1034E+04  0.1034E+04
      5.825  0.1138E+03  0.1157E+03  0.1040E+04  0.1040E+04
      5.879  0.1104E+03  0.1094E+03  0.1046E+04  0.1046E+04
      5.932  0.1305E+03  0.1282E+03  0.1053E+04  0.1053E+04
      5.985  0.1240E+03  0.1195E+03  0.1060E+04  0.1059E+04
      6.039  0.1023E+03  0.1095E+03  0.1065E+04  0.1065E+04
      6.092  0.1178E+03  0.1176E+03  0.1072E+04  0.1071E+04
      6.146  0.5925E+02  0.5937E+02  0.1075E+04  0.1074E+04
      6.199  0.1104E+03  0.1106E+03  0.1081E+04  0.1080E+04
      6.253  0.9156E+02  0.9201E+02  0.1086E+04  0.1085E+04
      6.306  0.7351E+02  0.7830E+02  0.1089E+04  0.1089E+04
      6.359  0.7805E+02  0.7518E+02  0.1094E+04  0.1093E+04
      6.413  0.3829E+02  0.4290E+02  0.1096E+04  0.1096E+04
      6.466  0.5389E+01  0.7370E+01  0.1096E+04  0.1096E+04
      6.520  0.0000E+00  0.0000E+00  0.1096E+04  0.1096E+04
      6.573  0.0000E+00  0.0000E+00  0.1096E+04  0.1096E+04
      6.627  0.0000E+00  0.0000E+00  0.1096E+04  0.1096E+04
      6.680  0.0000E+00  0.0000E+00  0.1096E+04  0.1096E+04
      6.733  0.0000E+00  0.0000E+00  0.1096E+04  0.1096E+04
      6.787  0.0000E+00  0.0000E+00  0.1096E+04  0.1096E+04
      6.840  0.0000E+00  0.0000E+00  0.1096E+04  0.1096E+04
      6.894  0.0000E+00  0.0000E+00  0.1096E+04  0.1096E+04
      6.947  0.0000E+00  0.0000E+00  0.1096E+04  0.1096E+04
      7.000  0.0000E+00  0.0000E+00  0.1096E+04  0.1096E+04
      7.054  0.0000E+00  0.0000E+00  0.1096E+04  0.1096E+04
      7.107  0.0000E+00  0.0000E+00  0.1096E+04  0.1096E+04
      7.161  0.0000E+00  0.0000E+00  0.1096E+04  0.1096E+04
