 120 120   0   0
  0.1187862E+02  0.1629300E-08  0.1629300E-08  0.7204129E-09  0.5000000E-15
  1.000000000000000E-004
  CAR 
 Si and Ge interface calculation         
      9.13010885    -14.30212896  301      5.34640489      1.00000000
    -14.302  0.0000E+00  0.0000E+00  0.0000E+00  0.0000E+00
    -14.224  0.0000E+00  0.0000E+00  0.0000E+00  0.0000E+00
    -14.146  0.0000E+00  0.0000E+00  0.0000E+00  0.0000E+00
    -14.068  0.0000E+00  0.0000E+00  0.0000E+00  0.0000E+00
    -13.990  0.0000E+00  0.0000E+00  0.0000E+00  0.0000E+00
    -13.912  0.0000E+00  0.0000E+00  0.0000E+00  0.0000E+00
    -13.833  0.0000E+00  0.0000E+00  0.0000E+00  0.0000E+00
    -13.755  0.0000E+00  0.0000E+00  0.0000E+00  0.0000E+00
    -13.677  0.0000E+00  0.0000E+00  0.0000E+00  0.0000E+00
    -13.599  0.0000E+00  0.0000E+00  0.0000E+00  0.0000E+00
    -13.521  0.0000E+00  0.0000E+00  0.0000E+00  0.0000E+00
    -13.443  0.0000E+00  0.0000E+00  0.0000E+00  0.0000E+00
    -13.365  0.0000E+00  0.0000E+00  0.0000E+00  0.0000E+00
    -13.287  0.8172E-12  0.1185E-15  0.6383E-13  0.9252E-17
    -13.209  0.6152E+01  0.3920E+01  0.4805E+00  0.3062E+00
    -13.131  0.1873E+02  0.1991E+02  0.1974E+01  0.1864E+01
    -13.052  0.6937E-10  0.6295E+00  0.2000E+01  0.2000E+01
    -12.974  0.1663E+02  0.1387E+02  0.3299E+01  0.3084E+01
    -12.896  0.1128E+02  0.1248E+02  0.4222E+01  0.4219E+01
    -12.818  0.2117E+02  0.1638E+02  0.5875E+01  0.5501E+01
    -12.740  0.2953E+00  0.4177E+01  0.6000E+01  0.6000E+01
    -12.662  0.1138E+02  0.1138E+02  0.6889E+01  0.6889E+01
    -12.584  0.8544E+01  0.8531E+01  0.7556E+01  0.7555E+01
    -12.506  0.9879E+01  0.6888E+01  0.8328E+01  0.8094E+01
    -12.428  0.1773E+02  0.2033E+02  0.9772E+01  0.9681E+01
    -12.349  0.1645E+02  0.1331E+02  0.1106E+02  0.1082E+02
    -12.271  0.1665E+02  0.1812E+02  0.1238E+02  0.1225E+02
    -12.193  0.3697E+01  0.5317E+01  0.1267E+02  0.1267E+02
    -12.115  0.9196E+01  0.6811E+01  0.1339E+02  0.1320E+02
    -12.037  0.1203E+02  0.1488E+02  0.1444E+02  0.1436E+02
    -11.959  0.1647E+02  0.1134E+02  0.1573E+02  0.1533E+02
    -11.881  0.2241E+02  0.2539E+02  0.1758E+02  0.1741E+02
    -11.803  0.7670E+01  0.1037E+02  0.1822E+02  0.1822E+02
    -11.725  0.5839E+01  0.5383E+01  0.1868E+02  0.1864E+02
    -11.646  0.2082E+02  0.1428E+02  0.2031E+02  0.1978E+02
    -11.568  0.1054E+02  0.1985E+02  0.2133E+02  0.2133E+02
    -11.490  0.6622E+01  0.5750E+01  0.2185E+02  0.2178E+02
    -11.412  0.2181E+02  0.2268E+02  0.2356E+02  0.2356E+02
    -11.334  0.2474E+01  0.2514E+00  0.2375E+02  0.2358E+02
    -11.256  0.1720E+02  0.1738E+02  0.2509E+02  0.2493E+02
    -11.178  0.9297E+01  0.9102E+01  0.2582E+02  0.2564E+02
    -11.100  0.8741E+01  0.8543E+01  0.2652E+02  0.2645E+02
    -11.022  0.5318E+01  0.5614E+01  0.2694E+02  0.2689E+02
    -10.944  0.7996E+01  0.8503E+01  0.2756E+02  0.2756E+02
    -10.865  0.5634E+01  0.5689E+01  0.2800E+02  0.2800E+02
    -10.787  0.0000E+00  0.0000E+00  0.2800E+02  0.2800E+02
    -10.709  0.1184E-02  0.9049E-05  0.2800E+02  0.2800E+02
    -10.631  0.7590E+01  0.5176E+01  0.2859E+02  0.2840E+02
    -10.553  0.1643E+02  0.1696E+02  0.2995E+02  0.2973E+02
    -10.475  0.2035E+02  0.2257E+02  0.3156E+02  0.3155E+02
    -10.397  0.1115E+02  0.5101E+01  0.3243E+02  0.3195E+02
    -10.319  0.2052E+02  0.2330E+02  0.3417E+02  0.3377E+02
    -10.241  0.1177E+02  0.1950E+02  0.3536E+02  0.3530E+02
    -10.162  0.1951E+02  0.1733E+02  0.3689E+02  0.3669E+02
    -10.084  0.1702E+02  0.1773E+02  0.3822E+02  0.3810E+02
    -10.006  0.1658E+02  0.1838E+02  0.3956E+02  0.3956E+02
     -9.928  0.3301E+01  0.1327E+01  0.3981E+02  0.3966E+02
     -9.850  0.1135E+02  0.1292E+02  0.4075E+02  0.4067E+02
     -9.772  0.1025E+02  0.1128E+02  0.4156E+02  0.4156E+02
     -9.694  0.1687E+02  0.1558E+02  0.4287E+02  0.4277E+02
     -9.616  0.2583E+01  0.1239E+01  0.4309E+02  0.4294E+02
     -9.538  0.1607E+02  0.1328E+02  0.4438E+02  0.4397E+02
     -9.459  0.1084E+02  0.1499E+02  0.4530E+02  0.4520E+02
     -9.381  0.1163E+02  0.1130E+02  0.4625E+02  0.4608E+02
     -9.303  0.1799E+02  0.1612E+02  0.4770E+02  0.4740E+02
     -9.225  0.1395E+02  0.1825E+02  0.4888E+02  0.4885E+02
     -9.147  0.1977E+02  0.1609E+02  0.5043E+02  0.5011E+02
     -9.069  0.7356E+01  0.8231E+01  0.5108E+02  0.5092E+02
     -8.991  0.2411E+02  0.2360E+02  0.5300E+02  0.5277E+02
     -8.913  0.2340E+02  0.2658E+02  0.5489E+02  0.5486E+02
     -8.835  0.4536E+01  0.1640E+01  0.5524E+02  0.5502E+02
     -8.756  0.2883E+02  0.2788E+02  0.5751E+02  0.5724E+02
     -8.678  0.2281E+02  0.2593E+02  0.5940E+02  0.5931E+02
     -8.600  0.5309E+01  0.6055E+01  0.5981E+02  0.5978E+02
     -8.522  0.2415E+02  0.2289E+02  0.6172E+02  0.6157E+02
     -8.444  0.5946E+01  0.8254E+01  0.6222E+02  0.6222E+02
     -8.366  0.1738E+02  0.1551E+02  0.6358E+02  0.6343E+02
     -8.288  0.1536E+02  0.1346E+02  0.6480E+02  0.6451E+02
     -8.210  0.1130E+02  0.1280E+02  0.6570E+02  0.6558E+02
     -8.132  0.9709E+01  0.1106E+02  0.6646E+02  0.6644E+02
     -8.054  0.1509E+02  0.1066E+02  0.6764E+02  0.6728E+02
     -7.975  0.2049E+02  0.2259E+02  0.6932E+02  0.6906E+02
     -7.897  0.8050E+01  0.1142E+02  0.7007E+02  0.6996E+02
     -7.819  0.2022E+02  0.1642E+02  0.7165E+02  0.7128E+02
     -7.741  0.2784E+02  0.2399E+02  0.7383E+02  0.7331E+02
     -7.663  0.1230E+02  0.1655E+02  0.7486E+02  0.7471E+02
     -7.585  0.2147E+02  0.1978E+02  0.7654E+02  0.7625E+02
     -7.507  0.1375E+02  0.1118E+02  0.7764E+02  0.7725E+02
     -7.429  0.1507E+02  0.1993E+02  0.7889E+02  0.7889E+02
     -7.351  0.1631E+02  0.1347E+02  0.8016E+02  0.7994E+02
     -7.272  0.3338E+01  0.4979E+01  0.8044E+02  0.8044E+02
     -7.194  0.1373E+02  0.1084E+02  0.8152E+02  0.8129E+02
     -7.116  0.8134E+01  0.9800E+01  0.8219E+02  0.8206E+02
     -7.038  0.8485E+01  0.1064E+02  0.8289E+02  0.8289E+02
     -6.960  0.5723E+00  0.3732E-01  0.8293E+02  0.8289E+02
     -6.882  0.9872E+01  0.8519E+01  0.8370E+02  0.8356E+02
     -6.804  0.9268E+01  0.9811E+01  0.8443E+02  0.8434E+02
     -6.726  0.1095E+02  0.1025E+02  0.8529E+02  0.8515E+02
     -6.648  0.1073E+02  0.9658E+01  0.8614E+02  0.8594E+02
     -6.569  0.8739E+01  0.1023E+02  0.8687E+02  0.8675E+02
     -6.491  0.2434E+02  0.2325E+02  0.8880E+02  0.8859E+02
     -6.413  0.1142E+02  0.1276E+02  0.8973E+02  0.8967E+02
     -6.335  0.1468E+02  0.1321E+02  0.9088E+02  0.9071E+02
     -6.257  0.9852E+01  0.1218E+02  0.9171E+02  0.9166E+02
     -6.179  0.1145E+02  0.1140E+02  0.9261E+02  0.9256E+02
     -6.101  0.2736E+01  0.1954E+01  0.9282E+02  0.9271E+02
     -6.023  0.2409E+02  0.2346E+02  0.9472E+02  0.9455E+02
     -5.945  0.8555E+01  0.8594E+01  0.9543E+02  0.9523E+02
     -5.867  0.1504E+02  0.1690E+02  0.9664E+02  0.9659E+02
     -5.788  0.1395E+02  0.1179E+02  0.9773E+02  0.9753E+02
     -5.710  0.1682E+02  0.1747E+02  0.9904E+02  0.9890E+02
     -5.632  0.2271E+02  0.2314E+02  0.1008E+03  0.1007E+03
     -5.554  0.1087E+02  0.1062E+02  0.1017E+03  0.1016E+03
     -5.476  0.1955E+02  0.1511E+02  0.1032E+03  0.1028E+03
     -5.398  0.2131E+02  0.2288E+02  0.1049E+03  0.1047E+03
     -5.320  0.2614E+02  0.2632E+02  0.1071E+03  0.1069E+03
     -5.242  0.1567E+02  0.1485E+02  0.1083E+03  0.1081E+03
     -5.164  0.1587E+02  0.1348E+02  0.1096E+03  0.1092E+03
     -5.085  0.2189E+02  0.2461E+02  0.1114E+03  0.1112E+03
     -5.007  0.3098E+02  0.2790E+02  0.1138E+03  0.1135E+03
     -4.929  0.3031E+02  0.3185E+02  0.1163E+03  0.1160E+03
     -4.851  0.2311E+02  0.2219E+02  0.1182E+03  0.1178E+03
     -4.773  0.3174E+02  0.3450E+02  0.1208E+03  0.1205E+03
     -4.695  0.2596E+02  0.2730E+02  0.1229E+03  0.1227E+03
     -4.617  0.2445E+02  0.2175E+02  0.1248E+03  0.1245E+03
     -4.539  0.2909E+02  0.3086E+02  0.1271E+03  0.1270E+03
     -4.461  0.1960E+02  0.2024E+02  0.1287E+03  0.1286E+03
     -4.382  0.2948E+02  0.2747E+02  0.1310E+03  0.1308E+03
     -4.304  0.2846E+02  0.2933E+02  0.1333E+03  0.1331E+03
     -4.226  0.2515E+02  0.2551E+02  0.1353E+03  0.1351E+03
     -4.148  0.2640E+02  0.2493E+02  0.1374E+03  0.1371E+03
     -4.070  0.2054E+02  0.1933E+02  0.1390E+03  0.1387E+03
     -3.992  0.2879E+02  0.2824E+02  0.1413E+03  0.1410E+03
     -3.914  0.2043E+02  0.2265E+02  0.1430E+03  0.1428E+03
     -3.836  0.2221E+02  0.2015E+02  0.1448E+03  0.1444E+03
     -3.758  0.3799E+02  0.3743E+02  0.1478E+03  0.1474E+03
     -3.680  0.2279E+02  0.2217E+02  0.1496E+03  0.1493E+03
     -3.601  0.2622E+02  0.2785E+02  0.1517E+03  0.1515E+03
     -3.523  0.4011E+02  0.3392E+02  0.1548E+03  0.1543E+03
     -3.445  0.2769E+02  0.3150E+02  0.1572E+03  0.1569E+03
     -3.367  0.3814E+02  0.3666E+02  0.1602E+03  0.1598E+03
     -3.289  0.1591E+02  0.1946E+02  0.1616E+03  0.1614E+03
     -3.211  0.2663E+02  0.2553E+02  0.1637E+03  0.1634E+03
     -3.133  0.2498E+02  0.2354E+02  0.1657E+03  0.1654E+03
     -3.055  0.2110E+02  0.2424E+02  0.1674E+03  0.1673E+03
     -2.977  0.2121E+02  0.1907E+02  0.1691E+03  0.1688E+03
     -2.898  0.3346E+02  0.3287E+02  0.1717E+03  0.1715E+03
     -2.820  0.2350E+02  0.2052E+02  0.1736E+03  0.1732E+03
     -2.742  0.2511E+02  0.2541E+02  0.1756E+03  0.1753E+03
     -2.664  0.2979E+02  0.2997E+02  0.1780E+03  0.1777E+03
     -2.586  0.2788E+02  0.2893E+02  0.1802E+03  0.1800E+03
     -2.508  0.2958E+02  0.2889E+02  0.1826E+03  0.1823E+03
     -2.430  0.2356E+02  0.2405E+02  0.1844E+03  0.1843E+03
     -2.352  0.2435E+02  0.2227E+02  0.1864E+03  0.1861E+03
     -2.274  0.3074E+02  0.3046E+02  0.1888E+03  0.1886E+03
     -2.195  0.2296E+02  0.2259E+02  0.1906E+03  0.1904E+03
     -2.117  0.2977E+02  0.2950E+02  0.1930E+03  0.1927E+03
     -2.039  0.2457E+02  0.2742E+02  0.1950E+03  0.1949E+03
     -1.961  0.3511E+02  0.3181E+02  0.1977E+03  0.1974E+03
     -1.883  0.3414E+02  0.3264E+02  0.2004E+03  0.2000E+03
     -1.805  0.2787E+02  0.3022E+02  0.2027E+03  0.2025E+03
     -1.727  0.3155E+02  0.2866E+02  0.2052E+03  0.2047E+03
     -1.649  0.2887E+02  0.3065E+02  0.2075E+03  0.2072E+03
     -1.571  0.3789E+02  0.3750E+02  0.2106E+03  0.2102E+03
     -1.493  0.4205E+02  0.4177E+02  0.2138E+03  0.2135E+03
     -1.414  0.2843E+02  0.2975E+02  0.2162E+03  0.2159E+03
     -1.336  0.2883E+02  0.2847E+02  0.2184E+03  0.2183E+03
     -1.258  0.3976E+02  0.3588E+02  0.2216E+03  0.2211E+03
     -1.180  0.3647E+02  0.3707E+02  0.2245E+03  0.2241E+03
     -1.102  0.3089E+02  0.3281E+02  0.2270E+03  0.2267E+03
     -1.024  0.3010E+02  0.2950E+02  0.2295E+03  0.2291E+03
     -0.946  0.3788E+02  0.3686E+02  0.2325E+03  0.2321E+03
     -0.868  0.3672E+02  0.3567E+02  0.2354E+03  0.2350E+03
     -0.790  0.2975E+02  0.3155E+02  0.2379E+03  0.2375E+03
     -0.711  0.3019E+02  0.3246E+02  0.2403E+03  0.2401E+03
     -0.633  0.4023E+02  0.3753E+02  0.2435E+03  0.2431E+03
     -0.555  0.3942E+02  0.3842E+02  0.2466E+03  0.2461E+03
     -0.477  0.2797E+02  0.3022E+02  0.2488E+03  0.2486E+03
     -0.399  0.3528E+02  0.3545E+02  0.2516E+03  0.2514E+03
     -0.321  0.3547E+02  0.3260E+02  0.2545E+03  0.2540E+03
     -0.243  0.3599E+02  0.3654E+02  0.2574E+03  0.2570E+03
     -0.165  0.3545E+02  0.3731E+02  0.2603E+03  0.2600E+03
     -0.087  0.3083E+02  0.3170E+02  0.2628E+03  0.2625E+03
     -0.008  0.3953E+02  0.3860E+02  0.2659E+03  0.2656E+03
      0.070  0.3605E+02  0.3587E+02  0.2688E+03  0.2685E+03
      0.148  0.3226E+02  0.3184E+02  0.2714E+03  0.2710E+03
      0.226  0.3745E+02  0.3577E+02  0.2743E+03  0.2739E+03
      0.304  0.3006E+02  0.3026E+02  0.2767E+03  0.2764E+03
      0.382  0.3429E+02  0.3437E+02  0.2794E+03  0.2791E+03
      0.460  0.3837E+02  0.3558E+02  0.2825E+03  0.2820E+03
      0.538  0.4420E+02  0.4504E+02  0.2860E+03  0.2855E+03
      0.616  0.3578E+02  0.3758E+02  0.2889E+03  0.2886E+03
      0.695  0.4178E+02  0.3934E+02  0.2922E+03  0.2918E+03
      0.773  0.4563E+02  0.4818E+02  0.2959E+03  0.2956E+03
      0.851  0.4448E+02  0.4077E+02  0.2994E+03  0.2988E+03
      0.929  0.3036E+02  0.3207E+02  0.3019E+03  0.3014E+03
      1.007  0.4561E+02  0.4699E+02  0.3055E+03  0.3051E+03
      1.085  0.3475E+02  0.3489E+02  0.3082E+03  0.3080E+03
      1.163  0.3837E+02  0.3530E+02  0.3112E+03  0.3108E+03
      1.241  0.3618E+02  0.3683E+02  0.3142E+03  0.3137E+03
      1.319  0.4520E+02  0.4325E+02  0.3177E+03  0.3171E+03
      1.397  0.4078E+02  0.4496E+02  0.3210E+03  0.3206E+03
      1.476  0.4011E+02  0.4218E+02  0.3242E+03  0.3240E+03
      1.554  0.3428E+02  0.3080E+02  0.3269E+03  0.3265E+03
      1.632  0.3662E+02  0.3883E+02  0.3299E+03  0.3296E+03
      1.710  0.4621E+02  0.4425E+02  0.3335E+03  0.3331E+03
      1.788  0.3797E+02  0.3804E+02  0.3365E+03  0.3361E+03
      1.866  0.3025E+02  0.2967E+02  0.3390E+03  0.3385E+03
      1.944  0.3402E+02  0.3467E+02  0.3417E+03  0.3413E+03
      2.022  0.3245E+02  0.3214E+02  0.3443E+03  0.3439E+03
      2.100  0.3675E+02  0.3723E+02  0.3473E+03  0.3470E+03
      2.179  0.3699E+02  0.3472E+02  0.3502E+03  0.3497E+03
      2.257  0.4915E+02  0.4853E+02  0.3541E+03  0.3536E+03
      2.335  0.4326E+02  0.4152E+02  0.3576E+03  0.3569E+03
      2.413  0.4681E+02  0.4976E+02  0.3614E+03  0.3608E+03
      2.491  0.3478E+02  0.3310E+02  0.3642E+03  0.3635E+03
      2.569  0.3749E+02  0.4128E+02  0.3672E+03  0.3667E+03
      2.647  0.3897E+02  0.3960E+02  0.3703E+03  0.3699E+03
      2.725  0.3903E+02  0.3761E+02  0.3735E+03  0.3729E+03
      2.803  0.3367E+02  0.3554E+02  0.3762E+03  0.3758E+03
      2.882  0.3985E+02  0.4440E+02  0.3793E+03  0.3792E+03
      2.960  0.4558E+02  0.3612E+02  0.3829E+03  0.3821E+03
      3.038  0.3963E+02  0.4470E+02  0.3861E+03  0.3857E+03
      3.116  0.3978E+02  0.3702E+02  0.3893E+03  0.3887E+03
      3.194  0.4172E+02  0.4153E+02  0.3926E+03  0.3920E+03
      3.272  0.3375E+02  0.3299E+02  0.3953E+03  0.3947E+03
      3.350  0.3730E+02  0.3887E+02  0.3983E+03  0.3977E+03
      3.428  0.4836E+02  0.4634E+02  0.4021E+03  0.4015E+03
      3.506  0.3927E+02  0.3813E+02  0.4053E+03  0.4045E+03
      3.584  0.4141E+02  0.4600E+02  0.4086E+03  0.4081E+03
      3.663  0.4550E+02  0.4216E+02  0.4122E+03  0.4115E+03
      3.741  0.4218E+02  0.4150E+02  0.4157E+03  0.4149E+03
      3.819  0.4178E+02  0.4383E+02  0.4190E+03  0.4184E+03
      3.897  0.3903E+02  0.4014E+02  0.4222E+03  0.4216E+03
      3.975  0.3877E+02  0.3829E+02  0.4253E+03  0.4246E+03
      4.053  0.3572E+02  0.3968E+02  0.4282E+03  0.4278E+03
      4.131  0.3465E+02  0.3530E+02  0.4310E+03  0.4306E+03
      4.209  0.3491E+02  0.3136E+02  0.4337E+03  0.4331E+03
      4.287  0.4687E+02  0.4500E+02  0.4374E+03  0.4367E+03
      4.366  0.3008E+02  0.3178E+02  0.4398E+03  0.4392E+03
      4.444  0.3104E+02  0.3340E+02  0.4424E+03  0.4420E+03
      4.522  0.5039E+02  0.4606E+02  0.4463E+03  0.4456E+03
      4.600  0.3304E+02  0.2792E+02  0.4490E+03  0.4479E+03
      4.678  0.4048E+02  0.4716E+02  0.4524E+03  0.4517E+03
      4.756  0.3666E+02  0.3403E+02  0.4553E+03  0.4544E+03
      4.834  0.3484E+02  0.3708E+02  0.4581E+03  0.4574E+03
      4.912  0.4169E+02  0.3856E+02  0.4614E+03  0.4605E+03
      4.990  0.3626E+02  0.3602E+02  0.4643E+03  0.4634E+03
      5.069  0.4007E+02  0.4389E+02  0.4676E+03  0.4669E+03
      5.147  0.4743E+02  0.4613E+02  0.4714E+03  0.4705E+03
      5.225  0.4300E+02  0.4067E+02  0.4748E+03  0.4738E+03
      5.303  0.4085E+02  0.3934E+02  0.4780E+03  0.4770E+03
      5.381  0.3738E+02  0.4131E+02  0.4810E+03  0.4803E+03
      5.459  0.3404E+02  0.3444E+02  0.4837E+03  0.4831E+03
      5.537  0.4022E+02  0.3537E+02  0.4869E+03  0.4860E+03
      5.615  0.4561E+02  0.4784E+02  0.4905E+03  0.4898E+03
      5.693  0.4104E+02  0.3885E+02  0.4938E+03  0.4930E+03
      5.771  0.3442E+02  0.3285E+02  0.4965E+03  0.4957E+03
      5.850  0.3883E+02  0.3971E+02  0.4997E+03  0.4989E+03
      5.928  0.3426E+02  0.3654E+02  0.5024E+03  0.5018E+03
      6.006  0.4075E+02  0.4046E+02  0.5056E+03  0.5051E+03
      6.084  0.4578E+02  0.3866E+02  0.5092E+03  0.5082E+03
      6.162  0.2686E+02  0.3020E+02  0.5113E+03  0.5106E+03
      6.240  0.3172E+02  0.3396E+02  0.5139E+03  0.5133E+03
      6.318  0.3781E+02  0.3416E+02  0.5168E+03  0.5161E+03
      6.396  0.4394E+02  0.3993E+02  0.5203E+03  0.5193E+03
      6.474  0.3341E+02  0.3602E+02  0.5231E+03  0.5221E+03
      6.553  0.4218E+02  0.3981E+02  0.5265E+03  0.5253E+03
      6.631  0.3152E+02  0.4127E+02  0.5291E+03  0.5285E+03
      6.709  0.3490E+02  0.3275E+02  0.5318E+03  0.5313E+03
      6.787  0.3859E+02  0.3498E+02  0.5349E+03  0.5341E+03
      6.865  0.4078E+02  0.4317E+02  0.5382E+03  0.5376E+03
      6.943  0.3605E+02  0.2856E+02  0.5410E+03  0.5399E+03
      7.021  0.3869E+02  0.3954E+02  0.5442E+03  0.5430E+03
      7.099  0.3112E+02  0.3684E+02  0.5468E+03  0.5460E+03
      7.177  0.4074E+02  0.4122E+02  0.5500E+03  0.5492E+03
      7.256  0.4355E+02  0.4377E+02  0.5535E+03  0.5528E+03
      7.334  0.3985E+02  0.3848E+02  0.5567E+03  0.5560E+03
      7.412  0.3277E+02  0.3608E+02  0.5594E+03  0.5588E+03
      7.490  0.4102E+02  0.4023E+02  0.5626E+03  0.5620E+03
      7.568  0.3640E+02  0.3432E+02  0.5655E+03  0.5648E+03
      7.646  0.3797E+02  0.4046E+02  0.5685E+03  0.5680E+03
      7.724  0.2728E+02  0.2852E+02  0.5708E+03  0.5704E+03
      7.802  0.3031E+02  0.2892E+02  0.5731E+03  0.5727E+03
      7.880  0.2101E+02  0.2136E+02  0.5748E+03  0.5743E+03
      7.958  0.8499E+01  0.1431E+02  0.5755E+03  0.5755E+03
      8.037  0.5444E+01  0.4333E+01  0.5759E+03  0.5758E+03
      8.115  0.7044E+00  0.2068E+01  0.5760E+03  0.5760E+03
      8.193  0.0000E+00  0.0000E+00  0.5760E+03  0.5760E+03
      8.271  0.0000E+00  0.0000E+00  0.5760E+03  0.5760E+03
      8.349  0.0000E+00  0.0000E+00  0.5760E+03  0.5760E+03
      8.427  0.0000E+00  0.0000E+00  0.5760E+03  0.5760E+03
      8.505  0.0000E+00  0.0000E+00  0.5760E+03  0.5760E+03
      8.583  0.0000E+00  0.0000E+00  0.5760E+03  0.5760E+03
      8.661  0.0000E+00  0.0000E+00  0.5760E+03  0.5760E+03
      8.740  0.0000E+00  0.0000E+00  0.5760E+03  0.5760E+03
      8.818  0.0000E+00  0.0000E+00  0.5760E+03  0.5760E+03
      8.896  0.0000E+00  0.0000E+00  0.5760E+03  0.5760E+03
      8.974  0.0000E+00  0.0000E+00  0.5760E+03  0.5760E+03
      9.052  0.0000E+00  0.0000E+00  0.5760E+03  0.5760E+03
      9.130  0.0000E+00  0.0000E+00  0.5760E+03  0.5760E+03
