<?xml version="1.0" encoding="ISO-8859-1"?>
<modeling>
 <generator>
  <i name="program" type="string">vasp </i>
  <i name="version" type="string">6.4.3  </i>
  <i name="subversion" type="string">19Mar24 (build Oct 22 2024 11:23:12) complex                          parallel </i>
  <i name="platform" type="string">LinuxIFC </i>
  <i name="date" type="string">2025 06 07 </i>
  <i name="time" type="string">23:59:09 </i>
 </generator>
 <incar>
  <i type="string" name="SYSTEM">Si and Ge interface calculation</i>
  <i type="int" name="ISTART">     0</i>
  <i type="logical" name="ADDGRID"> T  </i>
  <i type="int" name="ISPIN">     2</i>
  <i name="AMIX">      0.60000000</i>
  <i type="int" name="ICHARG">     2</i>
  <i type="int" name="NELM">   100</i>
  <i name="EDIFF">      0.00000010</i>
  <i name="ENCUT">    700.00000000</i>
  <i name="ENAUG">    900.00000000</i>
  <i type="int" name="NBANDS">   288</i>
  <i name="NUPDOWN">      1.00000000</i>
  <i name="NELECT">    480.00000000</i>
  <i type="string" name="LREAL">AUTO</i>
  <i type="int" name="ISMEAR">     0</i>
  <i name="SIGMA">      0.01000000</i>
  <i type="int" name="LMAXMIX">     6</i>
  <i type="logical" name="LWAVE"> F  </i>
  <i type="logical" name="LVTOT"> F  </i>
  <i type="logical" name="LVHAR"> T  </i>
  <i type="logical" name="LASPH"> T  </i>
  <i type="logical" name="LMIXTAU"> T  </i>
 </incar>
 <primitive_cell>
  <structure name="primitive_cell" >
   <crystal>
    <varray name="basis" >
     <v>      -2.71549970      -6.07204258       0.00000000 </v>
     <v>       0.00000000       0.00000000       7.20412874 </v>
     <v>     -13.57750017       6.07204331       0.00000000 </v>
    </varray>
    <i name="volume">    712.71735844 </i>
    <varray name="rec_basis" >
     <v>      -0.06137606      -0.13724102       0.00000000 </v>
     <v>       0.00000000       0.00000000       0.13880929 </v>
     <v>      -0.06137605       0.02744820       0.00000000 </v>
    </varray>
   </crystal>
   <varray name="positions" >
    <v>       0.04273570       0.00000000       0.00854707 </v>
    <v>       0.54273610       0.16857123       0.10854710 </v>
    <v>       0.04273605       0.33714247       0.20854703 </v>
    <v>       0.70940254       0.00000000       0.67521382 </v>
    <v>       0.20940269       0.16857123       0.77521385 </v>
    <v>       0.70940290       0.33714247       0.87521380 </v>
    <v>       0.37606919       0.00000000       0.34188052 </v>
    <v>       0.87606925       0.16857123       0.44188032 </v>
    <v>       0.37606947       0.33714247       0.54188054 </v>
    <v>       0.20940256       0.08428546       0.47521396 </v>
    <v>       0.70940271       0.25285670       0.57521398 </v>
    <v>       0.20940277       0.42142793       0.67521391 </v>
    <v>       0.87606895       0.08428546       0.14188039 </v>
    <v>       0.37606912       0.25285670       0.24188043 </v>
    <v>       0.87606915       0.42142793       0.34188027 </v>
    <v>       0.54273582       0.08428546       0.80854718 </v>
    <v>       0.04273597       0.25285670       0.90854720 </v>
    <v>       0.54273595       0.42142793       0.00854699 </v>
    <v>       0.81761076       0.57232785       0.68831520 </v>
    <v>       0.60332489       0.68303675       0.41688645 </v>
    <v>       0.38903921       0.79374564       0.14545776 </v>
    <v>       0.38903927       0.57232785       0.54545808 </v>
    <v>       0.17475359       0.68303675       0.27402927 </v>
    <v>       0.96046781       0.79374564       0.00260067 </v>
    <v>       0.96046791       0.57232785       0.40260095 </v>
    <v>       0.74618219       0.68303675       0.13117218 </v>
    <v>       0.53189615       0.79374564       0.85974349 </v>
    <v>       0.53189636       0.57232785       0.25974377 </v>
    <v>       0.31761065       0.68303680       0.98831511 </v>
    <v>       0.10332475       0.79374564       0.71688640 </v>
    <v>       0.10332485       0.57232785       0.11688644 </v>
    <v>       0.88903937       0.68303675       0.84545790 </v>
    <v>       0.67475342       0.79374564       0.57402912 </v>
    <v>       0.67475340       0.57232785       0.97402929 </v>
    <v>       0.46046771       0.68303675       0.70260072 </v>
    <v>       0.24618208       0.79374564       0.43117209 </v>
    <v>       0.24618215       0.57232785       0.83117229 </v>
    <v>       0.03189655       0.68303675       0.55974363 </v>
    <v>       0.81761063       0.79374564       0.28831482 </v>
    <v>       0.88903950       0.62768221       0.94545817 </v>
    <v>       0.67475361       0.73839110       0.67402933 </v>
    <v>       0.46046783       0.84909993       0.40260061 </v>
    <v>       0.46046778       0.62768215       0.80260093 </v>
    <v>       0.24618218       0.73839116       0.53117203 </v>
    <v>       0.03189644       0.84909999       0.25974364 </v>
    <v>       0.03189668       0.62768215       0.65974390 </v>
    <v>       0.81761064       0.73839116       0.38831521 </v>
    <v>       0.60332510       0.84909999       0.11688637 </v>
    <v>       0.60332499       0.62768215       0.51688662 </v>
    <v>       0.38903916       0.73839116       0.24545785 </v>
    <v>       0.17475332       0.84909999       0.97402907 </v>
    <v>       0.17475360       0.62768215       0.37402965 </v>
    <v>       0.96046788       0.73839116       0.10260075 </v>
    <v>       0.74618217       0.84909993       0.83117222 </v>
    <v>       0.74618232       0.62768215       0.23117244 </v>
    <v>       0.53189646       0.73839116       0.95974345 </v>
    <v>       0.31761056       0.84909993       0.68831486 </v>
    <v>       0.31761089       0.62768221       0.08831526 </v>
    <v>       0.10332512       0.73839116       0.81688666 </v>
    <v>       0.88903947       0.84909993       0.54545782 </v>
   </varray>
  </structure>
  <varray name="primitive_index" >
   <v type="int" >        1 </v>
   <v type="int" >       23 </v>
   <v type="int" >       24 </v>
   <v type="int" >        4 </v>
   <v type="int" >        5 </v>
   <v type="int" >       27 </v>
   <v type="int" >        7 </v>
   <v type="int" >       20 </v>
   <v type="int" >        9 </v>
   <v type="int" >       34 </v>
   <v type="int" >       35 </v>
   <v type="int" >       36 </v>
   <v type="int" >       28 </v>
   <v type="int" >       29 </v>
   <v type="int" >       15 </v>
   <v type="int" >       31 </v>
   <v type="int" >       32 </v>
   <v type="int" >       18 </v>
   <v type="int" >       37 </v>
   <v type="int" >       89 </v>
   <v type="int" >       39 </v>
   <v type="int" >       91 </v>
   <v type="int" >       41 </v>
   <v type="int" >       42 </v>
   <v type="int" >       43 </v>
   <v type="int" >       44 </v>
   <v type="int" >       96 </v>
   <v type="int" >       97 </v>
   <v type="int" >       98 </v>
   <v type="int" >       99 </v>
   <v type="int" >       79 </v>
   <v type="int" >       80 </v>
   <v type="int" >       81 </v>
   <v type="int" >       82 </v>
   <v type="int" >       53 </v>
   <v type="int" >       84 </v>
   <v type="int" >       55 </v>
   <v type="int" >       56 </v>
   <v type="int" >       87 </v>
   <v type="int" >       58 </v>
   <v type="int" >       59 </v>
   <v type="int" >       60 </v>
   <v type="int" >      115 </v>
   <v type="int" >      116 </v>
   <v type="int" >       63 </v>
   <v type="int" >      118 </v>
   <v type="int" >       65 </v>
   <v type="int" >       66 </v>
   <v type="int" >      100 </v>
   <v type="int" >      101 </v>
   <v type="int" >      102 </v>
   <v type="int" >      103 </v>
   <v type="int" >      104 </v>
   <v type="int" >      105 </v>
   <v type="int" >      106 </v>
   <v type="int" >       74 </v>
   <v type="int" >       75 </v>
   <v type="int" >       76 </v>
   <v type="int" >       77 </v>
   <v type="int" >       78 </v>
  </varray>
 </primitive_cell>
 <kpoints>
  <generation param="Gamma">
   <v type="int" name="divisions">       3        3        4 </v>
   <v name="usershift">      0.00000000       0.00000000       0.00000000 </v>
   <v name="genvec1">      0.33333333      -0.00000000       0.00000000 </v>
   <v name="genvec2">      0.00000000       0.33333333       0.00000000 </v>
   <v name="genvec3">      0.00000000       0.00000000       0.25000000 </v>
   <v name="shift">      0.00000000       0.00000000       0.00000000 </v>
  </generation>
  <varray name="kpointlist" >
   <v>       0.00000000       0.00000000       0.00000000 </v>
   <v>       0.33333333      -0.00000000       0.00000000 </v>
   <v>       0.00000000       0.33333333       0.00000000 </v>
   <v>       0.33333333       0.33333333       0.00000000 </v>
   <v>      -0.33333333       0.33333333       0.00000000 </v>
   <v>       0.00000000       0.00000000       0.25000000 </v>
   <v>       0.33333333      -0.00000000       0.25000000 </v>
   <v>      -0.33333333       0.00000000       0.25000000 </v>
   <v>       0.00000000       0.33333333      -0.25000000 </v>
   <v>       0.00000000      -0.33333333      -0.25000000 </v>
   <v>       0.33333333       0.33333333       0.25000000 </v>
   <v>      -0.33333333      -0.33333333       0.25000000 </v>
   <v>      -0.33333333       0.33333333       0.25000000 </v>
   <v>       0.33333333      -0.33333333       0.25000000 </v>
   <v>       0.00000000       0.00000000       0.50000000 </v>
   <v>       0.33333333      -0.00000000       0.50000000 </v>
   <v>       0.00000000       0.33333333       0.50000000 </v>
   <v>       0.33333333       0.33333333       0.50000000 </v>
   <v>      -0.33333333       0.33333333       0.50000000 </v>
  </varray>
  <varray name="weights" >
   <v>       0.02777778 </v>
   <v>       0.05555556 </v>
   <v>       0.05555556 </v>
   <v>       0.05555556 </v>
   <v>       0.05555556 </v>
   <v>       0.05555556 </v>
   <v>       0.05555556 </v>
   <v>       0.05555556 </v>
   <v>       0.05555556 </v>
   <v>       0.05555556 </v>
   <v>       0.05555556 </v>
   <v>       0.05555556 </v>
   <v>       0.05555556 </v>
   <v>       0.05555556 </v>
   <v>       0.02777778 </v>
   <v>       0.05555556 </v>
   <v>       0.05555556 </v>
   <v>       0.05555556 </v>
   <v>       0.05555556 </v>
  </varray>
 </kpoints>
 <parameters>
  <separator name="general" >
   <i type="string" name="SYSTEM">Si and Ge interface calculation</i>
   <i type="logical" name="LCOMPAT"> F  </i>
  </separator>
  <separator name="electronic" >
   <i type="string" name="PREC">normal</i>
   <i name="ENMAX">    700.00000000</i>
   <i name="ENAUG">    900.00000000</i>
   <i name="EDIFF">      0.00000010</i>
   <i type="int" name="IALGO">    38</i>
   <i type="int" name="IWAVPR">    10</i>
   <i type="int" name="NBANDS">   288</i>
   <i type="int" name="NBANDSLOW">    -1</i>
   <i type="int" name="NBANDSHIGH">    -1</i>
   <i name="NELECT">    480.00000000</i>
   <i type="int" name="TURBO">     0</i>
   <i type="int" name="IRESTART">     0</i>
   <i type="int" name="NREBOOT">     0</i>
   <i type="int" name="NMIN">     0</i>
   <i name="EREF">      0.00000000</i>
   <separator name="electronic smearing" >
    <i type="int" name="ISMEAR">     0</i>
    <i name="SIGMA">      0.01000000</i>
    <i name="KSPACING">      0.50000000</i>
    <i type="logical" name="KGAMMA"> T  </i>
    <i type="logical" name="KBLOWUP"> T  </i>
   </separator>
   <separator name="electronic projectors" >
    <i type="logical" name="LREAL"> T  </i>
    <v name="ROPT">     -0.00050000     -0.00050000</v>
    <i type="int" name="LMAXPAW">  -100</i>
    <i type="int" name="LMAXMIX">     6</i>
    <i type="logical" name="NLSPLINE"> F  </i>
   </separator>
   <separator name="electronic startup" >
    <i type="int" name="ISTART">     0</i>
    <i type="int" name="ICHARG">     2</i>
    <i type="int" name="INIWAV">     1</i>
   </separator>
   <separator name="electronic spin" >
    <i type="int" name="ISPIN">     2</i>
    <i type="logical" name="LNONCOLLINEAR"> F  </i>
    <v name="MAGMOM">      0.00833333      0.00833333      0.00833333      0.00833333      0.00833333      0.00833333      0.00833333      0.00833333      0.00833333      0.00833333      0.00833333      0.00833333      0.00833333      0.00833333      0.00833333      0.00833333      0.00833333      0.00833333      0.00833333      0.00833333
      0.00833333      0.00833333      0.00833333      0.00833333      0.00833333      0.00833333      0.00833333      0.00833333      0.00833333      0.00833333      0.00833333      0.00833333      0.00833333      0.00833333      0.00833333      0.00833333      0.00833333      0.00833333      0.00833333      0.00833333
      0.00833333      0.00833333      0.00833333      0.00833333      0.00833333      0.00833333      0.00833333      0.00833333      0.00833333      0.00833333      0.00833333      0.00833333      0.00833333      0.00833333      0.00833333      0.00833333      0.00833333      0.00833333      0.00833333      0.00833333
      0.00833333      0.00833333      0.00833333      0.00833333      0.00833333      0.00833333      0.00833333      0.00833333      0.00833333      0.00833333      0.00833333      0.00833333      0.00833333      0.00833333      0.00833333      0.00833333      0.00833333      0.00833333      0.00833333      0.00833333
      0.00833333      0.00833333      0.00833333      0.00833333      0.00833333      0.00833333      0.00833333      0.00833333      0.00833333      0.00833333      0.00833333      0.00833333      0.00833333      0.00833333      0.00833333      0.00833333      0.00833333      0.00833333      0.00833333      0.00833333
      0.00833333      0.00833333      0.00833333      0.00833333      0.00833333      0.00833333      0.00833333      0.00833333      0.00833333      0.00833333      0.00833333      0.00833333      0.00833333      0.00833333      0.00833333      0.00833333      0.00833333      0.00833333      0.00833333      0.00833333
</v>
    <i name="NUPDOWN">      1.00000000</i>
    <i type="logical" name="LSORBIT"> F  </i>
    <v name="SAXIS">      0.00000000      0.00000000      1.00000000</v>
    <i type="logical" name="LSPIRAL"> F  </i>
    <v name="QSPIRAL">      0.00000000      0.00000000      0.00000000</v>
    <i type="logical" name="LZEROZ"> F  </i>
   </separator>
   <separator name="electronic exchange-correlation" >
    <i type="logical" name="LASPH"> T  </i>
   </separator>
   <separator name="electronic convergence" >
    <i type="int" name="NELM">   100</i>
    <i type="int" name="NELMDL">    -5</i>
    <i type="int" name="NELMIN">     2</i>
    <i name="ENINI">    700.00000000</i>
    <separator name="electronic convergence detail" >
     <i type="logical" name="LDIAG"> T  </i>
     <i type="logical" name="LSUBROT"> F  </i>
     <i name="WEIMIN">      0.00000000</i>
     <i name="EBREAK">      0.00000000</i>
     <i name="DEPER">      0.30000000</i>
     <i type="int" name="NRMM">     4</i>
     <i name="TIME">      0.40000000</i>
    </separator>
   </separator>
   <separator name="electronic mixer" >
    <i name="AMIX">      0.60000000</i>
    <i name="BMIX">      1.00000000</i>
    <i name="AMIN">      0.10000000</i>
    <i name="AMIX_MAG">      2.40000000</i>
    <i name="BMIX_MAG">      1.00000000</i>
    <separator name="electronic mixer details" >
     <i type="int" name="IMIX">     4</i>
     <i type="logical" name="MIXFIRST"> F  </i>
     <i type="int" name="MAXMIX">   -45</i>
     <i name="WC">    100.00000000</i>
     <i type="int" name="INIMIX">     1</i>
     <i type="int" name="MIXPRE">     1</i>
     <i type="int" name="MREMOVE">     5</i>
    </separator>
   </separator>
   <separator name="electronic dipolcorrection" >
    <i type="logical" name="LDIPOL"> F  </i>
    <i type="logical" name="LMONO"> F  </i>
    <i type="int" name="IDIPOL">     0</i>
    <i name="EPSILON">      1.00000000</i>
    <v name="DIPOL">   -100.00000000   -100.00000000   -100.00000000</v>
    <i name="EFIELD">      0.00000000</i>
    <i type="logical" name="LVACPOTAV"> F  </i>
   </separator>
  </separator>
  <separator name="grids" >
   <i type="int" name="NGX">   108</i>
   <i type="int" name="NGY">   108</i>
   <i type="int" name="NGZ">    48</i>
   <i type="int" name="NGXF">   216</i>
   <i type="int" name="NGYF">   216</i>
   <i type="int" name="NGZF">    96</i>
   <i type="logical" name="ADDGRID"> T  </i>
  </separator>
  <separator name="ionic" >
   <i type="int" name="NSW">     0</i>
   <i type="int" name="IBRION">    -1</i>
   <i type="int" name="MDALGO">     0</i>
   <i type="int" name="ISIF">     2</i>
   <i name="PSTRESS">      0.00000000</i>
   <i name="EDIFFG">      0.00000100</i>
   <i type="int" name="NFREE">     0</i>
   <i name="POTIM">      0.50000000</i>
   <i name="SMASS">     -3.00000000</i>
   <i name="SCALEE">      1.00000000</i>
  </separator>
  <separator name="ionic md" >
   <i name="TEBEG">      0.00010000</i>
   <i name="TEEND">      0.00010000</i>
   <i type="int" name="NBLOCK">     1</i>
   <i type="int" name="KBLOCK">     1</i>
   <i type="int" name="NPACO">   256</i>
   <i name="APACO">     10.00000000</i>
  </separator>
  <separator name="symmetry" >
   <i type="int" name="ISYM">     2</i>
   <i name="SYMPREC">      0.00001000</i>
  </separator>
  <separator name="dos" >
   <i type="int" name="LORBIT">     0</i>
   <v name="RWIGS">     -1.00000000     -1.00000000</v>
   <i type="int" name="NEDOS">   301</i>
   <i name="EMIN">     10.00000000</i>
   <i name="EMAX">    -10.00000000</i>
   <i name="EFERMI">      0.00000000</i>
  </separator>
  <separator name="writing" >
   <i type="int" name="NWRITE">     2</i>
   <i type="logical" name="LWAVE"> F  </i>
   <i type="logical" name="LDOWNSAMPLE"> F  </i>
   <i type="logical" name="LCHARG"> T  </i>
   <i type="logical" name="LPARD"> F  </i>
   <i type="logical" name="LVTOT"> F  </i>
   <i type="logical" name="LVHAR"> T  </i>
   <i type="logical" name="LELF"> F  </i>
   <i type="logical" name="LOPTICS"> F  </i>
   <v name="STM">      0.00000000      0.00000000      0.00000000      0.00000000      0.00000000      0.00000000      0.00000000</v>
  </separator>
  <separator name="performance" >
   <i type="int" name="NPAR">     4</i>
   <i type="int" name="NSIM">     4</i>
   <i type="int" name="NBLK">    -1</i>
   <i type="logical" name="LPLANE"> T  </i>
   <i type="logical" name="LSCALAPACK"> T  </i>
   <i type="logical" name="LSCAAWARE"> F  </i>
   <i type="logical" name="LSCALU"> F  </i>
   <i type="logical" name="LASYNC"> F  </i>
   <i type="logical" name="LORBITALREAL"> F  </i>
  </separator>
  <separator name="miscellaneous" >
   <i type="int" name="IDIOT">     3</i>
   <i type="int" name="PHON_NSTRUCT">    -1</i>
   <i type="logical" name="LMUSIC"> F  </i>
   <v name="POMASS">     28.08500000     12.01100000</v>
   <v name="DARWINR">      0.00000000      0.00000000</v>
   <v name="DARWINV">      1.00000000      1.00000000</v>
   <i type="logical" name="LCORR"> T  </i>
  </separator>
  <i type="logical" name="GGA_COMPAT"> T  </i>
  <i type="logical" name="LBERRY"> F  </i>
  <i type="int" name="ICORELEVEL">     0</i>
  <i type="logical" name="LDAU"> F  </i>
  <i type="int" name="I_CONSTRAINED_M">     0</i>
  <separator name="electronic exchange-correlation" >
   <i type="string" name="GGA    ">PE</i>
   <i type="string" name="XC_C">1</i>
   <i type="int" name="VOSKOWN">     0</i>
   <i type="logical" name="LHFCALC"> F  </i>
   <i type="string" name="PRECFOCK"></i>
   <i type="logical" name="LSYMGRAD"> F  </i>
   <i type="logical" name="LHFONE"> F  </i>
   <i type="logical" name="LRHFCALC"> F  </i>
   <i type="logical" name="LTHOMAS"> F  </i>
   <i type="logical" name="LMODELHF"> F  </i>
   <i type="logical" name="LFOCKACE"> F  </i>
   <i name="ENCUT4O">     -1.00000000</i>
   <i type="int" name="EXXOEP">     0</i>
   <i type="int" name="FOURORBIT">     0</i>
   <i name="AEXX">      0.00000000</i>
   <i name="HFALPHA">      0.00000000</i>
   <i name="MCALPHA">      0.00000000</i>
   <i name="ALDAX">      1.00000000</i>
   <i name="AGGAX">      1.00000000</i>
   <i name="AMGGAX">      1.00000000</i>
   <i name="ALDAC">      1.00000000</i>
   <i name="AGGAC">      1.00000000</i>
   <i name="AMGGAC">      1.00000000</i>
   <i type="int" name="NKREDX">     1</i>
   <i type="int" name="NKREDY">     1</i>
   <i type="int" name="NKREDZ">     1</i>
   <i type="logical" name="SHIFTRED"> F  </i>
   <i type="logical" name="ODDONLY"> F  </i>
   <i type="logical" name="EVENONLY"> F  </i>
   <i type="int" name="LMAXFOCK">     0</i>
   <i type="int" name="NMAXFOCKAE">     0</i>
   <i type="logical" name="LFOCKAEDFT"> F  </i>
   <i name="HFSCREEN">      0.00000000</i>
   <i name="HFSCREENC">      0.00000000</i>
   <i type="int" name="NBANDSGWLOW">     0</i>
  </separator>
  <separator name="vdW DFT" >
   <i type="logical" name="LUSE_VDW"> F  </i>
   <i type="int" name="IVDW_NL">    -1</i>
   <i type="logical" name="LSPIN_VDW"> F  </i>
   <i name="ZAB_VDW">     -0.84910000</i>
   <i name="GAMMA_VDW">      1.39626340</i>
   <i name="ALPHA_VDW">      0.00000000</i>
   <i name="PARAM1">      0.12340000</i>
   <i name="PARAM2">      1.00000000</i>
   <i name="BPARAM">      6.30000000</i>
   <i name="CPARAM">      0.00930000</i>
  </separator>
  <separator name="model GW" >
   <i type="int" name="MODEL_GW">     0</i>
   <i name="MODEL_EPS0">      7.12717444</i>
   <i name="MODEL_ALPHA">      1.00000000</i>
  </separator>
  <separator name="linear response parameters" >
   <i type="logical" name="LEPSILON"> F  </i>
   <i type="logical" name="LRPA"> F  </i>
   <i type="logical" name="LNABLA"> F  </i>
   <i type="logical" name="LVEL"> F  </i>
   <i name="CSHIFT">      0.10000000</i>
   <i name="OMEGAMAX">     -1.00000000</i>
   <i name="DEG_THRESHOLD">      0.00200000</i>
   <i name="RTIME">     -0.10000000</i>
   <i name="WPLASMAI">      0.00000000</i>
   <v name="DFIELD">      0.00000000      0.00000000      0.00000000</v>
   <v name="WPLASMA">      0.00000000      0.00000000      0.00000000      0.00000000      0.00000000      0.00000000      0.00000000      0.00000000      0.00000000</v>
  </separator>
  <separator name="orbital magnetization" >
   <i type="logical" name="NUCIND"> F  </i>
   <v name="MAGPOS">      0.00000000      0.00000000      0.00000000</v>
   <i type="logical" name="LNICSALL"> T  </i>
   <i type="logical" name="ORBITALMAG"> F  </i>
   <i type="logical" name="LMAGBLOCH"> F  </i>
   <i type="logical" name="LCHIMAG"> F  </i>
   <i type="logical" name="LGAUGE"> T  </i>
   <i type="int" name="MAGATOM">     0</i>
   <v name="MAGDIPOL">      0.00000000      0.00000000      0.00000000</v>
   <v name="AVECCONST">      0.00000000      0.00000000      0.00000000</v>
  </separator>
  <separator name="response functions" >
   <i type="logical" name="LALL_IN_ONE"> F  </i>
   <i type="int" name="IALL_IN_ONE">    -1</i>
   <i type="int" name="NBANDS_WAVE">    -1</i>
   <i type="logical" name="LFINITE_TEMPERATURE"> F  </i>
   <i type="logical" name="LADDER"> F  </i>
   <i type="logical" name="LRPAFORCE"> F  </i>
   <i type="logical" name="LFXC"> F  </i>
   <i type="logical" name="LHARTREE"> T  </i>
   <i type="int" name="IBSE">     0</i>
   <v type="int" name="KPOINT">    -1     0     0     0</v>
   <i type="logical" name="LTCTC"> F  </i>
   <i type="logical" name="LTCTE"> F  </i>
   <i type="logical" name="LTETE"> F  </i>
   <i type="logical" name="LTRIPLET"> F  </i>
   <i type="logical" name="LFXCEPS"> F  </i>
   <i type="logical" name="LFXHEG"> F  </i>
   <i type="int" name="NATURALO">     2</i>
   <i type="logical" name="LHOLEGF"> F  </i>
   <i type="logical" name="L2ORDER"> F  </i>
   <i type="logical" name="LDMP1"> F  </i>
   <i type="logical" name="LMP2LT"> F  </i>
   <i type="logical" name="LSMP2LT"> F  </i>
   <i type="logical" name="LGWLF"> F  </i>
   <i name="ENCUTGW">     -1.60000002</i>
   <i name="ENCUTGWSOFT">     -1.60000002</i>
   <i name="ENCUTLF">     -1.00000000</i>
   <i type="logical" name="ESF_SPLINES"> F  </i>
   <i name="ESF_CONV">      0.01000000</i>
   <i type="int" name="ESF_NINTER">    15</i>
   <i type="int" name="LMAXMP2">    -1</i>
   <i name="SCISSOR">      0.00000000</i>
   <i type="int" name="NOMEGA">     0</i>
   <i type="int" name="NOMEGAR">     0</i>
   <i type="int" name="NBANDSGW">    -1</i>
   <i type="int" name="NBANDSO">    -1</i>
   <i type="int" name="NBANDSV">    -1</i>
   <i type="int" name="NELMGW">     1</i>
   <i type="int" name="NELMHF">     1</i>
   <i type="int" name="DIM">     3</i>
   <i type="int" name="IESPILON">     4</i>
   <i type="int" name="ANTIRES">     0</i>
   <i name="OMEGAMAX">    -30.00000000</i>
   <i name="OMEGAMIN">    -30.00000000</i>
   <i name="OMEGATL">   -200.00000000</i>
   <i type="int" name="OMEGAGRID">     0</i>
   <i name="CSHIFT">     -0.10000000</i>
   <i type="logical" name="LSELFENERGY"> F  </i>
   <i type="logical" name="LSPECTRAL"> F  </i>
   <i type="logical" name="LSPECTRALGW"> F  </i>
   <i type="logical" name="LSINGLES"> F  </i>
   <i type="logical" name="LFERMIGW"> F  </i>
   <i type="logical" name="ODDONLYGW"> F  </i>
   <i type="logical" name="EVENONLYGW"> F  </i>
   <i type="int" name="NKREDLFX">     1</i>
   <i type="int" name="NKREDLFY">     1</i>
   <i type="int" name="NKREDLFZ">     1</i>
   <i type="int" name="MAXMEM">  2800</i>
   <i type="int" name="TELESCOPE">     0</i>
   <i type="int" name="NTAUPAR">    -1</i>
   <i type="int" name="NOMEGAPAR">    -1</i>
   <i name="DAMP_NEWTON">      0.80000001</i>
   <i name="LAMBDA">      1.00000000</i>
  </separator>
  <separator name="External order field" >
   <i name="OFIELD_KAPPA">      0.00000000</i>
   <v name="OFIELD_K">      0.00000000      0.00000000      0.00000000</v>
   <i name="OFIELD_Q6_NEAR">      0.00000000</i>
   <i name="OFIELD_Q6_FAR">      0.00000000</i>
   <i name="OFIELD_A">      0.00000000</i>
  </separator>
  <separator name="optional k-points parameters" >
   <i type="int" name="KPOINTS_OPT_MODE">     1</i>
   <i type="logical" name="LKPOINTS_OPT"> F  </i>
  </separator>
 </parameters>
 <atominfo>
  <atoms>     120 </atoms>
  <types>       2 </types>
  <array name="atoms" >
   <dimension dim="1">ion</dimension>
   <field type="string">element</field>
   <field type="int">atomtype</field>
   <set>
    <rc><c>Si</c><c>   1</c></rc>
    <rc><c>Si</c><c>   1</c></rc>
    <rc><c>Si</c><c>   1</c></rc>
    <rc><c>Si</c><c>   1</c></rc>
    <rc><c>Si</c><c>   1</c></rc>
    <rc><c>Si</c><c>   1</c></rc>
    <rc><c>Si</c><c>   1</c></rc>
    <rc><c>Si</c><c>   1</c></rc>
    <rc><c>Si</c><c>   1</c></rc>
    <rc><c>Si</c><c>   1</c></rc>
    <rc><c>Si</c><c>   1</c></rc>
    <rc><c>Si</c><c>   1</c></rc>
    <rc><c>Si</c><c>   1</c></rc>
    <rc><c>Si</c><c>   1</c></rc>
    <rc><c>Si</c><c>   1</c></rc>
    <rc><c>Si</c><c>   1</c></rc>
    <rc><c>Si</c><c>   1</c></rc>
    <rc><c>Si</c><c>   1</c></rc>
    <rc><c>Si</c><c>   1</c></rc>
    <rc><c>Si</c><c>   1</c></rc>
    <rc><c>Si</c><c>   1</c></rc>
    <rc><c>Si</c><c>   1</c></rc>
    <rc><c>Si</c><c>   1</c></rc>
    <rc><c>Si</c><c>   1</c></rc>
    <rc><c>Si</c><c>   1</c></rc>
    <rc><c>Si</c><c>   1</c></rc>
    <rc><c>Si</c><c>   1</c></rc>
    <rc><c>Si</c><c>   1</c></rc>
    <rc><c>Si</c><c>   1</c></rc>
    <rc><c>Si</c><c>   1</c></rc>
    <rc><c>Si</c><c>   1</c></rc>
    <rc><c>Si</c><c>   1</c></rc>
    <rc><c>Si</c><c>   1</c></rc>
    <rc><c>Si</c><c>   1</c></rc>
    <rc><c>Si</c><c>   1</c></rc>
    <rc><c>Si</c><c>   1</c></rc>
    <rc><c>C </c><c>   2</c></rc>
    <rc><c>C </c><c>   2</c></rc>
    <rc><c>C </c><c>   2</c></rc>
    <rc><c>C </c><c>   2</c></rc>
    <rc><c>C </c><c>   2</c></rc>
    <rc><c>C </c><c>   2</c></rc>
    <rc><c>C </c><c>   2</c></rc>
    <rc><c>C </c><c>   2</c></rc>
    <rc><c>C </c><c>   2</c></rc>
    <rc><c>C </c><c>   2</c></rc>
    <rc><c>C </c><c>   2</c></rc>
    <rc><c>C </c><c>   2</c></rc>
    <rc><c>C </c><c>   2</c></rc>
    <rc><c>C </c><c>   2</c></rc>
    <rc><c>C </c><c>   2</c></rc>
    <rc><c>C </c><c>   2</c></rc>
    <rc><c>C </c><c>   2</c></rc>
    <rc><c>C </c><c>   2</c></rc>
    <rc><c>C </c><c>   2</c></rc>
    <rc><c>C </c><c>   2</c></rc>
    <rc><c>C </c><c>   2</c></rc>
    <rc><c>C </c><c>   2</c></rc>
    <rc><c>C </c><c>   2</c></rc>
    <rc><c>C </c><c>   2</c></rc>
    <rc><c>C </c><c>   2</c></rc>
    <rc><c>C </c><c>   2</c></rc>
    <rc><c>C </c><c>   2</c></rc>
    <rc><c>C </c><c>   2</c></rc>
    <rc><c>C </c><c>   2</c></rc>
    <rc><c>C </c><c>   2</c></rc>
    <rc><c>C </c><c>   2</c></rc>
    <rc><c>C </c><c>   2</c></rc>
    <rc><c>C </c><c>   2</c></rc>
    <rc><c>C </c><c>   2</c></rc>
    <rc><c>C </c><c>   2</c></rc>
    <rc><c>C </c><c>   2</c></rc>
    <rc><c>C </c><c>   2</c></rc>
    <rc><c>C </c><c>   2</c></rc>
    <rc><c>C </c><c>   2</c></rc>
    <rc><c>C </c><c>   2</c></rc>
    <rc><c>C </c><c>   2</c></rc>
    <rc><c>C </c><c>   2</c></rc>
    <rc><c>C </c><c>   2</c></rc>
    <rc><c>C </c><c>   2</c></rc>
    <rc><c>C </c><c>   2</c></rc>
    <rc><c>C </c><c>   2</c></rc>
    <rc><c>C </c><c>   2</c></rc>
    <rc><c>C </c><c>   2</c></rc>
    <rc><c>C </c><c>   2</c></rc>
    <rc><c>C </c><c>   2</c></rc>
    <rc><c>C </c><c>   2</c></rc>
    <rc><c>C </c><c>   2</c></rc>
    <rc><c>C </c><c>   2</c></rc>
    <rc><c>C </c><c>   2</c></rc>
    <rc><c>C </c><c>   2</c></rc>
    <rc><c>C </c><c>   2</c></rc>
    <rc><c>C </c><c>   2</c></rc>
    <rc><c>C </c><c>   2</c></rc>
    <rc><c>C </c><c>   2</c></rc>
    <rc><c>C </c><c>   2</c></rc>
    <rc><c>C </c><c>   2</c></rc>
    <rc><c>C </c><c>   2</c></rc>
    <rc><c>C </c><c>   2</c></rc>
    <rc><c>C </c><c>   2</c></rc>
    <rc><c>C </c><c>   2</c></rc>
    <rc><c>C </c><c>   2</c></rc>
    <rc><c>C </c><c>   2</c></rc>
    <rc><c>C </c><c>   2</c></rc>
    <rc><c>C </c><c>   2</c></rc>
    <rc><c>C </c><c>   2</c></rc>
    <rc><c>C </c><c>   2</c></rc>
    <rc><c>C </c><c>   2</c></rc>
    <rc><c>C </c><c>   2</c></rc>
    <rc><c>C </c><c>   2</c></rc>
    <rc><c>C </c><c>   2</c></rc>
    <rc><c>C </c><c>   2</c></rc>
    <rc><c>C </c><c>   2</c></rc>
    <rc><c>C </c><c>   2</c></rc>
    <rc><c>C </c><c>   2</c></rc>
    <rc><c>C </c><c>   2</c></rc>
    <rc><c>C </c><c>   2</c></rc>
    <rc><c>C </c><c>   2</c></rc>
    <rc><c>C </c><c>   2</c></rc>
    <rc><c>C </c><c>   2</c></rc>
   </set>
  </array>
  <array name="atomtypes" >
   <dimension dim="1">type</dimension>
   <field type="int">atomspertype</field>
   <field type="string">element</field>
   <field>mass</field>
   <field>valence</field>
   <field type="string">pseudopotential</field>
   <set>
    <rc><c>  36</c><c>Si</c><c>     28.08500000</c><c>      4.00000000</c><c>  PAW_PBE Si 05Jan2001                  </c></rc>
    <rc><c>  84</c><c>C </c><c>     12.01100000</c><c>      4.00000000</c><c>  PAW_PBE C 08Apr2002                   </c></rc>
   </set>
  </array>
 </atominfo>
 <structure name="initialpos" >
  <crystal>
   <varray name="basis" >
    <v>      16.29300118       0.00000000       0.00000000 </v>
    <v>     -10.86200046      12.14408588       0.00000000 </v>
    <v>       0.00000000       0.00000000       7.20412874 </v>
   </varray>
   <i name="volume">   1425.43488794 </i>
   <varray name="rec_basis" >
    <v>       0.06137605       0.05489640       0.00000000 </v>
    <v>       0.00000000       0.08234461       0.00000000 </v>
    <v>       0.00000000       0.00000000       0.13880929 </v>
   </varray>
  </crystal>
  <varray name="positions" >
   <v>       0.97435850       0.98290563       0.00000000 </v>
   <v>       0.67435843       0.78290558       0.16857123 </v>
   <v>       0.37435842       0.58290553       0.33714247 </v>
   <v>       0.30769178       0.98290563       0.00000000 </v>
   <v>       0.00769173       0.78290558       0.16857123 </v>
   <v>       0.70769167       0.58290553       0.33714247 </v>
   <v>       0.64102507       0.98290563       0.00000000 </v>
   <v>       0.34102503       0.78290558       0.16857123 </v>
   <v>       0.04102499       0.58290553       0.33714247 </v>
   <v>       0.15769197       0.63290560       0.08428545 </v>
   <v>       0.85769194       0.43290553       0.25285670 </v>
   <v>       0.55769193       0.23290551       0.42142793 </v>
   <v>       0.49102521       0.63290560       0.08428545 </v>
   <v>       0.19102515       0.43290553       0.25285670 </v>
   <v>       0.89102519       0.23290551       0.42142793 </v>
   <v>       0.82435846       0.63290560       0.08428545 </v>
   <v>       0.52435839       0.43290553       0.25285670 </v>
   <v>       0.22435850       0.23290551       0.42142793 </v>
   <v>       0.14102516       0.48290560       0.00000000 </v>
   <v>       0.84102511       0.28290549       0.16857123 </v>
   <v>       0.54102510       0.08290543       0.33714247 </v>
   <v>       0.47435844       0.48290560       0.00000000 </v>
   <v>       0.17435838       0.28290549       0.16857123 </v>
   <v>       0.87435836       0.08290543       0.33714247 </v>
   <v>       0.80769169       0.48290560       0.00000000 </v>
   <v>       0.50769168       0.28290549       0.16857123 </v>
   <v>       0.20769163       0.08290543       0.33714247 </v>
   <v>       0.99102521       0.13290566       0.08428546 </v>
   <v>       0.69102514       0.93290561       0.25285670 </v>
   <v>       0.39102519       0.73290557       0.42142793 </v>
   <v>       0.32435846       0.13290566       0.08428546 </v>
   <v>       0.02435841       0.93290561       0.25285670 </v>
   <v>       0.72435844       0.73290557       0.42142793 </v>
   <v>       0.65769166       0.13290566       0.08428546 </v>
   <v>       0.35769162       0.93290561       0.25285670 </v>
   <v>       0.05769165       0.73290557       0.42142793 </v>
   <v>       0.24703699       0.93535221       0.57232785 </v>
   <v>       0.48989421       0.90678072       0.68303675 </v>
   <v>       0.73275143       0.87820923       0.79374564 </v>
   <v>       0.53275126       0.07820940       0.57232785 </v>
   <v>       0.77560848       0.04963779       0.68303675 </v>
   <v>       0.01846576       0.02106643       0.79374564 </v>
   <v>       0.81846547       0.22106648       0.57232785 </v>
   <v>       0.06132281       0.19249499       0.68303675 </v>
   <v>       0.30418003       0.16392350       0.79374564 </v>
   <v>       0.10417986       0.36392367       0.57232785 </v>
   <v>       0.34703708       0.33535218       0.68303675 </v>
   <v>       0.58989441       0.30678070       0.79374564 </v>
   <v>       0.38989413       0.50678074       0.57232785 </v>
   <v>       0.63275135       0.47820926       0.68303675 </v>
   <v>       0.87560856       0.44963789       0.79374564 </v>
   <v>       0.67560846       0.64963794       0.57232785 </v>
   <v>       0.91846567       0.62106645       0.68303675 </v>
   <v>       0.16132295       0.59249497       0.79374564 </v>
   <v>       0.96132266       0.79249501       0.57232785 </v>
   <v>       0.20417988       0.76392353       0.68303675 </v>
   <v>       0.44703710       0.73535204       0.79374564 </v>
   <v>       0.08275115       0.02820933       0.62768221 </v>
   <v>       0.32560849       0.99963784       0.73839110 </v>
   <v>       0.56846571       0.97106636       0.84909993 </v>
   <v>       0.36846536       0.17106652       0.62768215 </v>
   <v>       0.61132264       0.14249504       0.73839116 </v>
   <v>       0.85417986       0.11392355       0.84909999 </v>
   <v>       0.65417975       0.31392360       0.62768215 </v>
   <v>       0.89703697       0.28535223       0.73839116 </v>
   <v>       0.13989425       0.25678062       0.84909999 </v>
   <v>       0.93989408       0.45678079       0.62768215 </v>
   <v>       0.18275142       0.42820931       0.73839116 </v>
   <v>       0.42560864       0.39963794       0.84909999 </v>
   <v>       0.22560824       0.59963799       0.62768215 </v>
   <v>       0.46846557       0.57106638       0.73839116 </v>
   <v>       0.71132266       0.54249501       0.84909999 </v>
   <v>       0.51132268       0.74249506       0.62768221 </v>
   <v>       0.75417995       0.71392345       0.73839116 </v>
   <v>       0.99703717       0.68535209       0.84909993 </v>
   <v>       0.79703683       0.88535213       0.62768221 </v>
   <v>       0.03989410       0.85678077       0.73839116 </v>
   <v>       0.28275132       0.82820916       0.84909993 </v>
   <v>       0.88989425       0.00678074       0.57232785 </v>
   <v>       0.13275135       0.97820926       0.68303675 </v>
   <v>       0.37560868       0.94963783       0.79374564 </v>
   <v>       0.17560864       0.14963794       0.57232785 </v>
   <v>       0.41846573       0.12106645       0.68303675 </v>
   <v>       0.66132283       0.09249497       0.79374564 </v>
   <v>       0.46132273       0.29249501       0.57232785 </v>
   <v>       0.70417994       0.26392364       0.68303675 </v>
   <v>       0.94703716       0.23535204       0.79374564 </v>
   <v>       0.74703693       0.43535221       0.57232785 </v>
   <v>       0.98989421       0.40678072       0.68303675 </v>
   <v>       0.23275150       0.37820923       0.79374564 </v>
   <v>       0.03275132       0.57820940       0.57232785 </v>
   <v>       0.27560854       0.54963791       0.68303675 </v>
   <v>       0.51846564       0.52106643       0.79374564 </v>
   <v>       0.31846556       0.72106648       0.57232785 </v>
   <v>       0.56132281       0.69249511       0.68303680 </v>
   <v>       0.80418009       0.66392362       0.79374564 </v>
   <v>       0.60417986       0.86392367       0.57232785 </v>
   <v>       0.84703702       0.83535218       0.68303680 </v>
   <v>       0.08989441       0.80678082       0.79374564 </v>
   <v>       0.43989414       0.95678079       0.62768215 </v>
   <v>       0.68275142       0.92820931       0.73839116 </v>
   <v>       0.92560870       0.89963782       0.84909999 </v>
   <v>       0.72560829       0.09963799       0.62768215 </v>
   <v>       0.96846557       0.07106638       0.73839116 </v>
   <v>       0.21132278       0.04249501       0.84909993 </v>
   <v>       0.01132262       0.24249506       0.62768215 </v>
   <v>       0.25417995       0.21392357       0.73839116 </v>
   <v>       0.49703717       0.18535209       0.84909993 </v>
   <v>       0.29703677       0.38535213       0.62768215 </v>
   <v>       0.53989410       0.35678077       0.73839110 </v>
   <v>       0.78275132       0.32820916       0.84909993 </v>
   <v>       0.58275122       0.52820921       0.62768215 </v>
   <v>       0.82560855       0.49963784       0.73839116 </v>
   <v>       0.06846583       0.47106636       0.84909999 </v>
   <v>       0.86846554       0.67106652       0.62768215 </v>
   <v>       0.11132288       0.64249492       0.73839116 </v>
   <v>       0.35418010       0.61392355       0.84909999 </v>
   <v>       0.15417969       0.81392360       0.62768215 </v>
   <v>       0.39703703       0.78535223       0.73839116 </v>
   <v>       0.63989425       0.75678062       0.84909999 </v>
  </varray>
 </structure>
 <calculation>
  <scstep>
   <time name="dav">   36.34   36.64</time>
   <time name="total">   37.12   37.43</time>
   <energy>
    <i name="alphaZ">    682.92394874 </i>
    <i name="ewald"> -10413.21969554 </i>
    <i name="hartreedc">  -7084.33127026 </i>
    <i name="XCdc">    759.31621094 </i>
    <i name="pawpsdc">  12288.30765307 </i>
    <i name="pawaedc"> -11702.77953025 </i>
    <i name="eentropy">     -0.00094380 </i>
    <i name="bandstr">   1793.97644804 </i>
    <i name="atom">  16071.23009607 </i>
    <i name="e_fr_energy">   2395.42291701 </i>
    <i name="e_wo_entrp">   2395.42386081 </i>
    <i name="e_0_energy">   2395.42338891 </i>
   </energy>
  </scstep>
  <scstep>
   <time name="dav">   42.27   42.62</time>
   <time name="total">   42.28   42.63</time>
   <energy>
    <i name="e_fr_energy">   -539.00145689 </i>
    <i name="e_wo_entrp">   -539.00016388 </i>
    <i name="e_0_energy">   -539.00081038 </i>
   </energy>
  </scstep>
  <scstep>
   <time name="dav">   42.39   42.74</time>
   <time name="total">   42.40   42.75</time>
   <energy>
    <i name="e_fr_energy">   -838.49613491 </i>
    <i name="e_wo_entrp">   -838.49432287 </i>
    <i name="e_0_energy">   -838.49522889 </i>
   </energy>
  </scstep>
  <scstep>
   <time name="dav">   43.98   44.36</time>
   <time name="total">   43.99   44.36</time>
   <energy>
    <i name="e_fr_energy">   -852.60726824 </i>
    <i name="e_wo_entrp">   -852.60482064 </i>
    <i name="e_0_energy">   -852.60604444 </i>
   </energy>
  </scstep>
  <scstep>
   <time name="dav">   46.00   46.42</time>
   <time name="total">   47.60   48.03</time>
   <energy>
    <i name="e_fr_energy">   -853.25715019 </i>
    <i name="e_wo_entrp">   -853.25456505 </i>
    <i name="e_0_energy">   -853.25585762 </i>
   </energy>
  </scstep>
  <scstep>
   <time name="dav">   45.04   45.45</time>
   <time name="total">   47.37   47.79</time>
   <energy>
    <i name="e_fr_energy">   -817.50015385 </i>
    <i name="e_wo_entrp">   -817.49787732 </i>
    <i name="e_0_energy">   -817.49901558 </i>
   </energy>
  </scstep>
  <scstep>
   <time name="dav">   43.54   43.90</time>
   <time name="total">   45.87   46.24</time>
   <energy>
    <i name="e_fr_energy">   -791.97084054 </i>
    <i name="e_wo_entrp">   -791.96953451 </i>
    <i name="e_0_energy">   -791.97018753 </i>
   </energy>
  </scstep>
  <scstep>
   <time name="dav">   43.53   43.91</time>
   <time name="total">   45.86   46.25</time>
   <energy>
    <i name="e_fr_energy">   -794.35031434 </i>
    <i name="e_wo_entrp">   -794.34822965 </i>
    <i name="e_0_energy">   -794.34927199 </i>
   </energy>
  </scstep>
  <scstep>
   <time name="dav">   43.67   44.06</time>
   <time name="total">   46.01   46.41</time>
   <energy>
    <i name="e_fr_energy">   -793.01494492 </i>
    <i name="e_wo_entrp">   -793.01325778 </i>
    <i name="e_0_energy">   -793.01410135 </i>
   </energy>
  </scstep>
  <scstep>
   <time name="dav">   44.85   45.21</time>
   <time name="total">   47.18   47.55</time>
   <energy>
    <i name="e_fr_energy">   -792.45363450 </i>
    <i name="e_wo_entrp">   -792.45133098 </i>
    <i name="e_0_energy">   -792.45248274 </i>
   </energy>
  </scstep>
  <scstep>
   <time name="dav">   43.13   43.49</time>
   <time name="total">   45.47   45.83</time>
   <energy>
    <i name="e_fr_energy">   -792.41234113 </i>
    <i name="e_wo_entrp">   -792.41100765 </i>
    <i name="e_0_energy">   -792.41167439 </i>
   </energy>
  </scstep>
  <scstep>
   <time name="dav">   42.76   43.11</time>
   <time name="total">   45.09   45.45</time>
   <energy>
    <i name="e_fr_energy">   -792.39400310 </i>
    <i name="e_wo_entrp">   -792.39235484 </i>
    <i name="e_0_energy">   -792.39317897 </i>
   </energy>
  </scstep>
  <scstep>
   <time name="dav">   43.14   43.49</time>
   <time name="total">   45.48   45.85</time>
   <energy>
    <i name="e_fr_energy">   -792.38831765 </i>
    <i name="e_wo_entrp">   -792.38670400 </i>
    <i name="e_0_energy">   -792.38751083 </i>
   </energy>
  </scstep>
  <scstep>
   <time name="dav">   43.27   43.62</time>
   <time name="total">   45.59   45.96</time>
   <energy>
    <i name="e_fr_energy">   -792.38488937 </i>
    <i name="e_wo_entrp">   -792.38315898 </i>
    <i name="e_0_energy">   -792.38402418 </i>
   </energy>
  </scstep>
  <scstep>
   <time name="dav">   44.07   44.43</time>
   <time name="total">   46.41   46.78</time>
   <energy>
    <i name="e_fr_energy">   -792.38314938 </i>
    <i name="e_wo_entrp">   -792.38150734 </i>
    <i name="e_0_energy">   -792.38232836 </i>
   </energy>
  </scstep>
  <scstep>
   <time name="dav">   44.14   44.49</time>
   <time name="total">   46.46   46.82</time>
   <energy>
    <i name="e_fr_energy">   -792.38273971 </i>
    <i name="e_wo_entrp">   -792.38103501 </i>
    <i name="e_0_energy">   -792.38188736 </i>
   </energy>
  </scstep>
  <scstep>
   <time name="dav">   45.12   45.48</time>
   <time name="total">   47.45   47.83</time>
   <energy>
    <i name="e_fr_energy">   -792.38263524 </i>
    <i name="e_wo_entrp">   -792.38095918 </i>
    <i name="e_0_energy">   -792.38179721 </i>
   </energy>
  </scstep>
  <scstep>
   <time name="dav">   44.12   44.48</time>
   <time name="total">   46.44   46.81</time>
   <energy>
    <i name="e_fr_energy">   -792.38261646 </i>
    <i name="e_wo_entrp">   -792.38093052 </i>
    <i name="e_0_energy">   -792.38177349 </i>
   </energy>
  </scstep>
  <scstep>
   <time name="dav">   42.85   43.20</time>
   <time name="total">   45.17   45.53</time>
   <energy>
    <i name="e_fr_energy">   -792.38261552 </i>
    <i name="e_wo_entrp">   -792.38093255 </i>
    <i name="e_0_energy">   -792.38177403 </i>
   </energy>
  </scstep>
  <scstep>
   <time name="dav">   43.00   43.34</time>
   <time name="total">   45.32   45.67</time>
   <energy>
    <i name="e_fr_energy">   -792.38261564 </i>
    <i name="e_wo_entrp">   -792.38093046 </i>
    <i name="e_0_energy">   -792.38177305 </i>
   </energy>
  </scstep>
  <scstep>
   <time name="dav">   43.34   43.69</time>
   <time name="total">   45.67   46.03</time>
   <energy>
    <i name="e_fr_energy">   -792.38261550 </i>
    <i name="e_wo_entrp">   -792.38093155 </i>
    <i name="e_0_energy">   -792.38177352 </i>
   </energy>
  </scstep>
  <scstep>
   <time name="dav">   43.76   44.11</time>
   <time name="total">   46.12   46.48</time>
   <energy>
    <i name="e_fr_energy">   -792.38261537 </i>
    <i name="e_wo_entrp">   -792.38093059 </i>
    <i name="e_0_energy">   -792.38177298 </i>
   </energy>
  </scstep>
  <scstep>
   <time name="dav">   36.86   37.15</time>
   <time name="total">   37.61   37.91</time>
   <energy>
    <i name="alphaZ">    682.92394874 </i>
    <i name="ewald"> -10413.21969554 </i>
    <i name="hartreedc">  -7723.59712161 </i>
    <i name="XCdc">    797.93195073 </i>
    <i name="pawpsdc">  42140.80389685 </i>
    <i name="pawaedc"> -41564.34090173 </i>
    <i name="eentropy">     -0.00168467 </i>
    <i name="bandstr">   -784.11310414 </i>
    <i name="atom">  16071.23009607 </i>
    <i name="e_fr_energy">   -792.38261530 </i>
    <i name="e_wo_entrp">   -792.38093062 </i>
    <i name="e_0_energy">   -792.38177296 </i>
   </energy>
  </scstep>
  <structure>
   <crystal>
    <varray name="basis" >
     <v>      16.29300118       0.00000000       0.00000000 </v>
     <v>     -10.86200046      12.14408588       0.00000000 </v>
     <v>       0.00000000       0.00000000       7.20412874 </v>
    </varray>
    <i name="volume">   1425.43488794 </i>
    <varray name="rec_basis" >
     <v>       0.06137605       0.05489640       0.00000000 </v>
     <v>       0.00000000       0.08234461       0.00000000 </v>
     <v>       0.00000000       0.00000000       0.13880929 </v>
    </varray>
   </crystal>
   <varray name="positions" >
    <v>       0.97435850       0.98290563       0.00000000 </v>
    <v>       0.67435843       0.78290558       0.16857123 </v>
    <v>       0.37435842       0.58290553       0.33714247 </v>
    <v>       0.30769178       0.98290563       0.00000000 </v>
    <v>       0.00769173       0.78290558       0.16857123 </v>
    <v>       0.70769167       0.58290553       0.33714247 </v>
    <v>       0.64102507       0.98290563       0.00000000 </v>
    <v>       0.34102503       0.78290558       0.16857123 </v>
    <v>       0.04102499       0.58290553       0.33714247 </v>
    <v>       0.15769197       0.63290560       0.08428545 </v>
    <v>       0.85769194       0.43290553       0.25285670 </v>
    <v>       0.55769193       0.23290551       0.42142793 </v>
    <v>       0.49102521       0.63290560       0.08428545 </v>
    <v>       0.19102515       0.43290553       0.25285670 </v>
    <v>       0.89102519       0.23290551       0.42142793 </v>
    <v>       0.82435846       0.63290560       0.08428545 </v>
    <v>       0.52435839       0.43290553       0.25285670 </v>
    <v>       0.22435850       0.23290551       0.42142793 </v>
    <v>       0.14102516       0.48290560       0.00000000 </v>
    <v>       0.84102511       0.28290549       0.16857123 </v>
    <v>       0.54102510       0.08290543       0.33714247 </v>
    <v>       0.47435844       0.48290560       0.00000000 </v>
    <v>       0.17435838       0.28290549       0.16857123 </v>
    <v>       0.87435836       0.08290543       0.33714247 </v>
    <v>       0.80769169       0.48290560       0.00000000 </v>
    <v>       0.50769168       0.28290549       0.16857123 </v>
    <v>       0.20769163       0.08290543       0.33714247 </v>
    <v>       0.99102521       0.13290566       0.08428546 </v>
    <v>       0.69102514       0.93290561       0.25285670 </v>
    <v>       0.39102519       0.73290557       0.42142793 </v>
    <v>       0.32435846       0.13290566       0.08428546 </v>
    <v>       0.02435841       0.93290561       0.25285670 </v>
    <v>       0.72435844       0.73290557       0.42142793 </v>
    <v>       0.65769166       0.13290566       0.08428546 </v>
    <v>       0.35769162       0.93290561       0.25285670 </v>
    <v>       0.05769165       0.73290557       0.42142793 </v>
    <v>       0.24703699       0.93535221       0.57232785 </v>
    <v>       0.48989421       0.90678072       0.68303675 </v>
    <v>       0.73275143       0.87820923       0.79374564 </v>
    <v>       0.53275126       0.07820940       0.57232785 </v>
    <v>       0.77560848       0.04963779       0.68303675 </v>
    <v>       0.01846576       0.02106643       0.79374564 </v>
    <v>       0.81846547       0.22106648       0.57232785 </v>
    <v>       0.06132281       0.19249499       0.68303675 </v>
    <v>       0.30418003       0.16392350       0.79374564 </v>
    <v>       0.10417986       0.36392367       0.57232785 </v>
    <v>       0.34703708       0.33535218       0.68303675 </v>
    <v>       0.58989441       0.30678070       0.79374564 </v>
    <v>       0.38989413       0.50678074       0.57232785 </v>
    <v>       0.63275135       0.47820926       0.68303675 </v>
    <v>       0.87560856       0.44963789       0.79374564 </v>
    <v>       0.67560846       0.64963794       0.57232785 </v>
    <v>       0.91846567       0.62106645       0.68303675 </v>
    <v>       0.16132295       0.59249497       0.79374564 </v>
    <v>       0.96132266       0.79249501       0.57232785 </v>
    <v>       0.20417988       0.76392353       0.68303675 </v>
    <v>       0.44703710       0.73535204       0.79374564 </v>
    <v>       0.08275115       0.02820933       0.62768221 </v>
    <v>       0.32560849       0.99963784       0.73839110 </v>
    <v>       0.56846571       0.97106636       0.84909993 </v>
    <v>       0.36846536       0.17106652       0.62768215 </v>
    <v>       0.61132264       0.14249504       0.73839116 </v>
    <v>       0.85417986       0.11392355       0.84909999 </v>
    <v>       0.65417975       0.31392360       0.62768215 </v>
    <v>       0.89703697       0.28535223       0.73839116 </v>
    <v>       0.13989425       0.25678062       0.84909999 </v>
    <v>       0.93989408       0.45678079       0.62768215 </v>
    <v>       0.18275142       0.42820931       0.73839116 </v>
    <v>       0.42560864       0.39963794       0.84909999 </v>
    <v>       0.22560824       0.59963799       0.62768215 </v>
    <v>       0.46846557       0.57106638       0.73839116 </v>
    <v>       0.71132266       0.54249501       0.84909999 </v>
    <v>       0.51132268       0.74249506       0.62768221 </v>
    <v>       0.75417995       0.71392345       0.73839116 </v>
    <v>       0.99703717       0.68535209       0.84909993 </v>
    <v>       0.79703683       0.88535213       0.62768221 </v>
    <v>       0.03989410       0.85678077       0.73839116 </v>
    <v>       0.28275132       0.82820916       0.84909993 </v>
    <v>       0.88989425       0.00678074       0.57232785 </v>
    <v>       0.13275135       0.97820926       0.68303675 </v>
    <v>       0.37560868       0.94963783       0.79374564 </v>
    <v>       0.17560864       0.14963794       0.57232785 </v>
    <v>       0.41846573       0.12106645       0.68303675 </v>
    <v>       0.66132283       0.09249497       0.79374564 </v>
    <v>       0.46132273       0.29249501       0.57232785 </v>
    <v>       0.70417994       0.26392364       0.68303675 </v>
    <v>       0.94703716       0.23535204       0.79374564 </v>
    <v>       0.74703693       0.43535221       0.57232785 </v>
    <v>       0.98989421       0.40678072       0.68303675 </v>
    <v>       0.23275150       0.37820923       0.79374564 </v>
    <v>       0.03275132       0.57820940       0.57232785 </v>
    <v>       0.27560854       0.54963791       0.68303675 </v>
    <v>       0.51846564       0.52106643       0.79374564 </v>
    <v>       0.31846556       0.72106648       0.57232785 </v>
    <v>       0.56132281       0.69249511       0.68303680 </v>
    <v>       0.80418009       0.66392362       0.79374564 </v>
    <v>       0.60417986       0.86392367       0.57232785 </v>
    <v>       0.84703702       0.83535218       0.68303680 </v>
    <v>       0.08989441       0.80678082       0.79374564 </v>
    <v>       0.43989414       0.95678079       0.62768215 </v>
    <v>       0.68275142       0.92820931       0.73839116 </v>
    <v>       0.92560870       0.89963782       0.84909999 </v>
    <v>       0.72560829       0.09963799       0.62768215 </v>
    <v>       0.96846557       0.07106638       0.73839116 </v>
    <v>       0.21132278       0.04249501       0.84909993 </v>
    <v>       0.01132262       0.24249506       0.62768215 </v>
    <v>       0.25417995       0.21392357       0.73839116 </v>
    <v>       0.49703717       0.18535209       0.84909993 </v>
    <v>       0.29703677       0.38535213       0.62768215 </v>
    <v>       0.53989410       0.35678077       0.73839110 </v>
    <v>       0.78275132       0.32820916       0.84909993 </v>
    <v>       0.58275122       0.52820921       0.62768215 </v>
    <v>       0.82560855       0.49963784       0.73839116 </v>
    <v>       0.06846583       0.47106636       0.84909999 </v>
    <v>       0.86846554       0.67106652       0.62768215 </v>
    <v>       0.11132288       0.64249492       0.73839116 </v>
    <v>       0.35418010       0.61392355       0.84909999 </v>
    <v>       0.15417969       0.81392360       0.62768215 </v>
    <v>       0.39703703       0.78535223       0.73839116 </v>
    <v>       0.63989425       0.75678062       0.84909999 </v>
   </varray>
  </structure>
  <varray name="forces" >
   <v>      -1.74094744       6.02341370      17.88219392 </v>
   <v>      -0.51912051      -0.68116595      -1.51000715 </v>
   <v>       0.60107094      -1.02432633       1.84311308 </v>
   <v>      -0.70071732      -0.30111471       0.06539286 </v>
   <v>       0.13019369       0.29575330      -0.02090203 </v>
   <v>       1.24032157      -0.24853953       0.44858349 </v>
   <v>       7.99022396       0.93981944       7.92221504 </v>
   <v>      -0.66660093       0.55232858      -0.81721433 </v>
   <v>      -0.39411941       0.53566216      -3.81690947 </v>
   <v>       0.98753119       1.01417664      -0.27446188 </v>
   <v>      -0.22800143      -0.30445644       1.01227435 </v>
   <v>      -0.89049093      -0.44240904       0.28577794 </v>
   <v>      -0.93228875      -0.09755572      -0.21307156 </v>
   <v>      -0.11593944      -0.84350728       1.55417618 </v>
   <v>       8.98206086       1.21282400      -9.25955723 </v>
   <v>      -0.28842026       0.32690096      -1.35850214 </v>
   <v>       0.39005466       0.05237886       1.43647756 </v>
   <v>      -1.54407194      11.03074908     -10.13617993 </v>
   <v>       7.99022396       0.93981944       7.92221504 </v>
   <v>      -0.66660093       0.55232858      -0.81721433 </v>
   <v>      -0.39411941       0.53566216      -3.81690947 </v>
   <v>      -1.74094744       6.02341370      17.88219392 </v>
   <v>      -0.51912051      -0.68116595      -1.51000715 </v>
   <v>       0.60107094      -1.02432633       1.84311308 </v>
   <v>      -0.70071732      -0.30111471       0.06539286 </v>
   <v>       0.13019369       0.29575330      -0.02090203 </v>
   <v>       1.24032157      -0.24853953       0.44858349 </v>
   <v>      -0.93228875      -0.09755572      -0.21307156 </v>
   <v>      -0.11593944      -0.84350728       1.55417618 </v>
   <v>       8.98206086       1.21282400      -9.25955723 </v>
   <v>      -0.28842026       0.32690096      -1.35850214 </v>
   <v>       0.39005466       0.05237886       1.43647756 </v>
   <v>      -1.54407194      11.03074908     -10.13617993 </v>
   <v>       0.98753119       1.01417664      -0.27446188 </v>
   <v>      -0.22800143      -0.30445644       1.01227435 </v>
   <v>      -0.89049093      -0.44240904       0.28577794 </v>
   <v>       0.52430324      -1.01842330       1.55346748 </v>
   <v>      -1.49155886      -1.74277494       3.87192137 </v>
   <v>      -2.17308045      -3.20890325      -2.36234086 </v>
   <v>       0.96920155      -1.99603818       5.80312120 </v>
   <v>      -1.64291415      -1.60873083       3.30745527 </v>
   <v>       1.33381237       1.20983652      -9.58341639 </v>
   <v>      -7.74225683      -3.11097499      10.58175703 </v>
   <v>      -1.83848650      -2.03412015       3.96310765 </v>
   <v>      -1.45926454      -2.79530069       0.48011295 </v>
   <v>       0.24583519      -0.79445901       1.57119061 </v>
   <v>      -0.93675262      -1.91769888       4.15649866 </v>
   <v>      -2.32598496      -2.99548378       0.38949115 </v>
   <v>      -0.92260911      -0.07242191       1.17881199 </v>
   <v>      -1.62105037      -1.85030483       4.08810919 </v>
   <v>      -0.05485935      -3.29896950      -2.76774478 </v>
   <v>       0.67839385     -11.25105490      11.82622212 </v>
   <v>      -1.34147537      -0.04540939       2.70509064 </v>
   <v>      -1.95104435      -1.69298442      -1.50337100 </v>
   <v>       0.48459135      -1.64888239       2.01089121 </v>
   <v>      -0.58787133      -1.57213653       4.99273716 </v>
   <v>      -1.81743613      -3.34315561      -1.16107861 </v>
   <v>       1.67400858       2.07208864       1.40954994 </v>
   <v>       1.04688705       0.95131800      -3.75178347 </v>
   <v>      -8.46745213      -1.32821102     -10.92299452 </v>
   <v>       1.27101897       2.84414758       0.88395133 </v>
   <v>       0.95493357       2.16214771      -3.68131890 </v>
   <v>       0.10593783       1.90621817      -1.80440092 </v>
   <v>       1.57241565       2.39243700      -0.15188879 </v>
   <v>       1.03251125       2.46524546      -2.14121771 </v>
   <v>       0.45824668       1.76038484      -1.75372580 </v>
   <v>       1.02992540       2.99288511       2.36066469 </v>
   <v>       2.03820876       1.82266716      -3.25212472 </v>
   <v>       0.08741175      -9.10152161     -11.97970662 </v>
   <v>       1.70059690       2.81364114       2.03584472 </v>
   <v>       0.84765889       1.97205318      -5.64910541 </v>
   <v>      -0.90762731       1.22306213      -2.75791828 </v>
   <v>       1.40038186       3.19037997       1.11440245 </v>
   <v>       2.19978602       2.13870476      -2.26738627 </v>
   <v>       0.27594204       1.64179289      -2.52799153 </v>
   <v>       1.61224370       2.22633896       0.88579533 </v>
   <v>       1.50659568       1.61289943      -4.01398064 </v>
   <v>      -0.06986231       0.98877975      -2.18009762 </v>
   <v>      -0.92260911      -0.07242191       1.17881199 </v>
   <v>      -1.62105037      -1.85030483       4.08810919 </v>
   <v>      -0.05485935      -3.29896950      -2.76774478 </v>
   <v>       0.67839385     -11.25105490      11.82622212 </v>
   <v>      -1.34147537      -0.04540939       2.70509064 </v>
   <v>      -1.95104435      -1.69298442      -1.50337100 </v>
   <v>       0.48459135      -1.64888239       2.01089121 </v>
   <v>      -0.58787133      -1.57213653       4.99273716 </v>
   <v>      -1.81743613      -3.34315561      -1.16107861 </v>
   <v>       0.52430324      -1.01842330       1.55346748 </v>
   <v>      -1.49155886      -1.74277494       3.87192137 </v>
   <v>      -2.17308045      -3.20890325      -2.36234086 </v>
   <v>       0.96920155      -1.99603818       5.80312120 </v>
   <v>      -1.64291415      -1.60873083       3.30745527 </v>
   <v>       1.33381237       1.20983652      -9.58341639 </v>
   <v>      -7.74225683      -3.11097499      10.58175703 </v>
   <v>      -1.83848650      -2.03412015       3.96310765 </v>
   <v>      -1.45926454      -2.79530069       0.48011295 </v>
   <v>       0.24583519      -0.79445901       1.57119061 </v>
   <v>      -0.93675262      -1.91769888       4.15649866 </v>
   <v>      -2.32598496      -2.99548378       0.38949115 </v>
   <v>       1.02992540       2.99288511       2.36066469 </v>
   <v>       2.03820876       1.82266716      -3.25212472 </v>
   <v>       0.08741175      -9.10152161     -11.97970662 </v>
   <v>       1.70059690       2.81364114       2.03584472 </v>
   <v>       0.84765889       1.97205318      -5.64910541 </v>
   <v>      -0.90762731       1.22306213      -2.75791828 </v>
   <v>       1.40038186       3.19037997       1.11440245 </v>
   <v>       2.19978602       2.13870476      -2.26738627 </v>
   <v>       0.27594204       1.64179289      -2.52799153 </v>
   <v>       1.61224370       2.22633896       0.88579533 </v>
   <v>       1.50659568       1.61289943      -4.01398064 </v>
   <v>      -0.06986231       0.98877975      -2.18009762 </v>
   <v>       1.67400858       2.07208864       1.40954994 </v>
   <v>       1.04688705       0.95131800      -3.75178347 </v>
   <v>      -8.46745213      -1.32821102     -10.92299452 </v>
   <v>       1.27101897       2.84414758       0.88395133 </v>
   <v>       0.95493357       2.16214771      -3.68131890 </v>
   <v>       0.10593783       1.90621817      -1.80440092 </v>
   <v>       1.57241565       2.39243700      -0.15188879 </v>
   <v>       1.03251125       2.46524546      -2.14121771 </v>
   <v>       0.45824668       1.76038484      -1.75372580 </v>
  </varray>
  <varray name="stress" >
   <v>     -16.81035605      -2.54649322     -43.55516818 </v>
   <v>      -2.54647686     -20.45393664     -18.59315115 </v>
   <v>     -43.55516652     -18.59316793     -59.27853079 </v>
  </varray>
  <energy>
   <i name="e_fr_energy">   -792.38261530 </i>
   <i name="e_wo_entrp">   -792.38093062 </i>
   <i name="e_0_energy">   -792.38177296 </i>
  </energy>
  <time name="totalsc"> 1076.73 1085.95</time>
  <eigenvalues>
   <array>
    <dimension dim="1">band</dimension>
    <dimension dim="2">kpoint</dimension>
    <dimension dim="3">spin</dimension>
    <field>eigene</field>
    <field>occ</field>
    <set>
     <set comment="spin 1">
      <set comment="kpoint 1">
       <r>  -13.2370    1.0000 </r>
       <r>  -12.8537    1.0000 </r>
       <r>  -12.8237    1.0000 </r>
       <r>  -12.6175    1.0000 </r>
       <r>  -12.5129    1.0000 </r>
       <r>  -12.4481    1.0000 </r>
       <r>  -12.3623    1.0000 </r>
       <r>  -11.9915    1.0000 </r>
       <r>  -11.7119    1.0000 </r>
       <r>  -11.7117    1.0000 </r>
       <r>  -11.5523    1.0000 </r>
       <r>  -11.5172    1.0000 </r>
       <r>  -11.1747    1.0000 </r>
       <r>  -10.9894    1.0000 </r>
       <r>  -10.6870    1.0000 </r>
       <r>  -10.5615    1.0000 </r>
       <r>  -10.3798    1.0000 </r>
       <r>  -10.2018    1.0000 </r>
       <r>  -10.1774    1.0000 </r>
       <r>  -10.0871    1.0000 </r>
       <r>   -9.8717    1.0000 </r>
       <r>   -9.4655    1.0000 </r>
       <r>   -9.3946    1.0000 </r>
       <r>   -9.3665    1.0000 </r>
       <r>   -9.3157    1.0000 </r>
       <r>   -9.2319    1.0000 </r>
       <r>   -9.0930    1.0000 </r>
       <r>   -8.7584    1.0000 </r>
       <r>   -8.6890    1.0000 </r>
       <r>   -8.5636    1.0000 </r>
       <r>   -8.5575    1.0000 </r>
       <r>   -8.4838    1.0000 </r>
       <r>   -8.2845    1.0000 </r>
       <r>   -8.0648    1.0000 </r>
       <r>   -7.9663    1.0000 </r>
       <r>   -7.8617    1.0000 </r>
       <r>   -7.8028    1.0000 </r>
       <r>   -7.5460    1.0000 </r>
       <r>   -7.4645    1.0000 </r>
       <r>   -7.3740    1.0000 </r>
       <r>   -7.2537    1.0000 </r>
       <r>   -6.7474    1.0000 </r>
       <r>   -6.7196    1.0000 </r>
       <r>   -6.6591    1.0000 </r>
       <r>   -6.5095    1.0000 </r>
       <r>   -6.4062    1.0000 </r>
       <r>   -6.2328    1.0000 </r>
       <r>   -6.0930    1.0000 </r>
       <r>   -5.8605    1.0000 </r>
       <r>   -5.7309    1.0000 </r>
       <r>   -5.6729    1.0000 </r>
       <r>   -5.6185    1.0000 </r>
       <r>   -5.3926    1.0000 </r>
       <r>   -5.3195    1.0000 </r>
       <r>   -5.1714    1.0000 </r>
       <r>   -5.1659    1.0000 </r>
       <r>   -5.1482    1.0000 </r>
       <r>   -4.9864    1.0000 </r>
       <r>   -4.9637    1.0000 </r>
       <r>   -4.8153    1.0000 </r>
       <r>   -4.7177    1.0000 </r>
       <r>   -4.6833    1.0000 </r>
       <r>   -4.6214    1.0000 </r>
       <r>   -4.5210    1.0000 </r>
       <r>   -4.3906    1.0000 </r>
       <r>   -4.3879    1.0000 </r>
       <r>   -4.2812    1.0000 </r>
       <r>   -4.2050    1.0000 </r>
       <r>   -4.0945    1.0000 </r>
       <r>   -4.0212    1.0000 </r>
       <r>   -3.8533    1.0000 </r>
       <r>   -3.7485    1.0000 </r>
       <r>   -3.6733    1.0000 </r>
       <r>   -3.6639    1.0000 </r>
       <r>   -3.5999    1.0000 </r>
       <r>   -3.5926    1.0000 </r>
       <r>   -3.5526    1.0000 </r>
       <r>   -3.5360    1.0000 </r>
       <r>   -3.4494    1.0000 </r>
       <r>   -3.3922    1.0000 </r>
       <r>   -3.3637    1.0000 </r>
       <r>   -3.3278    1.0000 </r>
       <r>   -3.2801    1.0000 </r>
       <r>   -3.1409    1.0000 </r>
       <r>   -3.0422    1.0000 </r>
       <r>   -2.9587    1.0000 </r>
       <r>   -2.9273    1.0000 </r>
       <r>   -2.8071    1.0000 </r>
       <r>   -2.7985    1.0000 </r>
       <r>   -2.7022    1.0000 </r>
       <r>   -2.6724    1.0000 </r>
       <r>   -2.5835    1.0000 </r>
       <r>   -2.5261    1.0000 </r>
       <r>   -2.5068    1.0000 </r>
       <r>   -2.4610    1.0000 </r>
       <r>   -2.2676    1.0000 </r>
       <r>   -2.2210    1.0000 </r>
       <r>   -2.1631    1.0000 </r>
       <r>   -2.1184    1.0000 </r>
       <r>   -2.0078    1.0000 </r>
       <r>   -1.9274    1.0000 </r>
       <r>   -1.9080    1.0000 </r>
       <r>   -1.6925    1.0000 </r>
       <r>   -1.6879    1.0000 </r>
       <r>   -1.6289    1.0000 </r>
       <r>   -1.5411    1.0000 </r>
       <r>   -1.4612    1.0000 </r>
       <r>   -1.4608    1.0000 </r>
       <r>   -1.3589    1.0000 </r>
       <r>   -1.2962    1.0000 </r>
       <r>   -1.2065    1.0000 </r>
       <r>   -1.1803    1.0000 </r>
       <r>   -1.0793    1.0000 </r>
       <r>   -1.0453    1.0000 </r>
       <r>   -0.9737    1.0000 </r>
       <r>   -0.9636    1.0000 </r>
       <r>   -0.9527    1.0000 </r>
       <r>   -0.8709    1.0000 </r>
       <r>   -0.8148    1.0000 </r>
       <r>   -0.7464    1.0000 </r>
       <r>   -0.6993    1.0000 </r>
       <r>   -0.6865    1.0000 </r>
       <r>   -0.6208    1.0000 </r>
       <r>   -0.5103    1.0000 </r>
       <r>   -0.4111    1.0000 </r>
       <r>   -0.3625    1.0000 </r>
       <r>   -0.3134    1.0000 </r>
       <r>   -0.2607    1.0000 </r>
       <r>   -0.2473    1.0000 </r>
       <r>   -0.2077    1.0000 </r>
       <r>   -0.0874    1.0000 </r>
       <r>   -0.0377    1.0000 </r>
       <r>    0.0264    1.0000 </r>
       <r>    0.0443    1.0000 </r>
       <r>    0.0939    1.0000 </r>
       <r>    0.1747    1.0000 </r>
       <r>    0.2941    1.0000 </r>
       <r>    0.3250    1.0000 </r>
       <r>    0.3435    1.0000 </r>
       <r>    0.3529    1.0000 </r>
       <r>    0.3932    1.0000 </r>
       <r>    0.4767    1.0000 </r>
       <r>    0.5257    1.0000 </r>
       <r>    0.5871    1.0000 </r>
       <r>    0.6343    1.0000 </r>
       <r>    0.6795    1.0000 </r>
       <r>    0.7200    1.0000 </r>
       <r>    0.7402    1.0000 </r>
       <r>    0.8185    1.0000 </r>
       <r>    0.8532    1.0000 </r>
       <r>    0.8863    1.0000 </r>
       <r>    0.9518    1.0000 </r>
       <r>    0.9657    1.0000 </r>
       <r>    0.9759    1.0000 </r>
       <r>    1.0630    1.0000 </r>
       <r>    1.0849    1.0000 </r>
       <r>    1.1849    1.0000 </r>
       <r>    1.2838    1.0000 </r>
       <r>    1.3661    1.0000 </r>
       <r>    1.3928    1.0000 </r>
       <r>    1.4203    1.0000 </r>
       <r>    1.5078    1.0000 </r>
       <r>    1.5489    1.0000 </r>
       <r>    1.6204    1.0000 </r>
       <r>    1.6795    1.0000 </r>
       <r>    1.7792    1.0000 </r>
       <r>    1.8178    1.0000 </r>
       <r>    1.8795    1.0000 </r>
       <r>    1.9529    1.0000 </r>
       <r>    2.0062    1.0000 </r>
       <r>    2.0467    1.0000 </r>
       <r>    2.0734    1.0000 </r>
       <r>    2.1337    1.0000 </r>
       <r>    2.1444    1.0000 </r>
       <r>    2.1935    1.0000 </r>
       <r>    2.2328    1.0000 </r>
       <r>    2.2610    1.0000 </r>
       <r>    2.2860    1.0000 </r>
       <r>    2.3252    1.0000 </r>
       <r>    2.3579    1.0000 </r>
       <r>    2.4300    1.0000 </r>
       <r>    2.5185    1.0000 </r>
       <r>    2.5814    1.0000 </r>
       <r>    2.6131    1.0000 </r>
       <r>    2.6908    1.0000 </r>
       <r>    2.7344    1.0000 </r>
       <r>    2.8106    1.0000 </r>
       <r>    2.8141    1.0000 </r>
       <r>    2.8980    1.0000 </r>
       <r>    2.9215    1.0000 </r>
       <r>    2.9455    1.0000 </r>
       <r>    2.9685    1.0000 </r>
       <r>    3.0597    1.0000 </r>
       <r>    3.0905    1.0000 </r>
       <r>    3.1121    1.0000 </r>
       <r>    3.1327    1.0000 </r>
       <r>    3.3283    1.0000 </r>
       <r>    3.3388    1.0000 </r>
       <r>    3.3642    1.0000 </r>
       <r>    3.3674    1.0000 </r>
       <r>    3.4282    1.0000 </r>
       <r>    3.4452    1.0000 </r>
       <r>    3.5199    1.0000 </r>
       <r>    3.5277    1.0000 </r>
       <r>    3.5960    1.0000 </r>
       <r>    3.6888    1.0000 </r>
       <r>    3.7416    1.0000 </r>
       <r>    3.7788    1.0000 </r>
       <r>    3.7806    1.0000 </r>
       <r>    3.8748    1.0000 </r>
       <r>    3.9349    1.0000 </r>
       <r>    3.9475    1.0000 </r>
       <r>    4.0062    1.0000 </r>
       <r>    4.0713    1.0000 </r>
       <r>    4.0944    1.0000 </r>
       <r>    4.1142    1.0000 </r>
       <r>    4.2381    1.0000 </r>
       <r>    4.2765    1.0000 </r>
       <r>    4.3967    1.0000 </r>
       <r>    4.4289    1.0000 </r>
       <r>    4.4748    1.0000 </r>
       <r>    4.5414    1.0000 </r>
       <r>    4.5425    1.0000 </r>
       <r>    4.5973    1.0000 </r>
       <r>    4.6311    1.0000 </r>
       <r>    4.6433    1.0000 </r>
       <r>    4.8022    1.0000 </r>
       <r>    4.8471    1.0000 </r>
       <r>    4.8649    1.0000 </r>
       <r>    4.9099    1.0000 </r>
       <r>    4.9714    1.0000 </r>
       <r>    4.9830    1.0000 </r>
       <r>    5.0597    1.0000 </r>
       <r>    5.0860    1.0000 </r>
       <r>    5.1093    1.0000 </r>
       <r>    5.1210    1.0000 </r>
       <r>    5.1259    1.0000 </r>
       <r>    5.2047    1.0000 </r>
       <r>    5.2408    1.0000 </r>
       <r>    5.2888    1.0000 </r>
       <r>    5.3540    0.9999 </r>
       <r>    5.3827    0.3886 </r>
       <r>    5.4276    0.0000 </r>
       <r>    5.4576    0.0000 </r>
       <r>    5.5565    0.0000 </r>
       <r>    5.6223    0.0000 </r>
       <r>    5.6536    0.0000 </r>
       <r>    5.6816    0.0000 </r>
       <r>    5.6856    0.0000 </r>
       <r>    5.6882    0.0000 </r>
       <r>    5.7817    0.0000 </r>
       <r>    5.8179    0.0000 </r>
       <r>    5.8541    0.0000 </r>
       <r>    5.8894    0.0000 </r>
       <r>    5.9740    0.0000 </r>
       <r>    6.0093    0.0000 </r>
       <r>    6.0243    0.0000 </r>
       <r>    6.1508    0.0000 </r>
       <r>    6.1701    0.0000 </r>
       <r>    6.2986    0.0000 </r>
       <r>    6.3092    0.0000 </r>
       <r>    6.3821    0.0000 </r>
       <r>    6.3887    0.0000 </r>
       <r>    6.4143    0.0000 </r>
       <r>    6.4823    0.0000 </r>
       <r>    6.5493    0.0000 </r>
       <r>    6.6391    0.0000 </r>
       <r>    6.6602    0.0000 </r>
       <r>    6.7271    0.0000 </r>
       <r>    6.7594    0.0000 </r>
       <r>    6.8132    0.0000 </r>
       <r>    6.8779    0.0000 </r>
       <r>    6.8793    0.0000 </r>
       <r>    7.0128    0.0000 </r>
       <r>    7.0174    0.0000 </r>
       <r>    7.1157    0.0000 </r>
       <r>    7.1474    0.0000 </r>
       <r>    7.1967    0.0000 </r>
       <r>    7.2600    0.0000 </r>
       <r>    7.2617    0.0000 </r>
       <r>    7.3622    0.0000 </r>
       <r>    7.4259    0.0000 </r>
       <r>    7.4478    0.0000 </r>
       <r>    7.4498    0.0000 </r>
       <r>    7.6055    0.0000 </r>
       <r>    7.6093    0.0000 </r>
       <r>    7.7048    0.0000 </r>
       <r>    7.7646    0.0000 </r>
      </set>
      <set comment="kpoint 2">
       <r>  -13.1705    1.0000 </r>
       <r>  -12.9890    1.0000 </r>
       <r>  -12.8375    1.0000 </r>
       <r>  -12.7173    1.0000 </r>
       <r>  -12.4974    1.0000 </r>
       <r>  -12.3114    1.0000 </r>
       <r>  -12.1193    1.0000 </r>
       <r>  -11.9784    1.0000 </r>
       <r>  -11.8833    1.0000 </r>
       <r>  -11.7479    1.0000 </r>
       <r>  -11.6435    1.0000 </r>
       <r>  -11.3277    1.0000 </r>
       <r>  -11.2553    1.0000 </r>
       <r>  -11.1911    1.0000 </r>
       <r>  -10.6390    1.0000 </r>
       <r>  -10.5994    1.0000 </r>
       <r>  -10.3836    1.0000 </r>
       <r>  -10.2301    1.0000 </r>
       <r>  -10.0745    1.0000 </r>
       <r>   -9.9226    1.0000 </r>
       <r>   -9.8209    1.0000 </r>
       <r>   -9.5537    1.0000 </r>
       <r>   -9.4250    1.0000 </r>
       <r>   -9.3725    1.0000 </r>
       <r>   -9.1732    1.0000 </r>
       <r>   -9.1589    1.0000 </r>
       <r>   -9.0093    1.0000 </r>
       <r>   -8.8183    1.0000 </r>
       <r>   -8.7838    1.0000 </r>
       <r>   -8.7055    1.0000 </r>
       <r>   -8.5747    1.0000 </r>
       <r>   -8.4022    1.0000 </r>
       <r>   -8.3982    1.0000 </r>
       <r>   -8.0417    1.0000 </r>
       <r>   -8.0020    1.0000 </r>
       <r>   -7.8557    1.0000 </r>
       <r>   -7.7341    1.0000 </r>
       <r>   -7.6753    1.0000 </r>
       <r>   -7.5926    1.0000 </r>
       <r>   -7.3508    1.0000 </r>
       <r>   -7.2342    1.0000 </r>
       <r>   -6.9020    1.0000 </r>
       <r>   -6.7493    1.0000 </r>
       <r>   -6.5368    1.0000 </r>
       <r>   -6.3829    1.0000 </r>
       <r>   -6.3592    1.0000 </r>
       <r>   -6.0557    1.0000 </r>
       <r>   -6.0448    1.0000 </r>
       <r>   -5.8802    1.0000 </r>
       <r>   -5.7525    1.0000 </r>
       <r>   -5.6308    1.0000 </r>
       <r>   -5.4438    1.0000 </r>
       <r>   -5.3624    1.0000 </r>
       <r>   -5.2742    1.0000 </r>
       <r>   -5.2630    1.0000 </r>
       <r>   -5.1314    1.0000 </r>
       <r>   -5.0984    1.0000 </r>
       <r>   -5.0417    1.0000 </r>
       <r>   -4.9127    1.0000 </r>
       <r>   -4.8194    1.0000 </r>
       <r>   -4.8164    1.0000 </r>
       <r>   -4.6464    1.0000 </r>
       <r>   -4.6087    1.0000 </r>
       <r>   -4.5160    1.0000 </r>
       <r>   -4.5011    1.0000 </r>
       <r>   -4.3980    1.0000 </r>
       <r>   -4.3689    1.0000 </r>
       <r>   -4.1983    1.0000 </r>
       <r>   -4.1664    1.0000 </r>
       <r>   -4.0061    1.0000 </r>
       <r>   -4.0043    1.0000 </r>
       <r>   -3.9169    1.0000 </r>
       <r>   -3.8313    1.0000 </r>
       <r>   -3.7774    1.0000 </r>
       <r>   -3.6625    1.0000 </r>
       <r>   -3.6446    1.0000 </r>
       <r>   -3.5306    1.0000 </r>
       <r>   -3.4760    1.0000 </r>
       <r>   -3.4584    1.0000 </r>
       <r>   -3.3776    1.0000 </r>
       <r>   -3.3755    1.0000 </r>
       <r>   -3.2410    1.0000 </r>
       <r>   -3.2035    1.0000 </r>
       <r>   -3.0815    1.0000 </r>
       <r>   -3.0003    1.0000 </r>
       <r>   -2.9949    1.0000 </r>
       <r>   -2.9140    1.0000 </r>
       <r>   -2.8995    1.0000 </r>
       <r>   -2.7503    1.0000 </r>
       <r>   -2.6913    1.0000 </r>
       <r>   -2.6573    1.0000 </r>
       <r>   -2.6096    1.0000 </r>
       <r>   -2.5842    1.0000 </r>
       <r>   -2.3934    1.0000 </r>
       <r>   -2.3638    1.0000 </r>
       <r>   -2.1556    1.0000 </r>
       <r>   -2.1161    1.0000 </r>
       <r>   -2.0001    1.0000 </r>
       <r>   -1.9934    1.0000 </r>
       <r>   -1.9178    1.0000 </r>
       <r>   -1.8504    1.0000 </r>
       <r>   -1.8036    1.0000 </r>
       <r>   -1.7811    1.0000 </r>
       <r>   -1.7165    1.0000 </r>
       <r>   -1.5956    1.0000 </r>
       <r>   -1.5374    1.0000 </r>
       <r>   -1.4987    1.0000 </r>
       <r>   -1.4355    1.0000 </r>
       <r>   -1.3669    1.0000 </r>
       <r>   -1.3445    1.0000 </r>
       <r>   -1.2899    1.0000 </r>
       <r>   -1.1859    1.0000 </r>
       <r>   -1.1164    1.0000 </r>
       <r>   -1.1100    1.0000 </r>
       <r>   -1.0333    1.0000 </r>
       <r>   -1.0061    1.0000 </r>
       <r>   -0.8787    1.0000 </r>
       <r>   -0.8763    1.0000 </r>
       <r>   -0.8279    1.0000 </r>
       <r>   -0.8074    1.0000 </r>
       <r>   -0.7219    1.0000 </r>
       <r>   -0.6722    1.0000 </r>
       <r>   -0.5771    1.0000 </r>
       <r>   -0.5390    1.0000 </r>
       <r>   -0.4413    1.0000 </r>
       <r>   -0.4010    1.0000 </r>
       <r>   -0.3481    1.0000 </r>
       <r>   -0.2661    1.0000 </r>
       <r>   -0.2252    1.0000 </r>
       <r>   -0.1927    1.0000 </r>
       <r>   -0.1039    1.0000 </r>
       <r>   -0.0708    1.0000 </r>
       <r>    0.0214    1.0000 </r>
       <r>    0.0490    1.0000 </r>
       <r>    0.0943    1.0000 </r>
       <r>    0.1093    1.0000 </r>
       <r>    0.1846    1.0000 </r>
       <r>    0.2078    1.0000 </r>
       <r>    0.2339    1.0000 </r>
       <r>    0.3223    1.0000 </r>
       <r>    0.4640    1.0000 </r>
       <r>    0.4958    1.0000 </r>
       <r>    0.5360    1.0000 </r>
       <r>    0.5720    1.0000 </r>
       <r>    0.5904    1.0000 </r>
       <r>    0.6677    1.0000 </r>
       <r>    0.7067    1.0000 </r>
       <r>    0.7355    1.0000 </r>
       <r>    0.8460    1.0000 </r>
       <r>    0.8509    1.0000 </r>
       <r>    0.9311    1.0000 </r>
       <r>    0.9341    1.0000 </r>
       <r>    1.0926    1.0000 </r>
       <r>    1.1034    1.0000 </r>
       <r>    1.1430    1.0000 </r>
       <r>    1.1608    1.0000 </r>
       <r>    1.2653    1.0000 </r>
       <r>    1.3199    1.0000 </r>
       <r>    1.3713    1.0000 </r>
       <r>    1.3791    1.0000 </r>
       <r>    1.4441    1.0000 </r>
       <r>    1.4537    1.0000 </r>
       <r>    1.5884    1.0000 </r>
       <r>    1.5972    1.0000 </r>
       <r>    1.6898    1.0000 </r>
       <r>    1.7044    1.0000 </r>
       <r>    1.7290    1.0000 </r>
       <r>    1.8632    1.0000 </r>
       <r>    1.8682    1.0000 </r>
       <r>    1.9377    1.0000 </r>
       <r>    1.9798    1.0000 </r>
       <r>    2.0253    1.0000 </r>
       <r>    2.0760    1.0000 </r>
       <r>    2.1099    1.0000 </r>
       <r>    2.1898    1.0000 </r>
       <r>    2.2054    1.0000 </r>
       <r>    2.2849    1.0000 </r>
       <r>    2.3158    1.0000 </r>
       <r>    2.3909    1.0000 </r>
       <r>    2.4140    1.0000 </r>
       <r>    2.4567    1.0000 </r>
       <r>    2.5666    1.0000 </r>
       <r>    2.5985    1.0000 </r>
       <r>    2.6180    1.0000 </r>
[...]
       <r>    -9.4595    14.9941    45.2001 </r>
       <r>    -9.3814    11.2958    46.0823 </r>
       <r>    -9.3033    16.1175    47.4026 </r>
       <r>    -9.2251    18.2509    48.8525 </r>
       <r>    -9.1470    16.0915    50.1113 </r>
       <r>    -9.0689     8.2306    50.9219 </r>
       <r>    -8.9908    23.6007    52.7679 </r>
       <r>    -8.9127    26.5813    54.8628 </r>
       <r>    -8.8346     1.6402    55.0170 </r>
       <r>    -8.7565    27.8826    57.2368 </r>
       <r>    -8.6784    25.9298    59.3051 </r>
       <r>    -8.6003     6.0548    59.7846 </r>
       <r>    -8.5222    22.8869    61.5722 </r>
       <r>    -8.4441     8.2540    62.2222 </r>
       <r>    -8.3660    15.5137    63.4340 </r>
       <r>    -8.2879    13.4641    64.5096 </r>
       <r>    -8.2097    12.7962    65.5783 </r>
       <r>    -8.1316    11.0595    66.4421 </r>
       <r>    -8.0535    10.6624    67.2775 </r>
       <r>    -7.9754    22.5903    69.0623 </r>
       <r>    -7.8973    11.4208    69.9628 </r>
       <r>    -7.8192    16.4153    71.2827 </r>
       <r>    -7.7411    23.9941    73.3103 </r>
       <r>    -7.6630    16.5507    74.7052 </r>
       <r>    -7.5849    19.7835    76.2505 </r>
       <r>    -7.5068    11.1776    77.2545 </r>
       <r>    -7.4287    19.9301    78.8869 </r>
       <r>    -7.3506    13.4656    79.9407 </r>
       <r>    -7.2725     4.9790    80.4444 </r>
       <r>    -7.1944    10.8444    81.2915 </r>
       <r>    -7.1162     9.8004    82.0570 </r>
       <r>    -7.0381    10.6397    82.8880 </r>
       <r>    -6.9600     0.0373    82.8918 </r>
       <r>    -6.8819     8.5190    83.5572 </r>
       <r>    -6.8038     9.8109    84.3362 </r>
       <r>    -6.7257    10.2536    85.1532 </r>
       <r>    -6.6476     9.6581    85.9424 </r>
       <r>    -6.5695    10.2251    86.7526 </r>
       <r>    -6.4914    23.2496    88.5850 </r>
       <r>    -6.4133    12.7576    89.6661 </r>
       <r>    -6.3352    13.2060    90.7090 </r>
       <r>    -6.2571    12.1829    91.6620 </r>
       <r>    -6.1790    11.4033    92.5624 </r>
       <r>    -6.1008     1.9535    92.7150 </r>
       <r>    -6.0227    23.4561    94.5471 </r>
       <r>    -5.9446     8.5935    95.2334 </r>
       <r>    -5.8665    16.9022    96.5854 </r>
       <r>    -5.7884    11.7877    97.5342 </r>
       <r>    -5.7103    17.4682    98.9024 </r>
       <r>    -5.6322    23.1402   100.7323 </r>
       <r>    -5.5541    10.6202   101.6147 </r>
       <r>    -5.4760    15.1079   102.8491 </r>
       <r>    -5.3979    22.8844   104.7484 </r>
       <r>    -5.3198    26.3185   106.8540 </r>
       <r>    -5.2417    14.8526   108.1477 </r>
       <r>    -5.1636    13.4754   109.2280 </r>
       <r>    -5.0854    24.6062   111.1941 </r>
       <r>    -5.0073    27.8965   113.4827 </r>
       <r>    -4.9292    31.8477   115.9818 </r>
       <r>    -4.8511    22.1851   117.7706 </r>
       <r>    -4.7730    34.5002   120.5145 </r>
       <r>    -4.6949    27.3006   122.7161 </r>
       <r>    -4.6168    21.7490   124.4877 </r>
       <r>    -4.5387    30.8645   126.9819 </r>
       <r>    -4.4606    20.2401   128.6049 </r>
       <r>    -4.3825    27.4748   130.7666 </r>
       <r>    -4.3044    29.3304   133.0988 </r>
       <r>    -4.2263    25.5078   135.1361 </r>
       <r>    -4.1482    24.9310   137.1363 </r>
       <r>    -4.0701    19.3348   138.6814 </r>
       <r>    -3.9919    28.2369   141.0013 </r>
       <r>    -3.9138    22.6462   142.8343 </r>
       <r>    -3.8357    20.1542   144.4322 </r>
       <r>    -3.7576    37.4317   147.4410 </r>
       <r>    -3.6795    22.1725   149.2509 </r>
       <r>    -3.6014    27.8477   151.4949 </r>
       <r>    -3.5233    33.9172   154.2533 </r>
       <r>    -3.4452    31.5044   156.8530 </r>
       <r>    -3.3671    36.6609   159.8161 </r>
       <r>    -3.2890    19.4598   161.4176 </r>
       <r>    -3.2109    25.5333   163.4163 </r>
       <r>    -3.1328    23.5448   165.3820 </r>
       <r>    -3.0547    24.2362   167.3017 </r>
       <r>    -2.9765    19.0687   168.8311 </r>
       <r>    -2.8984    32.8728   171.4869 </r>
       <r>    -2.8203    20.5193   173.2312 </r>
       <r>    -2.7422    25.4068   175.3243 </r>
       <r>    -2.6641    29.9689   177.6664 </r>
       <r>    -2.5860    28.9314   180.0188 </r>
       <r>    -2.5079    28.8933   182.3305 </r>
       <r>    -2.4298    24.0488   184.2527 </r>
       <r>    -2.3517    22.2697   186.0607 </r>
       <r>    -2.2736    30.4575   188.5572 </r>
       <r>    -2.1955    22.5917   190.3608 </r>
       <r>    -2.1174    29.4965   192.7413 </r>
       <r>    -2.0393    27.4175   194.9226 </r>
       <r>    -1.9612    31.8123   197.4304 </r>
       <r>    -1.8830    32.6443   200.0442 </r>
       <r>    -1.8049    30.2173   202.4698 </r>
       <r>    -1.7268    28.6642   204.7437 </r>
       <r>    -1.6487    30.6481   207.2363 </r>
       <r>    -1.5706    37.4956   210.2112 </r>
       <r>    -1.4925    41.7659   213.5011 </r>
       <r>    -1.4144    29.7478   215.9242 </r>
       <r>    -1.3363    28.4717   218.2571 </r>
       <r>    -1.2582    35.8811   221.1006 </r>
       <r>    -1.1801    37.0709   224.0927 </r>
       <r>    -1.1020    32.8148   226.7388 </r>
       <r>    -1.0239    29.4956   229.1313 </r>
       <r>    -0.9458    36.8574   232.1195 </r>
       <r>    -0.8676    35.6720   234.9978 </r>
       <r>    -0.7895    31.5545   237.5470 </r>
       <r>    -0.7114    32.4647   240.1286 </r>
       <r>    -0.6333    37.5324   243.0637 </r>
       <r>    -0.5552    38.4242   246.1457 </r>
       <r>    -0.4771    30.2236   248.6452 </r>
       <r>    -0.3990    35.4527   251.4268 </r>
       <r>    -0.3209    32.5985   254.0360 </r>
       <r>    -0.2428    36.5382   256.9903 </r>
       <r>    -0.1647    37.3122   259.9631 </r>
       <r>    -0.0866    31.6987   262.5377 </r>
       <r>    -0.0085    38.5958   265.5870 </r>
       <r>     0.0696    35.8739   268.4845 </r>
       <r>     0.1478    31.8415   271.0129 </r>
       <r>     0.2259    35.7704   273.9464 </r>
       <r>     0.3040    30.2614   276.4426 </r>
       <r>     0.3821    34.3707   279.1392 </r>
       <r>     0.4602    35.5779   281.9526 </r>
       <r>     0.5383    45.0370   285.5400 </r>
       <r>     0.6164    37.5819   288.5920 </r>
       <r>     0.6945    39.3390   291.7695 </r>
       <r>     0.7726    48.1828   295.5967 </r>
       <r>     0.8507    40.7725   298.8235 </r>
       <r>     0.9288    32.0700   301.4092 </r>
       <r>     1.0069    46.9861   305.1244 </r>
       <r>     1.0850    34.8941   307.9521 </r>
       <r>     1.1631    35.3042   310.7707 </r>
       <r>     1.2413    36.8348   313.7087 </r>
       <r>     1.3194    43.2550   317.0977 </r>
       <r>     1.3975    44.9576   320.6400 </r>
       <r>     1.4756    42.1792   323.9706 </r>
       <r>     1.5537    30.7967   326.4687 </r>
       <r>     1.6318    38.8263   329.5796 </r>
       <r>     1.7099    44.2544   333.0858 </r>
       <r>     1.7880    38.0418   336.1059 </r>
       <r>     1.8661    29.6658   338.5372 </r>
       <r>     1.9442    34.6662   341.3118 </r>
       <r>     2.0223    32.1422   343.9434 </r>
       <r>     2.1004    37.2294   346.9679 </r>
       <r>     2.1785    34.7177   349.7475 </r>
       <r>     2.2567    48.5257   353.6494 </r>
       <r>     2.3348    41.5203   356.8992 </r>
       <r>     2.4129    49.7559   360.8156 </r>
       <r>     2.4910    33.1034   363.4794 </r>
       <r>     2.5691    41.2819   366.7201 </r>
       <r>     2.6472    39.6029   369.9021 </r>
       <r>     2.7253    37.6140   372.8804 </r>
       <r>     2.8034    35.5436   375.7606 </r>
       <r>     2.8815    44.4010   379.2487 </r>
       <r>     2.9596    36.1230   382.1009 </r>
       <r>     3.0377    44.7017   385.6596 </r>
       <r>     3.1158    37.0161   388.6672 </r>
       <r>     3.1939    41.5276   392.0108 </r>
       <r>     3.2720    32.9884   394.6709 </r>
       <r>     3.3502    38.8703   397.7335 </r>
       <r>     3.4283    46.3418   401.4513 </r>
       <r>     3.5064    38.1252   404.5065 </r>
       <r>     3.5845    46.0006   408.1418 </r>
       <r>     3.6626    42.1632   411.4622 </r>
       <r>     3.7407    41.5040   414.9032 </r>
       <r>     3.8188    43.8321   418.3583 </r>
       <r>     3.8969    40.1369   421.5925 </r>
       <r>     3.9750    38.2891   424.6452 </r>
       <r>     4.0531    39.6838   427.7750 </r>
       <r>     4.1312    35.2976   430.5901 </r>
       <r>     4.2093    31.3601   433.1252 </r>
       <r>     4.2874    45.0022   436.6894 </r>
       <r>     4.3656    31.7796   439.2283 </r>
       <r>     4.4437    33.3998   441.9685 </r>
       <r>     4.5218    46.0641   445.6058 </r>
       <r>     4.5999    27.9243   447.8871 </r>
       <r>     4.6780    47.1575   451.6808 </r>
       <r>     4.7561    34.0349   454.3936 </r>
       <r>     4.8342    37.0758   457.3555 </r>
       <r>     4.9123    38.5567   460.5012 </r>
       <r>     4.9904    36.0154   463.4118 </r>
       <r>     5.0685    43.8903   466.8520 </r>
       <r>     5.1466    46.1298   470.4994 </r>
       <r>     5.2247    40.6664   473.8090 </r>
       <r>     5.3028    39.3416   476.9578 </r>
       <r>     5.3810    41.3102   480.2601 </r>
       <r>     5.4591    34.4442   483.0566 </r>
       <r>     5.5372    35.3685   485.9915 </r>
       <r>     5.6153    47.8422   489.8071 </r>
       <r>     5.6934    38.8464   493.0036 </r>
       <r>     5.7715    32.8481   495.6843 </r>
       <r>     5.8496    39.7142   498.8565 </r>
       <r>     5.9277    36.5396   501.8310 </r>
       <r>     6.0058    40.4626   505.1268 </r>
       <r>     6.0839    38.6594   508.1817 </r>
       <r>     6.1620    30.2049   510.5993 </r>
       <r>     6.2401    33.9584   513.3478 </r>
       <r>     6.3182    34.1607   516.0951 </r>
       <r>     6.3963    39.9259   519.2625 </r>
       <r>     6.4745    36.0240   522.1101 </r>
       <r>     6.5526    39.8121   525.2669 </r>
       <r>     6.6307    41.2749   528.5478 </r>
       <r>     6.7088    32.7476   531.2789 </r>
       <r>     6.7869    34.9803   534.1434 </r>
       <r>     6.8650    43.1723   537.5829 </r>
       <r>     6.9431    28.5580   539.8979 </r>
       <r>     7.0212    39.5436   543.0403 </r>
       <r>     7.0993    36.8440   546.0015 </r>
       <r>     7.1774    41.2223   549.2393 </r>
       <r>     7.2555    43.7745   552.7647 </r>
       <r>     7.3336    38.4830   555.9664 </r>
       <r>     7.4117    36.0759   558.8359 </r>
       <r>     7.4899    40.2339   562.0088 </r>
       <r>     7.5680    34.3154   564.7645 </r>
       <r>     7.6461    40.4569   568.0103 </r>
       <r>     7.7242    28.5173   570.3543 </r>
       <r>     7.8023    28.9236   572.6662 </r>
       <r>     7.8804    21.3563   574.3396 </r>
       <r>     7.9585    14.3102   575.4763 </r>
       <r>     8.0366     4.3332   575.8385 </r>
       <r>     8.1147     2.0682   576.0000 </r>
       <r>     8.1928     0.0000   576.0000 </r>
       <r>     8.2709     0.0000   576.0000 </r>
       <r>     8.3490     0.0000   576.0000 </r>
       <r>     8.4271     0.0000   576.0000 </r>
       <r>     8.5052     0.0000   576.0000 </r>
       <r>     8.5834     0.0000   576.0000 </r>
       <r>     8.6615     0.0000   576.0000 </r>
       <r>     8.7396     0.0000   576.0000 </r>
       <r>     8.8177     0.0000   576.0000 </r>
       <r>     8.8958     0.0000   576.0000 </r>
       <r>     8.9739     0.0000   576.0000 </r>
       <r>     9.0520     0.0000   576.0000 </r>
       <r>     9.1301     0.0000   576.0000 </r>
      </set>
     </set>
    </array>
   </total>
  </dos>
 </calculation>
 <structure name="finalpos" >
  <crystal>
   <varray name="basis" >
    <v>      16.29300118       0.00000000       0.00000000 </v>
    <v>     -10.86200046      12.14408588       0.00000000 </v>
    <v>       0.00000000       0.00000000       7.20412874 </v>
   </varray>
   <i name="volume">   1425.43488794 </i>
   <varray name="rec_basis" >
    <v>       0.06137605       0.05489640       0.00000000 </v>
    <v>       0.00000000       0.08234461       0.00000000 </v>
    <v>       0.00000000       0.00000000       0.13880929 </v>
   </varray>
  </crystal>
  <varray name="positions" >
   <v>       0.97435850       0.98290563       0.00000000 </v>
   <v>       0.67435843       0.78290558       0.16857123 </v>
   <v>       0.37435842       0.58290553       0.33714247 </v>
   <v>       0.30769178       0.98290563       0.00000000 </v>
   <v>       0.00769173       0.78290558       0.16857123 </v>
   <v>       0.70769167       0.58290553       0.33714247 </v>
   <v>       0.64102507       0.98290563       0.00000000 </v>
   <v>       0.34102503       0.78290558       0.16857123 </v>
   <v>       0.04102499       0.58290553       0.33714247 </v>
   <v>       0.15769197       0.63290560       0.08428545 </v>
   <v>       0.85769194       0.43290553       0.25285670 </v>
   <v>       0.55769193       0.23290551       0.42142793 </v>
   <v>       0.49102521       0.63290560       0.08428545 </v>
   <v>       0.19102515       0.43290553       0.25285670 </v>
   <v>       0.89102519       0.23290551       0.42142793 </v>
   <v>       0.82435846       0.63290560       0.08428545 </v>
   <v>       0.52435839       0.43290553       0.25285670 </v>
   <v>       0.22435850       0.23290551       0.42142793 </v>
   <v>       0.14102516       0.48290560       0.00000000 </v>
   <v>       0.84102511       0.28290549       0.16857123 </v>
   <v>       0.54102510       0.08290543       0.33714247 </v>
   <v>       0.47435844       0.48290560       0.00000000 </v>
   <v>       0.17435838       0.28290549       0.16857123 </v>
   <v>       0.87435836       0.08290543       0.33714247 </v>
   <v>       0.80769169       0.48290560       0.00000000 </v>
   <v>       0.50769168       0.28290549       0.16857123 </v>
   <v>       0.20769163       0.08290543       0.33714247 </v>
   <v>       0.99102521       0.13290566       0.08428546 </v>
   <v>       0.69102514       0.93290561       0.25285670 </v>
   <v>       0.39102519       0.73290557       0.42142793 </v>
   <v>       0.32435846       0.13290566       0.08428546 </v>
   <v>       0.02435841       0.93290561       0.25285670 </v>
   <v>       0.72435844       0.73290557       0.42142793 </v>
   <v>       0.65769166       0.13290566       0.08428546 </v>
   <v>       0.35769162       0.93290561       0.25285670 </v>
   <v>       0.05769165       0.73290557       0.42142793 </v>
   <v>       0.24703699       0.93535221       0.57232785 </v>
   <v>       0.48989421       0.90678072       0.68303675 </v>
   <v>       0.73275143       0.87820923       0.79374564 </v>
   <v>       0.53275126       0.07820940       0.57232785 </v>
   <v>       0.77560848       0.04963779       0.68303675 </v>
   <v>       0.01846576       0.02106643       0.79374564 </v>
   <v>       0.81846547       0.22106648       0.57232785 </v>
   <v>       0.06132281       0.19249499       0.68303675 </v>
   <v>       0.30418003       0.16392350       0.79374564 </v>
   <v>       0.10417986       0.36392367       0.57232785 </v>
   <v>       0.34703708       0.33535218       0.68303675 </v>
   <v>       0.58989441       0.30678070       0.79374564 </v>
   <v>       0.38989413       0.50678074       0.57232785 </v>
   <v>       0.63275135       0.47820926       0.68303675 </v>
   <v>       0.87560856       0.44963789       0.79374564 </v>
   <v>       0.67560846       0.64963794       0.57232785 </v>
   <v>       0.91846567       0.62106645       0.68303675 </v>
   <v>       0.16132295       0.59249497       0.79374564 </v>
   <v>       0.96132266       0.79249501       0.57232785 </v>
   <v>       0.20417988       0.76392353       0.68303675 </v>
   <v>       0.44703710       0.73535204       0.79374564 </v>
   <v>       0.08275115       0.02820933       0.62768221 </v>
   <v>       0.32560849       0.99963784       0.73839110 </v>
   <v>       0.56846571       0.97106636       0.84909993 </v>
   <v>       0.36846536       0.17106652       0.62768215 </v>
   <v>       0.61132264       0.14249504       0.73839116 </v>
   <v>       0.85417986       0.11392355       0.84909999 </v>
   <v>       0.65417975       0.31392360       0.62768215 </v>
   <v>       0.89703697       0.28535223       0.73839116 </v>
   <v>       0.13989425       0.25678062       0.84909999 </v>
   <v>       0.93989408       0.45678079       0.62768215 </v>
   <v>       0.18275142       0.42820931       0.73839116 </v>
   <v>       0.42560864       0.39963794       0.84909999 </v>
   <v>       0.22560824       0.59963799       0.62768215 </v>
   <v>       0.46846557       0.57106638       0.73839116 </v>
   <v>       0.71132266       0.54249501       0.84909999 </v>
   <v>       0.51132268       0.74249506       0.62768221 </v>
   <v>       0.75417995       0.71392345       0.73839116 </v>
   <v>       0.99703717       0.68535209       0.84909993 </v>
   <v>       0.79703683       0.88535213       0.62768221 </v>
   <v>       0.03989410       0.85678077       0.73839116 </v>
   <v>       0.28275132       0.82820916       0.84909993 </v>
   <v>       0.88989425       0.00678074       0.57232785 </v>
   <v>       0.13275135       0.97820926       0.68303675 </v>
   <v>       0.37560868       0.94963783       0.79374564 </v>
   <v>       0.17560864       0.14963794       0.57232785 </v>
   <v>       0.41846573       0.12106645       0.68303675 </v>
   <v>       0.66132283       0.09249497       0.79374564 </v>
   <v>       0.46132273       0.29249501       0.57232785 </v>
   <v>       0.70417994       0.26392364       0.68303675 </v>
   <v>       0.94703716       0.23535204       0.79374564 </v>
   <v>       0.74703693       0.43535221       0.57232785 </v>
   <v>       0.98989421       0.40678072       0.68303675 </v>
   <v>       0.23275150       0.37820923       0.79374564 </v>
   <v>       0.03275132       0.57820940       0.57232785 </v>
   <v>       0.27560854       0.54963791       0.68303675 </v>
   <v>       0.51846564       0.52106643       0.79374564 </v>
   <v>       0.31846556       0.72106648       0.57232785 </v>
   <v>       0.56132281       0.69249511       0.68303680 </v>
   <v>       0.80418009       0.66392362       0.79374564 </v>
   <v>       0.60417986       0.86392367       0.57232785 </v>
   <v>       0.84703702       0.83535218       0.68303680 </v>
   <v>       0.08989441       0.80678082       0.79374564 </v>
   <v>       0.43989414       0.95678079       0.62768215 </v>
   <v>       0.68275142       0.92820931       0.73839116 </v>
   <v>       0.92560870       0.89963782       0.84909999 </v>
   <v>       0.72560829       0.09963799       0.62768215 </v>
   <v>       0.96846557       0.07106638       0.73839116 </v>
   <v>       0.21132278       0.04249501       0.84909993 </v>
   <v>       0.01132262       0.24249506       0.62768215 </v>
   <v>       0.25417995       0.21392357       0.73839116 </v>
   <v>       0.49703717       0.18535209       0.84909993 </v>
   <v>       0.29703677       0.38535213       0.62768215 </v>
   <v>       0.53989410       0.35678077       0.73839110 </v>
   <v>       0.78275132       0.32820916       0.84909993 </v>
   <v>       0.58275122       0.52820921       0.62768215 </v>
   <v>       0.82560855       0.49963784       0.73839116 </v>
   <v>       0.06846583       0.47106636       0.84909999 </v>
   <v>       0.86846554       0.67106652       0.62768215 </v>
   <v>       0.11132288       0.64249492       0.73839116 </v>
   <v>       0.35418010       0.61392355       0.84909999 </v>
   <v>       0.15417969       0.81392360       0.62768215 </v>
   <v>       0.39703703       0.78535223       0.73839116 </v>
   <v>       0.63989425       0.75678062       0.84909999 </v>
  </varray>
 </structure>
</modeling>
