Si and Ge interface calculation         
           1
    16.002676    0.000000    0.000000
     0.000000   16.973400    0.000000
     0.000000    0.000000   18.072525
   Ge   Si
   144    72
Direct configuration=     1
   0.98968923  0.98625231  0.00000002
   0.86468923  0.81958562  0.11068373
   0.73968923  0.65291894  0.22136749
   0.61468923  0.48625225  0.33205119
   0.48968929  0.31958556  0.44273487
   0.36468923  0.15291887  0.55341864
   0.98968923  0.31958565  0.00000002
   0.86468923  0.15291895  0.11068373
   0.73968923  0.98625225  0.22136749
   0.61468923  0.81958556  0.33205119
   0.48968929  0.65291894  0.44273487
   0.36468923  0.48625219  0.55341864
   0.98968923  0.65291899  0.00000002
   0.86468923  0.48625231  0.11068373
   0.73968923  0.31958559  0.22136749
   0.61468923  0.15291894  0.33205119
   0.48968929  0.98625225  0.44273487
   0.36468923  0.81958556  0.55341864
   0.48968923  0.98625231  0.00000002
   0.36468923  0.81958562  0.11068375
   0.23968922  0.65291894  0.22136749
   0.11468923  0.48625225  0.33205122
   0.98968923  0.31958556  0.44273490
   0.86468923  0.15291887  0.55341858
   0.48968923  0.31958565  0.00000002
   0.36468923  0.15291895  0.11068375
   0.23968922  0.98625225  0.22136749
   0.11468923  0.81958556  0.33205122
   0.98968923  0.65291894  0.44273490
   0.86468923  0.48625219  0.55341858
   0.48968923  0.65291899  0.00000002
   0.36468923  0.48625231  0.11068375
   0.23968922  0.31958559  0.22136749
   0.11468923  0.15291894  0.33205122
   0.98968923  0.98625225  0.44273490
   0.86468923  0.81958556  0.55341858
   0.23968923  0.98625231  0.00000003
   0.11468923  0.81958562  0.11068375
   0.98968923  0.65291894  0.22136749
   0.86468923  0.48625225  0.33205122
   0.73968923  0.31958556  0.44273490
   0.61468923  0.15291887  0.55341864
   0.23968923  0.31958565  0.00000003
   0.11468923  0.15291895  0.11068375
   0.98968923  0.98625225  0.22136749
   0.86468923  0.81958556  0.33205122
   0.73968923  0.65291894  0.44273490
   0.61468923  0.48625219  0.55341864
   0.23968923  0.65291899  0.00000003
   0.11468923  0.48625231  0.11068375
   0.98968923  0.31958559  0.22136749
   0.86468923  0.15291894  0.33205122
   0.73968923  0.98625225  0.44273490
   0.61468923  0.81958556  0.55341864
   0.73968923  0.98625231  0.00000001
   0.61468923  0.81958562  0.11068375
   0.48968920  0.65291894  0.22136746
   0.36468923  0.48625225  0.33205122
   0.23968925  0.31958556  0.44273490
   0.11468923  0.15291887  0.55341858
   0.73968923  0.31958565  0.00000001
   0.61468923  0.15291895  0.11068375
   0.48968920  0.98625225  0.22136746
   0.36468923  0.81958556  0.33205122
   0.23968925  0.65291894  0.44273490
   0.11468923  0.48625219  0.55341858
   0.73968923  0.65291899  0.00000001
   0.61468923  0.48625231  0.11068375
   0.48968920  0.31958559  0.22136746
   0.36468923  0.15291894  0.33205122
   0.23968925  0.98625225  0.44273490
   0.11468923  0.81958556  0.55341858
   0.36468923  0.23625231  0.00000001
   0.23968923  0.06958562  0.11068373
   0.11468921  0.90291887  0.22136746
   0.98968923  0.73625219  0.33205122
   0.86468923  0.56958556  0.44273490
   0.73968923  0.40291887  0.55341864
   0.36468923  0.56958568  0.00000001
   0.23968923  0.40291899  0.11068373
   0.11468921  0.23625229  0.22136746
   0.98968923  0.06958561  0.33205122
   0.86468923  0.90291894  0.44273490
   0.73968923  0.73625219  0.55341864
   0.36468923  0.90291899  0.00000001
   0.23968923  0.73625231  0.11068373
   0.11468921  0.56958556  0.22136746
   0.98968923  0.40291890  0.33205122
   0.86468923  0.23625226  0.44273490
   0.73968923  0.06958555  0.55341864
   0.86468929  0.23625231  0.00000000
   0.73968929  0.06958562  0.11068373
   0.61468929  0.90291887  0.22136746
   0.48968929  0.73625219  0.33205119
   0.36468929  0.56958556  0.44273487
   0.23968929  0.40291887  0.55341858
   0.86468929  0.56958568  0.00000000
   0.73968929  0.40291899  0.11068373
   0.61468929  0.23625229  0.22136746
   0.48968929  0.06958561  0.33205119
   0.36468929  0.90291894  0.44273487
   0.23968929  0.73625219  0.55341858
   0.86468929  0.90291899  0.00000000
   0.73968929  0.73625231  0.11068373
   0.61468929  0.56958556  0.22136746
   0.48968929  0.40291890  0.33205119
   0.36468929  0.23625226  0.44273487
   0.23968929  0.06958555  0.55341858
   0.11468922  0.23625231  0.00000002
   0.98968923  0.06958562  0.11068375
   0.86468923  0.90291887  0.22136746
   0.73968923  0.73625219  0.33205122
   0.61468923  0.56958556  0.44273490
   0.48968923  0.40291887  0.55341858
   0.11468922  0.56958568  0.00000002
   0.98968923  0.40291899  0.11068375
   0.86468923  0.23625229  0.22136746
   0.73968923  0.06958561  0.33205122
   0.61468923  0.90291894  0.44273490
   0.48968923  0.73625219  0.55341858
   0.11468922  0.90291899  0.00000002
   0.98968923  0.73625231  0.11068375
   0.86468923  0.56958556  0.22136746
   0.73968923  0.40291890  0.33205122
   0.61468923  0.23625226  0.44273490
   0.48968923  0.06958555  0.55341858
   0.61468923  0.23625231  0.00000001
   0.48968923  0.06958562  0.11068375
   0.36468923  0.90291887  0.22136746
   0.23968923  0.73625219  0.33205122
   0.11468925  0.56958556  0.44273487
   0.98968923  0.40291887  0.55341858
   0.61468923  0.56958568  0.00000001
   0.48968923  0.40291899  0.11068375
   0.36468923  0.23625229  0.22136746
   0.23968923  0.06958561  0.33205122
   0.11468925  0.90291894  0.44273487
   0.98968923  0.73625219  0.55341858
   0.61468923  0.90291899  0.00000001
   0.48968923  0.73625231  0.11068375
   0.36468923  0.56958556  0.22136746
   0.23968923  0.40291890  0.33205122
   0.11468925  0.23625226  0.44273487
   0.98968923  0.06958555  0.55341858
   0.97314620  0.06880820  0.89549714
   0.80647969  0.31880748  0.65792173
   0.63981295  0.66880757  0.70543677
   0.47314644  0.01880777  0.75295186
   0.30647957  0.36880803  0.80046701
   0.13981283  0.71880817  0.84798211
   0.30647957  0.06880820  0.89549714
   0.13981307  0.31880748  0.65792173
   0.97314638  0.66880757  0.70543677
   0.80647969  0.01880777  0.75295186
   0.63981295  0.36880803  0.80046701
   0.47314620  0.71880817  0.84798211
   0.63981295  0.06880820  0.89549714
   0.47314644  0.31880748  0.65792173
   0.30647969  0.66880757  0.70543677
   0.13981307  0.01880777  0.75295186
   0.97314626  0.36880803  0.80046701
   0.80647945  0.71880817  0.84798211
   0.05647945  0.81880832  0.89549714
   0.88981307  0.06880760  0.65792167
   0.72314644  0.41880775  0.70543677
   0.55647969  0.76880801  0.75295180
   0.38981295  0.11880815  0.80046695
   0.22314620  0.46880817  0.84798205
   0.38981295  0.81880832  0.89549714
   0.22314644  0.06880760  0.65792167
   0.05647969  0.41880775  0.70543677
   0.88981301  0.76880801  0.75295180
   0.72314620  0.11880815  0.80046695
   0.55647969  0.46880817  0.84798205
   0.72314620  0.81880832  0.89549714
   0.55647969  0.06880760  0.65792167
   0.38981295  0.41880775  0.70543677
   0.22314632  0.76880801  0.75295180
   0.05647957  0.11880815  0.80046695
   0.88981289  0.46880817  0.84798205
   0.97314620  0.56880832  0.89549714
   0.80647969  0.81880754  0.65792167
   0.63981295  0.16880775  0.70543677
   0.47314632  0.51880777  0.75295180
   0.30647957  0.86880803  0.80046701
   0.13981295  0.21880817  0.84798205
   0.30647957  0.56880832  0.89549714
   0.13981307  0.81880754  0.65792167
   0.97314632  0.16880775  0.70543677
   0.80647969  0.51880777  0.75295180
   0.63981295  0.86880803  0.80046701
   0.47314620  0.21880817  0.84798205
   0.63981295  0.56880832  0.89549714
   0.47314644  0.81880754  0.65792167
   0.30647969  0.16880775  0.70543677
   0.13981307  0.51880777  0.75295180
   0.97314626  0.86880803  0.80046701
   0.80647969  0.21880817  0.84798205
   0.05647945  0.31880832  0.89549714
   0.88981307  0.56880748  0.65792173
   0.72314644  0.91880757  0.70543677
   0.55647969  0.26880777  0.75295180
   0.38981295  0.61880803  0.80046695
   0.22314620  0.96880829  0.84798205
   0.38981295  0.31880832  0.89549714
   0.22314644  0.56880748  0.65792173
   0.05647969  0.91880757  0.70543677
   0.88981301  0.26880777  0.75295180
   0.72314620  0.61880803  0.80046695
   0.55647945  0.96880829  0.84798205
   0.72314620  0.31880832  0.89549714
   0.55647969  0.56880748  0.65792173
   0.38981307  0.91880757  0.70543677
   0.22314644  0.26880777  0.75295180
   0.05647957  0.61880803  0.80046695
   0.88981283  0.96880829  0.84798205
