 264 264   0   0
  0.2774202E+02  0.1958175E-08  0.1958175E-08  0.1910025E-08  0.5000000E-15
  1.000000000000000E-004
  CAR 
 Si and Ge interface calculation         
      6.68016057     -8.43933744  301      4.08048859      1.00000000
     -8.439  0.0000E+00  0.0000E+00  0.0000E+00  0.0000E+00
     -8.389  0.0000E+00  0.0000E+00  0.0000E+00  0.0000E+00
     -8.339  0.0000E+00  0.0000E+00  0.0000E+00  0.0000E+00
     -8.288  0.0000E+00  0.0000E+00  0.0000E+00  0.0000E+00
     -8.238  0.0000E+00  0.0000E+00  0.0000E+00  0.0000E+00
     -8.187  0.0000E+00  0.0000E+00  0.0000E+00  0.0000E+00
     -8.137  0.0000E+00  0.0000E+00  0.0000E+00  0.0000E+00
     -8.087  0.0000E+00  0.0000E+00  0.0000E+00  0.0000E+00
     -8.036  0.0000E+00  0.0000E+00  0.0000E+00  0.0000E+00
     -7.986  0.0000E+00  0.0000E+00  0.0000E+00  0.0000E+00
     -7.935  0.0000E+00  0.0000E+00  0.0000E+00  0.0000E+00
     -7.885  0.0000E+00  0.0000E+00  0.0000E+00  0.0000E+00
     -7.835  0.0000E+00  0.0000E+00  0.0000E+00  0.0000E+00
     -7.784  0.2583E-04  0.5564E-05  0.1302E-05  0.2804E-06
     -7.734  0.9870E+01  0.9802E+01  0.4975E+00  0.4940E+00
     -7.683  0.1615E+01  0.8872E+00  0.5788E+00  0.5387E+00
     -7.633  0.3812E+02  0.3892E+02  0.2500E+01  0.2500E+01
     -7.583  0.3141E+02  0.2825E+02  0.4083E+01  0.3924E+01
     -7.532  0.8277E+01  0.1143E+02  0.4500E+01  0.4500E+01
     -7.482  0.7804E-08  0.9001E-09  0.4500E+01  0.4500E+01
     -7.431  0.1864E+02  0.1591E+02  0.5439E+01  0.5302E+01
     -7.381  0.2105E+02  0.2377E+02  0.6500E+01  0.6500E+01
     -7.331  0.7890E+02  0.7835E+02  0.1048E+02  0.1045E+02
     -7.280  0.4672E+00  0.1020E+01  0.1050E+02  0.1050E+02
     -7.230  0.0000E+00  0.0000E+00  0.1050E+02  0.1050E+02
     -7.179  0.1169E-08  0.1788E-09  0.1050E+02  0.1050E+02
     -7.129  0.8177E+01  0.7089E+01  0.1091E+02  0.1086E+02
     -7.079  0.3125E+02  0.3204E+02  0.1249E+02  0.1247E+02
     -7.028  0.3519E+02  0.3330E+02  0.1426E+02  0.1415E+02
     -6.978  0.3354E+02  0.3496E+02  0.1595E+02  0.1591E+02
     -6.927  0.3953E+02  0.3937E+02  0.1794E+02  0.1790E+02
     -6.877  0.1104E+02  0.1194E+02  0.1850E+02  0.1850E+02
     -6.827  0.1661E-01  0.3563E-01  0.1850E+02  0.1850E+02
     -6.776  0.9399E+01  0.8789E+01  0.1897E+02  0.1894E+02
     -6.726  0.5985E+02  0.5648E+02  0.2199E+02  0.2179E+02
     -6.675  0.6469E+02  0.6779E+02  0.2525E+02  0.2521E+02
     -6.625  0.3414E+02  0.3404E+02  0.2697E+02  0.2692E+02
     -6.575  0.6437E+00  0.1580E+01  0.2700E+02  0.2700E+02
     -6.524  0.3943E+02  0.3913E+02  0.2899E+02  0.2897E+02
     -6.474  0.7312E+02  0.6847E+02  0.3268E+02  0.3242E+02
     -6.423  0.9114E+02  0.9102E+02  0.3727E+02  0.3701E+02
     -6.373  0.4772E+02  0.5239E+02  0.3967E+02  0.3965E+02
     -6.323  0.2970E+02  0.2588E+02  0.4117E+02  0.4096E+02
     -6.272  0.7292E+02  0.7218E+02  0.4485E+02  0.4459E+02
     -6.222  0.4785E+02  0.5272E+02  0.4726E+02  0.4725E+02
     -6.171  0.9333E+02  0.8894E+02  0.5196E+02  0.5173E+02
     -6.121  0.5563E+02  0.5919E+02  0.5476E+02  0.5472E+02
     -6.071  0.1757E+02  0.1773E+02  0.5565E+02  0.5561E+02
     -6.020  0.5822E+02  0.5419E+02  0.5858E+02  0.5834E+02
     -5.970  0.8544E+02  0.8535E+02  0.6289E+02  0.6264E+02
     -5.919  0.1239E+03  0.1261E+03  0.6914E+02  0.6900E+02
     -5.869  0.7321E+02  0.7088E+02  0.7283E+02  0.7257E+02
     -5.819  0.1340E+03  0.1332E+03  0.7958E+02  0.7929E+02
     -5.768  0.7612E+02  0.7342E+02  0.8342E+02  0.8299E+02
     -5.718  0.1148E+03  0.1171E+03  0.8920E+02  0.8889E+02
     -5.667  0.5637E+02  0.5997E+02  0.9204E+02  0.9191E+02
     -5.617  0.9040E+02  0.9064E+02  0.9660E+02  0.9648E+02
     -5.567  0.6713E+02  0.6532E+02  0.9998E+02  0.9977E+02
     -5.516  0.1197E+03  0.1162E+03  0.1060E+03  0.1056E+03
     -5.466  0.1134E+03  0.1161E+03  0.1117E+03  0.1115E+03
     -5.415  0.7123E+02  0.7274E+02  0.1153E+03  0.1151E+03
     -5.365  0.1142E+03  0.1107E+03  0.1211E+03  0.1207E+03
     -5.315  0.1107E+03  0.1140E+03  0.1267E+03  0.1265E+03
     -5.264  0.6269E+02  0.6409E+02  0.1298E+03  0.1297E+03
     -5.214  0.8527E+02  0.8586E+02  0.1341E+03  0.1340E+03
     -5.163  0.7789E+02  0.7607E+02  0.1380E+03  0.1379E+03
     -5.113  0.5341E+02  0.5496E+02  0.1407E+03  0.1406E+03
     -5.063  0.9949E+02  0.9622E+02  0.1457E+03  0.1455E+03
     -5.012  0.1008E+03  0.1025E+03  0.1508E+03  0.1506E+03
     -4.962  0.1074E+03  0.1053E+03  0.1562E+03  0.1560E+03
     -4.911  0.1218E+03  0.1258E+03  0.1624E+03  0.1623E+03
     -4.861  0.7269E+02  0.6896E+02  0.1660E+03  0.1658E+03
     -4.811  0.8901E+02  0.8746E+02  0.1705E+03  0.1702E+03
     -4.760  0.8333E+02  0.8696E+02  0.1747E+03  0.1746E+03
     -4.710  0.1042E+03  0.1022E+03  0.1800E+03  0.1797E+03
     -4.659  0.1010E+03  0.1009E+03  0.1851E+03  0.1848E+03
     -4.609  0.1103E+03  0.1119E+03  0.1906E+03  0.1904E+03
     -4.559  0.8139E+02  0.8101E+02  0.1947E+03  0.1945E+03
     -4.508  0.9096E+02  0.8688E+02  0.1993E+03  0.1989E+03
     -4.458  0.1409E+03  0.1414E+03  0.2064E+03  0.2060E+03
     -4.407  0.8155E+02  0.8575E+02  0.2105E+03  0.2103E+03
     -4.357  0.1436E+03  0.1411E+03  0.2178E+03  0.2175E+03
     -4.307  0.6832E+02  0.7048E+02  0.2212E+03  0.2210E+03
     -4.256  0.7926E+02  0.7689E+02  0.2252E+03  0.2249E+03
     -4.206  0.5203E+02  0.5567E+02  0.2278E+03  0.2277E+03
     -4.155  0.8280E+02  0.8247E+02  0.2320E+03  0.2318E+03
     -4.105  0.5971E+02  0.6254E+02  0.2350E+03  0.2350E+03
     -4.055  0.1287E+02  0.9863E+01  0.2356E+03  0.2355E+03
     -4.004  0.6659E+02  0.6592E+02  0.2390E+03  0.2388E+03
     -3.954  0.3486E+02  0.3819E+02  0.2408E+03  0.2407E+03
     -3.903  0.4614E+02  0.4475E+02  0.2431E+03  0.2430E+03
     -3.853  0.8858E+02  0.8500E+02  0.2476E+03  0.2473E+03
     -3.803  0.7529E+02  0.7441E+02  0.2513E+03  0.2510E+03
     -3.752  0.3708E+02  0.3970E+02  0.2532E+03  0.2530E+03
     -3.702  0.5667E+02  0.4996E+02  0.2561E+03  0.2555E+03
     -3.651  0.6916E+02  0.7375E+02  0.2596E+03  0.2593E+03
     -3.601  0.3717E+02  0.3638E+02  0.2614E+03  0.2611E+03
     -3.551  0.5521E+02  0.5540E+02  0.2642E+03  0.2639E+03
     -3.500  0.7835E+02  0.8201E+02  0.2682E+03  0.2680E+03
     -3.450  0.5156E+02  0.5413E+02  0.2708E+03  0.2708E+03
     -3.400  0.7714E+02  0.6885E+02  0.2746E+03  0.2742E+03
     -3.349  0.6753E+02  0.7165E+02  0.2780E+03  0.2778E+03
     -3.299  0.9448E+02  0.9349E+02  0.2828E+03  0.2825E+03
     -3.248  0.4014E+02  0.4376E+02  0.2848E+03  0.2847E+03
     -3.198  0.1011E+03  0.9566E+02  0.2899E+03  0.2896E+03
     -3.148  0.6302E+02  0.6896E+02  0.2931E+03  0.2930E+03
     -3.097  0.6241E+02  0.5773E+02  0.2963E+03  0.2960E+03
     -3.047  0.8115E+02  0.8519E+02  0.3003E+03  0.3002E+03
     -2.996  0.3861E+02  0.3380E+02  0.3023E+03  0.3020E+03
     -2.946  0.7198E+02  0.7442E+02  0.3059E+03  0.3057E+03
     -2.896  0.6464E+02  0.6237E+02  0.3092E+03  0.3088E+03
     -2.845  0.9585E+02  0.9683E+02  0.3140E+03  0.3137E+03
     -2.795  0.1092E+03  0.1105E+03  0.3195E+03  0.3193E+03
     -2.744  0.4588E+02  0.4510E+02  0.3218E+03  0.3216E+03
     -2.694  0.8288E+02  0.8255E+02  0.3260E+03  0.3257E+03
     -2.644  0.1104E+03  0.1086E+03  0.3316E+03  0.3312E+03
     -2.593  0.1305E+03  0.1288E+03  0.3381E+03  0.3377E+03
     -2.543  0.1001E+03  0.1030E+03  0.3432E+03  0.3429E+03
     -2.492  0.1462E+03  0.1452E+03  0.3506E+03  0.3502E+03
     -2.442  0.1376E+03  0.1382E+03  0.3575E+03  0.3572E+03
     -2.392  0.1079E+03  0.1102E+03  0.3629E+03  0.3627E+03
     -2.341  0.9680E+02  0.9483E+02  0.3678E+03  0.3675E+03
     -2.291  0.7602E+02  0.7790E+02  0.3716E+03  0.3714E+03
     -2.240  0.1077E+03  0.1095E+03  0.3771E+03  0.3769E+03
     -2.190  0.7871E+02  0.7179E+02  0.3810E+03  0.3806E+03
     -2.140  0.7378E+02  0.8226E+02  0.3848E+03  0.3847E+03
     -2.089  0.6528E+02  0.6254E+02  0.3880E+03  0.3879E+03
     -2.039  0.9959E+02  0.9331E+02  0.3931E+03  0.3926E+03
     -1.988  0.1031E+03  0.1097E+03  0.3983E+03  0.3981E+03
     -1.938  0.5753E+02  0.5943E+02  0.4012E+03  0.4011E+03
     -1.888  0.7064E+02  0.6581E+02  0.4047E+03  0.4044E+03
     -1.837  0.8029E+02  0.8215E+02  0.4088E+03  0.4085E+03
     -1.787  0.1005E+03  0.1025E+03  0.4138E+03  0.4137E+03
     -1.736  0.7299E+02  0.7077E+02  0.4175E+03  0.4173E+03
     -1.686  0.6896E+02  0.6857E+02  0.4210E+03  0.4207E+03
     -1.636  0.1017E+03  0.1039E+03  0.4261E+03  0.4260E+03
     -1.585  0.6524E+02  0.6550E+02  0.4294E+03  0.4293E+03
     -1.535  0.8555E+02  0.8368E+02  0.4337E+03  0.4335E+03
     -1.484  0.7830E+02  0.7646E+02  0.4377E+03  0.4373E+03
     -1.434  0.6384E+02  0.6143E+02  0.4409E+03  0.4404E+03
     -1.384  0.4244E+02  0.5084E+02  0.4430E+03  0.4430E+03
     -1.333  0.7585E+02  0.7056E+02  0.4468E+03  0.4466E+03
     -1.283  0.4202E+02  0.4525E+02  0.4490E+03  0.4488E+03
     -1.232  0.2863E+02  0.2664E+02  0.4504E+03  0.4502E+03
     -1.182  0.7223E+02  0.7287E+02  0.4540E+03  0.4539E+03
     -1.132  0.4278E+02  0.4363E+02  0.4562E+03  0.4561E+03
     -1.081  0.4383E+02  0.4415E+02  0.4584E+03  0.4583E+03
     -1.031  0.6856E+02  0.6557E+02  0.4619E+03  0.4616E+03
     -0.980  0.3761E+02  0.3645E+02  0.4638E+03  0.4634E+03
     -0.930  0.7389E+02  0.8011E+02  0.4675E+03  0.4675E+03
     -0.880  0.5283E+02  0.4827E+02  0.4701E+03  0.4699E+03
     -0.829  0.7142E+02  0.7408E+02  0.4737E+03  0.4736E+03
     -0.779  0.6387E+02  0.6314E+02  0.4770E+03  0.4768E+03
     -0.728  0.2977E+02  0.3090E+02  0.4785E+03  0.4784E+03
     -0.678  0.4528E+02  0.4026E+02  0.4807E+03  0.4804E+03
     -0.628  0.7077E+02  0.7307E+02  0.4843E+03  0.4841E+03
     -0.577  0.4121E+02  0.4423E+02  0.4864E+03  0.4863E+03
     -0.527  0.2748E+02  0.2731E+02  0.4878E+03  0.4877E+03
     -0.476  0.1451E+02  0.1627E+02  0.4885E+03  0.4885E+03
     -0.426  0.3617E+02  0.3390E+02  0.4903E+03  0.4902E+03
     -0.376  0.2537E+02  0.2476E+02  0.4916E+03  0.4915E+03
     -0.325  0.5222E+02  0.5433E+02  0.4942E+03  0.4942E+03
     -0.275  0.4325E+02  0.4304E+02  0.4964E+03  0.4964E+03
     -0.224  0.2847E+02  0.2481E+02  0.4978E+03  0.4976E+03
     -0.174  0.8317E+02  0.8453E+02  0.5020E+03  0.5019E+03
     -0.124  0.3307E+02  0.3417E+02  0.5037E+03  0.5036E+03
     -0.073  0.5918E+02  0.5579E+02  0.5067E+03  0.5064E+03
     -0.023  0.7832E+02  0.8272E+02  0.5106E+03  0.5106E+03
      0.028  0.7169E+02  0.6371E+02  0.5143E+03  0.5138E+03
      0.078  0.1307E+03  0.1359E+03  0.5208E+03  0.5206E+03
      0.128  0.1025E+03  0.9850E+02  0.5260E+03  0.5256E+03
      0.179  0.1270E+03  0.1259E+03  0.5324E+03  0.5319E+03
      0.229  0.1604E+03  0.1620E+03  0.5405E+03  0.5401E+03
      0.280  0.1146E+03  0.1167E+03  0.5463E+03  0.5460E+03
      0.330  0.1243E+03  0.1215E+03  0.5525E+03  0.5521E+03
      0.380  0.8869E+02  0.8539E+02  0.5570E+03  0.5564E+03
      0.431  0.1151E+03  0.1218E+03  0.5628E+03  0.5626E+03
      0.481  0.1314E+03  0.1272E+03  0.5694E+03  0.5690E+03
      0.532  0.1018E+03  0.1043E+03  0.5745E+03  0.5742E+03
      0.582  0.6491E+02  0.6798E+02  0.5778E+03  0.5776E+03
      0.632  0.9429E+02  0.9295E+02  0.5826E+03  0.5823E+03
      0.683  0.1566E+03  0.1524E+03  0.5905E+03  0.5900E+03
      0.733  0.1598E+03  0.1600E+03  0.5985E+03  0.5981E+03
      0.784  0.1448E+03  0.1468E+03  0.6058E+03  0.6055E+03
      0.834  0.2125E+03  0.2035E+03  0.6165E+03  0.6157E+03
      0.884  0.1444E+03  0.1562E+03  0.6238E+03  0.6236E+03
      0.935  0.1149E+03  0.1091E+03  0.6296E+03  0.6291E+03
      0.985  0.1841E+03  0.1810E+03  0.6389E+03  0.6382E+03
      1.036  0.1813E+03  0.1876E+03  0.6480E+03  0.6477E+03
      1.086  0.1494E+03  0.1489E+03  0.6555E+03  0.6552E+03
      1.136  0.2066E+03  0.2022E+03  0.6659E+03  0.6654E+03
      1.187  0.1389E+03  0.1399E+03  0.6729E+03  0.6724E+03
      1.237  0.2101E+03  0.2111E+03  0.6835E+03  0.6831E+03
      1.288  0.1570E+03  0.1622E+03  0.6915E+03  0.6912E+03
      1.338  0.1272E+03  0.1274E+03  0.6979E+03  0.6977E+03
      1.388  0.1782E+03  0.1717E+03  0.7068E+03  0.7063E+03
      1.439  0.1840E+03  0.1835E+03  0.7161E+03  0.7156E+03
      1.489  0.2318E+03  0.2289E+03  0.7278E+03  0.7271E+03
      1.540  0.2297E+03  0.2350E+03  0.7394E+03  0.7389E+03
      1.590  0.1478E+03  0.1500E+03  0.7468E+03  0.7465E+03
      1.640  0.1570E+03  0.1560E+03  0.7547E+03  0.7544E+03
      1.691  0.1975E+03  0.1915E+03  0.7647E+03  0.7640E+03
      1.741  0.1785E+03  0.1833E+03  0.7737E+03  0.7732E+03
      1.792  0.1685E+03  0.1634E+03  0.7822E+03  0.7815E+03
      1.842  0.1930E+03  0.1985E+03  0.7919E+03  0.7915E+03
      1.892  0.1686E+03  0.1650E+03  0.8004E+03  0.7998E+03
      1.943  0.1840E+03  0.1872E+03  0.8097E+03  0.8092E+03
      1.993  0.1791E+03  0.1804E+03  0.8187E+03  0.8183E+03
      2.044  0.2249E+03  0.2195E+03  0.8300E+03  0.8294E+03
      2.094  0.1595E+03  0.1662E+03  0.8381E+03  0.8378E+03
      2.144  0.1751E+03  0.1766E+03  0.8469E+03  0.8467E+03
      2.195  0.1213E+03  0.1142E+03  0.8530E+03  0.8524E+03
      2.245  0.1692E+03  0.1675E+03  0.8615E+03  0.8609E+03
      2.296  0.1622E+03  0.1652E+03  0.8697E+03  0.8692E+03
      2.346  0.2036E+03  0.1996E+03  0.8800E+03  0.8793E+03
      2.396  0.1732E+03  0.1801E+03  0.8887E+03  0.8883E+03
      2.447  0.1192E+03  0.1177E+03  0.8947E+03  0.8943E+03
      2.497  0.1360E+03  0.1397E+03  0.9016E+03  0.9013E+03
      2.547  0.1098E+03  0.1005E+03  0.9071E+03  0.9064E+03
      2.598  0.1707E+03  0.1737E+03  0.9157E+03  0.9151E+03
      2.648  0.1530E+03  0.1503E+03  0.9234E+03  0.9227E+03
      2.699  0.1223E+03  0.1191E+03  0.9296E+03  0.9287E+03
      2.749  0.1807E+03  0.1844E+03  0.9387E+03  0.9380E+03
      2.799  0.1188E+03  0.1218E+03  0.9447E+03  0.9441E+03
      2.850  0.1727E+03  0.1773E+03  0.9534E+03  0.9531E+03
      2.900  0.8605E+02  0.8805E+02  0.9577E+03  0.9575E+03
      2.951  0.1377E+03  0.1310E+03  0.9647E+03  0.9641E+03
      3.001  0.1240E+03  0.1284E+03  0.9709E+03  0.9706E+03
      3.051  0.1036E+03  0.1010E+03  0.9761E+03  0.9757E+03
      3.102  0.1190E+03  0.1212E+03  0.9821E+03  0.9818E+03
      3.152  0.1225E+03  0.1090E+03  0.9883E+03  0.9873E+03
      3.203  0.1027E+03  0.1202E+03  0.9935E+03  0.9933E+03
      3.253  0.1013E+03  0.9795E+02  0.9986E+03  0.9983E+03
      3.303  0.1218E+03  0.1168E+03  0.1005E+04  0.1004E+04
      3.354  0.8184E+02  0.8095E+02  0.1009E+04  0.1008E+04
      3.404  0.7388E+02  0.8272E+02  0.1013E+04  0.1012E+04
      3.455  0.7495E+02  0.6359E+02  0.1016E+04  0.1016E+04
      3.505  0.9742E+02  0.1047E+03  0.1021E+04  0.1021E+04
      3.555  0.8127E+02  0.7319E+02  0.1025E+04  0.1025E+04
      3.606  0.1143E+03  0.1188E+03  0.1031E+04  0.1031E+04
      3.656  0.4323E+02  0.4980E+02  0.1033E+04  0.1033E+04
      3.707  0.6434E+02  0.5417E+02  0.1037E+04  0.1036E+04
      3.757  0.3611E+02  0.4127E+02  0.1038E+04  0.1038E+04
      3.807  0.5016E+02  0.4837E+02  0.1041E+04  0.1040E+04
      3.858  0.2364E+02  0.2953E+02  0.1042E+04  0.1042E+04
      3.908  0.4928E+02  0.4890E+02  0.1045E+04  0.1044E+04
      3.959  0.5937E+02  0.4593E+02  0.1048E+04  0.1047E+04
      4.009  0.4967E+02  0.5280E+02  0.1050E+04  0.1049E+04
      4.059  0.6329E+02  0.5403E+02  0.1053E+04  0.1052E+04
      4.110  0.1142E+03  0.1282E+03  0.1059E+04  0.1058E+04
      4.160  0.9418E+02  0.9050E+02  0.1064E+04  0.1063E+04
      4.211  0.1129E+03  0.1116E+03  0.1069E+04  0.1069E+04
      4.261  0.7470E+02  0.7839E+02  0.1073E+04  0.1073E+04
      4.311  0.9443E+02  0.9457E+02  0.1078E+04  0.1077E+04
      4.362  0.8943E+02  0.8043E+02  0.1082E+04  0.1081E+04
      4.412  0.1210E+03  0.1192E+03  0.1089E+04  0.1087E+04
      4.463  0.1140E+03  0.1226E+03  0.1094E+04  0.1094E+04
      4.513  0.1483E+03  0.1427E+03  0.1102E+04  0.1101E+04
      4.563  0.1010E+03  0.1104E+03  0.1107E+04  0.1106E+04
      4.614  0.5978E+02  0.5919E+02  0.1110E+04  0.1109E+04
      4.664  0.1151E+03  0.1084E+03  0.1116E+04  0.1115E+04
      4.715  0.1386E+03  0.1308E+03  0.1123E+04  0.1121E+04
      4.765  0.1086E+03  0.1186E+03  0.1128E+04  0.1127E+04
      4.815  0.6239E+02  0.6667E+02  0.1131E+04  0.1131E+04
      4.866  0.1911E+03  0.1863E+03  0.1141E+04  0.1140E+04
      4.916  0.1207E+03  0.1267E+03  0.1147E+04  0.1146E+04
      4.967  0.1006E+03  0.8881E+02  0.1152E+04  0.1151E+04
      5.017  0.1246E+03  0.1275E+03  0.1158E+04  0.1157E+04
      5.067  0.1416E+03  0.1452E+03  0.1165E+04  0.1165E+04
      5.118  0.1575E+03  0.1479E+03  0.1173E+04  0.1172E+04
      5.168  0.8946E+02  0.1087E+03  0.1178E+04  0.1178E+04
      5.219  0.9921E+02  0.1000E+03  0.1183E+04  0.1183E+04
      5.269  0.1050E+03  0.9926E+02  0.1188E+04  0.1188E+04
      5.319  0.1023E+03  0.1038E+03  0.1193E+04  0.1193E+04
      5.370  0.1475E+03  0.1356E+03  0.1201E+04  0.1200E+04
      5.420  0.1479E+03  0.1511E+03  0.1208E+04  0.1207E+04
      5.471  0.1114E+03  0.1221E+03  0.1214E+04  0.1214E+04
      5.521  0.9941E+02  0.1005E+03  0.1219E+04  0.1219E+04
      5.571  0.1801E+03  0.1724E+03  0.1228E+04  0.1227E+04
      5.622  0.1358E+03  0.1386E+03  0.1235E+04  0.1234E+04
      5.672  0.1242E+03  0.1160E+03  0.1241E+04  0.1240E+04
      5.723  0.1016E+03  0.1124E+03  0.1246E+04  0.1246E+04
      5.773  0.1360E+03  0.1372E+03  0.1253E+04  0.1253E+04
      5.823  0.1215E+03  0.1184E+03  0.1259E+04  0.1259E+04
      5.874  0.1161E+03  0.1169E+03  0.1265E+04  0.1265E+04
      5.924  0.8501E+02  0.9338E+02  0.1269E+04  0.1269E+04
      5.975  0.4417E+02  0.4104E+02  0.1272E+04  0.1271E+04
      6.025  0.9157E+01  0.1399E+02  0.1272E+04  0.1272E+04
      6.075  0.0000E+00  0.0000E+00  0.1272E+04  0.1272E+04
      6.126  0.0000E+00  0.0000E+00  0.1272E+04  0.1272E+04
      6.176  0.0000E+00  0.0000E+00  0.1272E+04  0.1272E+04
      6.227  0.0000E+00  0.0000E+00  0.1272E+04  0.1272E+04
      6.277  0.0000E+00  0.0000E+00  0.1272E+04  0.1272E+04
      6.327  0.0000E+00  0.0000E+00  0.1272E+04  0.1272E+04
      6.378  0.0000E+00  0.0000E+00  0.1272E+04  0.1272E+04
      6.428  0.0000E+00  0.0000E+00  0.1272E+04  0.1272E+04
      6.479  0.0000E+00  0.0000E+00  0.1272E+04  0.1272E+04
      6.529  0.0000E+00  0.0000E+00  0.1272E+04  0.1272E+04
      6.579  0.0000E+00  0.0000E+00  0.1272E+04  0.1272E+04
      6.630  0.0000E+00  0.0000E+00  0.1272E+04  0.1272E+04
      6.680  0.0000E+00  0.0000E+00  0.1272E+04  0.1272E+04
