 168 168   0   0
  0.2780971E+02  0.1131560E-08  0.1959920E-08  0.2580094E-08  0.5000000E-15
  1.000000000000000E-004
  CAR 
 Si and Ge interface calculation         
      6.30171404     -9.85587870  301      3.35235209      1.00000000
     -9.856  0.0000E+00  0.0000E+00  0.0000E+00  0.0000E+00
     -9.802  0.0000E+00  0.0000E+00  0.0000E+00  0.0000E+00
     -9.748  0.0000E+00  0.0000E+00  0.0000E+00  0.0000E+00
     -9.694  0.0000E+00  0.0000E+00  0.0000E+00  0.0000E+00
     -9.640  0.0000E+00  0.0000E+00  0.0000E+00  0.0000E+00
     -9.587  0.0000E+00  0.0000E+00  0.0000E+00  0.0000E+00
     -9.533  0.0000E+00  0.0000E+00  0.0000E+00  0.0000E+00
     -9.479  0.0000E+00  0.0000E+00  0.0000E+00  0.0000E+00
     -9.425  0.0000E+00  0.0000E+00  0.0000E+00  0.0000E+00
     -9.371  0.0000E+00  0.0000E+00  0.0000E+00  0.0000E+00
     -9.317  0.0000E+00  0.0000E+00  0.0000E+00  0.0000E+00
     -9.263  0.0000E+00  0.0000E+00  0.0000E+00  0.0000E+00
     -9.210  0.0000E+00  0.0000E+00  0.0000E+00  0.0000E+00
     -9.156  0.3878E-05  0.5346E-07  0.2089E-06  0.2879E-08
     -9.102  0.6172E+01  0.6041E+01  0.3324E+00  0.3254E+00
     -9.048  0.1736E-01  0.1478E+00  0.3333E+00  0.3333E+00
     -8.994  0.1947E+02  0.1356E+02  0.1382E+01  0.1063E+01
     -8.940  0.1765E+02  0.2343E+02  0.2333E+01  0.2326E+01
     -8.886  0.1354E-01  0.1438E+00  0.2333E+01  0.2333E+01
     -8.833  0.1468E+00  0.1350E-01  0.2341E+01  0.2334E+01
     -8.779  0.1842E+02  0.1854E+02  0.3333E+01  0.3332E+01
     -8.725  0.1319E+02  0.1247E+02  0.4044E+01  0.4004E+01
     -8.671  0.3670E+02  0.3436E+02  0.6020E+01  0.5855E+01
     -8.617  0.3449E+02  0.3441E+02  0.7878E+01  0.7708E+01
     -8.563  0.1437E+02  0.1602E+02  0.8652E+01  0.8571E+01
     -8.509  0.4400E+00  0.1795E+01  0.8675E+01  0.8667E+01
     -8.456  0.5351E+02  0.5010E+02  0.1156E+02  0.1137E+02
     -8.402  0.2059E+02  0.2405E+02  0.1267E+02  0.1266E+02
     -8.348  0.3767E+02  0.3521E+02  0.1470E+02  0.1456E+02
     -8.294  0.2030E+02  0.1675E+02  0.1579E+02  0.1546E+02
     -8.240  0.3311E+02  0.3569E+02  0.1757E+02  0.1738E+02
     -8.186  0.2262E+02  0.1926E+02  0.1879E+02  0.1842E+02
     -8.132  0.2174E+02  0.2466E+02  0.1996E+02  0.1975E+02
     -8.079  0.5023E+02  0.5414E+02  0.2267E+02  0.2266E+02
     -8.025  0.1292E+02  0.1261E+02  0.2336E+02  0.2334E+02
     -7.971  0.1102E+02  0.8218E+01  0.2396E+02  0.2378E+02
     -7.917  0.1943E+02  0.2257E+02  0.2500E+02  0.2500E+02
     -7.863  0.3103E+02  0.2731E+02  0.2667E+02  0.2647E+02
     -7.809  0.3077E+02  0.3424E+02  0.2833E+02  0.2832E+02
     -7.755  0.1632E+02  0.1209E+02  0.2921E+02  0.2897E+02
     -7.702  0.2090E+02  0.2539E+02  0.3034E+02  0.3033E+02
     -7.648  0.1354E+02  0.1261E+02  0.3106E+02  0.3101E+02
     -7.594  0.4298E+02  0.3597E+02  0.3338E+02  0.3295E+02
     -7.540  0.3698E+02  0.4404E+02  0.3537E+02  0.3532E+02
     -7.486  0.5099E+02  0.4549E+02  0.3812E+02  0.3777E+02
     -7.432  0.2716E+02  0.3055E+02  0.3958E+02  0.3942E+02
     -7.378  0.2974E+02  0.2885E+02  0.4118E+02  0.4097E+02
     -7.325  0.1600E+02  0.1894E+02  0.4204E+02  0.4199E+02
     -7.271  0.3460E+02  0.3044E+02  0.4391E+02  0.4363E+02
     -7.217  0.4749E+02  0.4659E+02  0.4647E+02  0.4614E+02
     -7.163  0.7116E+02  0.7288E+02  0.5030E+02  0.5007E+02
     -7.109  0.1927E+02  0.2344E+02  0.5134E+02  0.5133E+02
     -7.055  0.4116E+02  0.3945E+02  0.5355E+02  0.5345E+02
     -7.001  0.2882E+02  0.2807E+02  0.5510E+02  0.5496E+02
     -6.948  0.4744E+02  0.4809E+02  0.5766E+02  0.5755E+02
     -6.894  0.4726E+02  0.4302E+02  0.6020E+02  0.5987E+02
     -6.840  0.5034E+02  0.4978E+02  0.6292E+02  0.6255E+02
     -6.786  0.6055E+02  0.5930E+02  0.6618E+02  0.6575E+02
     -6.732  0.3807E+02  0.4209E+02  0.6823E+02  0.6801E+02
     -6.678  0.2658E+02  0.2853E+02  0.6966E+02  0.6955E+02
     -6.624  0.5127E+02  0.4814E+02  0.7242E+02  0.7214E+02
     -6.571  0.3068E+02  0.2931E+02  0.7407E+02  0.7372E+02
     -6.517  0.4317E+02  0.4326E+02  0.7640E+02  0.7605E+02
     -6.463  0.2350E+02  0.2770E+02  0.7766E+02  0.7754E+02
     -6.409  0.5348E+02  0.4889E+02  0.8054E+02  0.8018E+02
     -6.355  0.7181E+02  0.7552E+02  0.8441E+02  0.8424E+02
     -6.301  0.3207E+02  0.3321E+02  0.8614E+02  0.8603E+02
     -6.247  0.7037E+02  0.6344E+02  0.8993E+02  0.8945E+02
     -6.193  0.6308E+02  0.6441E+02  0.9333E+02  0.9292E+02
     -6.140  0.4572E+02  0.5142E+02  0.9579E+02  0.9569E+02
     -6.086  0.3498E+02  0.3675E+02  0.9767E+02  0.9767E+02
     -6.032  0.3670E+02  0.3546E+02  0.9965E+02  0.9958E+02
     -5.978  0.4838E+02  0.4537E+02  0.1023E+03  0.1020E+03
     -5.924  0.2402E+02  0.2650E+02  0.1035E+03  0.1034E+03
     -5.870  0.3321E+02  0.3499E+02  0.1053E+03  0.1053E+03
     -5.816  0.4142E+02  0.3878E+02  0.1076E+03  0.1074E+03
     -5.763  0.5050E+02  0.4848E+02  0.1103E+03  0.1100E+03
     -5.709  0.3648E+02  0.3890E+02  0.1123E+03  0.1121E+03
     -5.655  0.2072E+02  0.2255E+02  0.1134E+03  0.1133E+03
     -5.601  0.2508E+02  0.2450E+02  0.1147E+03  0.1147E+03
     -5.547  0.2741E+02  0.2404E+02  0.1162E+03  0.1160E+03
     -5.493  0.7438E+02  0.7159E+02  0.1202E+03  0.1198E+03
     -5.439  0.5640E+02  0.6091E+02  0.1232E+03  0.1231E+03
     -5.386  0.6835E+02  0.6384E+02  0.1269E+03  0.1265E+03
     -5.332  0.7159E+02  0.7228E+02  0.1308E+03  0.1304E+03
     -5.278  0.3306E+02  0.3708E+02  0.1326E+03  0.1324E+03
     -5.224  0.7724E+02  0.7795E+02  0.1367E+03  0.1366E+03
     -5.170  0.3892E+02  0.3764E+02  0.1388E+03  0.1386E+03
     -5.116  0.7234E+02  0.7335E+02  0.1427E+03  0.1426E+03
     -5.062  0.3484E+02  0.3205E+02  0.1446E+03  0.1443E+03
     -5.009  0.2628E+02  0.3114E+02  0.1460E+03  0.1460E+03
     -4.955  0.5293E+02  0.4374E+02  0.1489E+03  0.1484E+03
     -4.901  0.5833E+02  0.6594E+02  0.1520E+03  0.1519E+03
     -4.847  0.5780E+02  0.5669E+02  0.1551E+03  0.1550E+03
     -4.793  0.7251E+02  0.7118E+02  0.1590E+03  0.1588E+03
     -4.739  0.3494E+02  0.3580E+02  0.1609E+03  0.1607E+03
     -4.685  0.7559E+02  0.7280E+02  0.1650E+03  0.1646E+03
     -4.632  0.4792E+02  0.5043E+02  0.1675E+03  0.1674E+03
     -4.578  0.6430E+02  0.6760E+02  0.1710E+03  0.1710E+03
     -4.524  0.2132E+02  0.1973E+02  0.1722E+03  0.1721E+03
     -4.470  0.4046E+02  0.3611E+02  0.1743E+03  0.1740E+03
     -4.416  0.6195E+02  0.6324E+02  0.1777E+03  0.1774E+03
     -4.362  0.5735E+02  0.6018E+02  0.1808E+03  0.1807E+03
     -4.308  0.6646E+02  0.6234E+02  0.1843E+03  0.1840E+03
     -4.255  0.2943E+02  0.3284E+02  0.1859E+03  0.1858E+03
     -4.201  0.2232E+02  0.1610E+02  0.1871E+03  0.1866E+03
     -4.147  0.5136E+02  0.5287E+02  0.1899E+03  0.1895E+03
     -4.093  0.6969E+02  0.6378E+02  0.1936E+03  0.1929E+03
     -4.039  0.6896E+02  0.7665E+02  0.1974E+03  0.1971E+03
     -3.985  0.3327E+02  0.3295E+02  0.1992E+03  0.1988E+03
     -3.931  0.7346E+02  0.7702E+02  0.2031E+03  0.2030E+03
     -3.878  0.6476E+02  0.6390E+02  0.2066E+03  0.2064E+03
     -3.824  0.3456E+02  0.3062E+02  0.2085E+03  0.2081E+03
     -3.770  0.2966E+02  0.3606E+02  0.2101E+03  0.2100E+03
     -3.716  0.5570E+02  0.4814E+02  0.2131E+03  0.2126E+03
     -3.662  0.9092E+02  0.8899E+02  0.2180E+03  0.2174E+03
     -3.608  0.3332E+02  0.4235E+02  0.2197E+03  0.2197E+03
     -3.554  0.6752E+02  0.6552E+02  0.2234E+03  0.2232E+03
     -3.501  0.3430E+02  0.3261E+02  0.2252E+03  0.2250E+03
     -3.447  0.3940E+02  0.3802E+02  0.2274E+03  0.2270E+03
     -3.393  0.3066E+02  0.3688E+02  0.2290E+03  0.2290E+03
     -3.339  0.5912E+02  0.5368E+02  0.2322E+03  0.2319E+03
     -3.285  0.4241E+02  0.4198E+02  0.2345E+03  0.2342E+03
     -3.231  0.4914E+02  0.5118E+02  0.2371E+03  0.2369E+03
     -3.177  0.2810E+02  0.2987E+02  0.2386E+03  0.2385E+03
     -3.124  0.4566E+02  0.4399E+02  0.2411E+03  0.2409E+03
     -3.070  0.4842E+02  0.5174E+02  0.2437E+03  0.2437E+03
     -3.016  0.3689E+02  0.3373E+02  0.2457E+03  0.2455E+03
     -2.962  0.6498E+02  0.6516E+02  0.2492E+03  0.2490E+03
     -2.908  0.4838E+02  0.4512E+02  0.2518E+03  0.2514E+03
     -2.854  0.4666E+02  0.5141E+02  0.2543E+03  0.2542E+03
     -2.800  0.2541E+02  0.2725E+02  0.2557E+03  0.2557E+03
     -2.747  0.6249E+02  0.5618E+02  0.2590E+03  0.2587E+03
     -2.693  0.7049E+02  0.7095E+02  0.2628E+03  0.2625E+03
     -2.639  0.4118E+02  0.4083E+02  0.2651E+03  0.2647E+03
     -2.585  0.6596E+02  0.6861E+02  0.2686E+03  0.2684E+03
     -2.531  0.4951E+02  0.4685E+02  0.2713E+03  0.2709E+03
     -2.477  0.5605E+02  0.5895E+02  0.2743E+03  0.2741E+03
     -2.423  0.4190E+02  0.3974E+02  0.2765E+03  0.2762E+03
     -2.370  0.6257E+02  0.5954E+02  0.2799E+03  0.2795E+03
     -2.316  0.4474E+02  0.5307E+02  0.2823E+03  0.2823E+03
     -2.262  0.2529E+02  0.2403E+02  0.2837E+03  0.2836E+03
     -2.208  0.2965E+02  0.2748E+02  0.2853E+03  0.2851E+03
     -2.154  0.4053E+02  0.4020E+02  0.2875E+03  0.2873E+03
     -2.100  0.1736E+02  0.1653E+02  0.2884E+03  0.2881E+03
     -2.046  0.2866E+02  0.2892E+02  0.2899E+03  0.2897E+03
     -1.993  0.2550E+02  0.2084E+02  0.2913E+03  0.2908E+03
     -1.939  0.5600E+02  0.6517E+02  0.2943E+03  0.2943E+03
     -1.885  0.3093E+02  0.2802E+02  0.2960E+03  0.2958E+03
     -1.831  0.3118E+02  0.3214E+02  0.2977E+03  0.2976E+03
     -1.777  0.3121E+02  0.2662E+02  0.2994E+03  0.2990E+03
     -1.723  0.4279E+02  0.4942E+02  0.3017E+03  0.3017E+03
     -1.669  0.4210E+02  0.3495E+02  0.3039E+03  0.3035E+03
     -1.616  0.3833E+02  0.4550E+02  0.3060E+03  0.3060E+03
     -1.562  0.2468E+02  0.2357E+02  0.3073E+03  0.3073E+03
     -1.508  0.2012E+02  0.1945E+02  0.3084E+03  0.3083E+03
     -1.454  0.5493E+02  0.5412E+02  0.3114E+03  0.3112E+03
     -1.400  0.1586E+02  0.1660E+02  0.3122E+03  0.3121E+03
     -1.346  0.8169E+01  0.1002E+02  0.3127E+03  0.3127E+03
     -1.292  0.6360E+01  0.2387E+01  0.3130E+03  0.3128E+03
     -1.238  0.4313E+02  0.4702E+02  0.3153E+03  0.3153E+03
     -1.185  0.3331E+01  0.1610E+01  0.3155E+03  0.3154E+03
     -1.131  0.2144E+02  0.2322E+02  0.3167E+03  0.3167E+03
     -1.077  0.1354E+02  0.1187E+02  0.3174E+03  0.3173E+03
     -1.023  0.2483E+02  0.2553E+02  0.3187E+03  0.3187E+03
     -0.969  0.3342E+02  0.2998E+02  0.3205E+03  0.3203E+03
     -0.915  0.1487E+02  0.1932E+02  0.3213E+03  0.3213E+03
     -0.861  0.1637E-02  0.1070E-03  0.3213E+03  0.3213E+03
     -0.808  0.2482E+02  0.2457E+02  0.3227E+03  0.3227E+03
     -0.754  0.1880E+02  0.1879E+02  0.3237E+03  0.3237E+03
     -0.700  0.3272E+02  0.2770E+02  0.3254E+03  0.3252E+03
     -0.646  0.5937E+02  0.5888E+02  0.3286E+03  0.3283E+03
     -0.592  0.7995E+02  0.7993E+02  0.3329E+03  0.3326E+03
     -0.538  0.5347E+02  0.4966E+02  0.3358E+03  0.3353E+03
     -0.484  0.4990E+02  0.5150E+02  0.3385E+03  0.3381E+03
     -0.431  0.7627E+02  0.8023E+02  0.3426E+03  0.3424E+03
     -0.377  0.4557E+02  0.4263E+02  0.3451E+03  0.3447E+03
     -0.323  0.7289E+02  0.7493E+02  0.3490E+03  0.3487E+03
     -0.269  0.1039E+03  0.9778E+02  0.3546E+03  0.3540E+03
     -0.215  0.8599E+02  0.9388E+02  0.3592E+03  0.3591E+03
     -0.161  0.7189E+02  0.6780E+02  0.3631E+03  0.3627E+03
     -0.107  0.5775E+02  0.5761E+02  0.3662E+03  0.3658E+03
     -0.054  0.8394E+02  0.8549E+02  0.3707E+03  0.3704E+03
      0.000  0.6369E+02  0.6379E+02  0.3742E+03  0.3739E+03
      0.054  0.6380E+02  0.6602E+02  0.3776E+03  0.3774E+03
      0.108  0.8233E+02  0.7239E+02  0.3820E+03  0.3813E+03
      0.162  0.7059E+02  0.7704E+02  0.3858E+03  0.3855E+03
      0.216  0.1011E+03  0.1036E+03  0.3913E+03  0.3910E+03
      0.270  0.6703E+02  0.6552E+02  0.3949E+03  0.3946E+03
      0.323  0.1108E+03  0.1076E+03  0.4009E+03  0.4004E+03
      0.377  0.9323E+02  0.9275E+02  0.4059E+03  0.4054E+03
      0.431  0.1144E+03  0.1204E+03  0.4120E+03  0.4118E+03
      0.485  0.1292E+03  0.1159E+03  0.4190E+03  0.4181E+03
      0.539  0.1260E+03  0.1300E+03  0.4258E+03  0.4251E+03
      0.593  0.1165E+03  0.1159E+03  0.4321E+03  0.4313E+03
      0.647  0.1392E+03  0.1397E+03  0.4396E+03  0.4389E+03
      0.700  0.1324E+03  0.1301E+03  0.4467E+03  0.4459E+03
      0.754  0.1158E+03  0.1175E+03  0.4529E+03  0.4522E+03
      0.808  0.1268E+03  0.1324E+03  0.4598E+03  0.4593E+03
      0.862  0.8906E+02  0.9306E+02  0.4645E+03  0.4643E+03
      0.916  0.9115E+02  0.8401E+02  0.4695E+03  0.4689E+03
      0.970  0.1119E+03  0.1145E+03  0.4755E+03  0.4750E+03
      1.024  0.7543E+02  0.7419E+02  0.4795E+03  0.4790E+03
      1.077  0.9919E+02  0.9852E+02  0.4849E+03  0.4843E+03
      1.131  0.1342E+03  0.1317E+03  0.4921E+03  0.4914E+03
      1.185  0.1066E+03  0.1131E+03  0.4979E+03  0.4975E+03
      1.239  0.1224E+03  0.1168E+03  0.5045E+03  0.5038E+03
      1.293  0.1164E+03  0.1148E+03  0.5107E+03  0.5100E+03
      1.347  0.1079E+03  0.1091E+03  0.5165E+03  0.5159E+03
      1.401  0.9469E+02  0.9864E+02  0.5216E+03  0.5212E+03
      1.454  0.1105E+03  0.1073E+03  0.5276E+03  0.5270E+03
      1.508  0.1256E+03  0.1233E+03  0.5343E+03  0.5336E+03
      1.562  0.1245E+03  0.1257E+03  0.5410E+03  0.5404E+03
      1.616  0.1140E+03  0.1205E+03  0.5472E+03  0.5469E+03
      1.670  0.1178E+03  0.1134E+03  0.5535E+03  0.5530E+03
      1.724  0.1057E+03  0.1078E+03  0.5592E+03  0.5588E+03
      1.778  0.1041E+03  0.1009E+03  0.5648E+03  0.5642E+03
      1.831  0.1248E+03  0.1210E+03  0.5716E+03  0.5707E+03
      1.885  0.7199E+02  0.8018E+02  0.5754E+03  0.5751E+03
      1.939  0.1214E+03  0.1262E+03  0.5820E+03  0.5818E+03
      1.993  0.6958E+02  0.5762E+02  0.5857E+03  0.5850E+03
      2.047  0.1080E+03  0.1178E+03  0.5915E+03  0.5913E+03
      2.101  0.6901E+02  0.6317E+02  0.5953E+03  0.5947E+03
      2.155  0.8025E+02  0.7709E+02  0.5996E+03  0.5988E+03
      2.208  0.7336E+02  0.8200E+02  0.6035E+03  0.6033E+03
      2.262  0.9080E+02  0.8344E+02  0.6084E+03  0.6078E+03
      2.316  0.7481E+02  0.7958E+02  0.6124E+03  0.6120E+03
      2.370  0.6421E+02  0.6623E+02  0.6159E+03  0.6156E+03
      2.424  0.7447E+02  0.7086E+02  0.6199E+03  0.6194E+03
      2.478  0.9007E+02  0.8787E+02  0.6248E+03  0.6242E+03
      2.532  0.9187E+02  0.8852E+02  0.6297E+03  0.6289E+03
      2.585  0.6501E+02  0.6445E+02  0.6332E+03  0.6324E+03
      2.639  0.4127E+02  0.5142E+02  0.6354E+03  0.6352E+03
      2.693  0.8807E+02  0.8506E+02  0.6402E+03  0.6398E+03
      2.747  0.6887E+02  0.7288E+02  0.6439E+03  0.6437E+03
      2.801  0.6091E+02  0.5559E+02  0.6472E+03  0.6467E+03
      2.855  0.3011E+02  0.3738E+02  0.6488E+03  0.6487E+03
      2.909  0.6529E+02  0.5930E+02  0.6523E+03  0.6519E+03
      2.962  0.4890E+02  0.5330E+02  0.6549E+03  0.6547E+03
      3.016  0.2738E+02  0.2740E+02  0.6564E+03  0.6562E+03
      3.070  0.5383E+02  0.4886E+02  0.6593E+03  0.6589E+03
      3.124  0.3507E+02  0.3655E+02  0.6612E+03  0.6608E+03
      3.178  0.3658E+02  0.3025E+02  0.6632E+03  0.6625E+03
      3.232  0.6434E+02  0.6138E+02  0.6666E+03  0.6658E+03
      3.286  0.5300E+02  0.5830E+02  0.6695E+03  0.6689E+03
      3.339  0.2900E+02  0.3323E+02  0.6711E+03  0.6707E+03
      3.393  0.1450E+02  0.1833E+02  0.6718E+03  0.6717E+03
      3.447  0.3653E+02  0.3622E+02  0.6738E+03  0.6736E+03
      3.501  0.1837E+02  0.1480E+02  0.6748E+03  0.6744E+03
      3.555  0.5423E+02  0.5466E+02  0.6777E+03  0.6774E+03
      3.609  0.2546E+02  0.1725E+02  0.6791E+03  0.6783E+03
      3.663  0.3753E+02  0.4927E+02  0.6811E+03  0.6810E+03
      3.716  0.3751E+02  0.3425E+02  0.6831E+03  0.6828E+03
      3.770  0.1631E+02  0.2094E+02  0.6840E+03  0.6839E+03
      3.824  0.1224E+02  0.1380E+02  0.6847E+03  0.6847E+03
      3.878  0.1400E+02  0.7265E+01  0.6854E+03  0.6851E+03
      3.932  0.2275E+02  0.2783E+02  0.6866E+03  0.6866E+03
      3.986  0.1462E+02  0.1108E+02  0.6874E+03  0.6872E+03
      4.040  0.4444E+02  0.4617E+02  0.6898E+03  0.6896E+03
      4.094  0.2762E+02  0.2407E+02  0.6913E+03  0.6909E+03
      4.147  0.4636E+02  0.4952E+02  0.6938E+03  0.6936E+03
      4.201  0.2426E+02  0.2449E+02  0.6951E+03  0.6949E+03
      4.255  0.2413E+02  0.2461E+02  0.6964E+03  0.6962E+03
      4.309  0.5062E+02  0.4370E+02  0.6991E+03  0.6986E+03
      4.363  0.3571E+02  0.4478E+02  0.7011E+03  0.7010E+03
      4.417  0.7156E+02  0.6984E+02  0.7049E+03  0.7048E+03
      4.471  0.7112E+02  0.6778E+02  0.7088E+03  0.7084E+03
      4.524  0.6261E+02  0.6337E+02  0.7121E+03  0.7118E+03
      4.578  0.5108E+02  0.4936E+02  0.7149E+03  0.7145E+03
      4.632  0.7676E+02  0.7995E+02  0.7190E+03  0.7188E+03
      4.686  0.6708E+02  0.6180E+02  0.7226E+03  0.7221E+03
      4.740  0.9582E+02  0.9589E+02  0.7278E+03  0.7273E+03
      4.794  0.6988E+02  0.7085E+02  0.7315E+03  0.7311E+03
      4.848  0.8863E+02  0.8962E+02  0.7363E+03  0.7359E+03
      4.901  0.9597E+02  0.1007E+03  0.7415E+03  0.7414E+03
      4.955  0.1105E+03  0.1059E+03  0.7474E+03  0.7471E+03
      5.009  0.9889E+02  0.9632E+02  0.7528E+03  0.7523E+03
      5.063  0.1304E+03  0.1317E+03  0.7598E+03  0.7593E+03
      5.117  0.1070E+03  0.1046E+03  0.7655E+03  0.7650E+03
      5.171  0.1003E+03  0.1037E+03  0.7710E+03  0.7706E+03
      5.225  0.1006E+03  0.1000E+03  0.7764E+03  0.7760E+03
      5.278  0.1011E+03  0.1016E+03  0.7818E+03  0.7814E+03
      5.332  0.1235E+03  0.1253E+03  0.7885E+03  0.7882E+03
      5.386  0.9263E+02  0.8911E+02  0.7935E+03  0.7930E+03
      5.440  0.1002E+03  0.1060E+03  0.7989E+03  0.7987E+03
      5.494  0.9068E+02  0.9160E+02  0.8037E+03  0.8036E+03
      5.548  0.6737E+02  0.6564E+02  0.8074E+03  0.8072E+03
      5.602  0.1179E+02  0.1577E+02  0.8080E+03  0.8080E+03
      5.655  0.0000E+00  0.0000E+00  0.8080E+03  0.8080E+03
      5.709  0.0000E+00  0.0000E+00  0.8080E+03  0.8080E+03
      5.763  0.0000E+00  0.0000E+00  0.8080E+03  0.8080E+03
      5.817  0.0000E+00  0.0000E+00  0.8080E+03  0.8080E+03
      5.871  0.0000E+00  0.0000E+00  0.8080E+03  0.8080E+03
      5.925  0.0000E+00  0.0000E+00  0.8080E+03  0.8080E+03
      5.979  0.0000E+00  0.0000E+00  0.8080E+03  0.8080E+03
      6.032  0.0000E+00  0.0000E+00  0.8080E+03  0.8080E+03
      6.086  0.0000E+00  0.0000E+00  0.8080E+03  0.8080E+03
      6.140  0.0000E+00  0.0000E+00  0.8080E+03  0.8080E+03
      6.194  0.0000E+00  0.0000E+00  0.8080E+03  0.8080E+03
      6.248  0.0000E+00  0.0000E+00  0.8080E+03  0.8080E+03
      6.302  0.0000E+00  0.0000E+00  0.8080E+03  0.8080E+03
