Si and Ge interface calculation         
           1
    11.315600    0.000000    0.000000
   -11.315600   16.002676    0.000000
     0.000000    0.000000   25.800940
   Ge   Sn
    96    72
Direct configuration=     1
   0.98533142  0.45599416  0.00000002
   0.86033142  0.08099414  0.07752953
   0.73533142  0.70599413  0.15505907
   0.61033142  0.33099425  0.23258853
   0.48533136  0.95599413  0.31011808
   0.36033136  0.58099413  0.38764763
   0.48533139  0.45599416  0.00000002
   0.36033142  0.08099414  0.07752953
   0.23533136  0.70599413  0.15505907
   0.11033138  0.33099425  0.23258853
   0.98533148  0.95599413  0.31011808
   0.86033142  0.58099413  0.38764763
   0.98533136  0.95599413  0.00000002
   0.86033142  0.58099413  0.07752954
   0.73533142  0.20599413  0.15505905
   0.61033142  0.83099437  0.23258853
   0.48533142  0.45599413  0.31011811
   0.36033136  0.08099413  0.38764760
   0.48533139  0.95599413  0.00000002
   0.36033136  0.58099413  0.07752954
   0.23533145  0.20599413  0.15505905
   0.11033149  0.83099437  0.23258853
   0.98533130  0.45599413  0.31011811
   0.86033136  0.08099413  0.38764760
   0.23533137  0.70599413  0.00000002
   0.11033137  0.33099413  0.07752953
   0.98533136  0.95599413  0.15505905
   0.86033136  0.58099425  0.23258856
   0.73533136  0.20599419  0.31011811
   0.61033130  0.83099413  0.38764763
   0.73533136  0.70599413  0.00000002
   0.61033136  0.33099413  0.07752953
   0.48533133  0.95599413  0.15505905
   0.36033136  0.58099425  0.23258856
   0.23533137  0.20599419  0.31011811
   0.11033136  0.83099413  0.38764763
   0.23533139  0.20599414  0.00000002
   0.11033139  0.83099413  0.07752953
   0.98533136  0.45599413  0.15505905
   0.86033136  0.08099425  0.23258856
   0.73533148  0.70599425  0.31011808
   0.61033136  0.33099413  0.38764760
   0.73533130  0.20599414  0.00000002
   0.61033136  0.83099413  0.07752953
   0.48533139  0.45599413  0.15505905
   0.36033130  0.08099425  0.23258856
   0.23533139  0.70599425  0.31011808
   0.11033126  0.33099413  0.38764760
   0.98533142  0.58099419  0.00000003
   0.86033142  0.20599416  0.07752953
   0.73533136  0.83099413  0.15505905
   0.61033142  0.45599425  0.23258853
   0.48533136  0.08099419  0.31011811
   0.36033136  0.70599413  0.38764763
   0.48533142  0.58099419  0.00000003
   0.36033142  0.20599416  0.07752953
   0.23533140  0.83099413  0.15505905
   0.11033143  0.45599425  0.23258853
   0.98533136  0.08099419  0.31011811
   0.86033142  0.70599413  0.38764763
   0.98533136  0.08099414  0.00000001
   0.86033142  0.70599413  0.07752953
   0.73533142  0.33099413  0.15505905
   0.61033142  0.95599425  0.23258856
   0.48533142  0.58099425  0.31011808
   0.36033136  0.20599401  0.38764760
   0.48533139  0.08099414  0.00000001
   0.36033136  0.70599413  0.07752953
   0.23533140  0.33099413  0.15505905
   0.11033145  0.95599425  0.23258856
   0.98533154  0.58099425  0.31011808
   0.86033124  0.20599401  0.38764760
   0.23533145  0.83099419  0.00000000
   0.11033142  0.45599419  0.07752953
   0.98533142  0.08099417  0.15505905
   0.86033142  0.70599431  0.23258853
   0.73533142  0.33099425  0.31011808
   0.61033142  0.95599413  0.38764757
   0.73533142  0.83099419  0.00000000
   0.61033142  0.45599419  0.07752953
   0.48533139  0.08099417  0.15505905
   0.36033142  0.70599431  0.23258853
   0.23533142  0.33099425  0.31011808
   0.11033136  0.95599413  0.38764757
   0.23533137  0.33099413  0.00000002
   0.11033138  0.95599413  0.07752954
   0.98533136  0.58099413  0.15505905
   0.86033142  0.20599425  0.23258856
   0.73533136  0.83099413  0.31011808
   0.61033142  0.45599413  0.38764760
   0.73533136  0.33099413  0.00000002
   0.61033136  0.95599413  0.07752954
   0.48533139  0.58099413  0.15505905
   0.36033142  0.20599425  0.23258856
   0.23533146  0.83099413  0.31011808
   0.11033130  0.45599413  0.38764760
   0.22309196  0.73586667  0.47151801
   0.97309196  0.48586661  0.56044036
   0.72309184  0.23586649  0.64936268
   0.47309175  0.98586637  0.73828494
   0.22309172  0.73586637  0.82720721
   0.97309172  0.48586625  0.91612959
   0.22309196  0.40253332  0.47151801
   0.97309196  0.15253328  0.56044036
   0.72309184  0.90253311  0.64936268
   0.47309175  0.65253300  0.73828494
   0.22309172  0.40253300  0.82720721
   0.97309172  0.15253288  0.91612959
   0.22309196  0.06920004  0.47151801
   0.97309196  0.81919992  0.56044036
   0.72309184  0.56919974  0.64936268
   0.47309175  0.31919962  0.73828494
   0.22309172  0.06919968  0.82720721
   0.97309172  0.81919950  0.91612959
   0.72309196  0.90253335  0.47151801
   0.47309190  0.65253323  0.56044036
   0.22309184  0.40253317  0.64936262
   0.97309184  0.15253308  0.73828494
   0.72309172  0.90253300  0.82720721
   0.47309169  0.65253288  0.91612959
   0.72309196  0.56919998  0.47151801
   0.47309190  0.31919992  0.56044036
   0.22309184  0.06919980  0.64936262
   0.97309184  0.81919968  0.73828494
   0.72309172  0.56919962  0.82720721
   0.47309169  0.31919956  0.91612959
   0.72309196  0.23586667  0.47151801
   0.47309190  0.98586661  0.56044036
   0.22309184  0.73586649  0.64936262
   0.97309184  0.48586631  0.73828494
   0.72309172  0.23586625  0.82720721
   0.47309169  0.98586613  0.91612959
   0.97309196  0.73586673  0.47151801
   0.72309190  0.48586670  0.56044042
   0.47309184  0.23586658  0.64936268
   0.22309172  0.98586643  0.73828494
   0.97309172  0.73586643  0.82720727
   0.72309172  0.48586631  0.91612959
   0.97309196  0.40253332  0.47151801
   0.72309190  0.15253326  0.56044042
   0.47309184  0.90253311  0.64936268
   0.22309172  0.65253300  0.73828494
   0.97309172  0.40253300  0.82720727
   0.72309172  0.15253288  0.91612959
   0.97309196  0.06920004  0.47151801
   0.72309190  0.81919992  0.56044042
   0.47309184  0.56919980  0.64936268
   0.22309172  0.31919968  0.73828494
   0.97309172  0.06919968  0.82720727
   0.72309172  0.81919962  0.91612959
   0.47309193  0.90253329  0.47151801
   0.22309196  0.65253323  0.56044042
   0.97309184  0.40253305  0.64936268
   0.72309172  0.15253296  0.73828494
   0.47309175  0.90253293  0.82720721
   0.22309172  0.65253282  0.91612959
   0.47309193  0.56919998  0.47151801
   0.22309196  0.31919992  0.56044042
   0.97309184  0.06919980  0.64936268
   0.72309172  0.81919968  0.73828494
   0.47309175  0.56919962  0.82720721
   0.22309172  0.31919956  0.91612959
   0.47309193  0.23586664  0.47151801
   0.22309196  0.98586661  0.56044042
   0.97309184  0.73586649  0.64936268
   0.72309172  0.48586631  0.73828494
   0.47309175  0.23586637  0.82720721
   0.22309172  0.98586613  0.91612959
