 264 264   0   0
  0.2774202E+02  0.1958175E-08  0.1958175E-08  0.1910025E-08  0.5000000E-15
  1.000000000000000E-004
  CAR 
 Si and Ge interface calculation         
      6.64931368     -9.33478254  301      4.04239034      1.00000000
     -9.335  0.0000E+00  0.0000E+00  0.0000E+00  0.0000E+00
     -9.282  0.0000E+00  0.0000E+00  0.0000E+00  0.0000E+00
     -9.228  0.0000E+00  0.0000E+00  0.0000E+00  0.0000E+00
     -9.175  0.0000E+00  0.0000E+00  0.0000E+00  0.0000E+00
     -9.122  0.0000E+00  0.0000E+00  0.0000E+00  0.0000E+00
     -9.068  0.0000E+00  0.0000E+00  0.0000E+00  0.0000E+00
     -9.015  0.0000E+00  0.0000E+00  0.0000E+00  0.0000E+00
     -8.962  0.0000E+00  0.0000E+00  0.0000E+00  0.0000E+00
     -8.909  0.0000E+00  0.0000E+00  0.0000E+00  0.0000E+00
     -8.855  0.0000E+00  0.0000E+00  0.0000E+00  0.0000E+00
     -8.802  0.0000E+00  0.0000E+00  0.0000E+00  0.0000E+00
     -8.749  0.0000E+00  0.0000E+00  0.0000E+00  0.0000E+00
     -8.695  0.0000E+00  0.0000E+00  0.0000E+00  0.0000E+00
     -8.642  0.8001E-05  0.2825E-05  0.4263E-06  0.1505E-06
     -8.589  0.3637E+02  0.3579E+02  0.1938E+01  0.1907E+01
     -8.536  0.1165E+01  0.1744E+01  0.2000E+01  0.2000E+01
     -8.482  0.0000E+00  0.0000E+00  0.2000E+01  0.2000E+01
     -8.429  0.0000E+00  0.0000E+00  0.2000E+01  0.2000E+01
     -8.376  0.0000E+00  0.0000E+00  0.2000E+01  0.2000E+01
     -8.322  0.1511E+01  0.9868E+00  0.2081E+01  0.2053E+01
     -8.269  0.3601E+02  0.3653E+02  0.3999E+01  0.3999E+01
     -8.216  0.1222E-01  0.2376E-01  0.4000E+01  0.4000E+01
     -8.163  0.0000E+00  0.0000E+00  0.4000E+01  0.4000E+01
     -8.109  0.1157E-07  0.2532E-08  0.4000E+01  0.4000E+01
     -8.056  0.1019E+02  0.9428E+01  0.4543E+01  0.4502E+01
     -8.003  0.2617E+02  0.2548E+02  0.5937E+01  0.5860E+01
     -7.949  0.2277E+02  0.2339E+02  0.7151E+01  0.7106E+01
     -7.896  0.2810E+02  0.2757E+02  0.8648E+01  0.8575E+01
     -7.843  0.9120E+01  0.9783E+01  0.9134E+01  0.9096E+01
     -7.790  0.7259E+01  0.7799E+01  0.9520E+01  0.9512E+01
     -7.736  0.2773E+02  0.2786E+02  0.1100E+02  0.1100E+02
     -7.683  0.9438E+01  0.9449E+01  0.1150E+02  0.1150E+02
     -7.630  0.1810E+02  0.1778E+02  0.1247E+02  0.1245E+02
     -7.577  0.1804E+02  0.1776E+02  0.1343E+02  0.1339E+02
     -7.523  0.3225E+02  0.3126E+02  0.1515E+02  0.1506E+02
     -7.470  0.1480E+02  0.1588E+02  0.1593E+02  0.1591E+02
     -7.417  0.8467E+01  0.8186E+01  0.1638E+02  0.1634E+02
     -7.363  0.3902E+02  0.3944E+02  0.1846E+02  0.1844E+02
     -7.310  0.1952E+02  0.1987E+02  0.1950E+02  0.1950E+02
     -7.257  0.2698E+02  0.2648E+02  0.2094E+02  0.2091E+02
     -7.204  0.4435E+02  0.4355E+02  0.2330E+02  0.2323E+02
     -7.150  0.1746E+02  0.1745E+02  0.2423E+02  0.2416E+02
     -7.097  0.2751E+02  0.2741E+02  0.2570E+02  0.2562E+02
     -7.044  0.2642E+02  0.2721E+02  0.2711E+02  0.2707E+02
     -6.990  0.3486E+02  0.3467E+02  0.2897E+02  0.2892E+02
     -6.937  0.3770E+02  0.3581E+02  0.3097E+02  0.3083E+02
     -6.884  0.4630E+02  0.4831E+02  0.3344E+02  0.3340E+02
     -6.831  0.4696E+02  0.4525E+02  0.3594E+02  0.3581E+02
     -6.777  0.3711E+02  0.3818E+02  0.3792E+02  0.3785E+02
     -6.724  0.4801E+02  0.4807E+02  0.4048E+02  0.4041E+02
     -6.671  0.3139E+02  0.3172E+02  0.4215E+02  0.4210E+02
     -6.617  0.3108E+02  0.3044E+02  0.4381E+02  0.4372E+02
     -6.564  0.4417E+02  0.4464E+02  0.4616E+02  0.4610E+02
     -6.511  0.4592E+02  0.4550E+02  0.4861E+02  0.4852E+02
     -6.458  0.2735E+02  0.2836E+02  0.5006E+02  0.5003E+02
     -6.404  0.4834E+02  0.4686E+02  0.5264E+02  0.5253E+02
     -6.351  0.4038E+02  0.4019E+02  0.5479E+02  0.5467E+02
     -6.298  0.5573E+02  0.5426E+02  0.5776E+02  0.5756E+02
     -6.245  0.5376E+02  0.5604E+02  0.6062E+02  0.6055E+02
     -6.191  0.4866E+02  0.4674E+02  0.6322E+02  0.6304E+02
     -6.138  0.6621E+02  0.6801E+02  0.6675E+02  0.6666E+02
     -6.085  0.8073E+02  0.7835E+02  0.7105E+02  0.7084E+02
     -6.031  0.6661E+02  0.6779E+02  0.7460E+02  0.7445E+02
     -5.978  0.6007E+02  0.6103E+02  0.7780E+02  0.7770E+02
     -5.925  0.6149E+02  0.5987E+02  0.8107E+02  0.8089E+02
     -5.872  0.7450E+02  0.7524E+02  0.8504E+02  0.8490E+02
     -5.818  0.8037E+02  0.7932E+02  0.8932E+02  0.8913E+02
     -5.765  0.8010E+02  0.8138E+02  0.9359E+02  0.9346E+02
     -5.712  0.7856E+02  0.7699E+02  0.9778E+02  0.9756E+02
     -5.658  0.8374E+02  0.8446E+02  0.1022E+03  0.1021E+03
     -5.605  0.8119E+02  0.7986E+02  0.1066E+03  0.1063E+03
     -5.552  0.7474E+02  0.7555E+02  0.1105E+03  0.1103E+03
     -5.499  0.5718E+02  0.5689E+02  0.1136E+03  0.1134E+03
     -5.445  0.7001E+02  0.6937E+02  0.1173E+03  0.1171E+03
     -5.392  0.8115E+02  0.8308E+02  0.1216E+03  0.1215E+03
     -5.339  0.9109E+02  0.8922E+02  0.1265E+03  0.1263E+03
     -5.285  0.9110E+02  0.9166E+02  0.1314E+03  0.1311E+03
     -5.232  0.5977E+02  0.6005E+02  0.1345E+03  0.1343E+03
     -5.179  0.7002E+02  0.7214E+02  0.1383E+03  0.1382E+03
     -5.126  0.6814E+02  0.6701E+02  0.1419E+03  0.1417E+03
     -5.072  0.7769E+02  0.7683E+02  0.1460E+03  0.1458E+03
     -5.019  0.5885E+02  0.5958E+02  0.1492E+03  0.1490E+03
     -4.966  0.6458E+02  0.6565E+02  0.1526E+03  0.1525E+03
     -4.913  0.8525E+02  0.8136E+02  0.1572E+03  0.1568E+03
     -4.859  0.6783E+02  0.7112E+02  0.1608E+03  0.1606E+03
     -4.806  0.8905E+02  0.8828E+02  0.1655E+03  0.1653E+03
     -4.753  0.1188E+03  0.1149E+03  0.1718E+03  0.1715E+03
     -4.699  0.1253E+03  0.1268E+03  0.1785E+03  0.1782E+03
     -4.646  0.9668E+02  0.9595E+02  0.1837E+03  0.1833E+03
     -4.593  0.8718E+02  0.8646E+02  0.1883E+03  0.1879E+03
     -4.540  0.1055E+03  0.1064E+03  0.1939E+03  0.1936E+03
     -4.486  0.1057E+03  0.1044E+03  0.1996E+03  0.1992E+03
     -4.433  0.9233E+02  0.9345E+02  0.2045E+03  0.2042E+03
     -4.380  0.1072E+03  0.1070E+03  0.2102E+03  0.2099E+03
     -4.326  0.6235E+02  0.6432E+02  0.2135E+03  0.2133E+03
     -4.273  0.8353E+02  0.8101E+02  0.2180E+03  0.2176E+03
     -4.220  0.7084E+02  0.7230E+02  0.2217E+03  0.2214E+03
     -4.167  0.9669E+02  0.9687E+02  0.2269E+03  0.2266E+03
     -4.113  0.8319E+02  0.8338E+02  0.2313E+03  0.2311E+03
     -4.060  0.7182E+02  0.7262E+02  0.2352E+03  0.2349E+03
     -4.007  0.6133E+02  0.6271E+02  0.2384E+03  0.2383E+03
     -3.953  0.5069E+02  0.4976E+02  0.2411E+03  0.2409E+03
     -3.900  0.3949E+02  0.4104E+02  0.2432E+03  0.2431E+03
     -3.847  0.6575E+02  0.6169E+02  0.2467E+03  0.2464E+03
     -3.794  0.4841E+02  0.5190E+02  0.2493E+03  0.2492E+03
     -3.740  0.6448E+02  0.6449E+02  0.2527E+03  0.2526E+03
     -3.687  0.7103E+02  0.6869E+02  0.2565E+03  0.2562E+03
     -3.634  0.8010E+02  0.7955E+02  0.2608E+03  0.2605E+03
     -3.581  0.6679E+02  0.6663E+02  0.2644E+03  0.2640E+03
     -3.527  0.5820E+02  0.5913E+02  0.2675E+03  0.2672E+03
     -3.474  0.8878E+02  0.8857E+02  0.2722E+03  0.2719E+03
     -3.421  0.7040E+02  0.7066E+02  0.2759E+03  0.2757E+03
     -3.367  0.8513E+02  0.8425E+02  0.2805E+03  0.2802E+03
     -3.314  0.7358E+02  0.7556E+02  0.2844E+03  0.2842E+03
     -3.261  0.6897E+02  0.6678E+02  0.2881E+03  0.2877E+03
     -3.208  0.7210E+02  0.7270E+02  0.2919E+03  0.2916E+03
     -3.154  0.7769E+02  0.7617E+02  0.2961E+03  0.2957E+03
     -3.101  0.6082E+02  0.6210E+02  0.2993E+03  0.2990E+03
     -3.048  0.7646E+02  0.7710E+02  0.3034E+03  0.3031E+03
     -2.994  0.7047E+02  0.6952E+02  0.3071E+03  0.3068E+03
     -2.941  0.9341E+02  0.9146E+02  0.3121E+03  0.3117E+03
     -2.888  0.1021E+03  0.1027E+03  0.3175E+03  0.3171E+03
     -2.835  0.7735E+02  0.8031E+02  0.3217E+03  0.3214E+03
     -2.781  0.1033E+03  0.1022E+03  0.3272E+03  0.3269E+03
     -2.728  0.9611E+02  0.9686E+02  0.3323E+03  0.3320E+03
     -2.675  0.9464E+02  0.9365E+02  0.3373E+03  0.3370E+03
     -2.621  0.9208E+02  0.9288E+02  0.3422E+03  0.3420E+03
     -2.568  0.1266E+03  0.1251E+03  0.3490E+03  0.3486E+03
     -2.515  0.1101E+03  0.1101E+03  0.3548E+03  0.3545E+03
     -2.462  0.1133E+03  0.1132E+03  0.3609E+03  0.3605E+03
     -2.408  0.9553E+02  0.9581E+02  0.3660E+03  0.3656E+03
     -2.355  0.9162E+02  0.9244E+02  0.3709E+03  0.3706E+03
     -2.302  0.9853E+02  0.9887E+02  0.3761E+03  0.3758E+03
     -2.248  0.9678E+02  0.9848E+02  0.3813E+03  0.3811E+03
     -2.195  0.4920E+02  0.5142E+02  0.3839E+03  0.3838E+03
     -2.142  0.3821E+02  0.3620E+02  0.3859E+03  0.3857E+03
     -2.089  0.6893E+02  0.6873E+02  0.3896E+03  0.3894E+03
     -2.035  0.6730E+02  0.6637E+02  0.3932E+03  0.3929E+03
     -1.982  0.9020E+02  0.8946E+02  0.3980E+03  0.3977E+03
     -1.929  0.9366E+02  0.9321E+02  0.4030E+03  0.4027E+03
     -1.876  0.9884E+02  0.1006E+03  0.4082E+03  0.4080E+03
     -1.822  0.6087E+02  0.6139E+02  0.4115E+03  0.4113E+03
     -1.769  0.9309E+02  0.8854E+02  0.4164E+03  0.4160E+03
     -1.716  0.1082E+03  0.1100E+03  0.4222E+03  0.4219E+03
     -1.662  0.8846E+02  0.9007E+02  0.4269E+03  0.4267E+03
     -1.609  0.7261E+02  0.7441E+02  0.4308E+03  0.4306E+03
     -1.556  0.1017E+03  0.1015E+03  0.4362E+03  0.4361E+03
     -1.503  0.4528E+02  0.4444E+02  0.4386E+03  0.4384E+03
     -1.449  0.5566E+02  0.5738E+02  0.4416E+03  0.4415E+03
     -1.396  0.5364E+02  0.5256E+02  0.4444E+03  0.4443E+03
     -1.343  0.8755E+02  0.8492E+02  0.4491E+03  0.4488E+03
     -1.289  0.3050E+02  0.3497E+02  0.4507E+03  0.4507E+03
     -1.236  0.6433E+02  0.5982E+02  0.4542E+03  0.4539E+03
     -1.183  0.5902E+02  0.6047E+02  0.4573E+03  0.4571E+03
     -1.130  0.5343E+02  0.5557E+02  0.4602E+03  0.4600E+03
     -1.076  0.4129E+02  0.3990E+02  0.4624E+03  0.4622E+03
     -1.023  0.5985E+02  0.5994E+02  0.4655E+03  0.4654E+03
     -0.970  0.3648E+02  0.3759E+02  0.4675E+03  0.4674E+03
     -0.916  0.2767E+02  0.2664E+02  0.4690E+03  0.4688E+03
     -0.863  0.8212E+02  0.8138E+02  0.4733E+03  0.4731E+03
     -0.810  0.5576E+02  0.5693E+02  0.4763E+03  0.4762E+03
     -0.757  0.5140E+02  0.5191E+02  0.4790E+03  0.4789E+03
     -0.703  0.5566E+02  0.5459E+02  0.4820E+03  0.4818E+03
     -0.650  0.8321E+02  0.8474E+02  0.4864E+03  0.4863E+03
     -0.597  0.2662E+02  0.2732E+02  0.4879E+03  0.4878E+03
     -0.544  0.2789E+02  0.2782E+02  0.4893E+03  0.4893E+03
     -0.490  0.2247E+02  0.2166E+02  0.4905E+03  0.4904E+03
     -0.437  0.3198E+02  0.3324E+02  0.4922E+03  0.4922E+03
     -0.384  0.4137E+02  0.3836E+02  0.4945E+03  0.4942E+03
     -0.330  0.7025E+02  0.7032E+02  0.4982E+03  0.4980E+03
     -0.277  0.6749E+02  0.6670E+02  0.5018E+03  0.5015E+03
     -0.224  0.8495E+02  0.8549E+02  0.5063E+03  0.5061E+03
     -0.171  0.1002E+03  0.1007E+03  0.5117E+03  0.5115E+03
     -0.117  0.1256E+03  0.1216E+03  0.5183E+03  0.5179E+03
     -0.064  0.9806E+02  0.1010E+03  0.5236E+03  0.5233E+03
     -0.011  0.1106E+03  0.1099E+03  0.5295E+03  0.5292E+03
      0.043  0.9753E+02  0.9750E+02  0.5347E+03  0.5344E+03
      0.096  0.1467E+03  0.1449E+03  0.5425E+03  0.5421E+03
      0.149  0.1025E+03  0.1060E+03  0.5479E+03  0.5477E+03
      0.202  0.8564E+02  0.8701E+02  0.5525E+03  0.5524E+03
      0.256  0.7918E+02  0.7765E+02  0.5567E+03  0.5565E+03
      0.309  0.8829E+02  0.8573E+02  0.5614E+03  0.5611E+03
      0.362  0.8907E+02  0.9247E+02  0.5662E+03  0.5660E+03
      0.416  0.1133E+03  0.1096E+03  0.5722E+03  0.5719E+03
      0.469  0.9355E+02  0.9503E+02  0.5772E+03  0.5769E+03
      0.522  0.8100E+02  0.8085E+02  0.5815E+03  0.5812E+03
      0.575  0.1209E+03  0.1222E+03  0.5879E+03  0.5877E+03
      0.629  0.1234E+03  0.1223E+03  0.5945E+03  0.5942E+03
      0.682  0.1244E+03  0.1215E+03  0.6011E+03  0.6007E+03
      0.735  0.1524E+03  0.1549E+03  0.6093E+03  0.6090E+03
      0.788  0.1360E+03  0.1345E+03  0.6165E+03  0.6161E+03
      0.842  0.1001E+03  0.1035E+03  0.6218E+03  0.6217E+03
      0.895  0.1155E+03  0.1135E+03  0.6280E+03  0.6277E+03
      0.948  0.1045E+03  0.1050E+03  0.6336E+03  0.6333E+03
      1.002  0.1231E+03  0.1226E+03  0.6401E+03  0.6398E+03
      1.055  0.1337E+03  0.1295E+03  0.6472E+03  0.6467E+03
      1.108  0.1848E+03  0.1863E+03  0.6571E+03  0.6567E+03
      1.161  0.1698E+03  0.1704E+03  0.6661E+03  0.6657E+03
      1.215  0.1751E+03  0.1739E+03  0.6755E+03  0.6750E+03
      1.268  0.1723E+03  0.1736E+03  0.6847E+03  0.6843E+03
      1.321  0.2014E+03  0.1962E+03  0.6954E+03  0.6947E+03
      1.375  0.1613E+03  0.1666E+03  0.7040E+03  0.7036E+03
      1.428  0.1327E+03  0.1324E+03  0.7110E+03  0.7106E+03
      1.481  0.1628E+03  0.1595E+03  0.7197E+03  0.7191E+03
      1.534  0.2084E+03  0.2087E+03  0.7308E+03  0.7302E+03
      1.588  0.1955E+03  0.1977E+03  0.7412E+03  0.7408E+03
      1.641  0.1831E+03  0.1855E+03  0.7510E+03  0.7507E+03
      1.694  0.1855E+03  0.1837E+03  0.7609E+03  0.7605E+03
      1.748  0.2007E+03  0.1972E+03  0.7716E+03  0.7710E+03
      1.801  0.1589E+03  0.1643E+03  0.7800E+03  0.7797E+03
      1.854  0.1714E+03  0.1694E+03  0.7892E+03  0.7887E+03
      1.907  0.1669E+03  0.1651E+03  0.7981E+03  0.7975E+03
      1.961  0.2142E+03  0.2158E+03  0.8095E+03  0.8090E+03
      2.014  0.1456E+03  0.1467E+03  0.8172E+03  0.8168E+03
      2.067  0.1852E+03  0.1830E+03  0.8271E+03  0.8266E+03
      2.120  0.2103E+03  0.2082E+03  0.8383E+03  0.8377E+03
      2.174  0.1736E+03  0.1788E+03  0.8476E+03  0.8472E+03
      2.227  0.1504E+03  0.1438E+03  0.8556E+03  0.8549E+03
      2.280  0.1653E+03  0.1664E+03  0.8644E+03  0.8637E+03
      2.334  0.1403E+03  0.1437E+03  0.8718E+03  0.8714E+03
      2.387  0.2079E+03  0.2035E+03  0.8829E+03  0.8822E+03
      2.440  0.1558E+03  0.1603E+03  0.8912E+03  0.8908E+03
      2.493  0.1388E+03  0.1352E+03  0.8986E+03  0.8980E+03
      2.547  0.1367E+03  0.1388E+03  0.9059E+03  0.9054E+03
      2.600  0.1307E+03  0.1313E+03  0.9129E+03  0.9124E+03
      2.653  0.1362E+03  0.1368E+03  0.9201E+03  0.9197E+03
      2.707  0.1209E+03  0.1203E+03  0.9266E+03  0.9261E+03
      2.760  0.1611E+03  0.1559E+03  0.9351E+03  0.9344E+03
      2.813  0.1342E+03  0.1357E+03  0.9423E+03  0.9416E+03
      2.866  0.1398E+03  0.1409E+03  0.9498E+03  0.9491E+03
      2.920  0.1510E+03  0.1514E+03  0.9578E+03  0.9572E+03
      2.973  0.1051E+03  0.1062E+03  0.9634E+03  0.9628E+03
      3.026  0.1293E+03  0.1273E+03  0.9703E+03  0.9696E+03
      3.080  0.1353E+03  0.1340E+03  0.9775E+03  0.9768E+03
      3.133  0.9816E+02  0.9844E+02  0.9827E+03  0.9820E+03
      3.186  0.1125E+03  0.1135E+03  0.9887E+03  0.9880E+03
      3.239  0.1034E+03  0.1104E+03  0.9942E+03  0.9939E+03
      3.293  0.9978E+02  0.9375E+02  0.9995E+03  0.9989E+03
      3.346  0.1155E+03  0.1159E+03  0.1006E+04  0.1005E+04
      3.399  0.8230E+02  0.8773E+02  0.1010E+04  0.1010E+04
      3.452  0.7641E+02  0.7245E+02  0.1014E+04  0.1014E+04
      3.506  0.1082E+03  0.1077E+03  0.1020E+04  0.1019E+04
      3.559  0.8901E+02  0.9022E+02  0.1025E+04  0.1024E+04
      3.612  0.1102E+03  0.1074E+03  0.1031E+04  0.1030E+04
      3.666  0.6631E+02  0.6706E+02  0.1034E+04  0.1033E+04
      3.719  0.5990E+02  0.6692E+02  0.1037E+04  0.1037E+04
      3.772  0.3983E+02  0.2843E+02  0.1039E+04  0.1039E+04
      3.825  0.4846E+02  0.5973E+02  0.1042E+04  0.1042E+04
      3.879  0.3943E+02  0.3864E+02  0.1044E+04  0.1044E+04
      3.932  0.4991E+02  0.4375E+02  0.1047E+04  0.1046E+04
      3.985  0.6954E+02  0.6896E+02  0.1050E+04  0.1050E+04
      4.039  0.1011E+03  0.8803E+02  0.1056E+04  0.1054E+04
      4.092  0.1179E+03  0.1245E+03  0.1062E+04  0.1061E+04
      4.145  0.7021E+02  0.7959E+02  0.1066E+04  0.1065E+04
      4.198  0.1084E+03  0.1023E+03  0.1072E+04  0.1071E+04
      4.252  0.1031E+03  0.9597E+02  0.1077E+04  0.1076E+04
      4.305  0.1103E+03  0.1157E+03  0.1083E+04  0.1082E+04
      4.358  0.1155E+03  0.1148E+03  0.1089E+04  0.1088E+04
      4.412  0.1323E+03  0.1374E+03  0.1096E+04  0.1096E+04
      4.465  0.1226E+03  0.1159E+03  0.1103E+04  0.1102E+04
      4.518  0.9137E+02  0.9937E+02  0.1108E+04  0.1107E+04
      4.571  0.1038E+03  0.1002E+03  0.1113E+04  0.1112E+04
      4.625  0.1276E+03  0.1312E+03  0.1120E+04  0.1119E+04
      4.678  0.1019E+03  0.9892E+02  0.1125E+04  0.1125E+04
      4.731  0.1079E+03  0.1041E+03  0.1131E+04  0.1130E+04
      4.785  0.1219E+03  0.1232E+03  0.1138E+04  0.1137E+04
      4.838  0.1355E+03  0.1364E+03  0.1145E+04  0.1144E+04
      4.891  0.1055E+03  0.1077E+03  0.1150E+04  0.1150E+04
      4.944  0.1228E+03  0.1211E+03  0.1157E+04  0.1156E+04
      4.998  0.1133E+03  0.1132E+03  0.1163E+04  0.1162E+04
      5.051  0.1523E+03  0.1508E+03  0.1171E+04  0.1170E+04
      5.104  0.9592E+02  0.1043E+03  0.1176E+04  0.1176E+04
      5.157  0.1075E+03  0.1057E+03  0.1182E+04  0.1181E+04
      5.211  0.1023E+03  0.9935E+02  0.1187E+04  0.1187E+04
      5.264  0.8902E+02  0.9196E+02  0.1192E+04  0.1192E+04
      5.317  0.1092E+03  0.1070E+03  0.1198E+04  0.1197E+04
      5.371  0.1136E+03  0.1149E+03  0.1204E+04  0.1203E+04
      5.424  0.1400E+03  0.1411E+03  0.1211E+04  0.1211E+04
      5.477  0.1210E+03  0.1177E+03  0.1218E+04  0.1217E+04
      5.530  0.1697E+03  0.1715E+03  0.1227E+04  0.1226E+04
      5.584  0.1352E+03  0.1367E+03  0.1234E+04  0.1234E+04
      5.637  0.1419E+03  0.1413E+03  0.1242E+04  0.1241E+04
      5.690  0.1003E+03  0.1016E+03  0.1247E+04  0.1247E+04
      5.744  0.1191E+03  0.1208E+03  0.1253E+04  0.1253E+04
      5.797  0.1292E+03  0.1258E+03  0.1260E+04  0.1260E+04
      5.850  0.1121E+03  0.1145E+03  0.1266E+04  0.1266E+04
      5.903  0.8866E+02  0.9994E+02  0.1271E+04  0.1271E+04
      5.957  0.1866E+02  0.1577E+02  0.1272E+04  0.1272E+04
      6.010  0.0000E+00  0.0000E+00  0.1272E+04  0.1272E+04
      6.063  0.0000E+00  0.0000E+00  0.1272E+04  0.1272E+04
      6.117  0.0000E+00  0.0000E+00  0.1272E+04  0.1272E+04
      6.170  0.0000E+00  0.0000E+00  0.1272E+04  0.1272E+04
      6.223  0.0000E+00  0.0000E+00  0.1272E+04  0.1272E+04
      6.276  0.0000E+00  0.0000E+00  0.1272E+04  0.1272E+04
      6.330  0.0000E+00  0.0000E+00  0.1272E+04  0.1272E+04
      6.383  0.0000E+00  0.0000E+00  0.1272E+04  0.1272E+04
      6.436  0.0000E+00  0.0000E+00  0.1272E+04  0.1272E+04
      6.489  0.0000E+00  0.0000E+00  0.1272E+04  0.1272E+04
      6.543  0.0000E+00  0.0000E+00  0.1272E+04  0.1272E+04
      6.596  0.0000E+00  0.0000E+00  0.1272E+04  0.1272E+04
      6.649  0.0000E+00  0.0000E+00  0.1272E+04  0.1272E+04
