       N       E                     dE             d eps       ncg     rms          rms(c)
DAV:   1     0.238330596156E+04    0.23833E+04   -0.26177E+05 16128   0.189E+03
DAV:   2    -0.528844320027E+03   -0.29122E+04   -0.27796E+04 19736   0.299E+02
DAV:   3    -0.826622180080E+03   -0.29778E+03   -0.28449E+03 19856   0.893E+01
DAV:   4    -0.841044957761E+03   -0.14423E+02   -0.13931E+02 20960   0.196E+01
DAV:   5    -0.841668615741E+03   -0.62366E+00   -0.61367E+00 21760   0.375E+00    0.451E+01
DAV:   6    -0.809259883867E+03    0.32409E+02   -0.39800E+02 21736   0.392E+01    0.339E+01
DAV:   7    -0.784866742655E+03    0.24393E+02   -0.17544E+02 20456   0.251E+01    0.130E+01
DAV:   8    -0.787699589337E+03   -0.28328E+01   -0.26899E+01 20896   0.116E+01    0.869E+00
DAV:   9    -0.785931374956E+03    0.17682E+01   -0.81444E+00 21008   0.866E+00    0.456E+00
DAV:  10    -0.785581512773E+03    0.34986E+00   -0.22010E+00 20728   0.377E+00    0.232E+00
DAV:  11    -0.785581619742E+03   -0.10697E-03   -0.78675E-01 20280   0.209E+00    0.176E+00
DAV:  12    -0.785571097423E+03    0.10522E-01   -0.21601E-01 20192   0.120E+00    0.117E+00
DAV:  13    -0.785564007009E+03    0.70904E-02   -0.76096E-02 20272   0.760E-01    0.646E-01
DAV:  14    -0.785562460254E+03    0.15468E-02   -0.29351E-02 20176   0.433E-01    0.322E-01
DAV:  15    -0.785560926583E+03    0.15337E-02   -0.10761E-02 20512   0.272E-01    0.167E-01
DAV:  16    -0.785560344149E+03    0.58243E-03   -0.34867E-03 20384   0.145E-01    0.802E-02
DAV:  17    -0.785560321361E+03    0.22788E-04   -0.97519E-04 20472   0.635E-02    0.466E-02
DAV:  18    -0.785560320852E+03    0.50899E-06   -0.22650E-04 20496   0.315E-02    0.203E-02
DAV:  19    -0.785560322521E+03   -0.16681E-05   -0.64729E-05 19872   0.170E-02    0.100E-02
DAV:  20    -0.785560322482E+03    0.38919E-07   -0.13550E-05 19672   0.839E-03    0.554E-03
DAV:  21    -0.785560322515E+03   -0.33615E-07   -0.36671E-06 20432   0.451E-03    0.350E-03
DAV:  22    -0.785560322439E+03    0.76245E-07   -0.12698E-06 20776   0.261E-03    0.212E-03
DAV:  23    -0.785560322384E+03    0.55064E-07   -0.44726E-07 14872   0.159E-03
   1 F= -.78556032E+03 E0= -.78555955E+03  d E =-.154251E-02  mag=     1.0000
