 120 120   0   0
  0.2190039E+02  0.7680595E-09  0.1629300E-08  0.2100086E-08  0.5000000E-15
  1.000000000000000E-004
  CAR 
 Si and Ge interface calculation         
      7.80436499     -8.60515178  301      4.75060816      1.00000000
     -8.605  0.0000E+00  0.0000E+00  0.0000E+00  0.0000E+00
     -8.550  0.0000E+00  0.0000E+00  0.0000E+00  0.0000E+00
     -8.496  0.0000E+00  0.0000E+00  0.0000E+00  0.0000E+00
     -8.441  0.0000E+00  0.0000E+00  0.0000E+00  0.0000E+00
     -8.386  0.0000E+00  0.0000E+00  0.0000E+00  0.0000E+00
     -8.332  0.0000E+00  0.0000E+00  0.0000E+00  0.0000E+00
     -8.277  0.0000E+00  0.0000E+00  0.0000E+00  0.0000E+00
     -8.222  0.0000E+00  0.0000E+00  0.0000E+00  0.0000E+00
     -8.168  0.0000E+00  0.0000E+00  0.0000E+00  0.0000E+00
     -8.113  0.0000E+00  0.0000E+00  0.0000E+00  0.0000E+00
     -8.058  0.0000E+00  0.0000E+00  0.0000E+00  0.0000E+00
     -8.003  0.0000E+00  0.0000E+00  0.0000E+00  0.0000E+00
     -7.949  0.0000E+00  0.0000E+00  0.0000E+00  0.0000E+00
     -7.894  0.1952E-05  0.1321E-07  0.1068E-06  0.7226E-09
     -7.839  0.4559E+01  0.4443E+01  0.2494E+00  0.2430E+00
     -7.785  0.2711E-01  0.1281E+00  0.2509E+00  0.2500E+00
     -7.730  0.1019E+02  0.9310E+01  0.8082E+00  0.7593E+00
     -7.675  0.8076E+01  0.8971E+01  0.1250E+01  0.1250E+01
     -7.621  0.1498E+02  0.8728E+01  0.2069E+01  0.1727E+01
     -7.566  0.8206E+01  0.1423E+02  0.2518E+01  0.2506E+01
     -7.511  0.4238E+01  0.4463E+01  0.2750E+01  0.2750E+01
     -7.456  0.1759E+02  0.1612E+02  0.3712E+01  0.3631E+01
     -7.402  0.9830E+01  0.1128E+02  0.4250E+01  0.4249E+01
     -7.347  0.6030E+01  0.1871E+01  0.4580E+01  0.4351E+01
     -7.292  0.3035E+02  0.3209E+02  0.6240E+01  0.6106E+01
     -7.238  0.1842E+02  0.2038E+02  0.7247E+01  0.7221E+01
     -7.183  0.2172E+02  0.2032E+02  0.8435E+01  0.8332E+01
     -7.128  0.3367E+02  0.3470E+02  0.1028E+02  0.1023E+02
     -7.074  0.1099E+02  0.9931E+01  0.1088E+02  0.1077E+02
     -7.019  0.1182E+02  0.1339E+02  0.1152E+02  0.1151E+02
     -6.964  0.2249E+02  0.2270E+02  0.1275E+02  0.1275E+02
     -6.910  0.1802E+02  0.1682E+02  0.1374E+02  0.1367E+02
     -6.855  0.1339E+02  0.1377E+02  0.1447E+02  0.1442E+02
     -6.800  0.3319E+02  0.2556E+02  0.1629E+02  0.1582E+02
     -6.745  0.1872E+02  0.2648E+02  0.1731E+02  0.1727E+02
     -6.691  0.1796E+02  0.1794E+02  0.1829E+02  0.1825E+02
     -6.636  0.2664E+02  0.2729E+02  0.1975E+02  0.1974E+02
     -6.581  0.2302E+02  0.2247E+02  0.2101E+02  0.2097E+02
     -6.527  0.4068E+02  0.3636E+02  0.2324E+02  0.2296E+02
     -6.472  0.2245E+02  0.2543E+02  0.2446E+02  0.2435E+02
     -6.417  0.3323E+02  0.3117E+02  0.2628E+02  0.2606E+02
     -6.363  0.3840E+02  0.3900E+02  0.2838E+02  0.2819E+02
     -6.308  0.3073E+02  0.2948E+02  0.3006E+02  0.2980E+02
     -6.253  0.2584E+02  0.2948E+02  0.3148E+02  0.3141E+02
     -6.198  0.3541E+02  0.3122E+02  0.3341E+02  0.3312E+02
     -6.144  0.3630E+02  0.3529E+02  0.3540E+02  0.3505E+02
     -6.089  0.3849E+02  0.4445E+02  0.3750E+02  0.3748E+02
     -6.034  0.3413E+02  0.3033E+02  0.3937E+02  0.3914E+02
     -5.980  0.2899E+02  0.3048E+02  0.4096E+02  0.4081E+02
     -5.925  0.2897E+02  0.2615E+02  0.4254E+02  0.4224E+02
     -5.870  0.3260E+02  0.3719E+02  0.4433E+02  0.4427E+02
     -5.816  0.3734E+02  0.3572E+02  0.4637E+02  0.4623E+02
     -5.761  0.3902E+02  0.4056E+02  0.4850E+02  0.4845E+02
     -5.706  0.4234E+02  0.4219E+02  0.5082E+02  0.5075E+02
     -5.651  0.3130E+02  0.2773E+02  0.5253E+02  0.5227E+02
     -5.597  0.4933E+02  0.5221E+02  0.5523E+02  0.5513E+02
     -5.542  0.2099E+02  0.1720E+02  0.5638E+02  0.5607E+02
     -5.487  0.5348E+02  0.5269E+02  0.5930E+02  0.5895E+02
     -5.433  0.4085E+02  0.4535E+02  0.6154E+02  0.6143E+02
     -5.378  0.4384E+02  0.4141E+02  0.6393E+02  0.6370E+02
     -5.323  0.2786E+02  0.2972E+02  0.6546E+02  0.6532E+02
     -5.269  0.3377E+02  0.3538E+02  0.6731E+02  0.6726E+02
     -5.214  0.4059E+02  0.4078E+02  0.6953E+02  0.6949E+02
     -5.159  0.6426E+02  0.5968E+02  0.7304E+02  0.7275E+02
     -5.104  0.4559E+02  0.4398E+02  0.7553E+02  0.7516E+02
     -5.050  0.5086E+02  0.5591E+02  0.7832E+02  0.7822E+02
     -4.995  0.4384E+02  0.4246E+02  0.8071E+02  0.8054E+02
     -4.940  0.3570E+02  0.3312E+02  0.8267E+02  0.8235E+02
     -4.886  0.4243E+02  0.4595E+02  0.8499E+02  0.8486E+02
     -4.831  0.2342E+02  0.2228E+02  0.8627E+02  0.8608E+02
     -4.776  0.3802E+02  0.3266E+02  0.8835E+02  0.8787E+02
     -4.722  0.4464E+02  0.5147E+02  0.9079E+02  0.9068E+02
     -4.667  0.3673E+02  0.3772E+02  0.9280E+02  0.9275E+02
     -4.612  0.2515E+02  0.1938E+02  0.9417E+02  0.9381E+02
     -4.557  0.3251E+02  0.3558E+02  0.9595E+02  0.9575E+02
     -4.503  0.3130E+02  0.3253E+02  0.9767E+02  0.9753E+02
     -4.448  0.5059E+02  0.4947E+02  0.1004E+03  0.1002E+03
     -4.393  0.2650E+02  0.2830E+02  0.1019E+03  0.1018E+03
     -4.339  0.5032E+02  0.4487E+02  0.1046E+03  0.1042E+03
     -4.284  0.3520E+02  0.3709E+02  0.1066E+03  0.1063E+03
     -4.229  0.2165E+02  0.2585E+02  0.1077E+03  0.1077E+03
     -4.175  0.1454E+02  0.1485E+02  0.1085E+03  0.1085E+03
     -4.120  0.1881E+02  0.1861E+02  0.1096E+03  0.1095E+03
     -4.065  0.1868E+02  0.1457E+02  0.1106E+03  0.1103E+03
     -4.010  0.1324E+02  0.1485E+02  0.1113E+03  0.1111E+03
     -3.956  0.3079E+02  0.3409E+02  0.1130E+03  0.1130E+03
     -3.901  0.1846E+02  0.1822E+02  0.1140E+03  0.1140E+03
     -3.846  0.5270E+01  0.4886E+01  0.1143E+03  0.1143E+03
     -3.792  0.1286E+02  0.1348E+02  0.1150E+03  0.1150E+03
     -3.737  0.2626E+02  0.1820E+02  0.1164E+03  0.1160E+03
     -3.682  0.1943E+02  0.2760E+02  0.1175E+03  0.1175E+03
     -3.628  0.1908E+02  0.1350E+02  0.1185E+03  0.1182E+03
     -3.573  0.1891E+02  0.2363E+02  0.1196E+03  0.1195E+03
     -3.518  0.2152E+02  0.2203E+02  0.1208E+03  0.1207E+03
     -3.464  0.2515E+02  0.2327E+02  0.1221E+03  0.1220E+03
     -3.409  0.1428E+02  0.1401E+02  0.1229E+03  0.1228E+03
     -3.354  0.1266E+02  0.1389E+02  0.1236E+03  0.1235E+03
     -3.299  0.1352E+02  0.1368E+02  0.1243E+03  0.1243E+03
     -3.245  0.1607E+02  0.1620E+02  0.1252E+03  0.1252E+03
     -3.190  0.3366E+02  0.2358E+02  0.1271E+03  0.1265E+03
     -3.135  0.2624E+02  0.3125E+02  0.1285E+03  0.1282E+03
     -3.081  0.2689E+02  0.3060E+02  0.1300E+03  0.1298E+03
     -3.026  0.1825E+02  0.1656E+02  0.1310E+03  0.1307E+03
     -2.971  0.2387E+02  0.2760E+02  0.1323E+03  0.1323E+03
     -2.917  0.1790E+02  0.1816E+02  0.1333E+03  0.1332E+03
     -2.862  0.2285E+02  0.1601E+02  0.1345E+03  0.1341E+03
     -2.807  0.3020E+02  0.3254E+02  0.1362E+03  0.1359E+03
     -2.752  0.3495E+02  0.3352E+02  0.1381E+03  0.1377E+03
     -2.698  0.4964E+02  0.4872E+02  0.1408E+03  0.1404E+03
     -2.643  0.4888E+02  0.5086E+02  0.1435E+03  0.1432E+03
     -2.588  0.6049E+02  0.5820E+02  0.1468E+03  0.1464E+03
     -2.534  0.5492E+02  0.5068E+02  0.1498E+03  0.1491E+03
     -2.479  0.5669E+02  0.6355E+02  0.1529E+03  0.1526E+03
     -2.424  0.5479E+02  0.5235E+02  0.1559E+03  0.1555E+03
     -2.370  0.7616E+02  0.7648E+02  0.1600E+03  0.1597E+03
     -2.315  0.3550E+02  0.3414E+02  0.1620E+03  0.1615E+03
     -2.260  0.4488E+02  0.4681E+02  0.1644E+03  0.1641E+03
     -2.205  0.5287E+02  0.4937E+02  0.1673E+03  0.1668E+03
     -2.151  0.4589E+02  0.5308E+02  0.1698E+03  0.1697E+03
     -2.096  0.4504E+02  0.4048E+02  0.1723E+03  0.1719E+03
     -2.041  0.4960E+02  0.5339E+02  0.1750E+03  0.1748E+03
     -1.987  0.6002E+02  0.5530E+02  0.1783E+03  0.1779E+03
     -1.932  0.3127E+02  0.3912E+02  0.1800E+03  0.1800E+03
     -1.877  0.5096E+01  0.4762E+01  0.1803E+03  0.1803E+03
     -1.823  0.1972E+02  0.1834E+02  0.1814E+03  0.1813E+03
     -1.768  0.3398E+02  0.3276E+02  0.1832E+03  0.1830E+03
     -1.713  0.4672E+02  0.4543E+02  0.1858E+03  0.1855E+03
     -1.658  0.5088E+02  0.4887E+02  0.1886E+03  0.1882E+03
     -1.604  0.4800E+02  0.4607E+02  0.1912E+03  0.1907E+03
     -1.549  0.2872E+02  0.3645E+02  0.1928E+03  0.1927E+03
     -1.494  0.2344E+02  0.2050E+02  0.1940E+03  0.1938E+03
     -1.440  0.3051E+02  0.3162E+02  0.1957E+03  0.1956E+03
     -1.385  0.1971E+02  0.1756E+02  0.1968E+03  0.1965E+03
     -1.330  0.1627E+02  0.1937E+02  0.1977E+03  0.1976E+03
     -1.276  0.2618E+02  0.2334E+02  0.1991E+03  0.1989E+03
     -1.221  0.1006E+02  0.1267E+02  0.1997E+03  0.1996E+03
     -1.166  0.1083E+02  0.1183E+02  0.2002E+03  0.2002E+03
     -1.111  0.6198E+01  0.1919E+01  0.2006E+03  0.2003E+03
     -1.057  0.2894E+02  0.3103E+02  0.2022E+03  0.2020E+03
     -1.002  0.3833E+02  0.3322E+02  0.2043E+03  0.2038E+03
     -0.947  0.1730E+02  0.2455E+02  0.2052E+03  0.2052E+03
     -0.893  0.1905E+02  0.1977E+02  0.2063E+03  0.2062E+03
     -0.838  0.9130E+01  0.9143E+01  0.2068E+03  0.2067E+03
     -0.783  0.1715E+02  0.1302E+02  0.2077E+03  0.2075E+03
     -0.729  0.1197E+02  0.1462E+02  0.2083E+03  0.2083E+03
     -0.674  0.2884E+02  0.2522E+02  0.2099E+03  0.2096E+03
     -0.619  0.3369E+02  0.3607E+02  0.2118E+03  0.2116E+03
     -0.564  0.4144E+02  0.4051E+02  0.2140E+03  0.2138E+03
     -0.510  0.3613E+02  0.3959E+02  0.2160E+03  0.2160E+03
     -0.455  0.2281E+02  0.2266E+02  0.2173E+03  0.2172E+03
     -0.400  0.3708E+02  0.3448E+02  0.2193E+03  0.2191E+03
     -0.346  0.1312E+02  0.1608E+02  0.2200E+03  0.2200E+03
     -0.291  0.9429E+01  0.9128E+01  0.2205E+03  0.2205E+03
     -0.236  0.1366E+02  0.8930E+01  0.2213E+03  0.2210E+03
     -0.182  0.2720E+02  0.2879E+02  0.2228E+03  0.2226E+03
     -0.127  0.4555E+01  0.7999E+01  0.2230E+03  0.2230E+03
     -0.072  0.1168E+02  0.9535E+01  0.2236E+03  0.2235E+03
     -0.018  0.2333E+02  0.2285E+02  0.2249E+03  0.2248E+03
      0.037  0.1065E+02  0.1289E+02  0.2255E+03  0.2255E+03
      0.092  0.4458E+01  0.3937E+01  0.2257E+03  0.2257E+03
      0.147  0.2168E+02  0.1700E+02  0.2269E+03  0.2266E+03
      0.201  0.4375E+02  0.4269E+02  0.2293E+03  0.2290E+03
      0.256  0.7842E+02  0.7202E+02  0.2336E+03  0.2329E+03
      0.311  0.4319E+02  0.5307E+02  0.2360E+03  0.2358E+03
      0.365  0.4047E+02  0.3984E+02  0.2382E+03  0.2380E+03
      0.420  0.4085E+02  0.3816E+02  0.2404E+03  0.2401E+03
      0.475  0.4428E+02  0.4808E+02  0.2428E+03  0.2427E+03
      0.529  0.5072E+02  0.4929E+02  0.2456E+03  0.2454E+03
      0.584  0.3132E+02  0.2989E+02  0.2473E+03  0.2470E+03
      0.639  0.7472E+02  0.7210E+02  0.2514E+03  0.2510E+03
      0.694  0.3280E+02  0.3344E+02  0.2532E+03  0.2528E+03
      0.748  0.1023E+03  0.9831E+02  0.2588E+03  0.2582E+03
      0.803  0.8711E+02  0.8812E+02  0.2636E+03  0.2630E+03
      0.858  0.6577E+02  0.6838E+02  0.2672E+03  0.2667E+03
      0.912  0.5411E+02  0.5351E+02  0.2701E+03  0.2697E+03
      0.967  0.5111E+02  0.5245E+02  0.2729E+03  0.2725E+03
      1.022  0.4697E+02  0.4930E+02  0.2755E+03  0.2752E+03
      1.076  0.9120E+02  0.8418E+02  0.2805E+03  0.2798E+03
      1.131  0.5971E+02  0.6347E+02  0.2837E+03  0.2833E+03
      1.186  0.7682E+02  0.6878E+02  0.2880E+03  0.2871E+03
      1.241  0.6615E+02  0.7919E+02  0.2916E+03  0.2914E+03
      1.295  0.7102E+02  0.6261E+02  0.2955E+03  0.2948E+03
      1.350  0.9575E+02  0.9859E+02  0.3007E+03  0.3002E+03
      1.405  0.6390E+02  0.6339E+02  0.3042E+03  0.3037E+03
      1.459  0.8626E+02  0.7743E+02  0.3089E+03  0.3079E+03
      1.514  0.4993E+02  0.6157E+02  0.3116E+03  0.3113E+03
      1.569  0.5353E+02  0.5262E+02  0.3146E+03  0.3142E+03
      1.623  0.8336E+02  0.8101E+02  0.3191E+03  0.3186E+03
      1.678  0.8092E+02  0.8393E+02  0.3235E+03  0.3232E+03
      1.733  0.7380E+02  0.7237E+02  0.3276E+03  0.3271E+03
      1.788  0.9779E+02  0.9568E+02  0.3329E+03  0.3324E+03
      1.842  0.9526E+02  0.8785E+02  0.3381E+03  0.3372E+03
      1.897  0.8649E+02  0.9398E+02  0.3429E+03  0.3423E+03
      1.952  0.8038E+02  0.8100E+02  0.3473E+03  0.3468E+03
      2.006  0.4648E+02  0.4866E+02  0.3498E+03  0.3494E+03
      2.061  0.6249E+02  0.6493E+02  0.3532E+03  0.3530E+03
      2.116  0.7079E+02  0.6228E+02  0.3571E+03  0.3564E+03
      2.170  0.5069E+02  0.5795E+02  0.3599E+03  0.3595E+03
      2.225  0.7957E+02  0.7650E+02  0.3642E+03  0.3637E+03
      2.280  0.6627E+02  0.6646E+02  0.3679E+03  0.3674E+03
      2.335  0.9859E+02  0.9737E+02  0.3732E+03  0.3727E+03
      2.389  0.5545E+02  0.5603E+02  0.3763E+03  0.3758E+03
      2.444  0.7119E+02  0.6934E+02  0.3802E+03  0.3795E+03
      2.499  0.7985E+02  0.7959E+02  0.3845E+03  0.3839E+03
      2.553  0.6617E+02  0.7324E+02  0.3882E+03  0.3879E+03
      2.608  0.6784E+02  0.6582E+02  0.3919E+03  0.3915E+03
      2.663  0.5583E+02  0.5631E+02  0.3949E+03  0.3946E+03
      2.717  0.7644E+02  0.7516E+02  0.3991E+03  0.3987E+03
      2.772  0.6315E+02  0.6459E+02  0.4026E+03  0.4022E+03
      2.827  0.4060E+02  0.4000E+02  0.4048E+03  0.4044E+03
      2.882  0.5738E+02  0.5328E+02  0.4079E+03  0.4073E+03
      2.936  0.8431E+02  0.8334E+02  0.4125E+03  0.4119E+03
      2.991  0.4876E+02  0.5291E+02  0.4152E+03  0.4148E+03
      3.046  0.5296E+02  0.4680E+02  0.4181E+03  0.4173E+03
      3.100  0.8996E+02  0.9314E+02  0.4230E+03  0.4224E+03
      3.155  0.4607E+02  0.4429E+02  0.4255E+03  0.4249E+03
      3.210  0.7446E+02  0.7328E+02  0.4296E+03  0.4289E+03
      3.264  0.8797E+02  0.9648E+02  0.4344E+03  0.4341E+03
      3.319  0.6190E+02  0.5782E+02  0.4378E+03  0.4373E+03
      3.374  0.6321E+02  0.5826E+02  0.4413E+03  0.4405E+03
      3.428  0.5225E+02  0.6084E+02  0.4441E+03  0.4438E+03
      3.483  0.6506E+02  0.6130E+02  0.4477E+03  0.4472E+03
      3.538  0.2267E+02  0.2874E+02  0.4489E+03  0.4488E+03
      3.593  0.6061E+02  0.5420E+02  0.4522E+03  0.4517E+03
      3.647  0.2510E+02  0.3004E+02  0.4536E+03  0.4534E+03
      3.702  0.3955E+02  0.3298E+02  0.4558E+03  0.4552E+03
      3.757  0.2742E+02  0.3533E+02  0.4573E+03  0.4571E+03
      3.811  0.3346E+02  0.2934E+02  0.4591E+03  0.4587E+03
      3.866  0.2121E+02  0.2822E+02  0.4603E+03  0.4602E+03
      3.921  0.3571E+02  0.3150E+02  0.4622E+03  0.4620E+03
      3.975  0.2983E+02  0.2492E+02  0.4639E+03  0.4633E+03
      4.030  0.3013E+02  0.3801E+02  0.4655E+03  0.4654E+03
      4.085  0.2797E+02  0.2904E+02  0.4670E+03  0.4670E+03
      4.140  0.2606E+02  0.1541E+02  0.4685E+03  0.4678E+03
      4.194  0.1250E+02  0.1679E+02  0.4691E+03  0.4688E+03
      4.249  0.2986E+02  0.2425E+02  0.4708E+03  0.4701E+03
      4.304  0.1380E+02  0.2587E+02  0.4715E+03  0.4715E+03
      4.358  0.1781E+02  0.1828E+02  0.4725E+03  0.4725E+03
      4.413  0.1457E+02  0.3498E+01  0.4733E+03  0.4727E+03
      4.468  0.2581E+02  0.1517E+02  0.4747E+03  0.4735E+03
      4.522  0.2170E+02  0.3050E+02  0.4759E+03  0.4752E+03
      4.577  0.1423E+02  0.1929E+02  0.4767E+03  0.4762E+03
      4.632  0.1752E+01  0.9159E+01  0.4768E+03  0.4767E+03
      4.687  0.2256E+02  0.7782E+01  0.4780E+03  0.4772E+03
      4.741  0.4798E+02  0.2069E+02  0.4806E+03  0.4783E+03
      4.796  0.3369E+02  0.4831E+02  0.4825E+03  0.4809E+03
      4.851  0.2424E+02  0.3359E+02  0.4838E+03  0.4828E+03
      4.905  0.2362E+02  0.2985E+02  0.4851E+03  0.4844E+03
      4.960  0.2332E+02  0.2124E+02  0.4864E+03  0.4856E+03
      5.015  0.3538E+02  0.2373E+02  0.4883E+03  0.4869E+03
      5.069  0.4394E+02  0.4967E+02  0.4907E+03  0.4896E+03
      5.124  0.1976E+02  0.2815E+02  0.4918E+03  0.4911E+03
      5.179  0.3536E+02  0.2175E+02  0.4937E+03  0.4923E+03
      5.234  0.2595E+02  0.3142E+02  0.4951E+03  0.4940E+03
      5.288  0.5842E+02  0.6077E+02  0.4983E+03  0.4974E+03
      5.343  0.2390E+02  0.3264E+02  0.4996E+03  0.4991E+03
      5.398  0.4050E+02  0.4503E+02  0.5019E+03  0.5016E+03
      5.452  0.3526E+02  0.2810E+02  0.5038E+03  0.5032E+03
      5.507  0.3629E+02  0.3963E+02  0.5058E+03  0.5053E+03
      5.562  0.4158E+02  0.4458E+02  0.5080E+03  0.5078E+03
      5.616  0.4337E+02  0.3693E+02  0.5104E+03  0.5098E+03
      5.671  0.6627E+02  0.6666E+02  0.5140E+03  0.5134E+03
      5.726  0.4941E+02  0.4321E+02  0.5167E+03  0.5158E+03
      5.781  0.4251E+02  0.5262E+02  0.5191E+03  0.5187E+03
      5.835  0.4711E+02  0.4477E+02  0.5216E+03  0.5211E+03
      5.890  0.6501E+02  0.6075E+02  0.5252E+03  0.5244E+03
      5.945  0.4717E+02  0.4650E+02  0.5278E+03  0.5270E+03
      5.999  0.4541E+02  0.5491E+02  0.5303E+03  0.5300E+03
      6.054  0.4298E+02  0.4220E+02  0.5326E+03  0.5323E+03
      6.109  0.6976E+02  0.6279E+02  0.5364E+03  0.5357E+03
      6.163  0.5171E+02  0.5350E+02  0.5393E+03  0.5387E+03
      6.218  0.6015E+02  0.6449E+02  0.5426E+03  0.5422E+03
      6.273  0.3748E+02  0.3713E+02  0.5446E+03  0.5442E+03
      6.328  0.2004E+02  0.1974E+02  0.5457E+03  0.5453E+03
      6.382  0.6564E+02  0.6210E+02  0.5493E+03  0.5487E+03
      6.437  0.5789E+02  0.6415E+02  0.5525E+03  0.5522E+03
      6.492  0.6413E+02  0.5773E+02  0.5560E+03  0.5554E+03
      6.546  0.7009E+02  0.7357E+02  0.5598E+03  0.5594E+03
      6.601  0.2403E+02  0.2768E+02  0.5611E+03  0.5609E+03
      6.656  0.3500E+02  0.3780E+02  0.5630E+03  0.5630E+03
      6.710  0.4840E+02  0.4569E+02  0.5657E+03  0.5655E+03
      6.765  0.4868E+02  0.5051E+02  0.5683E+03  0.5682E+03
      6.820  0.4213E+02  0.3430E+02  0.5706E+03  0.5701E+03
      6.874  0.5057E+02  0.5470E+02  0.5734E+03  0.5731E+03
      6.929  0.1975E+02  0.2427E+02  0.5745E+03  0.5744E+03
      6.984  0.4284E+01  0.4216E+01  0.5747E+03  0.5746E+03
      7.039  0.1436E+02  0.1514E+02  0.5755E+03  0.5755E+03
      7.093  0.8997E+01  0.9591E+01  0.5760E+03  0.5760E+03
      7.148  0.0000E+00  0.0000E+00  0.5760E+03  0.5760E+03
      7.203  0.0000E+00  0.0000E+00  0.5760E+03  0.5760E+03
      7.257  0.0000E+00  0.0000E+00  0.5760E+03  0.5760E+03
      7.312  0.0000E+00  0.0000E+00  0.5760E+03  0.5760E+03
      7.367  0.0000E+00  0.0000E+00  0.5760E+03  0.5760E+03
      7.421  0.0000E+00  0.0000E+00  0.5760E+03  0.5760E+03
      7.476  0.0000E+00  0.0000E+00  0.5760E+03  0.5760E+03
      7.531  0.0000E+00  0.0000E+00  0.5760E+03  0.5760E+03
      7.586  0.0000E+00  0.0000E+00  0.5760E+03  0.5760E+03
      7.640  0.0000E+00  0.0000E+00  0.5760E+03  0.5760E+03
      7.695  0.0000E+00  0.0000E+00  0.5760E+03  0.5760E+03
      7.750  0.0000E+00  0.0000E+00  0.5760E+03  0.5760E+03
      7.804  0.0000E+00  0.0000E+00  0.5760E+03  0.5760E+03
