 168 168   0   0
  0.2743752E+02  0.1589523E-08  0.1946760E-08  0.2580094E-08  0.5000000E-15
  1.000000000000000E-004
  CAR 
 Si and Ge interface calculation         
      6.44398527     -9.84813542  301      3.46279996      1.00000000
     -9.848  0.0000E+00  0.0000E+00  0.0000E+00  0.0000E+00
     -9.794  0.0000E+00  0.0000E+00  0.0000E+00  0.0000E+00
     -9.740  0.0000E+00  0.0000E+00  0.0000E+00  0.0000E+00
     -9.685  0.0000E+00  0.0000E+00  0.0000E+00  0.0000E+00
     -9.631  0.0000E+00  0.0000E+00  0.0000E+00  0.0000E+00
     -9.577  0.0000E+00  0.0000E+00  0.0000E+00  0.0000E+00
     -9.522  0.0000E+00  0.0000E+00  0.0000E+00  0.0000E+00
     -9.468  0.0000E+00  0.0000E+00  0.0000E+00  0.0000E+00
     -9.414  0.0000E+00  0.0000E+00  0.0000E+00  0.0000E+00
     -9.359  0.0000E+00  0.0000E+00  0.0000E+00  0.0000E+00
     -9.305  0.0000E+00  0.0000E+00  0.0000E+00  0.0000E+00
     -9.251  0.0000E+00  0.0000E+00  0.0000E+00  0.0000E+00
     -9.196  0.0000E+00  0.0000E+00  0.0000E+00  0.0000E+00
     -9.142  0.2091E-05  0.3146E-07  0.1135E-06  0.1709E-08
     -9.088  0.4081E+01  0.4004E+01  0.2216E+00  0.2174E+00
     -9.034  0.8134E+01  0.7879E+01  0.6634E+00  0.6453E+00
     -8.979  0.8241E+01  0.8531E+01  0.1111E+01  0.1109E+01
     -8.925  0.1635E+02  0.1622E+02  0.1999E+01  0.1990E+01
     -8.871  0.7820E+01  0.6878E+01  0.2424E+01  0.2363E+01
     -8.816  0.6925E+00  0.1539E+01  0.2461E+01  0.2447E+01
     -8.762  0.2124E+02  0.2009E+02  0.3615E+01  0.3538E+01
     -8.708  0.1693E+02  0.1691E+02  0.4534E+01  0.4456E+01
     -8.653  0.1990E+02  0.1909E+02  0.5615E+01  0.5493E+01
     -8.599  0.2794E+02  0.2273E+02  0.7133E+01  0.6727E+01
     -8.545  0.2470E+02  0.2616E+02  0.8474E+01  0.8148E+01
     -8.490  0.1954E+02  0.2314E+02  0.9536E+01  0.9404E+01
     -8.436  0.3315E+02  0.3255E+02  0.1134E+02  0.1117E+02
     -8.382  0.2064E+02  0.2317E+02  0.1246E+02  0.1243E+02
     -8.328  0.3360E+02  0.3214E+02  0.1428E+02  0.1418E+02
     -8.273  0.2905E+02  0.2817E+02  0.1586E+02  0.1571E+02
     -8.219  0.3066E+02  0.3129E+02  0.1752E+02  0.1741E+02
     -8.165  0.2254E+02  0.2185E+02  0.1875E+02  0.1859E+02
     -8.110  0.2265E+02  0.2326E+02  0.1998E+02  0.1986E+02
     -8.056  0.4277E+02  0.4247E+02  0.2230E+02  0.2216E+02
     -8.002  0.2602E+02  0.2684E+02  0.2371E+02  0.2362E+02
     -7.947  0.1016E+02  0.1133E+02  0.2427E+02  0.2424E+02
     -7.893  0.1460E+02  0.1301E+02  0.2506E+02  0.2494E+02
     -7.839  0.2340E+02  0.2340E+02  0.2633E+02  0.2621E+02
     -7.784  0.2059E+02  0.2073E+02  0.2745E+02  0.2734E+02
     -7.730  0.2647E+02  0.2785E+02  0.2889E+02  0.2885E+02
     -7.676  0.1241E+02  0.1299E+02  0.2956E+02  0.2956E+02
     -7.622  0.3115E+02  0.2625E+02  0.3125E+02  0.3098E+02
     -7.567  0.4804E+02  0.4792E+02  0.3386E+02  0.3358E+02
     -7.513  0.3637E+02  0.3891E+02  0.3583E+02  0.3570E+02
     -7.459  0.3852E+02  0.3747E+02  0.3793E+02  0.3773E+02
     -7.404  0.2980E+02  0.3260E+02  0.3954E+02  0.3950E+02
     -7.350  0.2167E+02  0.1890E+02  0.4072E+02  0.4053E+02
     -7.296  0.1968E+02  0.2302E+02  0.4179E+02  0.4178E+02
     -7.241  0.3424E+02  0.2532E+02  0.4365E+02  0.4315E+02
     -7.187  0.4084E+02  0.4491E+02  0.4587E+02  0.4559E+02
     -7.133  0.4692E+02  0.4799E+02  0.4842E+02  0.4820E+02
     -7.078  0.4176E+02  0.3961E+02  0.5068E+02  0.5035E+02
     -7.024  0.5973E+02  0.5780E+02  0.5393E+02  0.5349E+02
     -6.970  0.3963E+02  0.4112E+02  0.5608E+02  0.5572E+02
     -6.916  0.2685E+02  0.3198E+02  0.5754E+02  0.5746E+02
     -6.861  0.4301E+02  0.4206E+02  0.5987E+02  0.5974E+02
     -6.807  0.3156E+02  0.3310E+02  0.6159E+02  0.6154E+02
     -6.753  0.4363E+02  0.3725E+02  0.6396E+02  0.6356E+02
     -6.698  0.5351E+02  0.5863E+02  0.6686E+02  0.6675E+02
     -6.644  0.3111E+02  0.2766E+02  0.6855E+02  0.6825E+02
     -6.590  0.6565E+02  0.6712E+02  0.7212E+02  0.7189E+02
     -6.535  0.4691E+02  0.4768E+02  0.7467E+02  0.7448E+02
     -6.481  0.3272E+02  0.3228E+02  0.7644E+02  0.7624E+02
     -6.427  0.4017E+02  0.3695E+02  0.7862E+02  0.7824E+02
     -6.372  0.3370E+02  0.3774E+02  0.8045E+02  0.8029E+02
     -6.318  0.6534E+02  0.6410E+02  0.8400E+02  0.8377E+02
     -6.264  0.2512E+02  0.2866E+02  0.8537E+02  0.8533E+02
     -6.210  0.4983E+02  0.4685E+02  0.8807E+02  0.8788E+02
     -6.155  0.6095E+02  0.6157E+02  0.9138E+02  0.9122E+02
     -6.101  0.5871E+02  0.5697E+02  0.9457E+02  0.9431E+02
     -6.047  0.4021E+02  0.4358E+02  0.9675E+02  0.9668E+02
     -5.992  0.3736E+02  0.3622E+02  0.9878E+02  0.9865E+02
     -5.938  0.5829E+02  0.5572E+02  0.1019E+03  0.1017E+03
     -5.884  0.4073E+02  0.4321E+02  0.1042E+03  0.1040E+03
     -5.829  0.4588E+02  0.4774E+02  0.1067E+03  0.1066E+03
     -5.775  0.3821E+02  0.3708E+02  0.1087E+03  0.1086E+03
     -5.721  0.1199E+02  0.1181E+02  0.1094E+03  0.1093E+03
     -5.666  0.3104E+02  0.2522E+02  0.1111E+03  0.1106E+03
     -5.612  0.2553E+02  0.3328E+02  0.1125E+03  0.1124E+03
     -5.558  0.2769E+02  0.2109E+02  0.1140E+03  0.1136E+03
     -5.504  0.5675E+02  0.5952E+02  0.1170E+03  0.1168E+03
     -5.449  0.6473E+02  0.6575E+02  0.1206E+03  0.1204E+03
     -5.395  0.3919E+02  0.4070E+02  0.1227E+03  0.1226E+03
     -5.341  0.7258E+02  0.6999E+02  0.1266E+03  0.1264E+03
     -5.286  0.5432E+02  0.5750E+02  0.1296E+03  0.1295E+03
     -5.232  0.3631E+02  0.3297E+02  0.1315E+03  0.1313E+03
     -5.178  0.6923E+02  0.6587E+02  0.1353E+03  0.1349E+03
     -5.123  0.4784E+02  0.4744E+02  0.1379E+03  0.1375E+03
     -5.069  0.7450E+02  0.7794E+02  0.1419E+03  0.1417E+03
     -5.015  0.5005E+02  0.5076E+02  0.1447E+03  0.1445E+03
     -4.960  0.3828E+02  0.3854E+02  0.1467E+03  0.1466E+03
     -4.906  0.2893E+02  0.3074E+02  0.1483E+03  0.1482E+03
     -4.852  0.6138E+02  0.5732E+02  0.1516E+03  0.1513E+03
     -4.798  0.5919E+02  0.6011E+02  0.1549E+03  0.1546E+03
     -4.743  0.5630E+02  0.5643E+02  0.1579E+03  0.1577E+03
     -4.689  0.6833E+02  0.6911E+02  0.1616E+03  0.1614E+03
     -4.635  0.3271E+02  0.3080E+02  0.1634E+03  0.1631E+03
     -4.580  0.4808E+02  0.4697E+02  0.1660E+03  0.1656E+03
     -4.526  0.5012E+02  0.5223E+02  0.1687E+03  0.1685E+03
     -4.472  0.5538E+02  0.5557E+02  0.1717E+03  0.1715E+03
     -4.417  0.4862E+02  0.4776E+02  0.1744E+03  0.1741E+03
     -4.363  0.6003E+02  0.5867E+02  0.1776E+03  0.1773E+03
     -4.309  0.5666E+02  0.6000E+02  0.1807E+03  0.1805E+03
     -4.255  0.4725E+02  0.4485E+02  0.1833E+03  0.1830E+03
     -4.200  0.2141E+02  0.2715E+02  0.1845E+03  0.1844E+03
     -4.146  0.3918E+02  0.3513E+02  0.1866E+03  0.1864E+03
     -4.092  0.5577E+02  0.5018E+02  0.1896E+03  0.1891E+03
     -4.037  0.5796E+02  0.6161E+02  0.1928E+03  0.1924E+03
     -3.983  0.6227E+02  0.6227E+02  0.1961E+03  0.1958E+03
     -3.929  0.5009E+02  0.5323E+02  0.1989E+03  0.1987E+03
     -3.874  0.5282E+02  0.4816E+02  0.2017E+03  0.2013E+03
     -3.820  0.6600E+02  0.6569E+02  0.2053E+03  0.2049E+03
     -3.766  0.5711E+02  0.6358E+02  0.2084E+03  0.2083E+03
     -3.711  0.3120E+02  0.2464E+02  0.2101E+03  0.2097E+03
     -3.657  0.4578E+02  0.4445E+02  0.2126E+03  0.2121E+03
     -3.603  0.5096E+02  0.5505E+02  0.2154E+03  0.2151E+03
     -3.549  0.5998E+02  0.6123E+02  0.2186E+03  0.2184E+03
     -3.494  0.5365E+02  0.5124E+02  0.2215E+03  0.2212E+03
     -3.440  0.3146E+02  0.3081E+02  0.2232E+03  0.2229E+03
     -3.386  0.4813E+02  0.5072E+02  0.2259E+03  0.2256E+03
     -3.331  0.5944E+02  0.6272E+02  0.2291E+03  0.2290E+03
     -3.277  0.4302E+02  0.3931E+02  0.2314E+03  0.2312E+03
     -3.223  0.4548E+02  0.4208E+02  0.2339E+03  0.2334E+03
     -3.168  0.6994E+02  0.7280E+02  0.2377E+03  0.2374E+03
     -3.114  0.3239E+02  0.3567E+02  0.2394E+03  0.2393E+03
     -3.060  0.3678E+02  0.3752E+02  0.2414E+03  0.2414E+03
     -3.005  0.3625E+02  0.3260E+02  0.2434E+03  0.2431E+03
     -2.951  0.4381E+02  0.4253E+02  0.2458E+03  0.2454E+03
     -2.897  0.3670E+02  0.4268E+02  0.2478E+03  0.2478E+03
     -2.843  0.3477E+02  0.3135E+02  0.2497E+03  0.2495E+03
     -2.788  0.5380E+02  0.4860E+02  0.2526E+03  0.2521E+03
     -2.734  0.2913E+02  0.3441E+02  0.2542E+03  0.2540E+03
     -2.680  0.6920E+02  0.6669E+02  0.2579E+03  0.2576E+03
     -2.625  0.7710E+02  0.7817E+02  0.2621E+03  0.2618E+03
     -2.571  0.5058E+02  0.5070E+02  0.2649E+03  0.2646E+03
     -2.517  0.6131E+02  0.5893E+02  0.2682E+03  0.2678E+03
     -2.462  0.3928E+02  0.4429E+02  0.2703E+03  0.2702E+03
     -2.408  0.6135E+02  0.5931E+02  0.2737E+03  0.2734E+03
     -2.354  0.2744E+02  0.2810E+02  0.2752E+03  0.2749E+03
     -2.299  0.6980E+02  0.6704E+02  0.2789E+03  0.2786E+03
     -2.245  0.4777E+02  0.5172E+02  0.2815E+03  0.2814E+03
     -2.191  0.3874E+02  0.3627E+02  0.2836E+03  0.2834E+03
     -2.137  0.3294E+02  0.3486E+02  0.2854E+03  0.2853E+03
     -2.082  0.1717E+02  0.1721E+02  0.2864E+03  0.2862E+03
     -2.028  0.2221E+02  0.2021E+02  0.2876E+03  0.2873E+03
     -1.974  0.2752E+02  0.2910E+02  0.2891E+03  0.2889E+03
     -1.919  0.3767E+02  0.3882E+02  0.2911E+03  0.2910E+03
     -1.865  0.6436E+02  0.6245E+02  0.2946E+03  0.2944E+03
     -1.811  0.2973E+02  0.3405E+02  0.2962E+03  0.2962E+03
     -1.756  0.1096E+02  0.7163E+01  0.2968E+03  0.2966E+03
     -1.702  0.2208E+02  0.2564E+02  0.2980E+03  0.2980E+03
     -1.648  0.5935E+02  0.5531E+02  0.3012E+03  0.3010E+03
     -1.593  0.4657E+02  0.4834E+02  0.3038E+03  0.3036E+03
     -1.539  0.2745E+02  0.2763E+02  0.3053E+03  0.3051E+03
     -1.485  0.2046E+02  0.2127E+02  0.3064E+03  0.3063E+03
     -1.431  0.1769E+02  0.1632E+02  0.3073E+03  0.3072E+03
     -1.376  0.4147E+02  0.4340E+02  0.3096E+03  0.3095E+03
     -1.322  0.3630E+02  0.3722E+02  0.3116E+03  0.3116E+03
     -1.268  0.1125E+02  0.6949E+01  0.3122E+03  0.3119E+03
     -1.213  0.2480E+02  0.2722E+02  0.3135E+03  0.3134E+03
     -1.159  0.2817E+02  0.2823E+02  0.3150E+03  0.3149E+03
     -1.105  0.9806E+01  0.1120E+02  0.3156E+03  0.3155E+03
     -1.050  0.1573E+02  0.1577E+02  0.3164E+03  0.3164E+03
     -0.996  0.1564E+02  0.1024E+02  0.3173E+03  0.3170E+03
     -0.942  0.3339E+02  0.3841E+02  0.3191E+03  0.3190E+03
     -0.887  0.1669E+02  0.1743E+02  0.3200E+03  0.3200E+03
     -0.833  0.1634E+02  0.1613E+02  0.3209E+03  0.3209E+03
     -0.779  0.8188E-01  0.3803E+00  0.3209E+03  0.3209E+03
     -0.725  0.4825E+02  0.4463E+02  0.3235E+03  0.3233E+03
     -0.670  0.2147E+02  0.2495E+02  0.3247E+03  0.3247E+03
     -0.616  0.3924E+02  0.3440E+02  0.3268E+03  0.3265E+03
     -0.562  0.6461E+02  0.5980E+02  0.3303E+03  0.3298E+03
     -0.507  0.7043E+02  0.7537E+02  0.3341E+03  0.3339E+03
     -0.453  0.5706E+02  0.5778E+02  0.3372E+03  0.3370E+03
     -0.399  0.5070E+02  0.4830E+02  0.3400E+03  0.3396E+03
     -0.344  0.7382E+02  0.7652E+02  0.3440E+03  0.3438E+03
     -0.290  0.7041E+02  0.6809E+02  0.3478E+03  0.3475E+03
     -0.236  0.7091E+02  0.7117E+02  0.3517E+03  0.3514E+03
     -0.181  0.1022E+03  0.9957E+02  0.3572E+03  0.3568E+03
     -0.127  0.6124E+02  0.6049E+02  0.3606E+03  0.3600E+03
     -0.073  0.4756E+02  0.5592E+02  0.3631E+03  0.3631E+03
     -0.019  0.8453E+02  0.7893E+02  0.3677E+03  0.3674E+03
      0.036  0.7215E+02  0.7506E+02  0.3716E+03  0.3714E+03
      0.090  0.6953E+02  0.6703E+02  0.3754E+03  0.3751E+03
      0.144  0.6906E+02  0.6296E+02  0.3792E+03  0.3785E+03
      0.199  0.8927E+02  0.9390E+02  0.3840E+03  0.3836E+03
      0.253  0.7634E+02  0.7705E+02  0.3882E+03  0.3878E+03
      0.307  0.7425E+02  0.7230E+02  0.3922E+03  0.3917E+03
      0.362  0.9841E+02  0.9830E+02  0.3975E+03  0.3971E+03
      0.416  0.1223E+03  0.1179E+03  0.4042E+03  0.4035E+03
      0.470  0.1210E+03  0.1233E+03  0.4108E+03  0.4102E+03
      0.525  0.8949E+02  0.9201E+02  0.4156E+03  0.4152E+03
      0.579  0.1251E+03  0.1216E+03  0.4224E+03  0.4218E+03
      0.633  0.1208E+03  0.1190E+03  0.4290E+03  0.4282E+03
      0.687  0.1101E+03  0.1126E+03  0.4350E+03  0.4343E+03
      0.742  0.1415E+03  0.1426E+03  0.4426E+03  0.4421E+03
      0.796  0.1115E+03  0.1109E+03  0.4487E+03  0.4481E+03
      0.850  0.1232E+03  0.1203E+03  0.4554E+03  0.4546E+03
      0.905  0.1173E+03  0.1155E+03  0.4617E+03  0.4609E+03
      0.959  0.7720E+02  0.7976E+02  0.4659E+03  0.4652E+03
      1.013  0.8075E+02  0.8355E+02  0.4703E+03  0.4698E+03
      1.068  0.9435E+02  0.1004E+03  0.4754E+03  0.4752E+03
      1.122  0.9402E+02  0.8297E+02  0.4806E+03  0.4797E+03
      1.176  0.1229E+03  0.1278E+03  0.4872E+03  0.4867E+03
      1.231  0.1105E+03  0.1133E+03  0.4932E+03  0.4928E+03
      1.285  0.1214E+03  0.1140E+03  0.4998E+03  0.4990E+03
      1.339  0.1347E+03  0.1309E+03  0.5071E+03  0.5061E+03
      1.393  0.1146E+03  0.1252E+03  0.5134E+03  0.5129E+03
      1.448  0.1103E+03  0.1070E+03  0.5194E+03  0.5187E+03
      1.502  0.1117E+03  0.1102E+03  0.5254E+03  0.5247E+03
      1.556  0.1244E+03  0.1236E+03  0.5322E+03  0.5314E+03
      1.611  0.9786E+02  0.1008E+03  0.5375E+03  0.5369E+03
      1.665  0.1100E+03  0.1079E+03  0.5435E+03  0.5428E+03
      1.719  0.1049E+03  0.1096E+03  0.5492E+03  0.5487E+03
      1.774  0.1051E+03  0.1007E+03  0.5549E+03  0.5542E+03
      1.828  0.1255E+03  0.1302E+03  0.5617E+03  0.5613E+03
      1.882  0.1085E+03  0.1092E+03  0.5676E+03  0.5672E+03
      1.936  0.9513E+02  0.9458E+02  0.5727E+03  0.5723E+03
      1.991  0.9046E+02  0.8759E+02  0.5776E+03  0.5771E+03
      2.045  0.8505E+02  0.8677E+02  0.5823E+03  0.5818E+03
      2.099  0.8831E+02  0.9015E+02  0.5871E+03  0.5867E+03
      2.154  0.8944E+02  0.8776E+02  0.5919E+03  0.5915E+03
      2.208  0.8535E+02  0.8564E+02  0.5966E+03  0.5961E+03
      2.262  0.9239E+02  0.9237E+02  0.6016E+03  0.6011E+03
      2.317  0.5230E+02  0.5250E+02  0.6044E+03  0.6040E+03
      2.371  0.7026E+02  0.7387E+02  0.6082E+03  0.6080E+03
      2.425  0.9427E+02  0.8988E+02  0.6133E+03  0.6129E+03
      2.480  0.7381E+02  0.7577E+02  0.6174E+03  0.6170E+03
      2.534  0.8471E+02  0.8402E+02  0.6220E+03  0.6215E+03
      2.588  0.8874E+02  0.8455E+02  0.6268E+03  0.6261E+03
      2.642  0.6170E+02  0.6501E+02  0.6301E+03  0.6297E+03
      2.697  0.5868E+02  0.6068E+02  0.6333E+03  0.6330E+03
      2.751  0.7285E+02  0.6986E+02  0.6373E+03  0.6368E+03
      2.805  0.8168E+02  0.8762E+02  0.6417E+03  0.6415E+03
      2.860  0.5015E+02  0.5044E+02  0.6444E+03  0.6443E+03
      2.914  0.6607E+02  0.6485E+02  0.6480E+03  0.6478E+03
      2.968  0.4779E+02  0.4494E+02  0.6506E+03  0.6502E+03
      3.023  0.5004E+02  0.5397E+02  0.6533E+03  0.6531E+03
      3.077  0.3599E+02  0.2587E+02  0.6553E+03  0.6545E+03
      3.131  0.4288E+02  0.4953E+02  0.6576E+03  0.6572E+03
      3.186  0.3552E+02  0.3389E+02  0.6595E+03  0.6591E+03
      3.240  0.3117E+02  0.3147E+02  0.6612E+03  0.6608E+03
      3.294  0.6148E+02  0.5874E+02  0.6646E+03  0.6640E+03
      3.348  0.5061E+02  0.5043E+02  0.6673E+03  0.6667E+03
      3.403  0.4432E+02  0.4811E+02  0.6697E+03  0.6693E+03
      3.457  0.2962E+02  0.2199E+02  0.6713E+03  0.6705E+03
      3.511  0.1915E+02  0.2710E+02  0.6724E+03  0.6720E+03
      3.566  0.2331E+02  0.2676E+02  0.6736E+03  0.6734E+03
      3.620  0.2777E+02  0.2746E+02  0.6752E+03  0.6749E+03
      3.674  0.4501E+02  0.4702E+02  0.6776E+03  0.6775E+03
      3.729  0.3702E+02  0.2903E+02  0.6796E+03  0.6791E+03
      3.783  0.4955E+02  0.4908E+02  0.6823E+03  0.6817E+03
      3.837  0.1194E+02  0.1859E+02  0.6829E+03  0.6827E+03
      3.892  0.1851E+02  0.1784E+02  0.6840E+03  0.6837E+03
      3.946  0.1377E+02  0.1576E+02  0.6847E+03  0.6846E+03
      4.000  0.2377E+02  0.2472E+02  0.6860E+03  0.6859E+03
      4.054  0.8227E+01  0.8718E+01  0.6864E+03  0.6864E+03
      4.109  0.1304E+02  0.1340E+02  0.6871E+03  0.6871E+03
      4.163  0.2681E+02  0.2481E+02  0.6886E+03  0.6885E+03
      4.217  0.4944E+02  0.4576E+02  0.6913E+03  0.6909E+03
      4.272  0.3598E+02  0.3952E+02  0.6932E+03  0.6931E+03
      4.326  0.3713E+02  0.3422E+02  0.6953E+03  0.6950E+03
      4.380  0.2688E+02  0.2692E+02  0.6967E+03  0.6964E+03
      4.435  0.4807E+02  0.4946E+02  0.6993E+03  0.6991E+03
      4.489  0.6166E+02  0.5997E+02  0.7027E+03  0.7024E+03
      4.543  0.3588E+02  0.3977E+02  0.7046E+03  0.7045E+03
      4.598  0.6686E+02  0.6304E+02  0.7083E+03  0.7079E+03
      4.652  0.6931E+02  0.7042E+02  0.7120E+03  0.7118E+03
      4.706  0.4940E+02  0.4954E+02  0.7147E+03  0.7145E+03
      4.760  0.8665E+02  0.8940E+02  0.7194E+03  0.7193E+03
      4.815  0.7297E+02  0.7109E+02  0.7234E+03  0.7232E+03
      4.869  0.8192E+02  0.8059E+02  0.7278E+03  0.7275E+03
      4.923  0.7076E+02  0.6935E+02  0.7317E+03  0.7313E+03
      4.978  0.9316E+02  0.9720E+02  0.7367E+03  0.7366E+03
      5.032  0.9527E+02  0.8878E+02  0.7419E+03  0.7414E+03
      5.086  0.9824E+02  0.1024E+03  0.7472E+03  0.7470E+03
      5.141  0.1050E+03  0.1003E+03  0.7529E+03  0.7524E+03
      5.195  0.1059E+03  0.1099E+03  0.7587E+03  0.7584E+03
      5.249  0.1146E+03  0.1130E+03  0.7649E+03  0.7645E+03
      5.304  0.9669E+02  0.9410E+02  0.7702E+03  0.7696E+03
      5.358  0.9509E+02  0.9568E+02  0.7753E+03  0.7748E+03
      5.412  0.1176E+03  0.1163E+03  0.7817E+03  0.7811E+03
      5.466  0.1005E+03  0.1020E+03  0.7872E+03  0.7867E+03
      5.521  0.1179E+03  0.1171E+03  0.7936E+03  0.7930E+03
      5.575  0.8653E+02  0.8861E+02  0.7983E+03  0.7979E+03
      5.629  0.9808E+02  0.9614E+02  0.8036E+03  0.8031E+03
      5.684  0.6522E+02  0.5988E+02  0.8071E+03  0.8063E+03
      5.738  0.1586E+02  0.3067E+02  0.8080E+03  0.8080E+03
      5.792  0.0000E+00  0.0000E+00  0.8080E+03  0.8080E+03
      5.847  0.0000E+00  0.0000E+00  0.8080E+03  0.8080E+03
      5.901  0.0000E+00  0.0000E+00  0.8080E+03  0.8080E+03
      5.955  0.0000E+00  0.0000E+00  0.8080E+03  0.8080E+03
      6.010  0.0000E+00  0.0000E+00  0.8080E+03  0.8080E+03
      6.064  0.0000E+00  0.0000E+00  0.8080E+03  0.8080E+03
      6.118  0.0000E+00  0.0000E+00  0.8080E+03  0.8080E+03
      6.172  0.0000E+00  0.0000E+00  0.8080E+03  0.8080E+03
      6.227  0.0000E+00  0.0000E+00  0.8080E+03  0.8080E+03
      6.281  0.0000E+00  0.0000E+00  0.8080E+03  0.8080E+03
      6.335  0.0000E+00  0.0000E+00  0.8080E+03  0.8080E+03
      6.390  0.0000E+00  0.0000E+00  0.8080E+03  0.8080E+03
      6.444  0.0000E+00  0.0000E+00  0.8080E+03  0.8080E+03
