 vasp.6.4.3 19Mar24 (build Oct 22 2024 11:23:12) complex                        
  
 executed on             LinuxIFC date 2025.06.03  22:58:48
 running   64 mpi-ranks, on    4 nodes
 distrk:  each k-point on   64 cores,    1 groups
 distr:  one band on NCORE=  16 cores,    4 groups


--------------------------------------------------------------------------------------------------------


 INCAR:
   SYSTEM = Si and Ge interface calculation
   ISTART = 0
   ICHARG = 2
   LWAVE = .FALSE.
   LREAL = AUTO
   ENCUT = 700
   ENAUG = 900
   ADDGRID = .TRUE.
   LMAXMIX = 6
   LASPH = .TRUE.
   LMIXTAU = .TRUE.
   NCORE = 16
   NELM = 100
   NBANDS = 58
   EDIFF = 1d-7
   AMIX = 0.6
   ISMEAR = 0
   SIGMA = 0.01
   NELECT = 96
   ISPIN = 2
   NUPDOWN = 1
   LVTOT = .FALSE.
   LVHAR = .TRUE.

 POTCAR:    PAW_PBE Si 05Jan2001                  
 -----------------------------------------------------------------------------
|                                                                             |
|           W    W    AA    RRRRR   N    N  II  N    N   GGGG   !!!           |
|           W    W   A  A   R    R  NN   N  II  NN   N  G    G  !!!           |
|           W    W  A    A  R    R  N N  N  II  N N  N  G       !!!           |
|           W WW W  AAAAAA  RRRRR   N  N N  II  N  N N  G  GGG   !            |
|           WW  WW  A    A  R   R   N   NN  II  N   NN  G    G                |
|           W    W  A    A  R    R  N    N  II  N    N   GGGG   !!!           |
|                                                                             |
|     You use a magnetic or noncollinear calculation, but did not specify     |
|     the initial magnetic moment with the MAGMOM tag. Note that a            |
|     default of 0.042 will be used for all atoms. This ferromagnetic         |
|     setup may break the symmetry of the crystal, in particular it may       |
|     rule out finding an antiferromagnetic solution. Thence, we              |
|     recommend setting the initial magnetic moment manually or verifying     |
|     carefully that this magnetic setup is desired.                          |
|                                                                             |
 -----------------------------------------------------------------------------

 POTCAR:    PAW_PBE Si 05Jan2001                  
   VRHFIN =Si: s2p2                                                                                 
   LEXCH  = PE                                                                                      
   EATOM  =   103.0669 eV,    7.5752 Ry                                                             
                                                                                                    
   TITEL  = PAW_PBE Si 05Jan2001                                                                    
   LULTRA =        F    use ultrasoft PP ?                                                          
   IUNSCR =        1    unscreen: 0-lin 1-nonlin 2-no                                               
   RPACOR =    1.500    partial core radius                                                         
   POMASS =   28.085; ZVAL   =    4.000    mass and valenz                                          
   RCORE  =    1.900    outmost cutoff radius                                                       
   RWIGS  =    2.480; RWIGS  =    1.312    wigner-seitz radius (au A)                               
   ENMAX  =  245.345; ENMIN  =  184.009 eV                                                          
   ICORE  =        2    local potential                                                             
   LCOR   =        T    correct aug charges                                                         
   LPAW   =        T    paw PP                                                                      
   EAUG   =  322.069                                                                                
   DEXC   =    0.000                                                                                
   RMAX   =    1.950    core radius for proj-oper                                                   
   RAUG   =    1.300    factor for augmentation sphere                                              
   RDEP   =    1.993    radius for radial grids                                                     
   RDEPT  =    1.837    core radius for aug-charge                                                  
                                                                                                    
   Atomic configuration                                                                             
    6 entries                                                                                       
     n  l   j            E        occ.                                                              
     1  0  0.50     -1785.8828   2.0000                                                             
     2  0  0.50      -139.4969   2.0000                                                             
     2  1  1.50       -95.5546   6.0000                                                             
     3  0  0.50       -10.8127   2.0000                                                             
     3  1  0.50        -4.0811   2.0000                                                             
     3  2  1.50        -4.0817   0.0000                                                             
   Description                                                                                      
     l       E           TYP  RCUT    TYP  RCUT                                                     
     0    -10.8127223     23  1.900                                                                 
     0     -7.6451159     23  1.900                                                                 
     1     -4.0811372     23  1.900                                                                 
     1      2.4879257     23  1.900                                                                 
     2     -4.0817478      7  1.900                                                                 
  local pseudopotential read in
  partial core-charges read in
  partial kinetic energy density read in
  atomic valenz-charges read in
  non local Contribution for L=           0  read in
    real space projection operators read in
  non local Contribution for L=           0  read in
    real space projection operators read in
  non local Contribution for L=           1  read in
    real space projection operators read in
  non local Contribution for L=           1  read in
    real space projection operators read in
    PAW grid and wavefunctions read in
 
   number of l-projection  operators is LMAX  =           4
   number of lm-projection operators is LMMAX =           8
 
 Optimization of the real space projectors (new method)

 maximal supplied QI-value         = 19.84
 optimisation between [QCUT,QGAM] = [ 13.49, 26.99] = [ 50.98,203.92] Ry 
 Optimized for a Real-space Cutoff    1.07 Angstroem

   l    n(q)    QCUT    max X(q) W(low)/X(q) W(high)/X(q)  e(spline) 
   0      9    13.493   159.560    0.22E-03    0.15E-03    0.72E-07
   0      9    13.493   115.863    0.21E-03    0.15E-03    0.71E-07
   1      8    13.493    88.339    0.15E-03    0.11E-03    0.13E-06
   1      8    13.493    48.592    0.15E-03    0.10E-03    0.13E-06
  PAW_PBE Si 05Jan2001                  :
 energy of atom  1       EATOM= -103.0669
 kinetic energy error for atom=    0.0003 (will be added to EATOM!!)
 
 
 POSCAR: Si+Si
  positions in direct lattice
  No initial velocities read in


 exchange-correlation table for PE
   RHO(1)=    0.500       N(1)  =     2000
   RHO(2)=  100.500       N(2)  =     4000
 


--------------------------------------------------------------------------------------------------------


 ion  position               nearest neighbor table
   1  0.018  0.000  0.000-  15 1.36  24 1.92  18 1.92  10 2.35   4 2.35
   2  0.518  0.000  0.200-   4 2.35  10 2.35  11 2.35   5 2.35
   3  0.018  0.000  0.400-  13 1.36   5 2.35  12 2.35  11 2.35   6 2.35
   4  0.268  0.750  0.100-  18 1.36   2 2.35   1 2.35   7 2.35   8 2.35
   5  0.768  0.750  0.300-   3 2.35   9 2.35   8 2.35   2 2.35
   6  0.268  0.750  0.500-  16 1.36  19 1.92  13 1.92   3 2.35   9 2.35
   7  0.518  0.500  0.000-  21 1.36  18 1.92  24 1.92   4 2.35  10 2.35
   8  0.018  0.500  0.200-  10 2.35   4 2.35  11 2.35   5 2.35
   9  0.518  0.500  0.400-  19 1.36   5 2.35  12 2.35  11 2.35   6 2.35
  10  0.768  0.250  0.100-  24 1.36   1 2.35   8 2.35   7 2.35   2 2.35
  11  0.268  0.250  0.300-   3 2.35   9 2.35   8 2.35   2 2.35
  12  0.768  0.250  0.500-  22 1.36  13 1.92  19 1.92   3 2.35   9 2.35
  13  0.018  0.000  0.500-   3 1.36  12 1.92   6 1.92  22 2.35  16 2.35
  14  0.518  0.000  0.700-  16 2.35  22 2.35  23 2.35  17 2.35
  15  0.018  0.000  0.900-   1 1.36  17 2.35  23 2.35  24 2.35  18 2.35
  16  0.268  0.750  0.600-   6 1.36  14 2.35  20 2.35  13 2.35  19 2.35
  17  0.768  0.750  0.800-  15 2.35  21 2.35  20 2.35  14 2.35
  18  0.268  0.750  0.000-   4 1.36   7 1.92   1 1.92  15 2.35  21 2.35
  19  0.518  0.500  0.500-   9 1.36   6 1.92  12 1.92  16 2.35  22 2.35
  20  0.018  0.500  0.700-  22 2.35  16 2.35  23 2.35  17 2.35
  21  0.518  0.500  0.900-   7 1.36  17 2.35  23 2.35  24 2.35  18 2.35
  22  0.768  0.250  0.600-  12 1.36  20 2.35  14 2.35  13 2.35  19 2.35
  23  0.268  0.250  0.800-  15 2.35  21 2.35  20 2.35  14 2.35
  24  0.768  0.250  0.000-  10 1.36   1 1.92   7 1.92  15 2.35  21 2.35
 
 -----------------------------------------------------------------------------
|                                                                             |
|           W    W    AA    RRRRR   N    N  II  N    N   GGGG   !!!           |
|           W    W   A  A   R    R  NN   N  II  NN   N  G    G  !!!           |
|           W    W  A    A  R    R  N N  N  II  N N  N  G       !!!           |
|           W WW W  AAAAAA  RRRRR   N  N N  II  N  N N  G  GGG   !            |
|           WW  WW  A    A  R   R   N   NN  II  N   NN  G    G                |
|           W    W  A    A  R    R  N    N  II  N    N   GGGG   !!!           |
|                                                                             |
|     The distance between some ions is very small. Please check the          |
|     nearest-neighbor list in the OUTCAR file.                               |
|     I HOPE YOU KNOW WHAT YOU ARE DOING!                                     |
|                                                                             |
 -----------------------------------------------------------------------------

  LATTYP: Found a simple tetragonal cell.
 ALAT       =     5.4310002330
 C/A-ratio  =     2.5000001316
  
  Lattice vectors:
  
 A1 = (   5.4310002330,   0.0000000000,   0.0000000000)
 A2 = (   0.0000000000,   5.4310002330,   0.0000000000)
 A3 = (   0.0000000000,   0.0000000000,  13.5775012970)


Analysis of symmetry for initial positions (statically):
=====================================================================
 Subroutine PRICEL returns following result:
 
  LATTYP: Found a simple tetragonal cell.
 ALAT       =     3.8402971510
 C/A-ratio  =     1.7677670195
  
  Lattice vectors:
  
 A1 = (   2.7155001980,  -2.7155001165,   0.0000000000)
 A2 = (   2.7155001980,   2.7155001165,   0.0000000000)
 A3 = (   0.0000000000,   0.0000000000,   6.7887506485)
 
   4 primitive cells build up your supercell.
 

 Routine SETGRP: Setting up the symmetry group for a 
 simple tetragonal supercell.


 Subroutine GETGRP returns: Found  8 space group operations
 (whereof  1 operations were pure point group operations)
 out of a pool of 16 trial point group operations.


The static configuration has the point symmetry C_1 .
 The point group associated with its full space group is D_2h.


Analysis of symmetry for dynamics (positions and initial velocities):
=====================================================================
 Subroutine PRICEL returns following result:
 
  LATTYP: Found a simple tetragonal cell.
 ALAT       =     3.8402971510
 C/A-ratio  =     1.7677670195
  
  Lattice vectors:
  
 A1 = (   2.7155001980,  -2.7155001165,   0.0000000000)
 A2 = (   2.7155001980,   2.7155001165,   0.0000000000)
 A3 = (   0.0000000000,   0.0000000000,   6.7887506485)
 
   4 primitive cells build up your supercell.
 

 Routine SETGRP: Setting up the symmetry group for a 
 simple tetragonal supercell.


 Subroutine GETGRP returns: Found  8 space group operations
 (whereof  1 operations were pure point group operations)
 out of a pool of 16 trial point group operations.


The dynamic configuration has the point symmetry C_1 .
 The point group associated with its full space group is D_2h.


Analysis of structural, dynamic, and magnetic symmetry:
=====================================================================
 Subroutine PRICEL returns following result:
 
  LATTYP: Found a simple tetragonal cell.
 ALAT       =     3.8402971510
 C/A-ratio  =     1.7677670195
  
  Lattice vectors:
  
 A1 = (   2.7155001980,  -2.7155001165,   0.0000000000)
 A2 = (   2.7155001980,   2.7155001165,   0.0000000000)
 A3 = (   0.0000000000,   0.0000000000,   6.7887506485)
 
   4 primitive cells build up your supercell.
 

 Routine SETGRP: Setting up the symmetry group for a 
 simple tetragonal supercell.


 Subroutine GETGRP returns: Found  8 space group operations
 (whereof  1 operations were pure point group operations)
 out of a pool of 16 trial point group operations.


The overall configuration has the point symmetry C_1 .
 The point group associated with its full space group is D_2h.


 Subroutine INISYM returns: Found  8 space group operations
 (whereof  1 operations are pure point group operations),
 and found     4 'primitive' translations


----------------------------------------------------------------------------------------

                                     Primitive cell                                     

  volume of cell :     100.1197

  direct lattice vectors                    reciprocal lattice vectors
     2.715500198 -2.715500116  0.000000000     0.184128140 -0.184128145  0.000000000
     2.715500198  2.715500116  0.000000000     0.184128140  0.184128145  0.000000000
     0.000000000  0.000000000  6.788750649     0.000000000  0.000000000  0.147302508

  length of vectors
     3.840297151  3.840297151  6.788750649     0.260396516  0.260396516  0.147302508

  position of ions in fractional coordinates (direct lattice)
     0.017796858  0.017796858  0.000000000
     0.517796858  0.517796858  0.400000006
     0.017796873  0.017796873  0.799999952
     0.517796911  0.017796911  0.200000002
     0.017796851  0.517796971  0.600000144
     0.517796970  0.017796970  0.000000000

  ion indices of the primitive-cell ions
   primitive index   ion index
                 1           1
                 2           2
                 3          15
                 4          10
                 5          17
                 6          24

----------------------------------------------------------------------------------------

 
 
 KPOINTS: Automatic KPOINTS generated             

Automatic generation of k-mesh.
 Grid dimensions read from file:
 generate k-points for:    6    6    2

 Generating k-lattice:

  Cartesian coordinates                     Fractional coordinates (reciprocal lattice)
     0.030688024  0.000000000  0.000000000     0.166666667  0.000000000  0.000000000
     0.000000000  0.030688024  0.000000000     0.000000000  0.166666667  0.000000000
     0.000000000  0.000000000  0.036825627     0.000000000  0.000000000  0.500000000

  Length of vectors
     0.030688024  0.030688024  0.036825627

  Shift w.r.t. Gamma in fractional coordinates (k-lattice)
     0.000000000  0.000000000  0.000000000

 
 Subroutine IBZKPT returns following result:
 ===========================================
 
 Found     26 irreducible k-points:
 
 Following reciprocal coordinates:
            Coordinates               Weight
  0.000000  0.000000  0.000000      1.000000
  0.166667  0.000000  0.000000      4.000000
  0.333333  0.000000  0.000000      4.000000
  0.500000  0.000000  0.000000      2.000000
  0.166667  0.166667  0.000000      2.000000
 -0.166667  0.166667  0.000000      2.000000
  0.333333  0.166667  0.000000      4.000000
 -0.166667  0.333333  0.000000      4.000000
  0.500000  0.166667  0.000000      4.000000
  0.333333  0.333333  0.000000      2.000000
 -0.333333  0.333333  0.000000      2.000000
  0.500000  0.333333  0.000000      4.000000
  0.500000  0.500000  0.000000      1.000000
  0.000000  0.000000  0.500000      1.000000
  0.166667  0.000000  0.500000      4.000000
  0.333333  0.000000  0.500000      4.000000
  0.500000  0.000000  0.500000      2.000000
  0.166667  0.166667  0.500000      2.000000
 -0.166667  0.166667  0.500000      2.000000
  0.333333  0.166667  0.500000      4.000000
 -0.166667  0.333333  0.500000      4.000000
  0.500000  0.166667  0.500000      4.000000
  0.333333  0.333333  0.500000      2.000000
 -0.333333  0.333333  0.500000      2.000000
  0.500000  0.333333  0.500000      4.000000
  0.500000  0.500000  0.500000      1.000000
 
 Following cartesian coordinates:
            Coordinates               Weight
  0.000000  0.000000  0.000000      1.000000
  0.030688  0.000000  0.000000      4.000000
  0.061376  0.000000  0.000000      4.000000
  0.092064  0.000000  0.000000      2.000000
  0.030688  0.030688  0.000000      2.000000
 -0.030688  0.030688  0.000000      2.000000
  0.061376  0.030688  0.000000      4.000000
 -0.030688  0.061376  0.000000      4.000000
  0.092064  0.030688  0.000000      4.000000
  0.061376  0.061376  0.000000      2.000000
 -0.061376  0.061376  0.000000      2.000000
  0.092064  0.061376  0.000000      4.000000
  0.092064  0.092064  0.000000      1.000000
  0.000000  0.000000  0.036826      1.000000
  0.030688  0.000000  0.036826      4.000000
  0.061376  0.000000  0.036826      4.000000
  0.092064  0.000000  0.036826      2.000000
  0.030688  0.030688  0.036826      2.000000
 -0.030688  0.030688  0.036826      2.000000
  0.061376  0.030688  0.036826      4.000000
 -0.030688  0.061376  0.036826      4.000000
  0.092064  0.030688  0.036826      4.000000
  0.061376  0.061376  0.036826      2.000000
 -0.061376  0.061376  0.036826      2.000000
  0.092064  0.061376  0.036826      4.000000
  0.092064  0.092064  0.036826      1.000000
 
 -----------------------------------------------------------------------------
|                                                                             |
|           W    W    AA    RRRRR   N    N  II  N    N   GGGG   !!!           |
|           W    W   A  A   R    R  NN   N  II  NN   N  G    G  !!!           |
|           W    W  A    A  R    R  N N  N  II  N N  N  G       !!!           |
|           W WW W  AAAAAA  RRRRR   N  N N  II  N  N N  G  GGG   !            |
|           WW  WW  A    A  R   R   N   NN  II  N   NN  G    G                |
|           W    W  A    A  R    R  N    N  II  N    N   GGGG   !!!           |
|                                                                             |
|     The number of bands has been changed from the values supplied in        |
|     the INCAR file. This is a result of running the parallel version.       |
|     The orbitals not found in the WAVECAR file will be initialized with     |
|     random numbers, which is usually adequate. For correlated               |
|     calculations, however, you should redo the groundstate calculation.     |
|     I found NBANDS = 58. Now, NBANDS = 60.                                  |
|                                                                             |
 -----------------------------------------------------------------------------



--------------------------------------------------------------------------------------------------------




 Dimension of arrays:
   k-points           NKPTS =     26   k-points in BZ     NKDIM =     26   number of bands    NBANDS=     60
   number of dos      NEDOS =    301   number of ions     NIONS =     24
   non local maximal  LDIM  =      4   non local SUM 2l+1 LMDIM =      8
   total plane-waves  NPLWV = 116640
   max r-space proj   IRMAX =   1565   max aug-charges    IRDMAX=  78094
   dimension x,y,z NGX =    36 NGY =   36 NGZ =   90
   dimension x,y,z NGXF=    72 NGYF=   72 NGZF=  180
   support grid    NGXF=   144 NGYF=  144 NGZF=  360
   ions per type =              24
   NGX,Y,Z   is equivalent  to a cutoff of  11.02, 11.02, 11.02 a.u.
   NGXF,Y,Z  is equivalent  to a cutoff of  22.04, 22.04, 22.04 a.u.

 SYSTEM =  Si and Ge interface calculation         
 POSCAR =  Si+Si                                   

 Startparameter for this run:
   NWRITE =      2    write-flag & timer
   PREC   = normal    normal or accurate (medium, high low for compatibility)
   ISTART =      0    job   : 0-new  1-cont  2-samecut
   ICHARG =      2    charge: 1-file 2-atom 10-const
   ISPIN  =      2    spin polarized calculation?
   LNONCOLLINEAR =      F non collinear calculations
   LSORBIT =      F    spin-orbit coupling
   INIWAV =      1    electr: 0-lowe 1-rand  2-diag
   LASPH  =      T    aspherical Exc in radial PAW
 Electronic Relaxation 1
   ENCUT  =  700.0 eV  51.45 Ry    7.17 a.u.  11.72 11.72 29.29*2*pi/ulx,y,z
   ENINI  =  700.0     initial cutoff
   ENAUG  =  900.0 eV  augmentation charge cutoff
   NELM   =    100;   NELMIN=  2; NELMDL= -5     # of ELM steps 
   EDIFF  = 0.1E-06   stopping-criterion for ELM
   LREAL  =      T    real-space projection
   NLSPLINE    = F    spline interpolate recip. space projectors
   LCOMPAT=      F    compatible to vasp.4.4
   GGA_COMPAT  = T    GGA compatible to vasp.4.4-vasp.4.6
   LMAXPAW     = -100 max onsite density
   LMAXMIX     =    6 max onsite mixed and CHGCAR
   VOSKOWN=      0    Vosko Wilk Nusair interpolation
   ROPT   =   -0.00050
 Ionic relaxation
   EDIFFG = 0.1E-05   stopping-criterion for IOM
   NSW    =      0    number of steps for IOM
   NBLOCK =      1;   KBLOCK =      1    inner block; outer block 
   IBRION =     -1    ionic relax: 0-MD 1-quasi-New 2-CG
   NFREE  =      0    steps in history (QN), initial steepest desc. (CG)
   ISIF   =      2    stress and relaxation
   IWAVPR =     10    prediction:  0-non 1-charg 2-wave 3-comb
   ISYM   =      2    0-nonsym 1-usesym 2-fastsym
   LCORR  =      T    Harris-Foulkes like correction to forces

   POTIM  = 0.5000    time-step for ionic-motion
   TEIN   =    0.0    initial temperature
   TEBEG  =    0.0;   TEEND  =   0.0 temperature during run
   SMASS  =  -3.00    Nose mass-parameter (am)
   estimated Nose-frequenzy (Omega)   =  0.10E-29 period in steps = 0.13E+47 mass=  -0.674E-27a.u.
   SCALEE = 1.0000    scale energy and forces
   NPACO  =    256;   APACO  = 10.0  distance and # of slots for P.C.
   PSTRESS=    0.0 pullay stress

  Mass of Ions in am
   POMASS =  28.09
  Ionic Valenz
   ZVAL   =   4.00
  Atomic Wigner-Seitz radii
   RWIGS  =  -1.00
  virtual crystal weights 
   VCA    =   1.00
   NELECT =      96.0000    total number of electrons
   NUPDOWN=       1.0000    fix difference up-down

 DOS related values:
   EMIN   =  10.00;   EMAX   =-10.00  energy-range for DOS
   EFERMI =   0.00;   METHOD = LEGACY      
   ISMEAR =     0;   SIGMA  =   0.01  broadening in eV -4-tet -1-fermi 0-gaus

 Electronic relaxation 2 (details)
   IALGO  =     38    algorithm
   LDIAG  =      T    sub-space diagonalisation (order eigenvalues)
   LSUBROT=      F    optimize rotation matrix (better conditioning)
   TURBO    =      0    0=normal 1=particle mesh
   IRESTART =      0    0=no restart 2=restart with 2 vectors
   NREBOOT  =      0    no. of reboots
   NMIN     =      0    reboot dimension
   EREF     =   0.00    reference energy to select bands
   IMIX   =      4    mixing-type and parameters
     AMIX     =   0.60;   BMIX     =  1.00
     AMIX_MAG =   2.40;   BMIX_MAG =  1.00
     AMIN     =   0.10
     WC   =   100.;   INIMIX=   1;  MIXPRE=   1;  MAXMIX= -45

 Intra band minimization:
   WEIMIN = 0.0000     energy-eigenvalue tresh-hold
   EBREAK =  0.42E-09  absolut break condition
   DEPER  =   0.30     relativ break condition  

   TIME   =   0.40     timestep for ELM

  volume/ion in A,a.u.               =      16.69       112.61
  Fermi-wavevector in a.u.,A,eV,Ry     =   1.016964  1.921783 14.071349  1.034215
  Thomas-Fermi vector in A             =   2.150337
 
 Write flags
   LWAVE        =      F    write WAVECAR
   LDOWNSAMPLE  =      F    k-point downsampling of WAVECAR
   LCHARG       =      T    write CHGCAR
   LVTOT        =      F    write LOCPOT, total local potential
   LVHAR        =      T    write LOCPOT, Hartree potential only
   WRT_POTENTIAL=  hartree ionic  ! write potential to hdf5 file
   LELF         =      F    write electronic localiz. function (ELF)
   LORBIT       =      0    0 simple, 1 ext, 2 COOP (PROOUT), +10 PAW based schemes


 Dipole corrections
   LMONO      =      F    monopole corrections only (constant potential shift)
   LDIPOL     =      F    correct potential (dipole corrections)
   IDIPOL     =      0    1-x, 2-y, 3-z, 4-all directions 
   EPSILON    =  1.0000000 bulk dielectric constant
   LVACPOTAV  =      F  vacuum potentials using an averaging scheme for the charge density
   VACPOTFLAT =  0.1000000 required flatness to determine vacuum potential
 Exchange correlation treatment:
   GGA     = PE    functional components
   XC_C    = 1    coefficients multiplying the functional components
   LIBXC   =     F    Libxc                    
   VOSKOWN =     0    Vosko Wilk Nusair interpolation
   LHFCALC =     F    Hartree Fock is set to
   LHFONE  =     F    Hartree Fock one center treatment
   AEXX    =    0.0000 exact exchange contribution

 Parameters of functionals:
   PE:
     No parameter
 
 Van der Waals corrections
   IVDW    =     0    specifies the selected vdW correction

 Linear response parameters
   LEPSILON=     F    determine dielectric tensor
   LRPA    =     F    only Hartree local field effects (RPA)
   LNABLA  =     F    use nabla operator in PAW spheres
   LVEL    =     F    velocity operator in full k-point grid
   CSHIFT  =0.1000    complex shift for real part using Kramers Kronig
   OMEGAMAX=  -1.0    maximum frequency
   DEG_THRESHOLD= 0.2000000E-02 threshold for treating states as degnerate
   RTIME   =   -0.100 relaxation time in fs
  (WPLASMAI=    0.000 imaginary part of plasma frequency in eV, 0.658/RTIME)
   DFIELD  = 0.0000000 0.0000000 0.0000000 field for delta impulse in time
 
  Optional k-point grid parameters
   LKPOINTS_OPT  =     F    use optional k-point grid
   KPOINTS_OPT_MODE=     1    mode for optional k-point grid
 
 Orbital magnetization related:
   ORBITALMAG=     F  switch on orbital magnetization
   LCHIMAG   =     F  perturbation theory with respect to B field
   DQ        =  0.001000  dq finite difference perturbation B field
   LLRAUG    =     F  two centre corrections for induced B field
   LBONE     =     F  B-component reconstruction in AE one-centre
   LVGVCALC  =     T  calculate vGv susceptibility
   LVGVAPPL  =     F  apply vGv susceptibility instead of pGv for G=0

 Random number generation:
   RANDOM_GENERATOR = DEFAULT
   PCG_SEED         = not used


--------------------------------------------------------------------------------------------------------


 Static calculation
 charge density and potential will be updated during run
 spin polarized calculation
 Variant of blocked Davidson
 Davidson routine will perform the subspace rotation
 perform sub-space diagonalisation
    after iterative eigenvector-optimisation
 modified Broyden-mixing scheme, WC =      100.0
 initial mixing is a Kerker type mixing with AMIX =  0.6000 and BMIX =      1.0000
 Hartree-type preconditioning will be used
 using additional bands           12
 real space projection scheme for non local part
 use partial core corrections
 calculate Harris-corrections to forces 
   (improved forces if not selfconsistent)
 use gradient corrections 
 use of overlap-Matrix (Vanderbilt PP)
 Gauss-broadening in eV      SIGMA  =   0.01


--------------------------------------------------------------------------------------------------------


  energy-cutoff  :      700.00
  volume of cell :      400.48
      direct lattice vectors                 reciprocal lattice vectors
     5.431000233  0.000000000  0.000000000     0.184128145  0.000000000  0.000000000
     0.000000000  5.431000233  0.000000000     0.000000000  0.184128145  0.000000000
     0.000000000  0.000000000 13.577501297     0.000000000  0.000000000  0.073651254

  length of vectors
     5.431000233  5.431000233 13.577501297     0.184128145  0.184128145  0.073651254


 
 k-points in units of 2pi/SCALE and weight: Automatic KPOINTS generated             
   0.00000000  0.00000000  0.00000000       0.014
   0.03068802  0.00000000  0.00000000       0.056
   0.06137605  0.00000000  0.00000000       0.056
   0.09206407  0.00000000  0.00000000       0.028
   0.03068802  0.03068802  0.00000000       0.028
  -0.03068802  0.03068802  0.00000000       0.028
   0.06137605  0.03068802  0.00000000       0.056
  -0.03068802  0.06137605  0.00000000       0.056
   0.09206407  0.03068802  0.00000000       0.056
   0.06137605  0.06137605  0.00000000       0.028
  -0.06137605  0.06137605  0.00000000       0.028
   0.09206407  0.06137605  0.00000000       0.056
   0.09206407  0.09206407  0.00000000       0.014
   0.00000000  0.00000000  0.03682563       0.014
   0.03068802  0.00000000  0.03682563       0.056
   0.06137605  0.00000000  0.03682563       0.056
   0.09206407  0.00000000  0.03682563       0.028
   0.03068802  0.03068802  0.03682563       0.028
  -0.03068802  0.03068802  0.03682563       0.028
   0.06137605  0.03068802  0.03682563       0.056
  -0.03068802  0.06137605  0.03682563       0.056
   0.09206407  0.03068802  0.03682563       0.056
   0.06137605  0.06137605  0.03682563       0.028
  -0.06137605  0.06137605  0.03682563       0.028
   0.09206407  0.06137605  0.03682563       0.056
   0.09206407  0.09206407  0.03682563       0.014
 
 k-points in reciprocal lattice and weights: Automatic KPOINTS generated             
   0.00000000  0.00000000  0.00000000       0.014
   0.16666667  0.00000000  0.00000000       0.056
   0.33333333  0.00000000  0.00000000       0.056
   0.50000000  0.00000000  0.00000000       0.028
   0.16666667  0.16666667  0.00000000       0.028
  -0.16666667  0.16666667  0.00000000       0.028
   0.33333333  0.16666667  0.00000000       0.056
  -0.16666667  0.33333333  0.00000000       0.056
   0.50000000  0.16666667  0.00000000       0.056
   0.33333333  0.33333333  0.00000000       0.028
  -0.33333333  0.33333333  0.00000000       0.028
   0.50000000  0.33333333  0.00000000       0.056
   0.50000000  0.50000000  0.00000000       0.014
   0.00000000  0.00000000  0.50000000       0.014
   0.16666667  0.00000000  0.50000000       0.056
   0.33333333  0.00000000  0.50000000       0.056
   0.50000000  0.00000000  0.50000000       0.028
   0.16666667  0.16666667  0.50000000       0.028
  -0.16666667  0.16666667  0.50000000       0.028
   0.33333333  0.16666667  0.50000000       0.056
  -0.16666667  0.33333333  0.50000000       0.056
   0.50000000  0.16666667  0.50000000       0.056
   0.33333333  0.33333333  0.50000000       0.028
  -0.33333333  0.33333333  0.50000000       0.028
   0.50000000  0.33333333  0.50000000       0.056
   0.50000000  0.50000000  0.50000000       0.014
 
 position of ions in fractional coordinates (direct lattice) 
   0.01779686  0.00000000  0.00000000
   0.51779687  0.00000000  0.20000000
   0.01779687  0.00000000  0.40000001
   0.26779687  0.75000006  0.10000000
   0.76779693  0.75000006  0.30000004
   0.26779699  0.75000006  0.50000000
   0.51779687  0.50000000  0.00000000
   0.01779687  0.50000000  0.20000000
   0.51779699  0.50000000  0.40000001
   0.76779693  0.25000000  0.10000000
   0.26779687  0.25000000  0.30000004
   0.76779699  0.25000000  0.50000000
   0.01779686  0.00000000  0.50000000
   0.51779687  0.00000000  0.69999999
   0.01779687  0.00000000  0.89999998
   0.26779687  0.75000006  0.60000002
   0.76779693  0.75000006  0.80000007
   0.26779699  0.75000006  0.00000000
   0.51779687  0.50000000  0.50000000
   0.01779687  0.50000000  0.69999999
   0.51779699  0.50000000  0.89999998
   0.76779693  0.25000000  0.60000002
   0.26779687  0.25000000  0.80000007
   0.76779699  0.25000000  0.00000000
 
 position of ions in cartesian coordinates  (Angst):
   0.09665475  0.00000000  0.00000000
   2.81215494  0.00000000  2.71550030
   0.09665483  0.00000000  5.43100060
   1.45440489  4.07325050  1.35775014
   4.16990533  4.07325050  4.07325096
   1.45440553  4.07325050  6.78875065
   2.81215494  2.71550012  0.00000000
   0.09665483  2.71550012  2.71550030
   2.81215559  2.71550012  5.43100060
   4.16990533  1.35775006  1.35775014
   1.45440489  1.35775006  4.07325096
   4.16990565  1.35775006  6.78875065
   0.09665475  0.00000000  6.78875065
   2.81215494  0.00000000  9.50425074
   0.09665483  0.00000000 12.21975084
   1.45440489  4.07325050  8.14650110
   4.16990533  4.07325050 10.86200202
   1.45440553  4.07325050  0.00000000
   2.81215494  2.71550012  6.78875065
   0.09665483  2.71550012  9.50425074
   2.81215559  2.71550012 12.21975084
   4.16990533  1.35775006  8.14650110
   1.45440489  1.35775006 10.86200202
   4.16990565  1.35775006  0.00000000
 


--------------------------------------------------------------------------------------------------------


 k-point     1 :   0.0000 0.0000 0.0000  plane waves:   16911
 k-point     2 :   0.1667 0.0000 0.0000  plane waves:   16871
 k-point     3 :   0.3333 0.0000 0.0000  plane waves:   16818
 k-point     4 :   0.5000 0.0000 0.0000  plane waves:   16840
 k-point     5 :   0.1667 0.1667 0.0000  plane waves:   16843
 k-point     6 :  -0.1667 0.1667 0.0000  plane waves:   16843
 k-point     7 :   0.3333 0.1667 0.0000  plane waves:   16820
 k-point     8 :  -0.1667 0.3333 0.0000  plane waves:   16820
 k-point     9 :   0.5000 0.1667 0.0000  plane waves:   16834
 k-point    10 :   0.3333 0.3333 0.0000  plane waves:   16850
 k-point    11 :  -0.3333 0.3333 0.0000  plane waves:   16850
 k-point    12 :   0.5000 0.3333 0.0000  plane waves:   16890
 k-point    13 :   0.5000 0.5000 0.0000  plane waves:   16856
 k-point    14 :   0.0000 0.0000 0.5000  plane waves:   16826
 k-point    15 :   0.1667 0.0000 0.5000  plane waves:   16862
 k-point    16 :   0.3333 0.0000 0.5000  plane waves:   16864
 k-point    17 :   0.5000 0.0000 0.5000  plane waves:   16868
 k-point    18 :   0.1667 0.1667 0.5000  plane waves:   16862
 k-point    19 :  -0.1667 0.1667 0.5000  plane waves:   16862
 k-point    20 :   0.3333 0.1667 0.5000  plane waves:   16840
 k-point    21 :  -0.1667 0.3333 0.5000  plane waves:   16840
 k-point    22 :   0.5000 0.1667 0.5000  plane waves:   16812
 k-point    23 :   0.3333 0.3333 0.5000  plane waves:   16868
 k-point    24 :  -0.3333 0.3333 0.5000  plane waves:   16868
 k-point    25 :   0.5000 0.3333 0.5000  plane waves:   16832
 k-point    26 :   0.5000 0.5000 0.5000  plane waves:   16864

 maximum and minimum number of plane-waves per node :      1084     1020

 maximum number of plane-waves:     16911
 maximum index in each direction: 
   IXMAX=   12   IYMAX=   11   IZMAX=   29
   IXMIN=  -12   IYMIN=  -12   IZMIN=  -29


 real space projection operators:
  total allocation   :       2187.00 KBytes
  max/ min on nodes  :        187.88        110.25


 parallel 3D FFT for wavefunctions:
    minimum data exchange during FFTs selected (reduces bandwidth)
 parallel 3D FFT for charge:
    minimum data exchange during FFTs selected (reduces bandwidth)


 total amount of memory used by VASP MPI-rank0    50319. kBytes
=======================================================================

   base      :      30000. kBytes
   nonlr-proj:        845. kBytes
   fftplans  :       3071. kBytes
   grid      :       2663. kBytes
   one-center:         12. kBytes
   wavefun   :      13728. kBytes
 
     INWAV:  cpu time      0.0001: real time      0.0004
 Broyden mixing: mesh for mixing (old mesh)
   NGX = 23   NGY = 23   NGZ = 59
  (NGX  = 72   NGY  = 72   NGZ  =180)
  gives a total of  31211 points

 initial charge density was supplied:
 charge density of overlapping atoms calculated
 number of electron      96.0000000 magnetization       1.0000000
 keeping initial charge density in first step


--------------------------------------------------------------------------------------------------------


 Maximum index for non-local projection operator          238
 Maximum index for augmentation-charges         3230 (set IRDMAX)


--------------------------------------------------------------------------------------------------------


 First call to EWALD:  gamma=   0.240
 Maximum number of real-space cells 4x 4x 2
 Maximum number of reciprocal cells 2x 2x 5

    FEWALD:  cpu time      0.0020: real time      0.0020


--------------------------------------- Ionic step        1  -------------------------------------------




--------------------------------------- Iteration      1(   1)  ---------------------------------------


    POTLOK:  cpu time      0.0494: real time      0.0501
    SETDIJ:  cpu time      0.2357: real time      0.2368
     EDDAV:  cpu time      2.2561: real time      2.2698
       DOS:  cpu time      0.0022: real time      0.0022
    --------------------------------------------
      LOOP:  cpu time      2.5433: real time      2.5588

 eigenvalue-minimisations  :  6240
 total energy-change (2. order) : 0.5792771E+03  (-0.4632527E+04)
 number of electron      96.0000000 magnetization       1.0000000
 augmentation part       96.0000000 magnetization       1.0000000

 Free energy of the ion-electron system (eV)
  ---------------------------------------------------
  alpha Z        PSCENC =        48.41695718
  Ewald energy   TEWEN  =     -2420.94898911
  -Hartree energ DENC   =      -296.55757858
  -exchange      EXHF   =         0.00000000
  -V(xc)+E(xc)   XCENC  =      -210.49007197
  PAW double counting   =      2114.96750760    -1692.72847628
  entropy T*S    EENTRO =        -0.00049392
  eigenvalues    EBANDS =       563.01926590
  atomic energy  EATOM  =      2473.59896808
  Solvation  Ediel_sol  =         0.00000000
  ---------------------------------------------------
  free energy    TOTEN  =       579.27708890 eV

  energy without entropy =      579.27758282  energy(sigma->0) =      579.27733586


--------------------------------------------------------------------------------------------------------




--------------------------------------- Iteration      1(   2)  ---------------------------------------


     EDDAV:  cpu time      2.5838: real time      2.6003
       DOS:  cpu time      0.0018: real time      0.0018
    --------------------------------------------
      LOOP:  cpu time      2.5856: real time      2.6021

 eigenvalue-minimisations  :  7632
 total energy-change (2. order) :-0.5190045E+03  (-0.4984860E+03)
 number of electron      96.0000000 magnetization       1.0000000
 augmentation part       96.0000000 magnetization       1.0000000

 Free energy of the ion-electron system (eV)
  ---------------------------------------------------
  alpha Z        PSCENC =        48.41695718
  Ewald energy   TEWEN  =     -2420.94898911
  -Hartree energ DENC   =      -296.55757858
  -exchange      EXHF   =         0.00000000
  -V(xc)+E(xc)   XCENC  =      -210.49007197
  PAW double counting   =      2114.96750760    -1692.72847628
  entropy T*S    EENTRO =        -0.00034133
  eigenvalues    EBANDS =        44.01465640
  atomic energy  EATOM  =      2473.59896808
  Solvation  Ediel_sol  =         0.00000000
  ---------------------------------------------------
  free energy    TOTEN  =        60.27263199 eV

  energy without entropy =       60.27297332  energy(sigma->0) =       60.27280266


--------------------------------------------------------------------------------------------------------




--------------------------------------- Iteration      1(   3)  ---------------------------------------


     EDDAV:  cpu time      2.7093: real time      2.7266
       DOS:  cpu time      0.0022: real time      0.0022
    --------------------------------------------
      LOOP:  cpu time      2.7115: real time      2.7288

 eigenvalue-minimisations  :  8168
 total energy-change (2. order) :-0.4739849E+02  (-0.4591039E+02)
 number of electron      96.0000000 magnetization       1.0000000
 augmentation part       96.0000000 magnetization       1.0000000

 Free energy of the ion-electron system (eV)
  ---------------------------------------------------
  alpha Z        PSCENC =        48.41695718
  Ewald energy   TEWEN  =     -2420.94898911
  -Hartree energ DENC   =      -296.55757858
  -exchange      EXHF   =         0.00000000
  -V(xc)+E(xc)   XCENC  =      -210.49007197
  PAW double counting   =      2114.96750760    -1692.72847628
  entropy T*S    EENTRO =        -0.00046934
  eigenvalues    EBANDS =        -3.38370151
  atomic energy  EATOM  =      2473.59896808
  Solvation  Ediel_sol  =         0.00000000
  ---------------------------------------------------
  free energy    TOTEN  =        12.87414607 eV

  energy without entropy =       12.87461541  energy(sigma->0) =       12.87438074


--------------------------------------------------------------------------------------------------------




--------------------------------------- Iteration      1(   4)  ---------------------------------------


     EDDAV:  cpu time      2.7413: real time      2.7583
       DOS:  cpu time      0.0017: real time      0.0017
    --------------------------------------------
      LOOP:  cpu time      2.7430: real time      2.7600

 eigenvalue-minimisations  :  8168
 total energy-change (2. order) :-0.2167065E+01  (-0.2132703E+01)
 number of electron      96.0000000 magnetization       1.0000000
 augmentation part       96.0000000 magnetization       1.0000000

 Free energy of the ion-electron system (eV)
  ---------------------------------------------------
  alpha Z        PSCENC =        48.41695718
  Ewald energy   TEWEN  =     -2420.94898911
  -Hartree energ DENC   =      -296.55757858
  -exchange      EXHF   =         0.00000000
  -V(xc)+E(xc)   XCENC  =      -210.49007197
  PAW double counting   =      2114.96750760    -1692.72847628
  entropy T*S    EENTRO =        -0.00063828
  eigenvalues    EBANDS =        -5.55059757
  atomic energy  EATOM  =      2473.59896808
  Solvation  Ediel_sol  =         0.00000000
  ---------------------------------------------------
  free energy    TOTEN  =        10.70708107 eV

  energy without entropy =       10.70771935  energy(sigma->0) =       10.70740021


--------------------------------------------------------------------------------------------------------




--------------------------------------- Iteration      1(   5)  ---------------------------------------


     EDDAV:  cpu time      2.7814: real time      2.7983
       DOS:  cpu time      0.0016: real time      0.0016
    CHARGE:  cpu time      0.1790: real time      0.1798
    MIXING:  cpu time      0.0014: real time      0.0014
    --------------------------------------------
      LOOP:  cpu time      2.9634: real time      2.9811

 eigenvalue-minimisations  :  8292
 total energy-change (2. order) :-0.8137265E-01  (-0.8110810E-01)
 number of electron      95.9999999 magnetization       1.0000000
 augmentation part       -7.5204272 magnetization      -0.0464775

 Broyden mixing:
  rms(total) = 0.32204E+01    rms(broyden)= 0.32204E+01
  rms(prec ) = 0.38221E+01
  weight for this iteration     100.00

 Free energy of the ion-electron system (eV)
  ---------------------------------------------------
  alpha Z        PSCENC =        48.41695718
  Ewald energy   TEWEN  =     -2420.94898911
  -Hartree energ DENC   =      -296.55757858
  -exchange      EXHF   =         0.00000000
  -V(xc)+E(xc)   XCENC  =      -210.49007197
  PAW double counting   =      2114.96750760    -1692.72847628
  entropy T*S    EENTRO =        -0.00066282
  eigenvalues    EBANDS =        -5.63194569
  atomic energy  EATOM  =      2473.59896808
  Solvation  Ediel_sol  =         0.00000000
  ---------------------------------------------------
  free energy    TOTEN  =        10.62570841 eV

  energy without entropy =       10.62637123  energy(sigma->0) =       10.62603982


--------------------------------------------------------------------------------------------------------




--------------------------------------- Iteration      1(   6)  ---------------------------------------


    POTLOK:  cpu time      0.0364: real time      0.0371
    SETDIJ:  cpu time      0.2329: real time      0.2338
     EDDAV:  cpu time      2.5270: real time      2.5412
       DOS:  cpu time      0.0019: real time      0.0019
    CHARGE:  cpu time      0.1770: real time      0.1780
    MIXING:  cpu time      0.0012: real time      0.0012
    --------------------------------------------
      LOOP:  cpu time      2.9764: real time      2.9932

 eigenvalue-minimisations  :  7524
 total energy-change (2. order) : 0.2947066E+02  (-0.1381767E+02)
 number of electron      95.9999999 magnetization       1.0000000
 augmentation part       -6.7337118 magnetization      -0.0492763

 Broyden mixing:
  rms(total) = 0.19185E+01    rms(broyden)= 0.19185E+01
  rms(prec ) = 0.20473E+01
  weight for this iteration     100.00

 eigenvalues of (default mixing * dielectric matrix)
  average eigenvalue GAMMA=   1.0446
  1.0446

 Free energy of the ion-electron system (eV)
  ---------------------------------------------------
  alpha Z        PSCENC =        48.41695718
  Ewald energy   TEWEN  =     -2420.94898911
  -Hartree energ DENC   =      -427.19193190
  -exchange      EXHF   =         0.00000000
  -V(xc)+E(xc)   XCENC  =      -200.86713872
  PAW double counting   =      8036.42814644    -7621.46639924
  entropy T*S    EENTRO =        -0.00052950
  eigenvalues    EBANDS =       152.12728762
  atomic energy  EATOM  =      2473.59896808
  Solvation  Ediel_sol  =         0.00000000
  ---------------------------------------------------
  free energy    TOTEN  =        40.09637086 eV

  energy without entropy =       40.09690035  energy(sigma->0) =       40.09663561


--------------------------------------------------------------------------------------------------------




--------------------------------------- Iteration      1(   7)  ---------------------------------------


    POTLOK:  cpu time      0.0401: real time      0.0406
    SETDIJ:  cpu time      0.2350: real time      0.2357
     EDDAV:  cpu time      2.4276: real time      2.4422
       DOS:  cpu time      0.0016: real time      0.0016
    CHARGE:  cpu time      0.1777: real time      0.1784
    MIXING:  cpu time      0.0009: real time      0.0009
    --------------------------------------------
      LOOP:  cpu time      2.8829: real time      2.8994

 eigenvalue-minimisations  :  7156
 total energy-change (2. order) :-0.9552601E+00  (-0.4781532E+01)
 number of electron      95.9999999 magnetization       1.0000000
 augmentation part       -6.7625230 magnetization      -0.0499555

 Broyden mixing:
  rms(total) = 0.10362E+01    rms(broyden)= 0.10362E+01
  rms(prec ) = 0.10610E+01
  weight for this iteration     100.00

 eigenvalues of (default mixing * dielectric matrix)
  average eigenvalue GAMMA=   0.9818
  1.1955  0.7680

 Free energy of the ion-electron system (eV)
  ---------------------------------------------------
  alpha Z        PSCENC =        48.41695718
  Ewald energy   TEWEN  =     -2420.94898911
  -Hartree energ DENC   =      -420.14276040
  -exchange      EXHF   =         0.00000000
  -V(xc)+E(xc)   XCENC  =      -198.86054902
  PAW double counting   =     14661.95218531   -14248.91697411
  entropy T*S    EENTRO =        -0.00047695
  eigenvalues    EBANDS =       144.04274973
  atomic energy  EATOM  =      2473.59896808
  Solvation  Ediel_sol  =         0.00000000
  ---------------------------------------------------
  free energy    TOTEN  =        39.14111071 eV

  energy without entropy =       39.14158767  energy(sigma->0) =       39.14134919


--------------------------------------------------------------------------------------------------------




--------------------------------------- Iteration      1(   8)  ---------------------------------------


    POTLOK:  cpu time      0.0372: real time      0.0378
    SETDIJ:  cpu time      0.2462: real time      0.2470
     EDDAV:  cpu time      2.6138: real time      2.6287
       DOS:  cpu time      0.0018: real time      0.0018
    CHARGE:  cpu time      0.1764: real time      0.1771
    MIXING:  cpu time      0.0009: real time      0.0009
    --------------------------------------------
      LOOP:  cpu time      3.0762: real time      3.0933

 eigenvalue-minimisations  :  7668
 total energy-change (2. order) : 0.9137465E-02  (-0.5090794E+00)
 number of electron      95.9999999 magnetization       1.0000000
 augmentation part       -6.8441923 magnetization      -0.0504115

 Broyden mixing:
  rms(total) = 0.28260E+00    rms(broyden)= 0.28260E+00
  rms(prec ) = 0.30428E+00
  weight for this iteration     100.00

 eigenvalues of (default mixing * dielectric matrix)
  average eigenvalue GAMMA=   1.0323
  1.3909  0.8530  0.8530

 Free energy of the ion-electron system (eV)
  ---------------------------------------------------
  alpha Z        PSCENC =        48.41695718
  Ewald energy   TEWEN  =     -2420.94898911
  -Hartree energ DENC   =      -416.56377973
  -exchange      EXHF   =         0.00000000
  -V(xc)+E(xc)   XCENC  =      -198.06101374
  PAW double counting   =     19184.95078136   -18772.90063745
  entropy T*S    EENTRO =        -0.00039962
  eigenvalues    EBANDS =       140.65836121
  atomic energy  EATOM  =      2473.59896808
  Solvation  Ediel_sol  =         0.00000000
  ---------------------------------------------------
  free energy    TOTEN  =        39.15024818 eV

  energy without entropy =       39.15064780  energy(sigma->0) =       39.15044799


--------------------------------------------------------------------------------------------------------




--------------------------------------- Iteration      1(   9)  ---------------------------------------


    POTLOK:  cpu time      0.0361: real time      0.0373
    SETDIJ:  cpu time      0.2327: real time      0.2335
     EDDAV:  cpu time      2.5748: real time      2.5899
       DOS:  cpu time      0.0017: real time      0.0017
    CHARGE:  cpu time      0.1770: real time      0.1779
    MIXING:  cpu time      0.0009: real time      0.0009
    --------------------------------------------
      LOOP:  cpu time      3.0233: real time      3.0412

 eigenvalue-minimisations  :  7536
 total energy-change (2. order) : 0.6021378E-01  (-0.5037106E-01)
 number of electron      95.9999999 magnetization       1.0000000
 augmentation part       -6.8200822 magnetization      -0.0496691

 Broyden mixing:
  rms(total) = 0.12041E+00    rms(broyden)= 0.12041E+00
  rms(prec ) = 0.12180E+00
  weight for this iteration     100.00

 eigenvalues of (default mixing * dielectric matrix)
  average eigenvalue GAMMA=   0.9657
  1.4415  0.9005  0.9005  0.6205

 Free energy of the ion-electron system (eV)
  ---------------------------------------------------
  alpha Z        PSCENC =        48.41695718
  Ewald energy   TEWEN  =     -2420.94898911
  -Hartree energ DENC   =      -422.55964501
  -exchange      EXHF   =         0.00000000
  -V(xc)+E(xc)   XCENC  =      -197.41139280
  PAW double counting   =     20348.04262780   -19936.80019012
  entropy T*S    EENTRO =        -0.00026127
  eigenvalues    EBANDS =       146.87238719
  atomic energy  EATOM  =      2473.59896808
  Solvation  Ediel_sol  =         0.00000000
  ---------------------------------------------------
  free energy    TOTEN  =        39.21046196 eV

  energy without entropy =       39.21072323  energy(sigma->0) =       39.21059259


--------------------------------------------------------------------------------------------------------




--------------------------------------- Iteration      1(  10)  ---------------------------------------


    POTLOK:  cpu time      0.0352: real time      0.0372
    SETDIJ:  cpu time      0.2332: real time      0.2339
     EDDAV:  cpu time      2.5070: real time      2.5214
       DOS:  cpu time      0.0017: real time      0.0017
    CHARGE:  cpu time      0.1764: real time      0.1772
    MIXING:  cpu time      0.0009: real time      0.0009
    --------------------------------------------
      LOOP:  cpu time      2.9544: real time      2.9723

 eigenvalue-minimisations  :  7456
 total energy-change (2. order) :-0.6307923E-02  (-0.8014381E-02)
 number of electron      95.9999999 magnetization       1.0000000
 augmentation part       -6.8221875 magnetization      -0.0478778

 Broyden mixing:
  rms(total) = 0.99875E-01    rms(broyden)= 0.99875E-01
  rms(prec ) = 0.10104E+00
  weight for this iteration     100.00

 eigenvalues of (default mixing * dielectric matrix)
  average eigenvalue GAMMA=   0.9924
  1.4581  1.3102  0.8478  0.8478  0.4981

 Free energy of the ion-electron system (eV)
  ---------------------------------------------------
  alpha Z        PSCENC =        48.41695718
  Ewald energy   TEWEN  =     -2420.94898911
  -Hartree energ DENC   =      -422.91669490
  -exchange      EXHF   =         0.00000000
  -V(xc)+E(xc)   XCENC  =      -197.27799070
  PAW double counting   =     20634.35844961   -20223.34796216
  entropy T*S    EENTRO =        -0.00025773
  eigenvalues    EBANDS =       147.32167376
  atomic energy  EATOM  =      2473.59896808
  Solvation  Ediel_sol  =         0.00000000
  ---------------------------------------------------
  free energy    TOTEN  =        39.20415404 eV

  energy without entropy =       39.20441176  energy(sigma->0) =       39.20428290


--------------------------------------------------------------------------------------------------------




--------------------------------------- Iteration      1(  11)  ---------------------------------------


    POTLOK:  cpu time      0.0366: real time      0.0371
    SETDIJ:  cpu time      0.2326: real time      0.2334
     EDDAV:  cpu time      2.5356: real time      2.5499
       DOS:  cpu time      0.0016: real time      0.0016
    CHARGE:  cpu time      0.1766: real time      0.1774
    MIXING:  cpu time      0.0010: real time      0.0010
    --------------------------------------------
      LOOP:  cpu time      2.9840: real time      3.0003

 eigenvalue-minimisations  :  7620
 total energy-change (2. order) :-0.2179391E-02  (-0.6732904E-03)
 number of electron      95.9999999 magnetization       1.0000000
 augmentation part       -6.8241388 magnetization      -0.0493805

 Broyden mixing:
  rms(total) = 0.47775E-01    rms(broyden)= 0.47775E-01
  rms(prec ) = 0.48520E-01
  weight for this iteration     100.00

 eigenvalues of (default mixing * dielectric matrix)
  average eigenvalue GAMMA=   0.9482
  1.4941  1.4941  0.7886  0.7076  0.7076  0.4974

 Free energy of the ion-electron system (eV)
  ---------------------------------------------------
  alpha Z        PSCENC =        48.41695718
  Ewald energy   TEWEN  =     -2420.94898911
  -Hartree energ DENC   =      -422.85410628
  -exchange      EXHF   =         0.00000000
  -V(xc)+E(xc)   XCENC  =      -197.23733868
  PAW double counting   =     20723.75864529   -20312.85949168
  entropy T*S    EENTRO =        -0.00021619
  eigenvalues    EBANDS =       147.32754605
  atomic energy  EATOM  =      2473.59896808
  Solvation  Ediel_sol  =         0.00000000
  ---------------------------------------------------
  free energy    TOTEN  =        39.20197465 eV

  energy without entropy =       39.20219084  energy(sigma->0) =       39.20208274


--------------------------------------------------------------------------------------------------------




--------------------------------------- Iteration      1(  12)  ---------------------------------------


    POTLOK:  cpu time      0.0354: real time      0.0368
    SETDIJ:  cpu time      0.2328: real time      0.2335
     EDDAV:  cpu time      2.5374: real time      2.5524
       DOS:  cpu time      0.0016: real time      0.0016
    CHARGE:  cpu time      0.1761: real time      0.1769
    MIXING:  cpu time      0.0010: real time      0.0010
    --------------------------------------------
      LOOP:  cpu time      2.9843: real time      3.0021

 eigenvalue-minimisations  :  7784
 total energy-change (2. order) : 0.2585946E-03  (-0.1932575E-03)
 number of electron      95.9999999 magnetization       1.0000000
 augmentation part       -6.8251390 magnetization      -0.0490427

 Broyden mixing:
  rms(total) = 0.30755E-01    rms(broyden)= 0.30755E-01
  rms(prec ) = 0.30980E-01
  weight for this iteration     100.00

 eigenvalues of (default mixing * dielectric matrix)
  average eigenvalue GAMMA=   1.0584
  1.8229  1.8229  1.1174  0.8469  0.8469  0.4758  0.4758

 Free energy of the ion-electron system (eV)
  ---------------------------------------------------
  alpha Z        PSCENC =        48.41695718
  Ewald energy   TEWEN  =     -2420.94898911
  -Hartree energ DENC   =      -422.76786935
  -exchange      EXHF   =         0.00000000
  -V(xc)+E(xc)   XCENC  =      -197.22496651
  PAW double counting   =     20731.14197146   -20320.29062322
  entropy T*S    EENTRO =        -0.00021926
  eigenvalues    EBANDS =       147.27700397
  atomic energy  EATOM  =      2473.59896808
  Solvation  Ediel_sol  =         0.00000000
  ---------------------------------------------------
  free energy    TOTEN  =        39.20223324 eV

  energy without entropy =       39.20245250  energy(sigma->0) =       39.20234287


--------------------------------------------------------------------------------------------------------




--------------------------------------- Iteration      1(  13)  ---------------------------------------


    POTLOK:  cpu time      0.0363: real time      0.0382
    SETDIJ:  cpu time      0.2330: real time      0.2337
     EDDAV:  cpu time      2.7176: real time      2.7333
       DOS:  cpu time      0.0016: real time      0.0016
    CHARGE:  cpu time      0.1776: real time      0.1784
    MIXING:  cpu time      0.0012: real time      0.0013
    --------------------------------------------
      LOOP:  cpu time      3.1673: real time      3.1865

 eigenvalue-minimisations  :  8176
 total energy-change (2. order) :-0.1697042E-03  (-0.7234246E-04)
 number of electron      95.9999999 magnetization       1.0000000
 augmentation part       -6.8257941 magnetization      -0.0488784

 Broyden mixing:
  rms(total) = 0.84119E-02    rms(broyden)= 0.84119E-02
  rms(prec ) = 0.84383E-02
  weight for this iteration     100.00

 eigenvalues of (default mixing * dielectric matrix)
  average eigenvalue GAMMA=   1.0320
  2.0141  1.6897  1.2744  0.8501  0.8501  0.6244  0.4967  0.4567

 Free energy of the ion-electron system (eV)
  ---------------------------------------------------
  alpha Z        PSCENC =        48.41695718
  Ewald energy   TEWEN  =     -2420.94898911
  -Hartree energ DENC   =      -422.74933999
  -exchange      EXHF   =         0.00000000
  -V(xc)+E(xc)   XCENC  =      -197.21088805
  PAW double counting   =     20760.29781662   -20349.48410929
  entropy T*S    EENTRO =        -0.00021201
  eigenvalues    EBANDS =       147.28186011
  atomic energy  EATOM  =      2473.59896808
  Solvation  Ediel_sol  =         0.00000000
  ---------------------------------------------------
  free energy    TOTEN  =        39.20206354 eV

  energy without entropy =       39.20227554  energy(sigma->0) =       39.20216954


--------------------------------------------------------------------------------------------------------




--------------------------------------- Iteration      1(  14)  ---------------------------------------


    POTLOK:  cpu time      0.0379: real time      0.0383
    SETDIJ:  cpu time      0.2334: real time      0.2341
     EDDAV:  cpu time      2.4577: real time      2.4717
       DOS:  cpu time      0.0022: real time      0.0022
    CHARGE:  cpu time      0.1766: real time      0.1773
    MIXING:  cpu time      0.0010: real time      0.0010
    --------------------------------------------
      LOOP:  cpu time      2.9088: real time      2.9247

 eigenvalue-minimisations  :  7252
 total energy-change (2. order) :-0.5171409E-04  (-0.2558280E-04)
 number of electron      95.9999999 magnetization       1.0000000
 augmentation part       -6.8257386 magnetization      -0.0489524

 Broyden mixing:
  rms(total) = 0.39751E-02    rms(broyden)= 0.39751E-02
  rms(prec ) = 0.39914E-02
  weight for this iteration     100.00

 eigenvalues of (default mixing * dielectric matrix)
  average eigenvalue GAMMA=   1.0092
  2.0095  1.5426  1.5426  0.8341  0.8341  0.8317  0.5474  0.4938  0.4477

 Free energy of the ion-electron system (eV)
  ---------------------------------------------------
  alpha Z        PSCENC =        48.41695718
  Ewald energy   TEWEN  =     -2420.94898911
  -Hartree energ DENC   =      -422.79393383
  -exchange      EXHF   =         0.00000000
  -V(xc)+E(xc)   XCENC  =      -197.20370028
  PAW double counting   =     20793.72948507   -20382.91917034
  entropy T*S    EENTRO =        -0.00021145
  eigenvalues    EBANDS =       147.32260649
  atomic energy  EATOM  =      2473.59896808
  Solvation  Ediel_sol  =         0.00000000
  ---------------------------------------------------
  free energy    TOTEN  =        39.20201182 eV

  energy without entropy =       39.20222327  energy(sigma->0) =       39.20211755


--------------------------------------------------------------------------------------------------------




--------------------------------------- Iteration      1(  15)  ---------------------------------------


    POTLOK:  cpu time      0.0367: real time      0.0371
    SETDIJ:  cpu time      0.2328: real time      0.2337
     EDDAV:  cpu time      2.5360: real time      2.5521
       DOS:  cpu time      0.0015: real time      0.0015
    CHARGE:  cpu time      0.1762: real time      0.1773
    MIXING:  cpu time      0.0011: real time      0.0011
    --------------------------------------------
      LOOP:  cpu time      2.9844: real time      3.0029

 eigenvalue-minimisations  :  7368
 total energy-change (2. order) :-0.5327368E-05  (-0.2038297E-05)
 number of electron      95.9999999 magnetization       1.0000000
 augmentation part       -6.8257217 magnetization      -0.0490068

 Broyden mixing:
  rms(total) = 0.18458E-02    rms(broyden)= 0.18458E-02
  rms(prec ) = 0.18726E-02
  weight for this iteration     100.00

 eigenvalues of (default mixing * dielectric matrix)
  average eigenvalue GAMMA=   1.0233
  1.9833  1.6907  1.6907  0.8396  0.8396  0.8497  0.8497  0.5208  0.5208  0.4482

 Free energy of the ion-electron system (eV)
  ---------------------------------------------------
  alpha Z        PSCENC =        48.41695718
  Ewald energy   TEWEN  =     -2420.94898911
  -Hartree energ DENC   =      -422.80601367
  -exchange      EXHF   =         0.00000000
  -V(xc)+E(xc)   XCENC  =      -197.20203823
  PAW double counting   =     20808.62750887   -20397.81679915
  entropy T*S    EENTRO =        -0.00021090
  eigenvalues    EBANDS =       147.33262342
  atomic energy  EATOM  =      2473.59896808
  Solvation  Ediel_sol  =         0.00000000
  ---------------------------------------------------
  free energy    TOTEN  =        39.20200649 eV

  energy without entropy =       39.20221739  energy(sigma->0) =       39.20211194


--------------------------------------------------------------------------------------------------------




--------------------------------------- Iteration      1(  16)  ---------------------------------------


    POTLOK:  cpu time      0.0361: real time      0.0367
    SETDIJ:  cpu time      0.2330: real time      0.2337
     EDDAV:  cpu time      2.5212: real time      2.5374
       DOS:  cpu time      0.0016: real time      0.0017
    CHARGE:  cpu time      0.1764: real time      0.1773
    MIXING:  cpu time      0.0011: real time      0.0011
    --------------------------------------------
      LOOP:  cpu time      2.9694: real time      2.9878

 eigenvalue-minimisations  :  7392
 total energy-change (2. order) : 0.1868174E-05  (-0.6289778E-06)
 number of electron      95.9999999 magnetization       1.0000000
 augmentation part       -6.8257299 magnetization      -0.0489904

 Broyden mixing:
  rms(total) = 0.70479E-03    rms(broyden)= 0.70479E-03
  rms(prec ) = 0.70836E-03
  weight for this iteration     100.00

 eigenvalues of (default mixing * dielectric matrix)
  average eigenvalue GAMMA=   1.0414
  1.9386  1.9386  1.8150  1.0880  0.8558  0.8558  0.9311  0.5888  0.4532  0.4954
  0.4954

 Free energy of the ion-electron system (eV)
  ---------------------------------------------------
  alpha Z        PSCENC =        48.41695718
  Ewald energy   TEWEN  =     -2420.94898911
  -Hartree energ DENC   =      -422.80158170
  -exchange      EXHF   =         0.00000000
  -V(xc)+E(xc)   XCENC  =      -197.20215799
  PAW double counting   =     20818.30056834   -20407.48901599
  entropy T*S    EENTRO =        -0.00021154
  eigenvalues    EBANDS =       147.32747108
  atomic energy  EATOM  =      2473.59896808
  Solvation  Ediel_sol  =         0.00000000
  ---------------------------------------------------
  free energy    TOTEN  =        39.20200836 eV

  energy without entropy =       39.20221990  energy(sigma->0) =       39.20211413


--------------------------------------------------------------------------------------------------------




--------------------------------------- Iteration      1(  17)  ---------------------------------------


    POTLOK:  cpu time      0.0360: real time      0.0370
    SETDIJ:  cpu time      0.2324: real time      0.2331
     EDDAV:  cpu time      2.4997: real time      2.5162
       DOS:  cpu time      0.0018: real time      0.0018
    CHARGE:  cpu time      0.1763: real time      0.1772
    MIXING:  cpu time      0.0092: real time      0.0093
    --------------------------------------------
      LOOP:  cpu time      2.9554: real time      2.9745

 eigenvalue-minimisations  :  7384
 total energy-change (2. order) :-0.9073938E-06  (-0.2305385E-06)
 number of electron      95.9999999 magnetization       1.0000000
 augmentation part       -6.8257309 magnetization      -0.0489828

 Broyden mixing:
  rms(total) = 0.46236E-03    rms(broyden)= 0.46236E-03
  rms(prec ) = 0.47083E-03
  weight for this iteration     100.00

 eigenvalues of (default mixing * dielectric matrix)
  average eigenvalue GAMMA=   1.0278
  2.0724  2.0724  1.4774  1.4774  0.8472  0.8472  0.9099  0.6325  0.5873  0.5149
  0.4475  0.4475

 Free energy of the ion-electron system (eV)
  ---------------------------------------------------
  alpha Z        PSCENC =        48.41695718
  Ewald energy   TEWEN  =     -2420.94898911
  -Hartree energ DENC   =      -422.79798952
  -exchange      EXHF   =         0.00000000
  -V(xc)+E(xc)   XCENC  =      -197.20246703
  PAW double counting   =     20820.04718468   -20409.23541251
  entropy T*S    EENTRO =        -0.00021194
  eigenvalues    EBANDS =       147.32396762
  atomic energy  EATOM  =      2473.59896808
  Solvation  Ediel_sol  =         0.00000000
  ---------------------------------------------------
  free energy    TOTEN  =        39.20200745 eV

  energy without entropy =       39.20221940  energy(sigma->0) =       39.20211343


--------------------------------------------------------------------------------------------------------




--------------------------------------- Iteration      1(  18)  ---------------------------------------


    POTLOK:  cpu time      0.0442: real time      0.0446
    SETDIJ:  cpu time      0.2325: real time      0.2335
     EDDAV:  cpu time      1.9290: real time      1.9413
       DOS:  cpu time      0.0016: real time      0.0016
    CHARGE:  cpu time      0.1952: real time      0.1961
    MIXING:  cpu time      0.0037: real time      0.0037
    --------------------------------------------
      LOOP:  cpu time      2.4062: real time      2.4207

 eigenvalue-minimisations  :  4888
 total energy-change (2. order) :-0.1234225E-06  (-0.2365456E-07)
 number of electron      95.9999999 magnetization       1.0000000
 augmentation part       -6.8257290 magnetization      -0.0489972

 Broyden mixing:
  rms(total) = 0.30286E-03    rms(broyden)= 0.30285E-03
  rms(prec ) = 0.31031E-03
  weight for this iteration     100.00

 eigenvalues of (default mixing * dielectric matrix)
  average eigenvalue GAMMA=   1.0087
  2.0627  2.0627  1.5649  1.5649  0.8380  0.8380  0.8229  0.8229  0.6536  0.5107
  0.4674  0.4674  0.4369

 Free energy of the ion-electron system (eV)
  ---------------------------------------------------
  alpha Z        PSCENC =        48.41695718
  Ewald energy   TEWEN  =     -2420.94898911
  -Hartree energ DENC   =      -422.79777447
  -exchange      EXHF   =         0.00000000
  -V(xc)+E(xc)   XCENC  =      -197.20256463
  PAW double counting   =     20819.55682577   -20408.74508164
  entropy T*S    EENTRO =        -0.00021193
  eigenvalues    EBANDS =       147.32387807
  atomic energy  EATOM  =      2473.59896808
  Solvation  Ediel_sol  =         0.00000000
  ---------------------------------------------------
  free energy    TOTEN  =        39.20200733 eV

  energy without entropy =       39.20221926  energy(sigma->0) =       39.20211330


--------------------------------------------------------------------------------------------------------




--------------------------------------- Iteration      1(  19)  ---------------------------------------


    POTLOK:  cpu time      0.0429: real time      0.0449
    SETDIJ:  cpu time      0.2324: real time      0.2332
     EDDAV:  cpu time      1.7700: real time      1.7806
       DOS:  cpu time      0.0020: real time      0.0020
    --------------------------------------------
      LOOP:  cpu time      2.0474: real time      2.0607

 eigenvalue-minimisations  :  4016
 total energy-change (2. order) :-0.6984465E-08  (-0.6620712E-08)
 number of electron      95.9999999 magnetization       1.0000000
 augmentation part       -6.8257290 magnetization      -0.0489972

 Free energy of the ion-electron system (eV)
  ---------------------------------------------------
  alpha Z        PSCENC =        48.41695718
  Ewald energy   TEWEN  =     -2420.94898911
  -Hartree energ DENC   =      -422.79852596
  -exchange      EXHF   =         0.00000000
  -V(xc)+E(xc)   XCENC  =      -197.20256723
  PAW double counting   =     20819.07319150   -20408.26149111
  entropy T*S    EENTRO =        -0.00021185
  eigenvalues    EBANDS =       147.32467583
  atomic energy  EATOM  =      2473.59896808
  Solvation  Ediel_sol  =         0.00000000
  ---------------------------------------------------
  free energy    TOTEN  =        39.20200732 eV

  energy without entropy =       39.20221918  energy(sigma->0) =       39.20211325


--------------------------------------------------------------------------------------------------------




 average (electrostatic) potential at core
  the test charge radii are     0.9892
  (the norm of the test charge is              1.0000)
       1 -83.6989       2 -81.5256       3 -83.7205       4 -83.7205       5 -81.5256
       6 -83.6989       7 -83.6989       8 -81.5256       9 -83.7205      10 -83.7205
      11 -81.5255      12 -83.6989      13 -83.6989      14 -81.5256      15 -83.7205
      16 -83.7205      17 -81.5256      18 -83.6989      19 -83.6989      20 -81.5256
      21 -83.7205      22 -83.7205      23 -81.5256      24 -83.6989
 
 
 
 E-fermi :   7.5449     XC(G=0):  -9.8539     alpha+bet :-14.3735

 val. band max:        7.8081119630   @ k =   0.5000   0.3333   0.0000
 cond. band min:       7.5509382674   @ k =  -0.1667   0.3333   0.0000
 fundamental gap:     -0.2571736956
 Fermi energy:         7.8211176519

 spin component 1

 k-point     1 :       0.0000    0.0000    0.0000
  band No.  band energies     occupation 
      1      -7.7299      1.00000
      2      -7.6736      1.00000
      3      -5.1910      1.00000
      4      -5.1910      1.00000
      5      -5.1815      1.00000
      6      -5.1815      1.00000
      7      -4.3781      1.00000
      8      -3.2940      1.00000
      9      -3.0488      1.00000
     10      -0.6721      1.00000
     11      -0.6626      1.00000
     12      -0.6556      1.00000
     13      -0.6039      1.00000
     14      -0.6039      1.00000
     15      -0.5314      1.00000
     16      -0.5314      1.00000
     17       0.0974      1.00000
     18       0.0974      1.00000
     19       0.1878      1.00000
     20       0.2894      1.00000
     21       0.2894      1.00000
     22       2.1562      1.00000
     23       2.1659      1.00000
     24       2.1659      1.00000
     25       2.2496      1.00000
     26       2.6754      1.00000
     27       2.6754      1.00000
     28       2.9397      1.00000
     29       3.4555      1.00000
     30       3.4555      1.00000
     31       4.1548      1.00000
     32       4.1548      1.00000
     33       4.3081      1.00000
     34       4.4221      1.00000
     35       4.5133      1.00000
     36       5.0008      1.00000
     37       5.0333      1.00000
     38       5.0382      1.00000
     39       5.0382      1.00000
     40       5.1320      1.00000
     41       5.1571      1.00000
     42       5.6623      1.00000
     43       6.3082      1.00000
     44       6.4962      1.00000
     45       6.4962      1.00000
     46       6.6210      1.00000
     47       6.7991      1.00000
     48       7.4715      1.00000
     49       7.8609      0.00000
     50       8.0306      0.00000
     51       8.0306      0.00000
     52       8.4086      0.00000
     53       8.4516      0.00000
     54       8.5623      0.00000
     55       8.7670      0.00000
     56       8.8038      0.00000
     57       8.8038      0.00000
     58       8.9453      0.00000
     59       9.3453      0.00000
     60       9.8674      0.00000

 k-point     2 :       0.1667    0.0000    0.0000
  band No.  band energies     occupation 
      1      -7.6422      1.00000
      2      -7.5883      1.00000
      3      -5.8376      1.00000
      4      -5.8225      1.00000
      5      -4.5429      1.00000
      6      -4.5401      1.00000
      7      -4.2838      1.00000
      8      -3.2633      1.00000
      9      -2.9559      1.00000
     10      -1.2554      1.00000
     11      -1.1896      1.00000
     12      -1.1443      1.00000
     13      -0.8615      1.00000
     14      -0.4843      1.00000
     15      -0.3516      1.00000
     16      -0.3436      1.00000
     17      -0.1166      1.00000
     18       0.1682      1.00000
     19       0.2556      1.00000
     20       0.8249      1.00000
     21       0.8506      1.00000
     22       1.9931      1.00000
     23       2.0959      1.00000
     24       2.1462      1.00000
     25       2.1812      1.00000
     26       2.6013      1.00000
     27       2.8188      1.00000
     28       3.0507      1.00000
     29       3.3465      1.00000
     30       3.8735      1.00000
     31       4.0113      1.00000
     32       4.1297      1.00000
     33       4.1628      1.00000
     34       4.1913      1.00000
     35       4.2417      1.00000
     36       4.9270      1.00000
     37       5.0507      1.00000
     38       5.0549      1.00000
     39       5.0808      1.00000
     40       5.3917      1.00000
     41       5.5442      1.00000
     42       5.8180      1.00000
     43       6.0121      1.00000
     44       6.2948      1.00000
     45       6.3279      1.00000
     46       6.3356      1.00000
     47       6.7770      1.00000
     48       7.7028      1.00000
     49       8.0382      0.00000
     50       8.1988      0.00000
     51       8.4266      0.00000
     52       8.5155      0.00000
     53       8.6214      0.00000
     54       8.9369      0.00000
     55       8.9600      0.00000
     56       9.2586      0.00000
     57       9.3468      0.00000
     58       9.3529      0.00000
     59       9.4988      0.00000
     60       9.8057      0.00000

 k-point     3 :       0.3333    0.0000    0.0000
  band No.  band energies     occupation 
      1      -7.3850      1.00000
      2      -7.3378      1.00000
      3      -6.4470      1.00000
      4      -6.4218      1.00000
      5      -4.0305      1.00000
      6      -3.9822      1.00000
      7      -3.9316      1.00000
      8      -3.2458      1.00000
      9      -2.6866      1.00000
     10      -1.9878      1.00000
     11      -1.7557      1.00000
     12      -1.7415      1.00000
     13      -1.2041      1.00000
     14      -0.9717      1.00000
     15      -0.2253      1.00000
     16      -0.1642      1.00000
     17      -0.0804      1.00000
     18       0.0863      1.00000
     19       0.9422      1.00000
     20       1.2330      1.00000
     21       1.3241      1.00000
     22       1.6592      1.00000
     23       1.9131      1.00000
     24       1.9160      1.00000
     25       2.3671      1.00000
     26       2.9770      1.00000
     27       3.0531      1.00000
     28       3.1183      1.00000
     29       3.3522      1.00000
     30       3.5609      1.00000
     31       3.6443      1.00000
     32       3.8257      1.00000
     33       3.9564      1.00000
     34       4.1343      1.00000
     35       4.4021      1.00000
     36       4.5484      1.00000
     37       4.8419      1.00000
     38       5.0954      1.00000
     39       5.3263      1.00000
     40       5.5660      1.00000
     41       5.8555      1.00000
     42       5.9397      1.00000
     43       6.2973      1.00000
     44       6.3328      1.00000
     45       6.5692      1.00000
     46       6.6595      1.00000
     47       6.9932      1.00000
     48       7.0863      1.00000
     49       8.1155      0.00000
     50       8.2373      0.00000
     51       8.6190      0.00000
     52       8.6455      0.00000
     53       9.2797      0.00000
     54       9.3222      0.00000
     55       9.4934      0.00000
     56       9.6842      0.00000
     57       9.6880      0.00000
     58       9.9742      0.00000
     59      10.1236      0.00000
     60      10.2090      0.00000

 k-point     4 :       0.5000    0.0000    0.0000
  band No.  band energies     occupation 
      1      -6.9764      1.00000
      2      -6.9764      1.00000
      3      -6.9394      1.00000
      4      -6.9394      1.00000
      5      -3.7881      1.00000
      6      -3.7881      1.00000
      7      -3.4488      1.00000
      8      -3.4488      1.00000
      9      -2.2704      1.00000
     10      -2.2704      1.00000
     11      -2.1824      1.00000
     12      -2.1824      1.00000
     13      -1.2847      1.00000
     14      -1.2847      1.00000
     15      -0.0730      1.00000
     16      -0.0730      1.00000
     17      -0.0654      1.00000
     18      -0.0654      1.00000
     19       1.3939      1.00000
     20       1.3939      1.00000
     21       1.6343      1.00000
     22       1.6343      1.00000
     23       1.6867      1.00000
     24       1.6867      1.00000
     25       2.3943      1.00000
     26       2.3943      1.00000
     27       3.2922      1.00000
     28       3.2922      1.00000
     29       3.7201      1.00000
     30       3.7201      1.00000
     31       3.8017      1.00000
     32       3.8017      1.00000
[...]
     42       6.3018      1.00000
     43       6.5335      1.00000
     44       6.5335      1.00000
     45       6.7532      1.00000
     46       6.7532      1.00000
     47       6.7532      1.00000
     48       6.7532      1.00000
     49       8.8716      0.00000
     50       8.8716      0.00000
     51       9.3902      0.00000
     52       9.3902      0.00000
     53       9.3902      0.00000
     54       9.3902      0.00000
     55       9.4289      0.00000
     56       9.4289      0.00000
     57      10.1203      0.00000
     58      10.1203      0.00000
     59      10.1654      0.00000
     60      10.1654      0.00000

 k-point    24 :      -0.3333    0.3333    0.5000
  band No.  band energies     occupation 
      1      -6.9649      1.00000
      2      -6.9649      1.00000
      3      -6.6990      1.00000
      4      -6.6990      1.00000
      5      -4.3365      1.00000
      6      -4.3365      1.00000
      7      -2.6106      1.00000
      8      -2.6106      1.00000
      9      -2.3992      1.00000
     10      -2.3992      1.00000
     11      -2.1969      1.00000
     12      -2.1969      1.00000
     13      -0.9668      1.00000
     14      -0.9668      1.00000
     15      -0.8735      1.00000
     16      -0.8735      1.00000
     17      -0.0771      1.00000
     18      -0.0771      1.00000
     19       0.8289      1.00000
     20       0.8289      1.00000
     21       1.5449      1.00000
     22       1.5449      1.00000
     23       2.2373      1.00000
     24       2.2373      1.00000
     25       2.6340      1.00000
     26       2.6340      1.00000
     27       3.0436      1.00000
     28       3.0436      1.00000
     29       3.9747      1.00000
     30       3.9747      1.00000
     31       3.9878      1.00000
     32       3.9879      1.00000
     33       4.5839      1.00000
     34       4.5839      1.00000
     35       4.8212      1.00000
     36       4.8212      1.00000
     37       4.8582      1.00000
     38       4.8582      1.00000
     39       5.7552      1.00000
     40       5.7552      1.00000
     41       5.8049      1.00000
     42       5.8049      1.00000
     43       6.9121      1.00000
     44       6.9121      1.00000
     45       7.2654      1.00000
     46       7.2654      1.00000
     47       8.1197      0.00000
     48       8.1197      0.00000
     49       8.1683      0.00000
     50       8.1683      0.00000
     51       8.3829      0.00000
     52       8.3829      0.00000
     53       8.6380      0.00000
     54       8.6380      0.00000
     55       9.5827      0.00000
     56       9.5827      0.00000
     57       9.6335      0.00000
     58       9.6335      0.00000
     59       9.6581      0.00000
     60       9.6581      0.00000

 k-point    25 :       0.5000    0.3333    0.5000
  band No.  band energies     occupation 
      1      -7.1787      1.00000
      2      -7.1787      1.00000
      3      -6.1613      1.00000
      4      -6.1613      1.00000
      5      -4.9157      1.00000
      6      -4.9157      1.00000
      7      -2.7946      1.00000
      8      -2.7946      1.00000
      9      -2.0718      1.00000
     10      -2.0718      1.00000
     11      -2.0425      1.00000
     12      -2.0425      1.00000
     13      -1.1369      1.00000
     14      -1.1369      1.00000
     15      -0.6223      1.00000
     16      -0.6223      1.00000
     17      -0.0398      1.00000
     18      -0.0398      1.00000
     19       0.8285      1.00000
     20       0.8285      1.00000
     21       1.3698      1.00000
     22       1.3698      1.00000
     23       1.8615      1.00000
     24       1.8615      1.00000
     25       2.5526      1.00000
     26       2.5526      1.00000
     27       3.2214      1.00000
     28       3.2215      1.00000
     29       3.9810      1.00000
     30       3.9810      1.00000
     31       4.0291      1.00000
     32       4.0291      1.00000
     33       4.4037      1.00000
     34       4.4037      1.00000
     35       5.1524      1.00000
     36       5.1524      1.00000
     37       5.2438      1.00000
     38       5.2438      1.00000
     39       5.6938      1.00000
     40       5.6938      1.00000
     41       6.1263      1.00000
     42       6.1263      1.00000
     43       6.1885      1.00000
     44       6.1885      1.00000
     45       7.0703      1.00000
     46       7.0703      1.00000
     47       7.6323      0.00000
     48       7.6323      0.00000
     49       8.8617      0.00000
     50       8.8617      0.00000
     51       8.9997      0.00000
     52       8.9997      0.00000
     53       9.3928      0.00000
     54       9.3928      0.00000
     55       9.7717      0.00000
     56       9.7718      0.00000
     57       9.9440      0.00000
     58       9.9442      0.00000
     59      10.1351      0.00000
     60      10.1352      0.00000

 k-point    26 :       0.5000    0.5000    0.5000
  band No.  band energies     occupation 
      1      -7.2054      1.00000
      2      -7.2054      1.00000
      3      -5.5911      1.00000
      4      -5.5911      1.00000
      5      -5.5910      1.00000
      6      -5.5910      1.00000
      7      -2.4332      1.00000
      8      -2.4332      1.00000
      9      -2.3942      1.00000
     10      -2.3942      1.00000
     11      -1.6251      1.00000
     12      -1.6251      1.00000
     13      -1.6251      1.00000
     14      -1.6251      1.00000
     15      -0.4496      1.00000
     16      -0.4496      1.00000
     17      -0.2304      1.00000
     18      -0.2304      1.00000
     19       1.2282      1.00000
     20       1.2282      1.00000
     21       1.2282      1.00000
     22       1.2282      1.00000
     23       1.4482      1.00000
     24       1.4482      1.00000
     25       2.2348      1.00000
     26       2.2348      1.00000
     27       3.8685      1.00000
     28       3.8686      1.00000
     29       3.8686      1.00000
     30       3.8686      1.00000
     31       4.1280      1.00000
     32       4.1280      1.00000
     33       4.7589      1.00000
     34       4.7589      1.00000
     35       4.7589      1.00000
     36       4.7589      1.00000
     37       5.4924      1.00000
     38       5.4924      1.00000
     39       5.8415      1.00000
     40       5.8415      1.00000
     41       5.9600      1.00000
     42       5.9600      1.00000
     43       6.2085      1.00000
     44       6.2085      1.00000
     45       7.6795      0.00000
     46       7.6795      0.00000
     47       7.6795      0.00000
     48       7.6795      0.00000
     49       9.1021      0.00000
     50       9.1021      0.00000
     51       9.1021      0.00000
     52       9.1022      0.00000
     53       9.5172      0.00000
     54       9.5172      0.00000
     55       9.5844      0.00000
     56       9.5844      0.00000
     57       9.8415      0.00000
     58       9.8415      0.00000
     59       9.8503      0.00000
     60       9.8627      0.00000


--------------------------------------------------------------------------------------------------------


 soft charge-density along one line, spin component           1
         0         1         2         3         4         5         6         7         8         9
 total charge-density along one line
 
 soft charge-density along one line, spin component           2
         0         1         2         3         4         5         6         7         8         9
 total charge-density along one line
 
 pseudopotential strength for first ion, spin component:           1
 18.694  26.078   0.000  -0.176  -0.000   0.000  -0.325  -0.000
 26.078  36.385   0.000  -0.243  -0.000   0.000  -0.451  -0.000
  0.000   0.000   4.265   0.000  -0.012   7.944   0.000  -0.021
 -0.176  -0.243   0.000   4.359  -0.000   0.000   8.116  -0.000
 -0.000  -0.000  -0.012  -0.000   4.265  -0.021  -0.000   7.944
  0.000   0.000   7.944   0.000  -0.021  14.810   0.000  -0.038
 -0.325  -0.451   0.000   8.116  -0.000   0.000  15.124  -0.000
 -0.000  -0.000  -0.021  -0.000   7.944  -0.038  -0.000  14.810
 pseudopotential strength for first ion, spin component:           2
 18.688  26.070   0.000  -0.176  -0.000   0.000  -0.326  -0.000
 26.070  36.374   0.000  -0.244  -0.000   0.000  -0.452  -0.000
  0.000   0.000   4.262   0.000  -0.012   7.940   0.000  -0.022
 -0.176  -0.244   0.000   4.356  -0.000   0.000   8.111  -0.000
 -0.000  -0.000  -0.012  -0.000   4.262  -0.022  -0.000   7.940
  0.000   0.000   7.940   0.000  -0.022  14.802   0.000  -0.041
 -0.326  -0.452   0.000   8.111  -0.000   0.000  15.115  -0.000
 -0.000  -0.000  -0.022  -0.000   7.940  -0.041  -0.000  14.802
 total augmentation occupancy for first ion, spin component:           1
 12.390  -6.266   0.000  -1.680   0.000   0.000   0.427   0.000
 -6.266   3.645   0.000   0.787  -0.000   0.000  -0.310   0.000
  0.000   0.000   5.254   0.000  -1.711  -1.327  -0.000   0.687
 -1.680   0.787   0.000   4.598   0.000   0.000  -1.034   0.000
  0.000  -0.000  -1.711   0.000   5.254   0.687   0.000  -1.327
  0.000   0.000  -1.327   0.000   0.687   0.377   0.000  -0.237
  0.427  -0.310   0.000  -1.034   0.000  -0.000   0.287   0.000
  0.000   0.000   0.687   0.000  -1.327  -0.237   0.000   0.377
 total augmentation occupancy for first ion, spin component:           2
  0.117  -0.086   0.000  -0.014   0.000   0.000   0.006   0.000
 -0.086   0.075   0.000   0.021   0.000   0.000  -0.010   0.000
  0.000   0.000   0.048   0.000   0.007  -0.005   0.000   0.001
 -0.014   0.021   0.000   0.023   0.000   0.000  -0.008   0.000
  0.000   0.000   0.007   0.000   0.048   0.001   0.000  -0.005
  0.000   0.000  -0.005   0.000   0.001   0.002   0.000  -0.001
  0.006  -0.010   0.000  -0.008   0.000   0.000   0.003   0.000
  0.000   0.000   0.001   0.000  -0.005  -0.001   0.000   0.002


------------------------ aborting loop because EDIFF is reached ----------------------------------------


    CHARGE:  cpu time      0.1768: real time      0.1776
    FORLOC:  cpu time      0.0015: real time      0.0016
    FORNL :  cpu time      0.5386: real time      0.5415
    STRESS:  cpu time      1.6498: real time      1.6584
    FORCOR:  cpu time      0.0345: real time      0.0347
    FORHAR:  cpu time      0.0044: real time      0.0045
    MIXING:  cpu time      0.0012: real time      0.0012
    OFIELD:  cpu time      0.0000: real time      0.0000

  FORCE on cell =-STRESS in cart. coord.  units (eV):
  Direction    XX          YY          ZZ          XY          YZ          ZX
  --------------------------------------------------------------------------------------
  Alpha Z    48.41696    48.41696    48.41696
  Ewald   -1059.40223 -1059.40223  -302.15345  -478.99639     0.00013    -0.00027
  Hartree   170.34953   170.34953    82.10364  -104.43474    -0.00001     0.00000
  E(xc)    -337.71164  -337.71166  -348.26300     0.30803    -0.00000     0.00000
  Local    -561.05732  -561.05732  -743.51145   519.44939    -0.00007     0.00005
  n-local  1130.58684  1125.68060  1331.71754   -22.41558     0.00001    -0.00005
  augment  -172.84522  -172.84515  -149.33626    -1.71105    -0.00000    -0.00001
  Kinetic   845.95896   852.17605   848.22036    28.67685    -0.00004     0.00002
  Fock        0.00000     0.00000     0.00000     0.00000     0.00000     0.00000
  -------------------------------------------------------------------------------------
  Total      64.95133    64.95133   767.19435   -59.12113     0.00000     0.00000
  in kB     259.84785   259.84785  3069.27980  -236.52324     0.00000     0.00000
  external pressure =     1196.33 kB  Pullay stress =        0.00 kB


 VOLUME and BASIS-vectors are now :
 -----------------------------------------------------------------------------
  energy-cutoff  :      700.00
  volume of cell :      400.48
      direct lattice vectors                 reciprocal lattice vectors
     5.431000233  0.000000000  0.000000000     0.184128145  0.000000000  0.000000000
     0.000000000  5.431000233  0.000000000     0.000000000  0.184128145  0.000000000
     0.000000000  0.000000000 13.577501297     0.000000000  0.000000000  0.073651254

  length of vectors
     5.431000233  5.431000233 13.577501297     0.184128145  0.184128145  0.073651254


 FORCES acting on ions
    electron-ion (+dipol)            ewald-force                    non-local-force                 convergence-correction
 -----------------------------------------------------------------------------------------------
   0.183E-05 -.506E-05 -.728E+02   0.189E-04 -.625E-04 0.870E+02   0.131E-22 -.218E-20 0.547E+02   -.112E-07 0.789E-09 0.471E-04
   -.490E-05 0.942E-06 -.195E+02   0.190E-05 0.672E-05 0.190E+02   0.508E-20 -.173E-21 0.163E+01   0.102E-07 -.252E-09 0.247E-03
   -.888E-05 -.841E-06 0.119E+03   0.240E-04 -.112E-04 -.134E+03   0.369E-20 -.874E-20 -.528E+02   -.115E-07 0.222E-09 -.399E-03
   -.139E-04 -.431E-04 -.119E+03   -.433E-04 -.172E-04 0.134E+03   -.103E-21 0.556E-20 0.528E+02   -.940E-08 0.152E-07 0.398E-03
   -.206E-04 -.150E-04 0.195E+02   -.108E-04 -.853E-05 -.190E+02   -.170E-20 -.592E-20 -.163E+01   0.947E-08 0.142E-07 -.248E-03
   -.109E-03 -.122E-03 0.728E+02   0.546E-04 0.407E-04 -.870E+02   0.342E-20 -.337E-23 -.547E+02   -.984E-08 0.159E-07 -.473E-04
   -.116E-04 -.146E-04 -.728E+02   -.432E-04 -.530E-04 0.870E+02   0.150E-21 -.115E-20 0.547E+02   0.117E-07 -.146E-09 0.471E-04
   -.431E-05 0.942E-06 -.195E+02   0.102E-04 0.672E-05 0.190E+02   0.464E-20 -.718E-22 0.163E+01   -.105E-07 -.219E-09 0.247E-03
   -.903E-04 0.162E-05 0.119E+03   0.333E-04 -.854E-05 -.134E+03   0.371E-20 -.916E-21 -.528E+02   0.121E-07 0.455E-09 -.399E-03
   -.560E-04 0.195E-05 -.119E+03   -.397E-04 0.102E-04 0.134E+03   -.174E-21 -.919E-20 0.528E+02   0.102E-07 -.146E-07 0.398E-03
   -.425E-05 0.163E-05 0.195E+02   0.123E-04 0.183E-04 -.190E+02   -.127E-20 0.586E-20 -.163E+01   -.995E-08 -.146E-07 -.248E-03
   -.733E-04 -.863E-04 0.728E+02   -.180E-04 0.783E-04 -.870E+02   0.338E-20 -.423E-21 -.547E+02   0.109E-07 -.152E-07 -.473E-04
   0.183E-05 -.506E-05 -.728E+02   0.189E-04 -.625E-04 0.870E+02   0.733E-22 0.236E-20 0.547E+02   -.112E-07 0.789E-09 0.513E-04
   -.490E-05 0.942E-06 -.195E+02   0.190E-05 0.672E-05 0.190E+02   -.594E-20 -.157E-20 0.163E+01   0.102E-07 -.252E-09 0.250E-03
   -.888E-05 -.841E-06 0.119E+03   0.240E-04 -.112E-04 -.134E+03   -.908E-20 -.192E-21 -.528E+02   -.115E-07 0.222E-09 -.401E-03
   -.139E-04 -.431E-04 -.119E+03   -.433E-04 -.172E-04 0.134E+03   -.102E-20 0.355E-20 0.528E+02   -.940E-08 0.152E-07 0.402E-03
   -.206E-04 -.150E-04 0.195E+02   -.108E-04 -.853E-05 -.190E+02   -.270E-22 0.506E-20 -.163E+01   0.947E-08 0.142E-07 -.248E-03
   -.109E-03 -.122E-03 0.728E+02   0.546E-04 0.407E-04 -.870E+02   -.186E-21 0.104E-21 -.547E+02   -.984E-08 0.159E-07 -.516E-04
   -.116E-04 -.146E-04 -.728E+02   -.432E-04 -.530E-04 0.870E+02   0.999E-22 0.171E-20 0.547E+02   0.117E-07 -.146E-09 0.513E-04
   -.431E-05 0.942E-06 -.195E+02   0.102E-04 0.672E-05 0.190E+02   0.592E-20 -.138E-20 0.163E+01   -.105E-07 -.219E-09 0.250E-03
   -.903E-04 0.162E-05 0.119E+03   0.333E-04 -.854E-05 -.134E+03   0.511E-20 0.273E-22 -.528E+02   0.121E-07 0.455E-09 -.401E-03
   -.560E-04 0.195E-05 -.119E+03   -.397E-04 0.102E-04 0.134E+03   -.197E-20 0.414E-20 0.528E+02   0.102E-07 -.146E-07 0.402E-03
   -.425E-05 0.163E-05 0.195E+02   0.123E-04 0.183E-04 -.190E+02   0.675E-20 0.484E-20 -.163E+01   -.995E-08 -.146E-07 -.248E-03
   -.733E-04 -.863E-04 0.728E+02   -.180E-04 0.783E-04 -.870E+02   0.486E-22 -.405E-21 -.547E+02   0.109E-07 -.152E-07 -.516E-04
 -----------------------------------------------------------------------------------------------
   -.790E-03 -.559E-03 0.155E-03   -.319E-14 -.645E-14 -.242E-12   0.206E-19 0.877E-21 -.284E-13   0.417E-08 0.342E-08 -.547E-06
 
 
 POSITION                                       TOTAL-FORCE (eV/Angst)
 -----------------------------------------------------------------------------------
      0.09665      0.00000      0.00000         0.000000      0.000000     68.925938
      2.81215      0.00000      2.71550         0.000000     -0.000000      1.109694
      0.09665      0.00000      5.43100        -0.000000     -0.000000    -67.908508
      1.45440      4.07325      1.35775        -0.000000      0.000000     67.908508
      4.16991      4.07325      4.07325         0.000000      0.000000     -1.109694
      1.45441      4.07325      6.78875        -0.000000     -0.000000    -68.925938
      2.81215      2.71550      0.00000         0.000000      0.000000     68.925938
      0.09665      2.71550      2.71550         0.000000      0.000000      1.109694
      2.81216      2.71550      5.43100        -0.000000      0.000000    -67.908508
      4.16991      1.35775      1.35775        -0.000000      0.000000     67.908508
      1.45440      1.35775      4.07325         0.000000      0.000000     -1.109694
      4.16991      1.35775      6.78875         0.000000     -0.000000    -68.925938
      0.09665      0.00000      6.78875        -0.000000      0.000000     68.925938
      2.81215      0.00000      9.50425         0.000000      0.000000      1.109694
      0.09665      0.00000     12.21975         0.000000     -0.000000    -67.908508
      1.45440      4.07325      8.14650         0.000000     -0.000000     67.908508
      4.16991      4.07325     10.86200        -0.000000      0.000000     -1.109694
      1.45441      4.07325      0.00000         0.000000      0.000000    -68.925938
      2.81215      2.71550      6.78875        -0.000000     -0.000000     68.925938
      0.09665      2.71550      9.50425         0.000000      0.000000      1.109694
      2.81216      2.71550     12.21975         0.000000     -0.000000    -67.908508
      4.16991      1.35775      8.14650         0.000000     -0.000000     67.908508
      1.45440      1.35775     10.86200         0.000000      0.000000     -1.109694
      4.16991      1.35775      0.00000         0.000000      0.000000    -68.925938
 -----------------------------------------------------------------------------------
    total drift:                               -0.000790     -0.000559      0.000154


--------------------------------------------------------------------------------------------------------



  FREE ENERGIE OF THE ION-ELECTRON SYSTEM (eV)
  ---------------------------------------------------
  free  energy   TOTEN  =        39.20200732 eV

  energy  without entropy=       39.20221918  energy(sigma->0) =       39.20211325
 


--------------------------------------------------------------------------------------------------------


    POTLOK:  cpu time      0.2711: real time      0.2719


--------------------------------------------------------------------------------------------------------


     LOOP+:  cpu time     58.5375: real time     58.9472
    4ORBIT:  cpu time      0.0000: real time      0.0000

 total amount of memory used by VASP MPI-rank0    50319. kBytes
=======================================================================

   base      :      30000. kBytes
   nonlr-proj:        845. kBytes
   fftplans  :       3071. kBytes
   grid      :       2663. kBytes
   one-center:         12. kBytes
   wavefun   :      13728. kBytes
 
  
  
 General timing and accounting informations for this job:
 ========================================================
  
                  Total CPU time used (sec):       66.698
                            User time (sec):       65.040
                          System time (sec):        1.657
                         Elapsed time (sec):       68.017
  
                   Maximum memory used (kb):      251000.
                   Average memory used (kb):          N/A
  
                          Minor page faults:        54631
                          Major page faults:           36
                 Voluntary context switches:         1477
