Si and Ge interface calculation         
           1
     5.431000    0.000000    0.000000
     0.000000    5.431000    0.000000
     0.000000    0.000000   13.577501
   Si
    24
Direct configuration=     1
   0.01779686  0.00000000  0.00000000
   0.51779687  0.00000000  0.20000000
   0.01779687  0.00000000  0.40000001
   0.26779687  0.75000006  0.10000000
   0.76779693  0.75000006  0.30000004
   0.26779699  0.75000006  0.50000000
   0.51779687  0.50000000  0.00000000
   0.01779687  0.50000000  0.20000000
   0.51779699  0.50000000  0.40000001
   0.76779693  0.25000000  0.10000000
   0.26779687  0.25000000  0.30000004
   0.76779699  0.25000000  0.50000000
   0.01779686  0.00000000  0.50000000
   0.51779687  0.00000000  0.69999999
   0.01779687  0.00000000  0.89999998
   0.26779687  0.75000006  0.60000002
   0.76779693  0.75000006  0.80000007
   0.26779699  0.75000006  0.00000000
   0.51779687  0.50000000  0.50000000
   0.01779687  0.50000000  0.69999999
   0.51779699  0.50000000  0.89999998
   0.76779693  0.25000000  0.60000002
   0.26779687  0.25000000  0.80000007
   0.76779699  0.25000000  0.00000000
