 168 168   0   0
  0.2759767E+02  0.1131560E-08  0.1959920E-08  0.2560422E-08  0.5000000E-15
  1.000000000000000E-004
  CAR 
 Si and Ge interface calculation         
      6.37006328     -9.87261561  301      3.42238704      1.00000000
     -9.873  0.0000E+00  0.0000E+00  0.0000E+00  0.0000E+00
     -9.818  0.0000E+00  0.0000E+00  0.0000E+00  0.0000E+00
     -9.764  0.0000E+00  0.0000E+00  0.0000E+00  0.0000E+00
     -9.710  0.0000E+00  0.0000E+00  0.0000E+00  0.0000E+00
     -9.656  0.0000E+00  0.0000E+00  0.0000E+00  0.0000E+00
     -9.602  0.0000E+00  0.0000E+00  0.0000E+00  0.0000E+00
     -9.548  0.0000E+00  0.0000E+00  0.0000E+00  0.0000E+00
     -9.494  0.0000E+00  0.0000E+00  0.0000E+00  0.0000E+00
     -9.439  0.0000E+00  0.0000E+00  0.0000E+00  0.0000E+00
     -9.385  0.0000E+00  0.0000E+00  0.0000E+00  0.0000E+00
     -9.331  0.0000E+00  0.0000E+00  0.0000E+00  0.0000E+00
     -9.277  0.0000E+00  0.0000E+00  0.0000E+00  0.0000E+00
     -9.223  0.0000E+00  0.0000E+00  0.0000E+00  0.0000E+00
     -9.169  0.3391E-05  0.4718E-07  0.1836E-06  0.2555E-08
     -9.115  0.6140E+01  0.6016E+01  0.3324E+00  0.3257E+00
     -9.060  0.1653E-01  0.1404E+00  0.3333E+00  0.3333E+00
     -9.006  0.2351E+02  0.2032E+02  0.1606E+01  0.1434E+01
     -8.952  0.1343E+02  0.1662E+02  0.2333E+01  0.2333E+01
     -8.898  0.6146E+01  0.6054E+01  0.2666E+01  0.2661E+01
     -8.844  0.1021E+02  0.5016E+01  0.3219E+01  0.2933E+01
     -8.790  0.3902E+02  0.4407E+02  0.5332E+01  0.5319E+01
     -8.736  0.2464E+02  0.2406E+02  0.6666E+01  0.6621E+01
     -8.681  0.3163E+02  0.2731E+02  0.8379E+01  0.8100E+01
     -8.627  0.2193E+02  0.2048E+02  0.9566E+01  0.9209E+01
     -8.573  0.5328E+02  0.5095E+02  0.1245E+02  0.1197E+02
     -8.519  0.1760E+02  0.2557E+02  0.1340E+02  0.1335E+02
     -8.465  0.2276E+02  0.2297E+02  0.1464E+02  0.1460E+02
     -8.411  0.1483E+02  0.1437E+02  0.1544E+02  0.1537E+02
     -8.357  0.3850E+02  0.3663E+02  0.1752E+02  0.1736E+02
     -8.302  0.4430E+01  0.6550E+01  0.1776E+02  0.1771E+02
     -8.248  0.2673E+02  0.2009E+02  0.1921E+02  0.1880E+02
     -8.194  0.3945E+02  0.4640E+02  0.2135E+02  0.2131E+02
     -8.140  0.1214E+02  0.1273E+02  0.2200E+02  0.2200E+02
     -8.086  0.1841E+02  0.1846E+02  0.2300E+02  0.2300E+02
     -8.032  0.3853E+00  0.6707E-01  0.2302E+02  0.2300E+02
     -7.978  0.1203E+02  0.1226E+02  0.2367E+02  0.2367E+02
     -7.923  0.4475E+02  0.3903E+02  0.2610E+02  0.2578E+02
     -7.869  0.5111E+01  0.1030E+02  0.2637E+02  0.2634E+02
     -7.815  0.3105E+02  0.2891E+02  0.2805E+02  0.2790E+02
     -7.761  0.2767E+02  0.2759E+02  0.2955E+02  0.2940E+02
     -7.707  0.1050E+02  0.1030E+02  0.3012E+02  0.2996E+02
     -7.653  0.4629E+02  0.4728E+02  0.3263E+02  0.3251E+02
     -7.599  0.3635E+02  0.3441E+02  0.3459E+02  0.3438E+02
     -7.544  0.2619E+02  0.2513E+02  0.3601E+02  0.3574E+02
     -7.490  0.5304E+02  0.5432E+02  0.3888E+02  0.3868E+02
     -7.436  0.1190E+02  0.1376E+02  0.3953E+02  0.3942E+02
     -7.382  0.8930E+01  0.1067E+02  0.4001E+02  0.4000E+02
     -7.328  0.3117E+02  0.3088E+02  0.4170E+02  0.4167E+02
     -7.274  0.3748E+02  0.3412E+02  0.4373E+02  0.4352E+02
     -7.220  0.4529E+02  0.4279E+02  0.4618E+02  0.4584E+02
     -7.166  0.4912E+02  0.5048E+02  0.4884E+02  0.4857E+02
     -7.111  0.5262E+02  0.5181E+02  0.5169E+02  0.5138E+02
     -7.057  0.3069E+02  0.3616E+02  0.5335E+02  0.5333E+02
     -7.003  0.3422E+02  0.2948E+02  0.5520E+02  0.5493E+02
     -6.949  0.4778E+02  0.4734E+02  0.5779E+02  0.5749E+02
     -6.895  0.5625E+02  0.5799E+02  0.6084E+02  0.6063E+02
     -6.841  0.3650E+02  0.3591E+02  0.6281E+02  0.6258E+02
     -6.787  0.4869E+02  0.5005E+02  0.6545E+02  0.6529E+02
     -6.732  0.3545E+02  0.3794E+02  0.6737E+02  0.6734E+02
     -6.678  0.4639E+02  0.4047E+02  0.6988E+02  0.6953E+02
     -6.624  0.3169E+02  0.3368E+02  0.7160E+02  0.7136E+02
     -6.570  0.4894E+02  0.5104E+02  0.7425E+02  0.7412E+02
     -6.516  0.3781E+02  0.3795E+02  0.7629E+02  0.7617E+02
     -6.462  0.2566E+02  0.2763E+02  0.7768E+02  0.7767E+02
     -6.408  0.3726E+02  0.3676E+02  0.7970E+02  0.7966E+02
     -6.353  0.5268E+02  0.4963E+02  0.8255E+02  0.8235E+02
     -6.299  0.7264E+02  0.6861E+02  0.8648E+02  0.8606E+02
     -6.245  0.3993E+02  0.4460E+02  0.8865E+02  0.8848E+02
     -6.191  0.5782E+02  0.5239E+02  0.9178E+02  0.9131E+02
     -6.137  0.3506E+02  0.4347E+02  0.9367E+02  0.9367E+02
     -6.083  0.5469E+02  0.4818E+02  0.9664E+02  0.9627E+02
     -6.029  0.4897E+02  0.5396E+02  0.9929E+02  0.9920E+02
     -5.974  0.2599E+02  0.2168E+02  0.1007E+03  0.1004E+03
     -5.920  0.3613E+02  0.4129E+02  0.1027E+03  0.1026E+03
     -5.866  0.1288E+02  0.1181E+02  0.1033E+03  0.1032E+03
     -5.812  0.4565E+02  0.4153E+02  0.1058E+03  0.1055E+03
     -5.758  0.4024E+02  0.4605E+02  0.1080E+03  0.1080E+03
     -5.704  0.4404E+02  0.4049E+02  0.1104E+03  0.1102E+03
     -5.650  0.4735E+02  0.4520E+02  0.1129E+03  0.1126E+03
     -5.595  0.7859E+01  0.1326E+02  0.1134E+03  0.1133E+03
     -5.541  0.3957E+02  0.3734E+02  0.1155E+03  0.1154E+03
     -5.487  0.4498E+02  0.4353E+02  0.1179E+03  0.1177E+03
     -5.433  0.9020E+02  0.8523E+02  0.1228E+03  0.1223E+03
     -5.379  0.2555E+02  0.2871E+02  0.1242E+03  0.1239E+03
     -5.325  0.7570E+02  0.7119E+02  0.1283E+03  0.1277E+03
     -5.271  0.3723E+02  0.4258E+02  0.1303E+03  0.1301E+03
     -5.216  0.6182E+02  0.6533E+02  0.1337E+03  0.1336E+03
     -5.162  0.5660E+02  0.4757E+02  0.1367E+03  0.1362E+03
     -5.108  0.6350E+02  0.6870E+02  0.1402E+03  0.1399E+03
     -5.054  0.5206E+02  0.4505E+02  0.1430E+03  0.1423E+03
     -5.000  0.5544E+02  0.6769E+02  0.1460E+03  0.1460E+03
     -4.946  0.6393E+02  0.5788E+02  0.1495E+03  0.1491E+03
     -4.892  0.4180E+02  0.4467E+02  0.1517E+03  0.1515E+03
     -4.837  0.3093E+02  0.3316E+02  0.1534E+03  0.1533E+03
     -4.783  0.6781E+02  0.5795E+02  0.1571E+03  0.1565E+03
     -4.729  0.7608E+02  0.8445E+02  0.1612E+03  0.1610E+03
     -4.675  0.5405E+02  0.4780E+02  0.1641E+03  0.1636E+03
     -4.621  0.3494E+02  0.4279E+02  0.1660E+03  0.1660E+03
     -4.567  0.4108E+02  0.3841E+02  0.1682E+03  0.1680E+03
     -4.513  0.4693E+02  0.4617E+02  0.1708E+03  0.1705E+03
     -4.458  0.6267E+02  0.5830E+02  0.1742E+03  0.1737E+03
     -4.404  0.3218E+02  0.3762E+02  0.1759E+03  0.1757E+03
     -4.350  0.8514E+02  0.8468E+02  0.1805E+03  0.1803E+03
     -4.296  0.5138E+02  0.4809E+02  0.1833E+03  0.1829E+03
     -4.242  0.4970E+02  0.5565E+02  0.1860E+03  0.1859E+03
     -4.188  0.3651E+02  0.3543E+02  0.1880E+03  0.1878E+03
     -4.134  0.2562E+02  0.2411E+02  0.1894E+03  0.1891E+03
     -4.079  0.4991E+02  0.5006E+02  0.1921E+03  0.1919E+03
     -4.025  0.5827E+02  0.5952E+02  0.1952E+03  0.1951E+03
     -3.971  0.4786E+02  0.4823E+02  0.1978E+03  0.1977E+03
     -3.917  0.6113E+02  0.5971E+02  0.2011E+03  0.2009E+03
     -3.863  0.6608E+02  0.6576E+02  0.2047E+03  0.2045E+03
     -3.809  0.4121E+02  0.4215E+02  0.2069E+03  0.2068E+03
     -3.755  0.3934E+02  0.4007E+02  0.2091E+03  0.2089E+03
     -3.700  0.7059E+02  0.6381E+02  0.2129E+03  0.2124E+03
     -3.646  0.4430E+02  0.4999E+02  0.2153E+03  0.2151E+03
     -3.592  0.7068E+02  0.6921E+02  0.2191E+03  0.2188E+03
     -3.538  0.5227E+02  0.5168E+02  0.2219E+03  0.2216E+03
     -3.484  0.2913E+02  0.2853E+02  0.2235E+03  0.2232E+03
     -3.430  0.4120E+02  0.4195E+02  0.2257E+03  0.2255E+03
     -3.376  0.5423E+02  0.5887E+02  0.2287E+03  0.2286E+03
     -3.321  0.4570E+02  0.3773E+02  0.2311E+03  0.2307E+03
     -3.267  0.2273E+02  0.2750E+02  0.2324E+03  0.2322E+03
     -3.213  0.9141E+02  0.8598E+02  0.2373E+03  0.2368E+03
     -3.159  0.3892E+02  0.4381E+02  0.2394E+03  0.2392E+03
     -3.105  0.2886E+02  0.2673E+02  0.2410E+03  0.2407E+03
     -3.051  0.2299E+02  0.2737E+02  0.2422E+03  0.2421E+03
     -2.997  0.2943E+02  0.2731E+02  0.2438E+03  0.2436E+03
     -2.942  0.5685E+02  0.5711E+02  0.2469E+03  0.2467E+03
     -2.888  0.3426E+02  0.3306E+02  0.2488E+03  0.2485E+03
     -2.834  0.5291E+02  0.5352E+02  0.2516E+03  0.2514E+03
     -2.780  0.3370E+02  0.3433E+02  0.2535E+03  0.2533E+03
     -2.726  0.6686E+02  0.6638E+02  0.2571E+03  0.2568E+03
     -2.672  0.5278E+02  0.5104E+02  0.2599E+03  0.2596E+03
     -2.618  0.5967E+02  0.5759E+02  0.2632E+03  0.2627E+03
     -2.563  0.8263E+02  0.8289E+02  0.2676E+03  0.2672E+03
     -2.509  0.4354E+02  0.5070E+02  0.2700E+03  0.2700E+03
     -2.455  0.5828E+02  0.5624E+02  0.2732E+03  0.2730E+03
     -2.401  0.9596E+01  0.1220E+02  0.2737E+03  0.2737E+03
     -2.347  0.5508E+02  0.5095E+02  0.2767E+03  0.2764E+03
     -2.293  0.6817E+02  0.6775E+02  0.2803E+03  0.2801E+03
     -2.239  0.5316E+02  0.4922E+02  0.2832E+03  0.2828E+03
     -2.184  0.2793E+02  0.3416E+02  0.2847E+03  0.2846E+03
     -2.130  0.1532E+02  0.1169E+02  0.2856E+03  0.2852E+03
     -2.076  0.3960E+02  0.4027E+02  0.2877E+03  0.2874E+03
     -2.022  0.2478E+02  0.2943E+02  0.2890E+03  0.2890E+03
     -1.968  0.2353E+02  0.2351E+02  0.2903E+03  0.2903E+03
     -1.914  0.3443E+02  0.2568E+02  0.2922E+03  0.2917E+03
     -1.860  0.5390E+02  0.5659E+02  0.2951E+03  0.2947E+03
     -1.805  0.4314E+02  0.4617E+02  0.2974E+03  0.2972E+03
     -1.751  0.2281E+02  0.2607E+02  0.2987E+03  0.2987E+03
     -1.697  0.4052E+02  0.3853E+02  0.3009E+03  0.3007E+03
     -1.643  0.2933E+02  0.3017E+02  0.3025E+03  0.3024E+03
     -1.589  0.3727E+02  0.3428E+02  0.3045E+03  0.3042E+03
     -1.535  0.5284E+02  0.5328E+02  0.3073E+03  0.3071E+03
     -1.481  0.6099E+01  0.1021E+02  0.3077E+03  0.3077E+03
     -1.426  0.2221E+02  0.1366E+02  0.3089E+03  0.3084E+03
     -1.372  0.4239E+02  0.4680E+02  0.3112E+03  0.3109E+03
     -1.318  0.3277E+02  0.2892E+02  0.3129E+03  0.3125E+03
     -1.264  0.1960E+02  0.2759E+02  0.3140E+03  0.3140E+03
     -1.210  0.2449E+02  0.2391E+02  0.3153E+03  0.3153E+03
     -1.156  0.2628E+02  0.2254E+02  0.3167E+03  0.3165E+03
     -1.102  0.1904E+02  0.2218E+02  0.3178E+03  0.3177E+03
     -1.047  0.1080E+02  0.9060E+01  0.3184E+03  0.3182E+03
     -0.993  0.1602E+02  0.1518E+02  0.3192E+03  0.3190E+03
     -0.939  0.2633E+02  0.2953E+02  0.3207E+03  0.3206E+03
     -0.885  0.1139E+02  0.9284E+01  0.3213E+03  0.3211E+03
     -0.831  0.1287E+01  0.3781E+01  0.3213E+03  0.3213E+03
     -0.777  0.1241E+02  0.1235E+02  0.3220E+03  0.3220E+03
     -0.723  0.3745E+02  0.3362E+02  0.3240E+03  0.3238E+03
     -0.668  0.5191E+02  0.4993E+02  0.3269E+03  0.3265E+03
     -0.614  0.2458E+02  0.2468E+02  0.3282E+03  0.3279E+03
     -0.560  0.9142E+02  0.9314E+02  0.3331E+03  0.3329E+03
     -0.506  0.2963E+02  0.2676E+02  0.3347E+03  0.3344E+03
     -0.452  0.7617E+02  0.7250E+02  0.3389E+03  0.3383E+03
     -0.398  0.6219E+02  0.6618E+02  0.3422E+03  0.3419E+03
     -0.344  0.7650E+02  0.7015E+02  0.3464E+03  0.3457E+03
     -0.289  0.1013E+03  0.1109E+03  0.3519E+03  0.3517E+03
     -0.235  0.6779E+02  0.6170E+02  0.3555E+03  0.3550E+03
     -0.181  0.7055E+02  0.7580E+02  0.3593E+03  0.3591E+03
     -0.127  0.6689E+02  0.6395E+02  0.3630E+03  0.3626E+03
     -0.073  0.5995E+02  0.5486E+02  0.3662E+03  0.3655E+03
     -0.019  0.1146E+03  0.1225E+03  0.3724E+03  0.3722E+03
      0.035  0.4869E+02  0.4640E+02  0.3751E+03  0.3747E+03
      0.090  0.6518E+02  0.6642E+02  0.3786E+03  0.3783E+03
      0.144  0.8829E+02  0.8398E+02  0.3834E+03  0.3828E+03
      0.198  0.7983E+02  0.8232E+02  0.3877E+03  0.3873E+03
      0.252  0.9132E+02  0.9588E+02  0.3926E+03  0.3925E+03
      0.306  0.5093E+02  0.4334E+02  0.3954E+03  0.3948E+03
      0.360  0.1262E+03  0.1255E+03  0.4022E+03  0.4016E+03
      0.414  0.9926E+02  0.1020E+03  0.4076E+03  0.4071E+03
      0.469  0.9574E+02  0.8952E+02  0.4128E+03  0.4120E+03
      0.523  0.1101E+03  0.1161E+03  0.4187E+03  0.4183E+03
      0.577  0.1099E+03  0.1097E+03  0.4247E+03  0.4242E+03
      0.631  0.9990E+02  0.9598E+02  0.4301E+03  0.4294E+03
      0.685  0.1295E+03  0.1280E+03  0.4371E+03  0.4363E+03
      0.739  0.1568E+03  0.1630E+03  0.4456E+03  0.4452E+03
      0.793  0.1209E+03  0.1148E+03  0.4521E+03  0.4514E+03
      0.848  0.1379E+03  0.1380E+03  0.4596E+03  0.4589E+03
      0.902  0.1027E+03  0.1069E+03  0.4652E+03  0.4646E+03
      0.956  0.7322E+02  0.7498E+02  0.4691E+03  0.4687E+03
      1.010  0.8207E+02  0.8025E+02  0.4736E+03  0.4730E+03
      1.064  0.8877E+02  0.9368E+02  0.4784E+03  0.4781E+03
      1.118  0.1095E+03  0.9778E+02  0.4843E+03  0.4834E+03
      1.172  0.1144E+03  0.1244E+03  0.4905E+03  0.4901E+03
      1.227  0.1008E+03  0.9682E+02  0.4960E+03  0.4954E+03
      1.281  0.1727E+03  0.1711E+03  0.5053E+03  0.5046E+03
      1.335  0.8423E+02  0.8382E+02  0.5099E+03  0.5092E+03
      1.389  0.1008E+03  0.1053E+03  0.5153E+03  0.5149E+03
      1.443  0.1019E+03  0.1016E+03  0.5208E+03  0.5204E+03
      1.497  0.1489E+03  0.1429E+03  0.5289E+03  0.5281E+03
      1.551  0.1049E+03  0.1119E+03  0.5346E+03  0.5342E+03
      1.606  0.9568E+02  0.9427E+02  0.5398E+03  0.5393E+03
      1.660  0.1243E+03  0.1206E+03  0.5465E+03  0.5458E+03
      1.714  0.9873E+02  0.9898E+02  0.5518E+03  0.5512E+03
      1.768  0.1079E+03  0.1049E+03  0.5577E+03  0.5569E+03
      1.822  0.1266E+03  0.1300E+03  0.5645E+03  0.5639E+03
      1.876  0.1179E+03  0.1262E+03  0.5709E+03  0.5707E+03
      1.930  0.5723E+02  0.5324E+02  0.5740E+03  0.5736E+03
      1.985  0.1108E+03  0.1038E+03  0.5800E+03  0.5792E+03
      2.039  0.8602E+02  0.9095E+02  0.5847E+03  0.5842E+03
      2.093  0.8894E+02  0.8914E+02  0.5895E+03  0.5890E+03
      2.147  0.1016E+03  0.1010E+03  0.5950E+03  0.5944E+03
      2.201  0.9670E+02  0.1011E+03  0.6002E+03  0.5999E+03
      2.255  0.6199E+02  0.5850E+02  0.6036E+03  0.6031E+03
      2.309  0.9025E+02  0.8671E+02  0.6085E+03  0.6078E+03
      2.364  0.6861E+02  0.7583E+02  0.6122E+03  0.6119E+03
      2.418  0.4922E+02  0.4984E+02  0.6148E+03  0.6146E+03
      2.472  0.1048E+03  0.9602E+02  0.6205E+03  0.6198E+03
      2.526  0.1007E+03  0.1107E+03  0.6260E+03  0.6258E+03
      2.580  0.7866E+02  0.6976E+02  0.6302E+03  0.6296E+03
      2.634  0.4060E+02  0.5161E+02  0.6324E+03  0.6324E+03
      2.688  0.5907E+02  0.4510E+02  0.6356E+03  0.6348E+03
      2.743  0.7011E+02  0.7578E+02  0.6394E+03  0.6389E+03
      2.797  0.6187E+02  0.6994E+02  0.6428E+03  0.6427E+03
      2.851  0.7855E+02  0.7217E+02  0.6470E+03  0.6466E+03
      2.905  0.4203E+02  0.4779E+02  0.6493E+03  0.6492E+03
      2.959  0.3144E+02  0.1800E+02  0.6510E+03  0.6502E+03
      3.013  0.6540E+02  0.7585E+02  0.6546E+03  0.6543E+03
      3.067  0.1795E+02  0.2051E+02  0.6555E+03  0.6554E+03
      3.122  0.6847E+02  0.6572E+02  0.6592E+03  0.6589E+03
      3.176  0.3078E+02  0.3201E+02  0.6609E+03  0.6607E+03
      3.230  0.4000E+02  0.3634E+02  0.6631E+03  0.6626E+03
      3.284  0.6156E+02  0.6430E+02  0.6664E+03  0.6661E+03
      3.338  0.5363E+02  0.4574E+02  0.6693E+03  0.6686E+03
      3.392  0.2556E+02  0.3838E+02  0.6707E+03  0.6707E+03
      3.446  0.2423E+02  0.1885E+02  0.6720E+03  0.6717E+03
      3.501  0.1858E+02  0.2118E+02  0.6730E+03  0.6728E+03
      3.555  0.4247E+02  0.4010E+02  0.6753E+03  0.6750E+03
      3.609  0.4852E+02  0.4805E+02  0.6779E+03  0.6776E+03
      3.663  0.2617E+02  0.2536E+02  0.6793E+03  0.6790E+03
      3.717  0.4566E+02  0.4938E+02  0.6818E+03  0.6817E+03
      3.771  0.2171E+02  0.1928E+02  0.6830E+03  0.6827E+03
      3.825  0.1861E+02  0.2360E+02  0.6840E+03  0.6840E+03
      3.880  0.1232E+02  0.1273E+02  0.6847E+03  0.6847E+03
      3.934  0.6933E+01  0.5692E+01  0.6850E+03  0.6850E+03
      3.988  0.1370E+02  0.1328E+02  0.6858E+03  0.6857E+03
      4.042  0.1701E+02  0.1806E+02  0.6867E+03  0.6867E+03
      4.096  0.3315E+02  0.2997E+02  0.6885E+03  0.6883E+03
      4.150  0.3235E+02  0.3380E+02  0.6903E+03  0.6901E+03
      4.204  0.4153E+02  0.3039E+02  0.6925E+03  0.6918E+03
      4.259  0.2771E+02  0.4124E+02  0.6940E+03  0.6940E+03
      4.313  0.1195E+02  0.8825E+01  0.6946E+03  0.6945E+03
      4.367  0.4602E+02  0.3939E+02  0.6971E+03  0.6966E+03
      4.421  0.5115E+02  0.5272E+02  0.6999E+03  0.6995E+03
      4.475  0.4963E+02  0.5556E+02  0.7026E+03  0.7025E+03
      4.529  0.4734E+02  0.4777E+02  0.7052E+03  0.7051E+03
      4.583  0.6304E+02  0.6091E+02  0.7086E+03  0.7084E+03
      4.638  0.8981E+02  0.8601E+02  0.7134E+03  0.7130E+03
      4.692  0.8970E+02  0.8807E+02  0.7183E+03  0.7178E+03
      4.746  0.8167E+02  0.8697E+02  0.7227E+03  0.7225E+03
      4.800  0.5132E+02  0.4957E+02  0.7255E+03  0.7252E+03
      4.854  0.8468E+02  0.8342E+02  0.7301E+03  0.7297E+03
      4.908  0.1039E+03  0.1012E+03  0.7357E+03  0.7352E+03
      4.962  0.8382E+02  0.8542E+02  0.7402E+03  0.7398E+03
      5.017  0.9526E+02  0.9318E+02  0.7454E+03  0.7448E+03
      5.071  0.1282E+03  0.1338E+03  0.7523E+03  0.7521E+03
      5.125  0.1136E+03  0.1095E+03  0.7585E+03  0.7580E+03
      5.179  0.1179E+03  0.1189E+03  0.7649E+03  0.7644E+03
      5.233  0.7398E+02  0.7825E+02  0.7689E+03  0.7687E+03
      5.287  0.1024E+03  0.9531E+02  0.7744E+03  0.7738E+03
      5.341  0.1194E+03  0.1251E+03  0.7809E+03  0.7806E+03
      5.396  0.9180E+02  0.8725E+02  0.7859E+03  0.7853E+03
      5.450  0.1178E+03  0.1188E+03  0.7922E+03  0.7918E+03
      5.504  0.1308E+03  0.1307E+03  0.7993E+03  0.7989E+03
      5.558  0.9869E+02  0.9525E+02  0.8047E+03  0.8040E+03
      5.612  0.4647E+02  0.6026E+02  0.8072E+03  0.8073E+03
      5.666  0.1514E+02  0.1339E+02  0.8080E+03  0.8080E+03
      5.720  0.0000E+00  0.0000E+00  0.8080E+03  0.8080E+03
      5.774  0.0000E+00  0.0000E+00  0.8080E+03  0.8080E+03
      5.829  0.0000E+00  0.0000E+00  0.8080E+03  0.8080E+03
      5.883  0.0000E+00  0.0000E+00  0.8080E+03  0.8080E+03
      5.937  0.0000E+00  0.0000E+00  0.8080E+03  0.8080E+03
      5.991  0.0000E+00  0.0000E+00  0.8080E+03  0.8080E+03
      6.045  0.0000E+00  0.0000E+00  0.8080E+03  0.8080E+03
      6.099  0.0000E+00  0.0000E+00  0.8080E+03  0.8080E+03
      6.153  0.0000E+00  0.0000E+00  0.8080E+03  0.8080E+03
      6.208  0.0000E+00  0.0000E+00  0.8080E+03  0.8080E+03
      6.262  0.0000E+00  0.0000E+00  0.8080E+03  0.8080E+03
      6.316  0.0000E+00  0.0000E+00  0.8080E+03  0.8080E+03
      6.370  0.0000E+00  0.0000E+00  0.8080E+03  0.8080E+03
