Si and Ge interface calculation         
           1
    11.315600    0.000000    0.000000
   -11.315600   16.002676    0.000000
     0.000000    0.000000   25.604219
   Ge   Sn
    96    72
Direct configuration=     1
   0.46906772  0.98968923  0.00000002
   0.09406771  0.86468923  0.07812521
   0.71906763  0.73968923  0.15625042
   0.34406769  0.61468923  0.23437558
   0.96906781  0.48968929  0.31250077
   0.59406769  0.36468923  0.39062598
   0.96906769  0.98968923  0.00000002
   0.59406769  0.86468923  0.07812521
   0.21906763  0.73968923  0.15625042
   0.84406769  0.61468923  0.23437558
   0.46906781  0.48968929  0.31250077
   0.09406769  0.36468923  0.39062598
   0.46906769  0.48968923  0.00000001
   0.09406770  0.36468923  0.07812521
   0.71906757  0.23968922  0.15625042
   0.34406769  0.11468923  0.23437558
   0.96906781  0.98968923  0.31250077
   0.59406769  0.86468923  0.39062598
   0.96906769  0.48968923  0.00000001
   0.59406769  0.36468923  0.07812521
   0.21906757  0.23968922  0.15625042
   0.84406769  0.11468923  0.23437558
   0.46906769  0.98968923  0.31250077
   0.09406757  0.86468923  0.39062598
   0.71906769  0.23968923  0.00000002
   0.34406766  0.11468923  0.07812521
   0.96906757  0.98968923  0.15625042
   0.59406769  0.86468923  0.23437558
   0.21906769  0.73968923  0.31250077
   0.84406757  0.61468923  0.39062598
   0.21906768  0.23968923  0.00000002
   0.84406769  0.11468923  0.07812521
   0.46906763  0.98968923  0.15625042
   0.09406769  0.86468923  0.23437558
   0.71906781  0.73968923  0.31250077
   0.34406769  0.61468923  0.39062598
   0.71906763  0.73968923  0.00000002
   0.34406766  0.61468923  0.07812522
   0.96906757  0.48968920  0.15625043
   0.59406763  0.36468923  0.23437561
   0.21906769  0.23968925  0.31250080
   0.84406769  0.11468923  0.39062598
   0.21906769  0.73968923  0.00000002
   0.84406769  0.61468923  0.07812522
   0.46906757  0.48968920  0.15625043
   0.09406769  0.36468923  0.23437561
   0.71906769  0.23968925  0.31250080
   0.34406757  0.11468923  0.39062598
   0.46906766  0.36468923  0.00000002
   0.09406769  0.23968923  0.07812522
   0.71906763  0.11468921  0.15625043
   0.34406769  0.98968923  0.23437561
   0.96906781  0.86468923  0.31250077
   0.59406769  0.73968923  0.39062598
   0.96906769  0.36468923  0.00000002
   0.59406769  0.23968923  0.07812522
   0.21906763  0.11468921  0.15625043
   0.84406769  0.98968923  0.23437561
   0.46906781  0.86468923  0.31250077
   0.09406769  0.73968923  0.39062598
   0.46906775  0.86468929  0.00000000
   0.09406774  0.73968929  0.07812521
   0.71906769  0.61468929  0.15625040
   0.34406769  0.48968929  0.23437558
   0.96906781  0.36468929  0.31250077
   0.59406769  0.23968929  0.39062595
   0.96906769  0.86468929  0.00000000
   0.59406757  0.73968929  0.07812521
   0.21906757  0.61468929  0.15625040
   0.84406757  0.48968929  0.23437558
   0.46906757  0.36468929  0.31250077
   0.09406769  0.23968929  0.39062595
   0.71906769  0.11468922  0.00000002
   0.34406766  0.98968923  0.07812521
   0.96906763  0.86468923  0.15625042
   0.59406769  0.73968923  0.23437561
   0.21906769  0.61468923  0.31250077
   0.84406769  0.48968923  0.39062598
   0.21906768  0.11468922  0.00000002
   0.84406769  0.98968923  0.07812521
   0.46906763  0.86468923  0.15625042
   0.09406769  0.73968923  0.23437561
   0.71906781  0.61468923  0.31250077
   0.34406769  0.48968923  0.39062598
   0.71906769  0.61468923  0.00000001
   0.34406769  0.48968923  0.07812522
   0.96906763  0.36468923  0.15625042
   0.59406769  0.23968923  0.23437561
   0.21906775  0.11468925  0.31250077
   0.84406757  0.98968923  0.39062598
   0.21906772  0.61468923  0.00000001
   0.84406769  0.48968923  0.07812522
   0.46906763  0.36468923  0.15625042
   0.09406769  0.23968923  0.23437561
   0.71906781  0.11468925  0.31250077
   0.34406769  0.98968923  0.39062598
   0.52095574  0.76156938  0.47129920
   0.77095574  0.01156938  0.56090468
   0.02095592  0.26156956  0.65051025
   0.27095622  0.51156968  0.74011576
   0.52095610  0.76156968  0.82972127
   0.77095622  0.01156986  0.91932684
   0.18762237  0.09490260  0.47129920
   0.43762243  0.34490266  0.56090474
   0.68762267  0.59490281  0.65051025
   0.93762284  0.84490293  0.74011582
   0.18762283  0.09490306  0.82972127
   0.43762296  0.34490317  0.91932684
   0.85428911  0.42823595  0.47129920
   0.10428917  0.67823601  0.56090474
   0.35428935  0.92823613  0.65051025
   0.60428959  0.17823631  0.74011576
   0.85428947  0.42823631  0.82972127
   0.10428977  0.67823654  0.91932684
   0.35428906  0.92823601  0.47129917
   0.60428899  0.17823607  0.56090468
   0.85428929  0.42823619  0.65051025
   0.10428953  0.67823631  0.74011576
   0.35428935  0.92823643  0.82972127
   0.60428959  0.17823666  0.91932684
   0.68762249  0.59490263  0.47129920
   0.93762237  0.84490269  0.56090474
   0.18762259  0.09490282  0.65051025
   0.43762284  0.34490305  0.74011576
   0.68762284  0.59490293  0.82972127
   0.93762273  0.84490317  0.91932684
   0.02095580  0.26156929  0.47129920
   0.27095598  0.51156938  0.56090474
   0.52095610  0.76156950  0.65051025
   0.77095622  0.01156974  0.74011576
   0.02095604  0.26156968  0.82972127
   0.27095646  0.51156992  0.91932684
   0.27095574  0.76156926  0.47129917
   0.52095580  0.01156926  0.56090474
   0.77095586  0.26156944  0.65051025
   0.02095604  0.51156956  0.74011576
   0.27095610  0.76156956  0.82972127
   0.52095610  0.01156986  0.91932684
   0.60428911  0.42823595  0.47129920
   0.85428911  0.67823595  0.56090474
   0.10428929  0.92823613  0.65051025
   0.35428947  0.17823619  0.74011576
   0.60428935  0.42823631  0.82972127
   0.85428947  0.67823643  0.91932684
   0.93762243  0.09490260  0.47129920
   0.18762247  0.34490266  0.56090474
   0.43762261  0.59490275  0.65051025
   0.68762284  0.84490293  0.74011582
   0.93762296  0.09490306  0.82972127
   0.18762295  0.34490305  0.91932684
   0.43762237  0.59490269  0.47129920
   0.68762249  0.84490263  0.56090474
   0.93762255  0.09490282  0.65051025
   0.18762271  0.34490293  0.74011582
   0.43762273  0.59490293  0.82972127
   0.68762284  0.84490317  0.91932678
   0.10428906  0.92823595  0.47129920
   0.35428923  0.17823607  0.56090474
   0.60428935  0.42823619  0.65051025
   0.85428959  0.67823631  0.74011582
   0.10428941  0.92823631  0.82972127
   0.35428995  0.17823666  0.91932678
   0.77095580  0.26156932  0.47129920
   0.02095568  0.51156932  0.56090474
   0.27095586  0.76156950  0.65051025
   0.52095598  0.01156962  0.74011576
   0.77095598  0.26156968  0.82972127
   0.02095592  0.51156980  0.91932684
