 120 120   0   0
  0.1318225E+02  0.1629300E-08  0.1629300E-08  0.7994749E-09  0.5000000E-15
  1.000000000000000E-004
  CAR 
 Si and Ge interface calculation         
      7.66299897    -14.86407709  301      4.26783154      1.00000000
    -14.864  0.0000E+00  0.0000E+00  0.0000E+00  0.0000E+00
    -14.789  0.0000E+00  0.0000E+00  0.0000E+00  0.0000E+00
    -14.714  0.0000E+00  0.0000E+00  0.0000E+00  0.0000E+00
    -14.639  0.0000E+00  0.0000E+00  0.0000E+00  0.0000E+00
    -14.564  0.0000E+00  0.0000E+00  0.0000E+00  0.0000E+00
    -14.489  0.0000E+00  0.0000E+00  0.0000E+00  0.0000E+00
    -14.414  0.0000E+00  0.0000E+00  0.0000E+00  0.0000E+00
    -14.338  0.0000E+00  0.0000E+00  0.0000E+00  0.0000E+00
    -14.263  0.0000E+00  0.0000E+00  0.0000E+00  0.0000E+00
    -14.188  0.0000E+00  0.0000E+00  0.0000E+00  0.0000E+00
    -14.113  0.0000E+00  0.0000E+00  0.0000E+00  0.0000E+00
    -14.038  0.0000E+00  0.0000E+00  0.0000E+00  0.0000E+00
    -13.963  0.0000E+00  0.0000E+00  0.0000E+00  0.0000E+00
    -13.888  0.1236E-10  0.6982E-15  0.9285E-12  0.5243E-16
    -13.813  0.2961E+01  0.2940E+01  0.2224E+00  0.2207E+00
    -13.738  0.1774E+02  0.1738E+02  0.1555E+01  0.1527E+01
    -13.663  0.4846E+01  0.1757E+01  0.1919E+01  0.1687E+01
    -13.588  0.1180E+02  0.1600E+02  0.2899E+01  0.2889E+01
    -13.512  0.1704E+02  0.1351E+02  0.4178E+01  0.3904E+01
    -13.437  0.1183E+02  0.1566E+02  0.5110E+01  0.5080E+01
    -13.362  0.1744E+02  0.1468E+02  0.6421E+01  0.6214E+01
    -13.287  0.7589E-05  0.2030E+01  0.6444E+01  0.6444E+01
    -13.212  0.8888E+01  0.6492E+01  0.7112E+01  0.6932E+01
    -13.137  0.2734E+02  0.2438E+02  0.9164E+01  0.8762E+01
    -13.062  0.1052E+02  0.1648E+02  0.1003E+02  0.1000E+02
    -12.987  0.5779E+01  0.5913E+01  0.1047E+02  0.1045E+02
    -12.912  0.1153E+02  0.1173E+02  0.1133E+02  0.1133E+02
    -12.837  0.8254E+01  0.5978E+01  0.1195E+02  0.1178E+02
    -12.762  0.2141E+02  0.1908E+02  0.1356E+02  0.1323E+02
    -12.686  0.1771E+02  0.2201E+02  0.1489E+02  0.1489E+02
    -12.611  0.2227E+02  0.2074E+02  0.1656E+02  0.1645E+02
    -12.536  0.1185E+02  0.1179E+02  0.1745E+02  0.1735E+02
    -12.461  0.4326E+01  0.5762E+01  0.1778E+02  0.1778E+02
    -12.386  0.1510E+02  0.1162E+02  0.1891E+02  0.1865E+02
    -12.311  0.1435E+02  0.1619E+02  0.2000E+02  0.1994E+02
    -12.236  0.1012E+01  0.6229E+00  0.2008E+02  0.2000E+02
    -12.161  0.2569E+02  0.2534E+02  0.2200E+02  0.2191E+02
    -12.086  0.1467E+02  0.1452E+02  0.2311E+02  0.2309E+02
    -12.011  0.6184E+01  0.1506E+01  0.2358E+02  0.2322E+02
    -11.936  0.1157E+02  0.1625E+02  0.2444E+02  0.2444E+02
    -11.860  0.1105E+02  0.6712E+01  0.2527E+02  0.2495E+02
    -11.785  0.4710E+00  0.5144E+01  0.2537E+02  0.2533E+02
    -11.710  0.1369E+02  0.1248E+02  0.2640E+02  0.2627E+02
    -11.635  0.9507E+01  0.1103E+02  0.2711E+02  0.2710E+02
    -11.560  0.1156E+02  0.9709E+01  0.2798E+02  0.2784E+02
    -11.485  0.3761E-07  0.2129E+01  0.2800E+02  0.2800E+02
    -11.410  0.2959E+01  0.2959E+01  0.2822E+02  0.2822E+02
    -11.335  0.5919E+01  0.5905E+01  0.2867E+02  0.2867E+02
    -11.260  0.3652E+01  0.9455E+00  0.2894E+02  0.2874E+02
    -11.185  0.8186E+01  0.1089E+02  0.2956E+02  0.2956E+02
    -11.110  0.2355E+02  0.2162E+02  0.3132E+02  0.3118E+02
    -11.034  0.2237E+02  0.1833E+02  0.3302E+02  0.3268E+02
    -10.959  0.1586E+01  0.5749E+01  0.3316E+02  0.3311E+02
    -10.884  0.1693E+02  0.1553E+02  0.3443E+02  0.3428E+02
    -10.809  0.2669E+02  0.2855E+02  0.3645E+02  0.3642E+02
    -10.734  0.1469E+02  0.1479E+02  0.3756E+02  0.3756E+02
    -10.659  0.5891E+01  0.5125E+01  0.3800E+02  0.3794E+02
    -10.584  0.1178E+02  0.1094E+02  0.3888E+02  0.3882E+02
    -10.509  0.1486E+02  0.1288E+02  0.4001E+02  0.3986E+02
    -10.434  0.1228E+02  0.9410E+01  0.4093E+02  0.4071E+02
    -10.359  0.1419E+02  0.1722E+02  0.4200E+02  0.4200E+02
    -10.284  0.9552E+01  0.6762E+01  0.4272E+02  0.4251E+02
    -10.208  0.2697E+01  0.4966E+01  0.4292E+02  0.4289E+02
    -10.133  0.1142E+02  0.1183E+02  0.4378E+02  0.4378E+02
    -10.058  0.5360E+01  0.2821E+01  0.4418E+02  0.4399E+02
     -9.983  0.5922E+01  0.9017E+01  0.4467E+02  0.4467E+02
     -9.908  0.1536E+02  0.1214E+02  0.4582E+02  0.4558E+02
     -9.833  0.8236E+01  0.1049E+02  0.4644E+02  0.4644E+02
     -9.758  0.1184E+02  0.1184E+02  0.4733E+02  0.4733E+02
     -9.683  0.1531E+02  0.1170E+02  0.4848E+02  0.4821E+02
     -9.608  0.1133E+02  0.1457E+02  0.4933E+02  0.4933E+02
     -9.533  0.1476E+02  0.1392E+02  0.5044E+02  0.5038E+02
     -9.458  0.3536E+02  0.3353E+02  0.5310E+02  0.5296E+02
     -9.382  0.8886E+01  0.1050E+02  0.5378E+02  0.5378E+02
     -9.307  0.1182E+02  0.7325E+01  0.5467E+02  0.5433E+02
     -9.232  0.1847E+02  0.1681E+02  0.5608E+02  0.5559E+02
     -9.157  0.2727E+02  0.3112E+02  0.5820E+02  0.5796E+02
     -9.082  0.2066E+02  0.2170E+02  0.5978E+02  0.5966E+02
     -9.007  0.1775E+02  0.1764E+02  0.6111E+02  0.6105E+02
     -8.932  0.1804E+02  0.1716E+02  0.6247E+02  0.6237E+02
     -8.857  0.3409E+02  0.3064E+02  0.6503E+02  0.6470E+02
     -8.782  0.2104E+02  0.2172E+02  0.6665E+02  0.6638E+02
     -8.707  0.1428E+02  0.1504E+02  0.6776E+02  0.6753E+02
     -8.632  0.1994E+02  0.1694E+02  0.6928E+02  0.6882E+02
     -8.556  0.2082E+02  0.2306E+02  0.7087E+02  0.7056E+02
     -8.481  0.2068E+02  0.2083E+02  0.7245E+02  0.7216E+02
     -8.406  0.1029E+02  0.1096E+02  0.7324E+02  0.7299E+02
     -8.331  0.2949E+02  0.3106E+02  0.7546E+02  0.7535E+02
     -8.256  0.1921E+02  0.1987E+02  0.7691E+02  0.7688E+02
     -8.181  0.1755E+02  0.1700E+02  0.7822E+02  0.7817E+02
     -8.106  0.1707E+02  0.1150E+02  0.7951E+02  0.7906E+02
     -8.031  0.1036E+02  0.1417E+02  0.8034E+02  0.8014E+02
     -7.956  0.8831E+01  0.9515E+01  0.8105E+02  0.8086E+02
     -7.881  0.1182E+02  0.1508E+02  0.8200E+02  0.8200E+02
     -7.806  0.5918E+01  0.5848E+01  0.8244E+02  0.8244E+02
     -7.731  0.1115E+01  0.1302E+00  0.8253E+02  0.8245E+02
     -7.655  0.1072E+02  0.1171E+02  0.8333E+02  0.8333E+02
     -7.580  0.0000E+00  0.0000E+00  0.8333E+02  0.8333E+02
     -7.505  0.2760E+01  0.9066E+00  0.8354E+02  0.8340E+02
     -7.430  0.9077E+01  0.1093E+02  0.8422E+02  0.8422E+02
     -7.355  0.3418E+00  0.7375E-02  0.8425E+02  0.8422E+02
     -7.280  0.5495E+01  0.5545E+01  0.8466E+02  0.8464E+02
     -7.205  0.2101E+01  0.8906E+00  0.8482E+02  0.8471E+02
     -7.130  0.6136E+01  0.5981E+01  0.8529E+02  0.8516E+02
     -7.055  0.9821E+01  0.7570E+01  0.8604E+02  0.8574E+02
     -6.980  0.1067E+02  0.1417E+02  0.8687E+02  0.8681E+02
     -6.905  0.8990E+01  0.6817E+01  0.8756E+02  0.8733E+02
     -6.829  0.5779E+01  0.8510E+01  0.8803E+02  0.8800E+02
     -6.754  0.6004E+01  0.5866E+01  0.8848E+02  0.8845E+02
     -6.679  0.1137E+02  0.1096E+02  0.8934E+02  0.8927E+02
     -6.604  0.8271E+01  0.7267E+01  0.8997E+02  0.8981E+02
     -6.529  0.8494E+01  0.9241E+01  0.9064E+02  0.9051E+02
     -6.454  0.1686E+02  0.1686E+02  0.9194E+02  0.9180E+02
     -6.379  0.1886E+02  0.1833E+02  0.9337E+02  0.9322E+02
     -6.304  0.2266E+02  0.1897E+02  0.9508E+02  0.9467E+02
     -6.229  0.3672E+02  0.3753E+02  0.9789E+02  0.9749E+02
     -6.154  0.1917E+02  0.2167E+02  0.9938E+02  0.9916E+02
     -6.079  0.3034E+02  0.3148E+02  0.1017E+03  0.1015E+03
     -6.003  0.2664E+02  0.2436E+02  0.1037E+03  0.1034E+03
     -5.928  0.2614E+02  0.2512E+02  0.1057E+03  0.1053E+03
     -5.853  0.1281E+02  0.1647E+02  0.1067E+03  0.1065E+03
     -5.778  0.2842E+02  0.2537E+02  0.1088E+03  0.1085E+03
     -5.703  0.2931E+02  0.3000E+02  0.1111E+03  0.1107E+03
     -5.628  0.2440E+02  0.2641E+02  0.1129E+03  0.1127E+03
     -5.553  0.1797E+02  0.1889E+02  0.1143E+03  0.1142E+03
     -5.478  0.3074E+02  0.2929E+02  0.1166E+03  0.1164E+03
     -5.403  0.3525E+02  0.3356E+02  0.1193E+03  0.1189E+03
     -5.328  0.2105E+02  0.2279E+02  0.1210E+03  0.1207E+03
     -5.253  0.2929E+02  0.2818E+02  0.1232E+03  0.1228E+03
     -5.177  0.2401E+02  0.2606E+02  0.1251E+03  0.1248E+03
     -5.102  0.2518E+02  0.2498E+02  0.1270E+03  0.1267E+03
     -5.027  0.3521E+02  0.3487E+02  0.1296E+03  0.1294E+03
     -4.952  0.3069E+02  0.2985E+02  0.1320E+03  0.1316E+03
     -4.877  0.2739E+02  0.2801E+02  0.1341E+03  0.1338E+03
     -4.802  0.3383E+02  0.3266E+02  0.1367E+03  0.1363E+03
     -4.727  0.3193E+02  0.3237E+02  0.1391E+03  0.1387E+03
     -4.652  0.3032E+02  0.3204E+02  0.1414E+03  0.1412E+03
     -4.577  0.2647E+02  0.2457E+02  0.1434E+03  0.1431E+03
     -4.502  0.2402E+02  0.2284E+02  0.1453E+03  0.1448E+03
     -4.427  0.3086E+02  0.3505E+02  0.1477E+03  0.1474E+03
     -4.351  0.2521E+02  0.2397E+02  0.1496E+03  0.1493E+03
     -4.276  0.3714E+02  0.3563E+02  0.1524E+03  0.1520E+03
     -4.201  0.4237E+02  0.4469E+02  0.1556E+03  0.1554E+03
     -4.126  0.2889E+02  0.2869E+02  0.1578E+03  0.1575E+03
     -4.051  0.3262E+02  0.3016E+02  0.1603E+03  0.1598E+03
     -3.976  0.3047E+02  0.3336E+02  0.1626E+03  0.1624E+03
     -3.901  0.2399E+02  0.2455E+02  0.1644E+03  0.1642E+03
     -3.826  0.2186E+02  0.2196E+02  0.1661E+03  0.1659E+03
     -3.751  0.1977E+02  0.1879E+02  0.1676E+03  0.1674E+03
     -3.676  0.3975E+02  0.3868E+02  0.1705E+03  0.1703E+03
     -3.601  0.2653E+02  0.2326E+02  0.1726E+03  0.1721E+03
     -3.525  0.3239E+02  0.3261E+02  0.1750E+03  0.1746E+03
     -3.450  0.2040E+02  0.2560E+02  0.1766E+03  0.1765E+03
     -3.375  0.2476E+02  0.2339E+02  0.1784E+03  0.1783E+03
     -3.300  0.3575E+02  0.3410E+02  0.1811E+03  0.1809E+03
     -3.225  0.3405E+02  0.3213E+02  0.1837E+03  0.1833E+03
     -3.150  0.2867E+02  0.2826E+02  0.1859E+03  0.1855E+03
     -3.075  0.3506E+02  0.3706E+02  0.1886E+03  0.1883E+03
     -3.000  0.2722E+02  0.2441E+02  0.1906E+03  0.1902E+03
     -2.925  0.3220E+02  0.3453E+02  0.1931E+03  0.1928E+03
     -2.850  0.3053E+02  0.3003E+02  0.1955E+03  0.1952E+03
     -2.775  0.1863E+02  0.2065E+02  0.1969E+03  0.1967E+03
     -2.699  0.2050E+02  0.2015E+02  0.1984E+03  0.1983E+03
     -2.624  0.1771E+02  0.1642E+02  0.1998E+03  0.1996E+03
     -2.549  0.1903E+02  0.1695E+02  0.2012E+03  0.2009E+03
     -2.474  0.2193E+02  0.2535E+02  0.2029E+03  0.2028E+03
     -2.399  0.2009E+02  0.1741E+02  0.2044E+03  0.2041E+03
     -2.324  0.3639E+02  0.3765E+02  0.2072E+03  0.2069E+03
     -2.249  0.3224E+02  0.3174E+02  0.2096E+03  0.2094E+03
     -2.174  0.3613E+02  0.3622E+02  0.2124E+03  0.2122E+03
     -2.099  0.3598E+02  0.3372E+02  0.2151E+03  0.2147E+03
     -2.024  0.3431E+02  0.3727E+02  0.2178E+03  0.2176E+03
     -1.949  0.3362E+02  0.3243E+02  0.2203E+03  0.2201E+03
     -1.873  0.3675E+02  0.3678E+02  0.2231E+03  0.2229E+03
     -1.798  0.3098E+02  0.2875E+02  0.2255E+03  0.2250E+03
     -1.723  0.2955E+02  0.3122E+02  0.2277E+03  0.2274E+03
     -1.648  0.3299E+02  0.3229E+02  0.2302E+03  0.2298E+03
     -1.573  0.3225E+02  0.3264E+02  0.2327E+03  0.2323E+03
     -1.498  0.4134E+02  0.3995E+02  0.2358E+03  0.2354E+03
     -1.423  0.4151E+02  0.4214E+02  0.2390E+03  0.2386E+03
     -1.348  0.3571E+02  0.3715E+02  0.2417E+03  0.2414E+03
     -1.273  0.4860E+02  0.4664E+02  0.2454E+03  0.2449E+03
     -1.198  0.3798E+02  0.3925E+02  0.2483E+03  0.2480E+03
     -1.123  0.4112E+02  0.4272E+02  0.2514E+03  0.2512E+03
     -1.047  0.3367E+02  0.3185E+02  0.2539E+03  0.2536E+03
     -0.972  0.4942E+02  0.5014E+02  0.2577E+03  0.2574E+03
     -0.897  0.3355E+02  0.3404E+02  0.2603E+03  0.2600E+03
     -0.822  0.3872E+02  0.3723E+02  0.2632E+03  0.2628E+03
     -0.747  0.3629E+02  0.3563E+02  0.2660E+03  0.2655E+03
     -0.672  0.4747E+02  0.5018E+02  0.2696E+03  0.2694E+03
     -0.597  0.4368E+02  0.4190E+02  0.2729E+03  0.2725E+03
     -0.522  0.3783E+02  0.3719E+02  0.2757E+03  0.2754E+03
     -0.447  0.5003E+02  0.4914E+02  0.2795E+03  0.2792E+03
     -0.372  0.3350E+02  0.3625E+02  0.2821E+03  0.2819E+03
     -0.297  0.3278E+02  0.3080E+02  0.2846E+03  0.2843E+03
     -0.221  0.3278E+02  0.3217E+02  0.2871E+03  0.2867E+03
     -0.146  0.3197E+02  0.3063E+02  0.2895E+03  0.2891E+03
     -0.071  0.2978E+02  0.3126E+02  0.2918E+03  0.2915E+03
      0.004  0.3113E+02  0.3114E+02  0.2941E+03  0.2938E+03
      0.079  0.3346E+02  0.3438E+02  0.2967E+03  0.2964E+03
      0.154  0.3276E+02  0.2948E+02  0.2991E+03  0.2987E+03
      0.229  0.3467E+02  0.3497E+02  0.3018E+03  0.3014E+03
      0.304  0.3516E+02  0.3621E+02  0.3044E+03  0.3041E+03
      0.379  0.2983E+02  0.3046E+02  0.3067E+03  0.3065E+03
      0.454  0.4401E+02  0.3974E+02  0.3100E+03  0.3095E+03
      0.529  0.4514E+02  0.4642E+02  0.3134E+03  0.3131E+03
      0.605  0.3140E+02  0.3144E+02  0.3158E+03  0.3155E+03
      0.680  0.3319E+02  0.3183E+02  0.3183E+03  0.3179E+03
      0.755  0.3258E+02  0.3498E+02  0.3208E+03  0.3206E+03
      0.830  0.3219E+02  0.3176E+02  0.3233E+03  0.3230E+03
      0.905  0.3801E+02  0.3238E+02  0.3261E+03  0.3255E+03
      0.980  0.3870E+02  0.4150E+02  0.3291E+03  0.3286E+03
      1.055  0.3853E+02  0.4215E+02  0.3321E+03  0.3318E+03
      1.130  0.5046E+02  0.4741E+02  0.3359E+03  0.3354E+03
      1.205  0.3935E+02  0.4096E+02  0.3389E+03  0.3386E+03
      1.280  0.3937E+02  0.3466E+02  0.3419E+03  0.3412E+03
      1.355  0.4109E+02  0.4270E+02  0.3451E+03  0.3445E+03
      1.431  0.3495E+02  0.3991E+02  0.3477E+03  0.3475E+03
      1.506  0.3439E+02  0.3054E+02  0.3503E+03  0.3498E+03
      1.581  0.4288E+02  0.4048E+02  0.3536E+03  0.3530E+03
      1.656  0.4079E+02  0.4030E+02  0.3567E+03  0.3561E+03
      1.731  0.4555E+02  0.4522E+02  0.3601E+03  0.3595E+03
      1.806  0.4084E+02  0.4438E+02  0.3633E+03  0.3629E+03
      1.881  0.4826E+02  0.4470E+02  0.3669E+03  0.3663E+03
      1.956  0.3563E+02  0.3466E+02  0.3696E+03  0.3690E+03
      2.031  0.4919E+02  0.5173E+02  0.3734E+03  0.3729E+03
      2.106  0.4128E+02  0.3730E+02  0.3765E+03  0.3757E+03
      2.181  0.4227E+02  0.4517E+02  0.3798E+03  0.3791E+03
      2.257  0.4576E+02  0.4617E+02  0.3833E+03  0.3827E+03
      2.332  0.3938E+02  0.3771E+02  0.3862E+03  0.3856E+03
      2.407  0.3961E+02  0.3771E+02  0.3892E+03  0.3884E+03
      2.482  0.5754E+02  0.5661E+02  0.3936E+03  0.3928E+03
      2.557  0.5598E+02  0.5758E+02  0.3978E+03  0.3971E+03
      2.632  0.4232E+02  0.4137E+02  0.4010E+03  0.4003E+03
      2.707  0.4573E+02  0.4634E+02  0.4045E+03  0.4038E+03
      2.782  0.4842E+02  0.4571E+02  0.4081E+03  0.4073E+03
      2.857  0.4699E+02  0.4776E+02  0.4118E+03  0.4109E+03
      2.932  0.5269E+02  0.5729E+02  0.4158E+03  0.4153E+03
      3.007  0.4357E+02  0.4499E+02  0.4192E+03  0.4187E+03
      3.082  0.4599E+02  0.4596E+02  0.4226E+03  0.4222E+03
      3.158  0.5421E+02  0.5300E+02  0.4267E+03  0.4262E+03
      3.233  0.4611E+02  0.4223E+02  0.4302E+03  0.4295E+03
      3.308  0.5151E+02  0.5377E+02  0.4342E+03  0.4336E+03
      3.383  0.5193E+02  0.5182E+02  0.4381E+03  0.4375E+03
      3.458  0.4463E+02  0.4444E+02  0.4414E+03  0.4409E+03
      3.533  0.4780E+02  0.4718E+02  0.4451E+03  0.4445E+03
      3.608  0.3805E+02  0.3582E+02  0.4479E+03  0.4472E+03
      3.683  0.4181E+02  0.4122E+02  0.4511E+03  0.4503E+03
      3.758  0.4713E+02  0.4800E+02  0.4547E+03  0.4540E+03
      3.833  0.4924E+02  0.4596E+02  0.4585E+03  0.4575E+03
      3.908  0.4502E+02  0.4674E+02  0.4619E+03  0.4611E+03
      3.984  0.5879E+02  0.5614E+02  0.4664E+03  0.4653E+03
      4.059  0.3943E+02  0.4088E+02  0.4695E+03  0.4684E+03
      4.134  0.4778E+02  0.5206E+02  0.4731E+03  0.4723E+03
      4.209  0.5705E+02  0.4792E+02  0.4774E+03  0.4760E+03
      4.284  0.4773E+02  0.5209E+02  0.4811E+03  0.4800E+03
      4.359  0.4767E+02  0.4979E+02  0.4847E+03  0.4837E+03
      4.434  0.5089E+02  0.4728E+02  0.4886E+03  0.4873E+03
      4.509  0.3924E+02  0.4530E+02  0.4915E+03  0.4907E+03
      4.584  0.6433E+02  0.5978E+02  0.4964E+03  0.4953E+03
      4.659  0.3886E+02  0.4164E+02  0.4994E+03  0.4985E+03
      4.734  0.3436E+02  0.3217E+02  0.5020E+03  0.5010E+03
      4.810  0.3780E+02  0.4183E+02  0.5049E+03  0.5041E+03
      4.885  0.3850E+02  0.4246E+02  0.5078E+03  0.5073E+03
      4.960  0.4534E+02  0.4102E+02  0.5112E+03  0.5105E+03
      5.035  0.5421E+02  0.4851E+02  0.5153E+03  0.5142E+03
      5.110  0.3246E+02  0.3657E+02  0.5178E+03  0.5169E+03
      5.185  0.2960E+02  0.3676E+02  0.5201E+03  0.5197E+03
      5.260  0.4196E+02  0.3528E+02  0.5232E+03  0.5224E+03
      5.335  0.4164E+02  0.3746E+02  0.5264E+03  0.5253E+03
      5.410  0.3878E+02  0.4340E+02  0.5294E+03  0.5286E+03
      5.485  0.5250E+02  0.5304E+02  0.5334E+03  0.5326E+03
      5.560  0.4302E+02  0.4235E+02  0.5366E+03  0.5358E+03
      5.636  0.3605E+02  0.3802E+02  0.5394E+03  0.5387E+03
      5.711  0.4986E+02  0.4749E+02  0.5432E+03  0.5423E+03
      5.786  0.4305E+02  0.4420E+02  0.5464E+03  0.5457E+03
      5.861  0.4136E+02  0.3963E+02  0.5496E+03  0.5487E+03
      5.936  0.2420E+02  0.2889E+02  0.5515E+03  0.5509E+03
      6.011  0.3527E+02  0.3689E+02  0.5542E+03  0.5537E+03
      6.086  0.2843E+02  0.2245E+02  0.5563E+03  0.5554E+03
      6.161  0.3461E+02  0.4083E+02  0.5590E+03  0.5585E+03
      6.236  0.4672E+02  0.4312E+02  0.5626E+03  0.5618E+03
      6.311  0.3678E+02  0.4121E+02  0.5654E+03  0.5649E+03
      6.386  0.4179E+02  0.3757E+02  0.5685E+03  0.5678E+03
      6.462  0.3989E+02  0.4187E+02  0.5716E+03  0.5710E+03
      6.537  0.3751E+02  0.3958E+02  0.5744E+03  0.5740E+03
      6.612  0.1946E+02  0.2176E+02  0.5759E+03  0.5757E+03
      6.687  0.1290E+01  0.4337E+01  0.5760E+03  0.5760E+03
      6.762  0.0000E+00  0.0000E+00  0.5760E+03  0.5760E+03
      6.837  0.0000E+00  0.0000E+00  0.5760E+03  0.5760E+03
      6.912  0.0000E+00  0.0000E+00  0.5760E+03  0.5760E+03
      6.987  0.0000E+00  0.0000E+00  0.5760E+03  0.5760E+03
      7.062  0.0000E+00  0.0000E+00  0.5760E+03  0.5760E+03
      7.137  0.0000E+00  0.0000E+00  0.5760E+03  0.5760E+03
      7.212  0.0000E+00  0.0000E+00  0.5760E+03  0.5760E+03
      7.288  0.0000E+00  0.0000E+00  0.5760E+03  0.5760E+03
      7.363  0.0000E+00  0.0000E+00  0.5760E+03  0.5760E+03
      7.438  0.0000E+00  0.0000E+00  0.5760E+03  0.5760E+03
      7.513  0.0000E+00  0.0000E+00  0.5760E+03  0.5760E+03
      7.588  0.0000E+00  0.0000E+00  0.5760E+03  0.5760E+03
      7.663  0.0000E+00  0.0000E+00  0.5760E+03  0.5760E+03
