  96  96   0   0
  0.2155260E+02  0.1789154E-08  0.1789153E-08  0.1482856E-08  0.5000000E-15
  1.000000000000000E-004
  CAR 
 Si and Ge interface calculation         
      7.56503944    -14.45740396  301      4.04805177      1.00000000
    -14.457  0.0000E+00  0.0000E+00  0.0000E+00  0.0000E+00
    -14.384  0.0000E+00  0.0000E+00  0.0000E+00  0.0000E+00
    -14.311  0.0000E+00  0.0000E+00  0.0000E+00  0.0000E+00
    -14.237  0.0000E+00  0.0000E+00  0.0000E+00  0.0000E+00
    -14.164  0.0000E+00  0.0000E+00  0.0000E+00  0.0000E+00
    -14.090  0.0000E+00  0.0000E+00  0.0000E+00  0.0000E+00
    -14.017  0.0000E+00  0.0000E+00  0.0000E+00  0.0000E+00
    -13.944  0.0000E+00  0.0000E+00  0.0000E+00  0.0000E+00
    -13.870  0.0000E+00  0.0000E+00  0.0000E+00  0.0000E+00
    -13.797  0.0000E+00  0.0000E+00  0.0000E+00  0.0000E+00
    -13.723  0.0000E+00  0.0000E+00  0.0000E+00  0.0000E+00
    -13.650  0.0000E+00  0.0000E+00  0.0000E+00  0.0000E+00
    -13.577  0.0000E+00  0.0000E+00  0.0000E+00  0.0000E+00
    -13.503  0.2103E-09  0.0000E+00  0.1543E-10  0.0000E+00
    -13.430  0.1362E+02  0.1131E+02  0.9999E+00  0.8304E+00
    -13.356  0.9935E-06  0.9062E+00  0.1000E+01  0.1000E+01
    -13.283  0.2724E+02  0.2690E+02  0.3000E+01  0.2975E+01
    -13.209  0.0000E+00  0.0000E+00  0.3000E+01  0.3000E+01
    -13.136  0.0000E+00  0.0000E+00  0.3000E+01  0.3000E+01
    -13.063  0.0000E+00  0.0000E+00  0.3000E+01  0.3000E+01
    -12.989  0.0000E+00  0.0000E+00  0.3000E+01  0.3000E+01
    -12.916  0.6904E+01  0.1119E-01  0.3507E+01  0.3001E+01
    -12.842  0.2034E+02  0.2723E+02  0.5000E+01  0.5000E+01
    -12.769  0.0000E+00  0.0000E+00  0.5000E+01  0.5000E+01
    -12.696  0.0000E+00  0.0000E+00  0.5000E+01  0.5000E+01
    -12.622  0.0000E+00  0.0000E+00  0.5000E+01  0.5000E+01
    -12.549  0.0000E+00  0.0000E+00  0.5000E+01  0.5000E+01
    -12.475  0.0000E+00  0.0000E+00  0.5000E+01  0.5000E+01
    -12.402  0.0000E+00  0.0000E+00  0.5000E+01  0.5000E+01
    -12.329  0.1047E-10  0.0000E+00  0.5000E+01  0.5000E+01
    -12.255  0.2723E+02  0.2122E+02  0.6999E+01  0.6558E+01
    -12.182  0.0000E+00  0.6028E+01  0.7000E+01  0.7000E+01
    -12.108  0.0000E+00  0.0000E+00  0.7000E+01  0.7000E+01
    -12.035  0.0000E+00  0.0000E+00  0.7000E+01  0.7000E+01
    -11.962  0.0000E+00  0.0000E+00  0.7000E+01  0.7000E+01
    -11.888  0.0000E+00  0.0000E+00  0.7000E+01  0.7000E+01
    -11.815  0.4887E-06  0.1813E-11  0.7000E+01  0.7000E+01
    -11.741  0.1362E+02  0.1361E+02  0.8000E+01  0.7999E+01
    -11.668  0.0000E+00  0.0000E+00  0.8000E+01  0.8000E+01
    -11.594  0.0000E+00  0.0000E+00  0.8000E+01  0.8000E+01
    -11.521  0.0000E+00  0.0000E+00  0.8000E+01  0.8000E+01
    -11.448  0.0000E+00  0.0000E+00  0.8000E+01  0.8000E+01
    -11.374  0.0000E+00  0.0000E+00  0.8000E+01  0.8000E+01
    -11.301  0.0000E+00  0.0000E+00  0.8000E+01  0.8000E+01
    -11.227  0.0000E+00  0.0000E+00  0.8000E+01  0.8000E+01
    -11.154  0.0000E+00  0.0000E+00  0.8000E+01  0.8000E+01
    -11.081  0.0000E+00  0.0000E+00  0.8000E+01  0.8000E+01
    -11.007  0.0000E+00  0.0000E+00  0.8000E+01  0.8000E+01
    -10.934  0.0000E+00  0.0000E+00  0.8000E+01  0.8000E+01
    -10.860  0.0000E+00  0.0000E+00  0.8000E+01  0.8000E+01
    -10.787  0.0000E+00  0.0000E+00  0.8000E+01  0.8000E+01
    -10.714  0.0000E+00  0.0000E+00  0.8000E+01  0.8000E+01
    -10.640  0.0000E+00  0.0000E+00  0.8000E+01  0.8000E+01
    -10.567  0.0000E+00  0.0000E+00  0.8000E+01  0.8000E+01
    -10.493  0.0000E+00  0.0000E+00  0.8000E+01  0.8000E+01
    -10.420  0.2636E-04  0.0000E+00  0.8000E+01  0.8000E+01
    -10.347  0.1362E+02  0.1286E+02  0.9000E+01  0.8944E+01
    -10.273  0.0000E+00  0.0000E+00  0.9000E+01  0.9000E+01
    -10.200  0.0000E+00  0.0000E+00  0.9000E+01  0.9000E+01
    -10.126  0.0000E+00  0.0000E+00  0.9000E+01  0.9000E+01
    -10.053  0.0000E+00  0.0000E+00  0.9000E+01  0.9000E+01
     -9.980  0.0000E+00  0.0000E+00  0.9000E+01  0.9000E+01
     -9.906  0.0000E+00  0.0000E+00  0.9000E+01  0.9000E+01
     -9.833  0.0000E+00  0.0000E+00  0.9000E+01  0.9000E+01
     -9.759  0.0000E+00  0.0000E+00  0.9000E+01  0.9000E+01
     -9.686  0.2297E-04  0.3781E-15  0.9000E+01  0.9000E+01
     -9.612  0.2724E+02  0.2653E+02  0.1100E+02  0.1095E+02
     -9.539  0.0000E+00  0.0000E+00  0.1100E+02  0.1100E+02
     -9.466  0.0000E+00  0.0000E+00  0.1100E+02  0.1100E+02
     -9.392  0.0000E+00  0.0000E+00  0.1100E+02  0.1100E+02
     -9.319  0.0000E+00  0.0000E+00  0.1100E+02  0.1100E+02
     -9.245  0.0000E+00  0.0000E+00  0.1100E+02  0.1100E+02
     -9.172  0.0000E+00  0.0000E+00  0.1100E+02  0.1100E+02
     -9.099  0.0000E+00  0.0000E+00  0.1100E+02  0.1100E+02
     -9.025  0.0000E+00  0.0000E+00  0.1100E+02  0.1100E+02
     -8.952  0.0000E+00  0.0000E+00  0.1100E+02  0.1100E+02
     -8.878  0.0000E+00  0.0000E+00  0.1100E+02  0.1100E+02
     -8.805  0.1401E+00  0.2488E-01  0.1101E+02  0.1100E+02
     -8.732  0.4968E+01  0.5083E+01  0.1137E+02  0.1137E+02
     -8.658  0.5818E+01  0.4299E+01  0.1180E+02  0.1169E+02
     -8.585  0.1108E+02  0.1207E+02  0.1262E+02  0.1258E+02
     -8.511  0.3542E+01  0.3824E+01  0.1289E+02  0.1288E+02
     -8.438  0.2629E+02  0.9983E+01  0.1481E+02  0.1361E+02
     -8.365  0.8614E+01  0.2509E+02  0.1549E+02  0.1545E+02
     -8.291  0.8742E+01  0.9184E+01  0.1613E+02  0.1613E+02
     -8.218  0.1015E+02  0.9902E+01  0.1687E+02  0.1685E+02
     -8.144  0.9297E+01  0.7037E+01  0.1756E+02  0.1739E+02
     -8.071  0.8513E+01  0.1049E+02  0.1821E+02  0.1818E+02
     -7.997  0.1604E+02  0.1507E+02  0.1938E+02  0.1930E+02
     -7.924  0.1616E+02  0.1665E+02  0.2057E+02  0.2053E+02
     -7.851  0.1666E+02  0.1372E+02  0.2179E+02  0.2157E+02
     -7.777  0.1732E+02  0.1600E+02  0.2307E+02  0.2275E+02
     -7.704  0.5294E+01  0.7500E+01  0.2349E+02  0.2330E+02
     -7.630  0.2448E+02  0.2324E+02  0.2529E+02  0.2501E+02
     -7.557  0.2533E+02  0.2584E+02  0.2718E+02  0.2697E+02
     -7.484  0.2455E+02  0.2310E+02  0.2898E+02  0.2868E+02
     -7.410  0.2604E+02  0.2865E+02  0.3092E+02  0.3080E+02
     -7.337  0.2118E+02  0.1884E+02  0.3249E+02  0.3219E+02
     -7.263  0.1277E+02  0.1589E+02  0.3344E+02  0.3337E+02
     -7.190  0.1586E+02  0.1528E+02  0.3462E+02  0.3449E+02
     -7.117  0.1936E+02  0.1972E+02  0.3604E+02  0.3596E+02
     -7.043  0.1820E+02  0.1653E+02  0.3738E+02  0.3717E+02
     -6.970  0.3045E+02  0.3010E+02  0.3963E+02  0.3941E+02
     -6.896  0.2973E+02  0.2865E+02  0.4186E+02  0.4155E+02
     -6.823  0.3184E+02  0.3406E+02  0.4424E+02  0.4406E+02
     -6.750  0.2486E+02  0.2589E+02  0.4607E+02  0.4597E+02
     -6.676  0.2264E+02  0.2284E+02  0.4775E+02  0.4768E+02
     -6.603  0.3481E+02  0.3374E+02  0.5031E+02  0.5016E+02
     -6.529  0.3398E+02  0.3112E+02  0.5284E+02  0.5251E+02
     -6.456  0.3583E+02  0.3531E+02  0.5552E+02  0.5514E+02
     -6.383  0.3338E+02  0.3301E+02  0.5798E+02  0.5759E+02
     -6.309  0.4721E+02  0.4970E+02  0.6148E+02  0.6126E+02
     -6.236  0.2501E+02  0.2315E+02  0.6337E+02  0.6300E+02
     -6.162  0.4337E+02  0.4430E+02  0.6657E+02  0.6627E+02
     -6.089  0.4402E+02  0.4490E+02  0.6984E+02  0.6961E+02
     -6.015  0.2358E+02  0.2147E+02  0.7158E+02  0.7123E+02
     -5.942  0.3583E+02  0.3485E+02  0.7423E+02  0.7379E+02
     -5.869  0.2749E+02  0.3125E+02  0.7626E+02  0.7611E+02
     -5.795  0.2746E+02  0.2600E+02  0.7829E+02  0.7802E+02
     -5.722  0.3188E+02  0.3259E+02  0.8064E+02  0.8042E+02
     -5.648  0.2776E+02  0.2924E+02  0.8270E+02  0.8259E+02
     -5.575  0.2509E+02  0.2409E+02  0.8455E+02  0.8436E+02
     -5.502  0.3476E+02  0.3404E+02  0.8712E+02  0.8688E+02
     -5.428  0.2324E+02  0.2453E+02  0.8885E+02  0.8869E+02
     -5.355  0.2709E+02  0.2825E+02  0.9085E+02  0.9078E+02
     -5.281  0.8313E+01  0.8341E+01  0.9146E+02  0.9139E+02
     -5.208  0.1244E+02  0.1320E+02  0.9238E+02  0.9237E+02
     -5.135  0.1327E+02  0.1092E+02  0.9335E+02  0.9318E+02
     -5.061  0.2060E+02  0.2094E+02  0.9487E+02  0.9472E+02
     -4.988  0.1221E+02  0.1340E+02  0.9579E+02  0.9573E+02
     -4.914  0.1834E+02  0.1661E+02  0.9713E+02  0.9695E+02
     -4.841  0.1680E+02  0.1428E+02  0.9839E+02  0.9801E+02
     -4.768  0.1794E+02  0.2059E+02  0.9971E+02  0.9953E+02
     -4.694  0.3030E+02  0.2630E+02  0.1019E+03  0.1015E+03
     -4.621  0.3908E+02  0.3617E+02  0.1048E+03  0.1041E+03
     -4.547  0.2062E+02  0.2623E+02  0.1064E+03  0.1061E+03
     -4.474  0.2174E+02  0.2142E+02  0.1080E+03  0.1077E+03
     -4.400  0.1851E+02  0.1950E+02  0.1093E+03  0.1091E+03
     -4.327  0.4039E+02  0.3851E+02  0.1123E+03  0.1120E+03
     -4.254  0.3024E+02  0.3074E+02  0.1145E+03  0.1143E+03
     -4.180  0.1470E+02  0.1459E+02  0.1156E+03  0.1154E+03
     -4.107  0.1261E+02  0.1412E+02  0.1166E+03  0.1165E+03
     -4.033  0.2643E+02  0.2557E+02  0.1185E+03  0.1184E+03
     -3.960  0.1619E+02  0.1579E+02  0.1197E+03  0.1195E+03
     -3.887  0.2023E+02  0.1946E+02  0.1212E+03  0.1210E+03
     -3.813  0.3939E+02  0.3974E+02  0.1241E+03  0.1239E+03
     -3.740  0.2231E+02  0.2215E+02  0.1258E+03  0.1256E+03
     -3.666  0.2076E+02  0.2080E+02  0.1273E+03  0.1271E+03
     -3.593  0.2750E+02  0.2705E+02  0.1293E+03  0.1292E+03
     -3.520  0.4071E+02  0.3638E+02  0.1323E+03  0.1318E+03
     -3.446  0.2524E+02  0.2728E+02  0.1342E+03  0.1339E+03
     -3.373  0.2499E+02  0.2605E+02  0.1361E+03  0.1358E+03
     -3.299  0.3388E+02  0.3309E+02  0.1386E+03  0.1383E+03
     -3.226  0.4634E+02  0.4572E+02  0.1420E+03  0.1417E+03
     -3.153  0.2801E+02  0.2849E+02  0.1441E+03  0.1438E+03
     -3.079  0.2257E+02  0.2537E+02  0.1458E+03  0.1457E+03
     -3.006  0.4177E+02  0.3846E+02  0.1489E+03  0.1485E+03
     -2.932  0.2153E+02  0.2487E+02  0.1505E+03  0.1504E+03
     -2.859  0.3630E+02  0.3380E+02  0.1532E+03  0.1529E+03
     -2.786  0.2054E+02  0.2060E+02  0.1547E+03  0.1544E+03
     -2.712  0.3133E+02  0.3207E+02  0.1570E+03  0.1568E+03
     -2.639  0.2214E+02  0.2268E+02  0.1587E+03  0.1585E+03
     -2.565  0.1987E+02  0.1643E+02  0.1601E+03  0.1597E+03
     -2.492  0.2273E+02  0.2509E+02  0.1618E+03  0.1616E+03
     -2.418  0.2901E+02  0.2943E+02  0.1640E+03  0.1637E+03
     -2.345  0.1673E+02  0.1717E+02  0.1653E+03  0.1650E+03
     -2.272  0.1432E+02  0.1478E+02  0.1663E+03  0.1661E+03
     -2.198  0.1347E+02  0.1544E+02  0.1673E+03  0.1673E+03
     -2.125  0.1684E+02  0.1499E+02  0.1686E+03  0.1684E+03
     -2.051  0.2446E+02  0.2053E+02  0.1704E+03  0.1699E+03
     -1.978  0.2206E+02  0.2568E+02  0.1720E+03  0.1718E+03
     -1.905  0.2764E+02  0.2854E+02  0.1741E+03  0.1739E+03
     -1.831  0.3114E+02  0.3091E+02  0.1764E+03  0.1761E+03
     -1.758  0.1384E+02  0.1600E+02  0.1775E+03  0.1773E+03
     -1.684  0.2179E+02  0.1798E+02  0.1791E+03  0.1786E+03
     -1.611  0.1773E+02  0.2295E+02  0.1804E+03  0.1803E+03
     -1.538  0.2985E+02  0.2151E+02  0.1826E+03  0.1819E+03
     -1.464  0.1959E+02  0.2792E+02  0.1841E+03  0.1840E+03
     -1.391  0.1591E+02  0.1444E+02  0.1853E+03  0.1851E+03
     -1.317  0.1399E+02  0.1293E+02  0.1863E+03  0.1860E+03
     -1.244  0.3533E+01  0.5875E+01  0.1866E+03  0.1865E+03
     -1.171  0.3167E+02  0.2883E+02  0.1889E+03  0.1886E+03
     -1.097  0.2474E+02  0.2399E+02  0.1907E+03  0.1904E+03
     -1.024  0.1934E+02  0.2062E+02  0.1922E+03  0.1919E+03
     -0.950  0.7733E+01  0.6825E+01  0.1928E+03  0.1924E+03
     -0.877  0.1111E+02  0.1355E+02  0.1936E+03  0.1934E+03
     -0.803  0.1282E+02  0.1232E+02  0.1945E+03  0.1943E+03
     -0.730  0.1952E+02  0.1926E+02  0.1960E+03  0.1957E+03
     -0.657  0.1022E+02  0.1167E+02  0.1967E+03  0.1966E+03
     -0.583  0.1207E+02  0.1146E+02  0.1976E+03  0.1975E+03
     -0.510  0.1386E+02  0.1500E+02  0.1986E+03  0.1986E+03
     -0.436  0.1622E+02  0.1469E+02  0.1998E+03  0.1997E+03
     -0.363  0.1646E+02  0.1471E+02  0.2010E+03  0.2008E+03
     -0.290  0.2318E+02  0.2386E+02  0.2028E+03  0.2025E+03
     -0.216  0.2076E+02  0.2231E+02  0.2043E+03  0.2042E+03
     -0.143  0.3232E+02  0.3031E+02  0.2067E+03  0.2064E+03
     -0.069  0.3982E+02  0.3810E+02  0.2096E+03  0.2093E+03
      0.004  0.5457E+02  0.5229E+02  0.2137E+03  0.2131E+03
      0.077  0.4701E+02  0.4847E+02  0.2172E+03  0.2167E+03
      0.151  0.4194E+02  0.4511E+02  0.2202E+03  0.2201E+03
      0.224  0.3863E+02  0.3660E+02  0.2231E+03  0.2228E+03
      0.298  0.3814E+02  0.3710E+02  0.2259E+03  0.2255E+03
      0.371  0.4095E+02  0.4290E+02  0.2289E+03  0.2288E+03
      0.444  0.3998E+02  0.3739E+02  0.2319E+03  0.2315E+03
      0.518  0.4167E+02  0.4233E+02  0.2350E+03  0.2347E+03
      0.591  0.5448E+02  0.5449E+02  0.2390E+03  0.2387E+03
      0.665  0.3255E+02  0.3117E+02  0.2414E+03  0.2410E+03
      0.738  0.4739E+02  0.4503E+02  0.2449E+03  0.2444E+03
      0.811  0.3600E+02  0.3997E+02  0.2476E+03  0.2473E+03
      0.885  0.5069E+02  0.5010E+02  0.2514E+03  0.2510E+03
      0.958  0.4891E+02  0.4855E+02  0.2550E+03  0.2546E+03
      1.032  0.4137E+02  0.3911E+02  0.2581E+03  0.2575E+03
      1.105  0.7049E+02  0.7271E+02  0.2633E+03  0.2629E+03
      1.179  0.4577E+02  0.4495E+02  0.2667E+03  0.2662E+03
      1.252  0.5294E+02  0.5270E+02  0.2706E+03  0.2701E+03
      1.325  0.6475E+02  0.6635E+02  0.2754E+03  0.2750E+03
      1.399  0.5849E+02  0.5531E+02  0.2798E+03  0.2791E+03
      1.472  0.5627E+02  0.5948E+02  0.2839E+03  0.2835E+03
      1.546  0.5418E+02  0.5465E+02  0.2879E+03  0.2876E+03
      1.619  0.5595E+02  0.5445E+02  0.2921E+03  0.2916E+03
      1.692  0.5100E+02  0.5325E+02  0.2959E+03  0.2955E+03
      1.766  0.5251E+02  0.5283E+02  0.2998E+03  0.2994E+03
      1.839  0.5278E+02  0.5060E+02  0.3037E+03  0.3032E+03
      1.913  0.4509E+02  0.4803E+02  0.3071E+03  0.3067E+03
      1.986  0.4039E+02  0.4066E+02  0.3100E+03  0.3097E+03
      2.059  0.4594E+02  0.4659E+02  0.3134E+03  0.3132E+03
      2.133  0.3772E+02  0.3377E+02  0.3162E+03  0.3157E+03
      2.206  0.4684E+02  0.4844E+02  0.3197E+03  0.3193E+03
      2.280  0.3583E+02  0.3496E+02  0.3223E+03  0.3219E+03
      2.353  0.3793E+02  0.4182E+02  0.3251E+03  0.3250E+03
      2.426  0.5215E+02  0.4909E+02  0.3290E+03  0.3286E+03
      2.500  0.3840E+02  0.3966E+02  0.3318E+03  0.3316E+03
      2.573  0.3829E+02  0.3667E+02  0.3346E+03  0.3343E+03
      2.647  0.3228E+02  0.2923E+02  0.3371E+03  0.3365E+03
      2.720  0.5103E+02  0.5375E+02  0.3409E+03  0.3404E+03
      2.794  0.4339E+02  0.4548E+02  0.3440E+03  0.3438E+03
      2.867  0.4189E+02  0.3758E+02  0.3471E+03  0.3466E+03
      2.940  0.2433E+02  0.2911E+02  0.3490E+03  0.3488E+03
      3.014  0.1984E+02  0.1961E+02  0.3504E+03  0.3502E+03
      3.087  0.4127E+02  0.3622E+02  0.3535E+03  0.3529E+03
      3.161  0.2475E+02  0.2878E+02  0.3553E+03  0.3551E+03
      3.234  0.3511E+02  0.3341E+02  0.3579E+03  0.3575E+03
      3.307  0.4018E+02  0.3402E+02  0.3609E+03  0.3601E+03
      3.381  0.4145E+02  0.4406E+02  0.3639E+03  0.3633E+03
      3.454  0.3547E+02  0.4008E+02  0.3666E+03  0.3663E+03
      3.528  0.2995E+02  0.2894E+02  0.3688E+03  0.3685E+03
      3.601  0.2863E+02  0.2560E+02  0.3709E+03  0.3704E+03
      3.674  0.3538E+02  0.3394E+02  0.3735E+03  0.3729E+03
      3.748  0.2945E+02  0.2980E+02  0.3757E+03  0.3751E+03
      3.821  0.3071E+02  0.2965E+02  0.3780E+03  0.3773E+03
      3.895  0.2428E+02  0.2765E+02  0.3798E+03  0.3794E+03
      3.968  0.2570E+02  0.2416E+02  0.3817E+03  0.3812E+03
      4.041  0.2264E+02  0.2326E+02  0.3834E+03  0.3829E+03
      4.115  0.1929E+02  0.1579E+02  0.3848E+03  0.3841E+03
      4.188  0.3087E+02  0.3097E+02  0.3871E+03  0.3864E+03
      4.262  0.3121E+02  0.3585E+02  0.3894E+03  0.3890E+03
      4.335  0.1850E+02  0.1934E+02  0.3908E+03  0.3905E+03
      4.408  0.3584E+02  0.3198E+02  0.3934E+03  0.3928E+03
      4.482  0.4390E+02  0.4208E+02  0.3966E+03  0.3959E+03
      4.555  0.3311E+02  0.3709E+02  0.3991E+03  0.3987E+03
      4.629  0.1911E+02  0.1968E+02  0.4005E+03  0.4002E+03
      4.702  0.3182E+02  0.2797E+02  0.4029E+03  0.4022E+03
      4.776  0.3053E+02  0.3454E+02  0.4052E+03  0.4048E+03
      4.849  0.1921E+02  0.2211E+02  0.4066E+03  0.4065E+03
      4.922  0.2833E+02  0.2097E+02  0.4087E+03  0.4080E+03
      4.996  0.3452E+02  0.3892E+02  0.4113E+03  0.4109E+03
      5.069  0.2723E+02  0.2934E+02  0.4133E+03  0.4130E+03
      5.143  0.2504E+02  0.2497E+02  0.4151E+03  0.4149E+03
      5.216  0.3192E+02  0.2728E+02  0.4175E+03  0.4169E+03
      5.289  0.3477E+02  0.3734E+02  0.4201E+03  0.4197E+03
      5.363  0.4680E+02  0.4871E+02  0.4236E+03  0.4233E+03
      5.436  0.2759E+02  0.2785E+02  0.4257E+03  0.4253E+03
      5.510  0.5007E+02  0.4523E+02  0.4294E+03  0.4286E+03
      5.583  0.3439E+02  0.4060E+02  0.4319E+03  0.4317E+03
      5.656  0.1944E+02  0.2200E+02  0.4334E+03  0.4333E+03
      5.730  0.3116E+02  0.2496E+02  0.4357E+03  0.4352E+03
      5.803  0.2959E+02  0.3026E+02  0.4379E+03  0.4374E+03
      5.877  0.5413E+02  0.5574E+02  0.4419E+03  0.4415E+03
      5.950  0.4708E+02  0.4466E+02  0.4454E+03  0.4448E+03
      6.023  0.3879E+02  0.4341E+02  0.4483E+03  0.4480E+03
      6.097  0.4023E+02  0.3784E+02  0.4513E+03  0.4508E+03
      6.170  0.3240E+02  0.3571E+02  0.4537E+03  0.4535E+03
      6.244  0.3148E+02  0.3104E+02  0.4560E+03  0.4558E+03
      6.317  0.4130E+02  0.4132E+02  0.4591E+03  0.4588E+03
      6.391  0.4374E+02  0.3748E+02  0.4623E+03  0.4616E+03
      6.464  0.1336E+02  0.2258E+02  0.4633E+03  0.4633E+03
      6.537  0.6546E+01  0.5426E+01  0.4638E+03  0.4637E+03
      6.611  0.2665E+01  0.3845E+01  0.4640E+03  0.4640E+03
      6.684  0.0000E+00  0.0000E+00  0.4640E+03  0.4640E+03
      6.758  0.0000E+00  0.0000E+00  0.4640E+03  0.4640E+03
      6.831  0.0000E+00  0.0000E+00  0.4640E+03  0.4640E+03
      6.904  0.0000E+00  0.0000E+00  0.4640E+03  0.4640E+03
      6.978  0.0000E+00  0.0000E+00  0.4640E+03  0.4640E+03
      7.051  0.0000E+00  0.0000E+00  0.4640E+03  0.4640E+03
      7.125  0.0000E+00  0.0000E+00  0.4640E+03  0.4640E+03
      7.198  0.0000E+00  0.0000E+00  0.4640E+03  0.4640E+03
      7.271  0.0000E+00  0.0000E+00  0.4640E+03  0.4640E+03
      7.345  0.0000E+00  0.0000E+00  0.4640E+03  0.4640E+03
      7.418  0.0000E+00  0.0000E+00  0.4640E+03  0.4640E+03
      7.492  0.0000E+00  0.0000E+00  0.4640E+03  0.4640E+03
      7.565  0.0000E+00  0.0000E+00  0.4640E+03  0.4640E+03
