 264 264   0   0
  0.2774202E+02  0.1958175E-08  0.1958175E-08  0.1910025E-08  0.5000000E-15
  1.000000000000000E-004
  CAR 
 Si and Ge interface calculation         
      6.65080304     -9.33568826  301      4.04240651      1.00000000
     -9.336  0.0000E+00  0.0000E+00  0.0000E+00  0.0000E+00
     -9.282  0.0000E+00  0.0000E+00  0.0000E+00  0.0000E+00
     -9.229  0.0000E+00  0.0000E+00  0.0000E+00  0.0000E+00
     -9.176  0.0000E+00  0.0000E+00  0.0000E+00  0.0000E+00
     -9.123  0.0000E+00  0.0000E+00  0.0000E+00  0.0000E+00
     -9.069  0.0000E+00  0.0000E+00  0.0000E+00  0.0000E+00
     -9.016  0.0000E+00  0.0000E+00  0.0000E+00  0.0000E+00
     -8.963  0.0000E+00  0.0000E+00  0.0000E+00  0.0000E+00
     -8.909  0.0000E+00  0.0000E+00  0.0000E+00  0.0000E+00
     -8.856  0.0000E+00  0.0000E+00  0.0000E+00  0.0000E+00
     -8.803  0.0000E+00  0.0000E+00  0.0000E+00  0.0000E+00
     -8.750  0.0000E+00  0.0000E+00  0.0000E+00  0.0000E+00
     -8.696  0.0000E+00  0.0000E+00  0.0000E+00  0.0000E+00
     -8.643  0.7975E-05  0.2672E-05  0.4250E-06  0.1424E-06
     -8.590  0.3638E+02  0.3577E+02  0.1939E+01  0.1906E+01
     -8.536  0.1150E+01  0.1759E+01  0.2000E+01  0.2000E+01
     -8.483  0.0000E+00  0.0000E+00  0.2000E+01  0.2000E+01
     -8.430  0.0000E+00  0.0000E+00  0.2000E+01  0.2000E+01
     -8.376  0.0000E+00  0.0000E+00  0.2000E+01  0.2000E+01
     -8.323  0.1815E+01  0.1200E+01  0.2097E+01  0.2064E+01
     -8.270  0.3571E+02  0.3632E+02  0.4000E+01  0.3999E+01
     -8.217  0.7792E-02  0.1574E-01  0.4000E+01  0.4000E+01
     -8.163  0.0000E+00  0.0000E+00  0.4000E+01  0.4000E+01
     -8.110  0.9697E-09  0.2008E-09  0.4000E+01  0.4000E+01
     -8.057  0.9071E+01  0.8276E+01  0.4483E+01  0.4441E+01
     -8.003  0.2653E+02  0.2561E+02  0.5897E+01  0.5806E+01
     -7.950  0.2241E+02  0.2349E+02  0.7091E+01  0.7057E+01
     -7.897  0.2805E+02  0.2747E+02  0.8586E+01  0.8521E+01
     -7.844  0.1037E+02  0.1089E+02  0.9139E+01  0.9101E+01
     -7.790  0.6947E+01  0.7573E+01  0.9509E+01  0.9505E+01
     -7.737  0.2787E+02  0.2786E+02  0.1099E+02  0.1099E+02
     -7.684  0.9502E+01  0.9580E+01  0.1150E+02  0.1150E+02
     -7.630  0.1772E+02  0.1728E+02  0.1244E+02  0.1242E+02
     -7.577  0.1771E+02  0.1743E+02  0.1339E+02  0.1335E+02
     -7.524  0.3143E+02  0.3066E+02  0.1506E+02  0.1498E+02
     -7.471  0.1632E+02  0.1730E+02  0.1593E+02  0.1591E+02
     -7.417  0.7726E+01  0.7419E+01  0.1634E+02  0.1630E+02
     -7.364  0.3978E+02  0.4022E+02  0.1846E+02  0.1844E+02
     -7.311  0.1948E+02  0.1982E+02  0.1950E+02  0.1950E+02
     -7.257  0.2630E+02  0.2564E+02  0.2090E+02  0.2087E+02
     -7.204  0.4283E+02  0.4179E+02  0.2319E+02  0.2309E+02
     -7.151  0.1912E+02  0.1970E+02  0.2421E+02  0.2414E+02
     -7.098  0.2684E+02  0.2683E+02  0.2564E+02  0.2557E+02
     -7.044  0.2727E+02  0.2787E+02  0.2709E+02  0.2706E+02
     -6.991  0.3485E+02  0.3450E+02  0.2895E+02  0.2890E+02
     -6.938  0.3236E+02  0.3040E+02  0.3067E+02  0.3052E+02
     -6.884  0.4977E+02  0.5131E+02  0.3332E+02  0.3325E+02
     -6.831  0.4604E+02  0.4498E+02  0.3578E+02  0.3565E+02
     -6.778  0.3729E+02  0.3846E+02  0.3776E+02  0.3770E+02
     -6.725  0.4887E+02  0.4845E+02  0.4037E+02  0.4028E+02
     -6.671  0.3159E+02  0.3169E+02  0.4205E+02  0.4197E+02
     -6.618  0.3295E+02  0.3294E+02  0.4381E+02  0.4372E+02
     -6.565  0.4370E+02  0.4418E+02  0.4613E+02  0.4608E+02
     -6.511  0.4500E+02  0.4442E+02  0.4853E+02  0.4845E+02
     -6.458  0.2837E+02  0.2960E+02  0.5004E+02  0.5002E+02
     -6.405  0.5118E+02  0.4976E+02  0.5277E+02  0.5267E+02
     -6.352  0.3914E+02  0.3863E+02  0.5486E+02  0.5473E+02
     -6.298  0.5693E+02  0.5557E+02  0.5789E+02  0.5769E+02
     -6.245  0.4944E+02  0.5216E+02  0.6053E+02  0.6047E+02
     -6.192  0.4876E+02  0.4608E+02  0.6312E+02  0.6293E+02
     -6.138  0.6877E+02  0.7067E+02  0.6679E+02  0.6670E+02
     -6.085  0.7681E+02  0.7475E+02  0.7088E+02  0.7068E+02
     -6.032  0.6776E+02  0.6882E+02  0.7449E+02  0.7435E+02
     -5.979  0.6108E+02  0.6237E+02  0.7775E+02  0.7767E+02
     -5.925  0.5832E+02  0.5614E+02  0.8085E+02  0.8066E+02
     -5.872  0.7718E+02  0.7817E+02  0.8497E+02  0.8483E+02
     -5.819  0.7954E+02  0.7866E+02  0.8921E+02  0.8902E+02
     -5.765  0.8064E+02  0.8147E+02  0.9350E+02  0.9336E+02
     -5.712  0.7644E+02  0.7522E+02  0.9758E+02  0.9737E+02
     -5.659  0.8796E+02  0.8834E+02  0.1023E+03  0.1021E+03
     -5.606  0.8121E+02  0.8003E+02  0.1066E+03  0.1063E+03
     -5.552  0.7320E+02  0.7409E+02  0.1105E+03  0.1103E+03
     -5.499  0.5835E+02  0.5851E+02  0.1136E+03  0.1134E+03
     -5.446  0.7632E+02  0.7501E+02  0.1177E+03  0.1174E+03
     -5.392  0.7447E+02  0.7686E+02  0.1216E+03  0.1215E+03
     -5.339  0.9483E+02  0.9250E+02  0.1267E+03  0.1264E+03
     -5.286  0.8972E+02  0.9097E+02  0.1315E+03  0.1313E+03
     -5.232  0.5762E+02  0.5803E+02  0.1345E+03  0.1344E+03
     -5.179  0.7004E+02  0.7205E+02  0.1383E+03  0.1382E+03
     -5.126  0.6588E+02  0.6428E+02  0.1418E+03  0.1416E+03
     -5.073  0.7789E+02  0.7733E+02  0.1459E+03  0.1458E+03
     -5.019  0.6018E+02  0.6089E+02  0.1491E+03  0.1490E+03
     -4.966  0.6481E+02  0.6536E+02  0.1526E+03  0.1525E+03
     -4.913  0.8013E+02  0.7576E+02  0.1569E+03  0.1565E+03
     -4.859  0.7083E+02  0.7526E+02  0.1606E+03  0.1605E+03
     -4.806  0.9082E+02  0.8945E+02  0.1655E+03  0.1653E+03
     -4.753  0.1167E+03  0.1133E+03  0.1717E+03  0.1713E+03
     -4.700  0.1219E+03  0.1225E+03  0.1782E+03  0.1779E+03
     -4.646  0.9767E+02  0.9818E+02  0.1834E+03  0.1831E+03
     -4.593  0.8741E+02  0.8629E+02  0.1881E+03  0.1877E+03
     -4.540  0.1106E+03  0.1109E+03  0.1939E+03  0.1936E+03
     -4.486  0.1088E+03  0.1074E+03  0.1997E+03  0.1993E+03
     -4.433  0.9255E+02  0.9394E+02  0.2047E+03  0.2043E+03
     -4.380  0.1080E+03  0.1079E+03  0.2104E+03  0.2101E+03
     -4.327  0.6581E+02  0.6746E+02  0.2139E+03  0.2137E+03
     -4.273  0.7842E+02  0.7631E+02  0.2181E+03  0.2177E+03
     -4.220  0.6915E+02  0.7020E+02  0.2218E+03  0.2215E+03
     -4.167  0.9610E+02  0.9635E+02  0.2269E+03  0.2266E+03
     -4.113  0.8133E+02  0.8265E+02  0.2313E+03  0.2310E+03
     -4.060  0.7447E+02  0.7407E+02  0.2352E+03  0.2350E+03
     -4.007  0.6030E+02  0.6173E+02  0.2384E+03  0.2383E+03
     -3.954  0.5184E+02  0.5143E+02  0.2412E+03  0.2410E+03
     -3.900  0.3659E+02  0.3822E+02  0.2432E+03  0.2430E+03
     -3.847  0.6711E+02  0.6248E+02  0.2467E+03  0.2464E+03
     -3.794  0.4931E+02  0.5378E+02  0.2494E+03  0.2492E+03
     -3.740  0.6416E+02  0.6341E+02  0.2528E+03  0.2526E+03
     -3.687  0.7469E+02  0.7185E+02  0.2568E+03  0.2564E+03
     -3.634  0.7940E+02  0.8041E+02  0.2610E+03  0.2607E+03
     -3.581  0.6846E+02  0.6793E+02  0.2646E+03  0.2643E+03
     -3.527  0.5387E+02  0.5473E+02  0.2675E+03  0.2673E+03
     -3.474  0.8883E+02  0.8891E+02  0.2722E+03  0.2720E+03
     -3.421  0.6968E+02  0.6865E+02  0.2760E+03  0.2757E+03
     -3.367  0.8770E+02  0.8821E+02  0.2806E+03  0.2804E+03
     -3.314  0.7101E+02  0.7160E+02  0.2844E+03  0.2842E+03
     -3.261  0.6640E+02  0.6438E+02  0.2879E+03  0.2876E+03
     -3.208  0.7227E+02  0.7402E+02  0.2918E+03  0.2915E+03
     -3.154  0.7978E+02  0.7741E+02  0.2961E+03  0.2957E+03
     -3.101  0.6247E+02  0.6461E+02  0.2994E+03  0.2991E+03
     -3.048  0.7426E+02  0.7431E+02  0.3033E+03  0.3031E+03
     -2.994  0.7110E+02  0.7163E+02  0.3071E+03  0.3069E+03
     -2.941  0.9481E+02  0.9013E+02  0.3122E+03  0.3117E+03
     -2.888  0.1004E+03  0.1019E+03  0.3175E+03  0.3171E+03
     -2.835  0.7576E+02  0.7975E+02  0.3216E+03  0.3214E+03
     -2.781  0.1021E+03  0.9987E+02  0.3270E+03  0.3267E+03
     -2.728  0.9991E+02  0.1007E+03  0.3323E+03  0.3321E+03
     -2.675  0.9435E+02  0.9404E+02  0.3374E+03  0.3371E+03
     -2.621  0.9218E+02  0.9285E+02  0.3423E+03  0.3420E+03
     -2.568  0.1248E+03  0.1233E+03  0.3489E+03  0.3486E+03
     -2.515  0.1113E+03  0.1105E+03  0.3548E+03  0.3545E+03
     -2.461  0.1115E+03  0.1119E+03  0.3608E+03  0.3604E+03
     -2.408  0.9620E+02  0.9641E+02  0.3659E+03  0.3656E+03
     -2.355  0.8932E+02  0.9100E+02  0.3707E+03  0.3704E+03
     -2.302  0.1040E+03  0.1029E+03  0.3762E+03  0.3759E+03
     -2.248  0.9438E+02  0.9676E+02  0.3812E+03  0.3811E+03
     -2.195  0.5012E+02  0.5232E+02  0.3839E+03  0.3839E+03
     -2.142  0.4060E+02  0.3876E+02  0.3861E+03  0.3859E+03
     -2.088  0.6648E+02  0.6611E+02  0.3896E+03  0.3894E+03
     -2.035  0.6814E+02  0.6736E+02  0.3933E+03  0.3930E+03
     -1.982  0.9054E+02  0.9001E+02  0.3981E+03  0.3978E+03
     -1.929  0.9279E+02  0.9179E+02  0.4030E+03  0.4027E+03
     -1.875  0.9866E+02  0.1004E+03  0.4083E+03  0.4081E+03
     -1.822  0.5943E+02  0.5985E+02  0.4114E+03  0.4113E+03
     -1.769  0.9391E+02  0.8982E+02  0.4165E+03  0.4160E+03
     -1.715  0.1076E+03  0.1094E+03  0.4222E+03  0.4219E+03
     -1.662  0.8869E+02  0.9001E+02  0.4269E+03  0.4267E+03
     -1.609  0.7230E+02  0.7415E+02  0.4308E+03  0.4306E+03
     -1.556  0.1022E+03  0.1018E+03  0.4362E+03  0.4360E+03
     -1.502  0.4579E+02  0.4475E+02  0.4387E+03  0.4384E+03
     -1.449  0.5504E+02  0.5743E+02  0.4416E+03  0.4415E+03
     -1.396  0.5491E+02  0.5360E+02  0.4445E+03  0.4443E+03
     -1.342  0.8695E+02  0.8475E+02  0.4491E+03  0.4489E+03
     -1.289  0.2979E+02  0.3380E+02  0.4507E+03  0.4507E+03
     -1.236  0.6490E+02  0.6006E+02  0.4542E+03  0.4539E+03
     -1.183  0.5934E+02  0.6124E+02  0.4574E+03  0.4571E+03
     -1.129  0.5266E+02  0.5487E+02  0.4602E+03  0.4601E+03
     -1.076  0.4228E+02  0.4098E+02  0.4624E+03  0.4622E+03
     -1.023  0.5849E+02  0.5833E+02  0.4655E+03  0.4653E+03
     -0.969  0.3682E+02  0.3790E+02  0.4675E+03  0.4674E+03
     -0.916  0.2781E+02  0.2678E+02  0.4690E+03  0.4688E+03
     -0.863  0.8316E+02  0.8240E+02  0.4734E+03  0.4732E+03
     -0.810  0.5520E+02  0.5629E+02  0.4763E+03  0.4762E+03
     -0.756  0.5087E+02  0.5151E+02  0.4791E+03  0.4789E+03
     -0.703  0.5592E+02  0.5474E+02  0.4820E+03  0.4818E+03
     -0.650  0.8323E+02  0.8497E+02  0.4865E+03  0.4864E+03
     -0.596  0.2677E+02  0.2715E+02  0.4879E+03  0.4878E+03
     -0.543  0.2681E+02  0.2732E+02  0.4893E+03  0.4893E+03
     -0.490  0.2347E+02  0.2240E+02  0.4906E+03  0.4905E+03
     -0.437  0.3181E+02  0.3291E+02  0.4923E+03  0.4922E+03
     -0.383  0.4231E+02  0.3960E+02  0.4945E+03  0.4943E+03
     -0.330  0.6905E+02  0.6914E+02  0.4982E+03  0.4980E+03
     -0.277  0.6856E+02  0.6744E+02  0.5019E+03  0.5016E+03
     -0.223  0.8610E+02  0.8678E+02  0.5064E+03  0.5062E+03
     -0.170  0.9816E+02  0.9899E+02  0.5117E+03  0.5115E+03
     -0.117  0.1275E+03  0.1234E+03  0.5185E+03  0.5181E+03
     -0.064  0.9996E+02  0.1024E+03  0.5238E+03  0.5235E+03
     -0.010  0.1068E+03  0.1067E+03  0.5295E+03  0.5292E+03
      0.043  0.9688E+02  0.9635E+02  0.5347E+03  0.5344E+03
      0.096  0.1487E+03  0.1472E+03  0.5426E+03  0.5422E+03
      0.150  0.1016E+03  0.1049E+03  0.5480E+03  0.5478E+03
      0.203  0.8500E+02  0.8651E+02  0.5525E+03  0.5524E+03
      0.256  0.8106E+02  0.7955E+02  0.5568E+03  0.5566E+03
      0.309  0.8673E+02  0.8418E+02  0.5615E+03  0.5611E+03
      0.363  0.8870E+02  0.9204E+02  0.5662E+03  0.5660E+03
      0.416  0.1150E+03  0.1113E+03  0.5723E+03  0.5720E+03
      0.469  0.9325E+02  0.9497E+02  0.5773E+03  0.5770E+03
      0.523  0.7948E+02  0.7920E+02  0.5815E+03  0.5812E+03
      0.576  0.1223E+03  0.1234E+03  0.5880E+03  0.5878E+03
      0.629  0.1229E+03  0.1221E+03  0.5946E+03  0.5943E+03
      0.683  0.1251E+03  0.1222E+03  0.6013E+03  0.6008E+03
      0.736  0.1515E+03  0.1542E+03  0.6093E+03  0.6091E+03
      0.789  0.1366E+03  0.1347E+03  0.6166E+03  0.6162E+03
      0.842  0.9919E+02  0.1026E+03  0.6219E+03  0.6217E+03
      0.896  0.1154E+03  0.1133E+03  0.6280E+03  0.6277E+03
      0.949  0.1046E+03  0.1052E+03  0.6336E+03  0.6333E+03
      1.002  0.1258E+03  0.1256E+03  0.6403E+03  0.6400E+03
      1.056  0.1336E+03  0.1294E+03  0.6474E+03  0.6469E+03
      1.109  0.1840E+03  0.1857E+03  0.6572E+03  0.6568E+03
      1.162  0.1685E+03  0.1690E+03  0.6662E+03  0.6658E+03
      1.215  0.1749E+03  0.1735E+03  0.6755E+03  0.6751E+03
      1.269  0.1744E+03  0.1751E+03  0.6848E+03  0.6844E+03
      1.322  0.2010E+03  0.1968E+03  0.6956E+03  0.6949E+03
      1.375  0.1614E+03  0.1665E+03  0.7042E+03  0.7038E+03
      1.429  0.1316E+03  0.1312E+03  0.7112E+03  0.7108E+03
      1.482  0.1635E+03  0.1598E+03  0.7199E+03  0.7193E+03
      1.535  0.2075E+03  0.2088E+03  0.7309E+03  0.7304E+03
      1.588  0.1965E+03  0.1974E+03  0.7414E+03  0.7409E+03
      1.642  0.1820E+03  0.1851E+03  0.7511E+03  0.7508E+03
      1.695  0.1859E+03  0.1846E+03  0.7610E+03  0.7606E+03
      1.748  0.2006E+03  0.1961E+03  0.7717E+03  0.7711E+03
      1.802  0.1593E+03  0.1646E+03  0.7802E+03  0.7798E+03
      1.855  0.1705E+03  0.1693E+03  0.7893E+03  0.7889E+03
      1.908  0.1670E+03  0.1646E+03  0.7982E+03  0.7976E+03
      1.961  0.2156E+03  0.2163E+03  0.8097E+03  0.8092E+03
      2.015  0.1481E+03  0.1489E+03  0.8176E+03  0.8171E+03
      2.068  0.1817E+03  0.1811E+03  0.8272E+03  0.8267E+03
      2.121  0.2105E+03  0.2089E+03  0.8385E+03  0.8379E+03
      2.175  0.1736E+03  0.1775E+03  0.8477E+03  0.8473E+03
      2.228  0.1502E+03  0.1455E+03  0.8557E+03  0.8551E+03
      2.281  0.1643E+03  0.1628E+03  0.8645E+03  0.8638E+03
      2.334  0.1406E+03  0.1456E+03  0.8720E+03  0.8715E+03
      2.388  0.2121E+03  0.2070E+03  0.8833E+03  0.8826E+03
      2.441  0.1537E+03  0.1587E+03  0.8915E+03  0.8910E+03
      2.494  0.1343E+03  0.1306E+03  0.8986E+03  0.8980E+03
      2.548  0.1421E+03  0.1447E+03  0.9062E+03  0.9057E+03
      2.601  0.1283E+03  0.1276E+03  0.9130E+03  0.9125E+03
      2.654  0.1313E+03  0.1315E+03  0.9200E+03  0.9195E+03
      2.707  0.1209E+03  0.1215E+03  0.9265E+03  0.9260E+03
      2.761  0.1631E+03  0.1572E+03  0.9352E+03  0.9344E+03
      2.814  0.1281E+03  0.1312E+03  0.9420E+03  0.9413E+03
      2.867  0.1459E+03  0.1454E+03  0.9498E+03  0.9491E+03
      2.921  0.1524E+03  0.1535E+03  0.9579E+03  0.9573E+03
      2.974  0.1030E+03  0.1043E+03  0.9634E+03  0.9628E+03
      3.027  0.1335E+03  0.1317E+03  0.9705E+03  0.9698E+03
      3.080  0.1306E+03  0.1282E+03  0.9774E+03  0.9767E+03
      3.134  0.1077E+03  0.1110E+03  0.9832E+03  0.9826E+03
      3.187  0.1119E+03  0.1107E+03  0.9892E+03  0.9885E+03
      3.240  0.1013E+03  0.1049E+03  0.9946E+03  0.9941E+03
      3.294  0.9640E+02  0.9439E+02  0.9997E+03  0.9991E+03
      3.347  0.1205E+03  0.1212E+03  0.1006E+04  0.1006E+04
      3.400  0.7904E+02  0.8225E+02  0.1010E+04  0.1010E+04
      3.454  0.7633E+02  0.7110E+02  0.1014E+04  0.1014E+04
      3.507  0.1050E+03  0.1064E+03  0.1020E+04  0.1019E+04
      3.560  0.9185E+02  0.9452E+02  0.1025E+04  0.1024E+04
      3.613  0.1054E+03  0.1011E+03  0.1030E+04  0.1030E+04
      3.667  0.6846E+02  0.6965E+02  0.1034E+04  0.1034E+04
      3.720  0.5840E+02  0.6537E+02  0.1037E+04  0.1037E+04
      3.773  0.4058E+02  0.2964E+02  0.1039E+04  0.1039E+04
      3.827  0.5051E+02  0.5953E+02  0.1042E+04  0.1042E+04
      3.880  0.3686E+02  0.3732E+02  0.1044E+04  0.1044E+04
      3.933  0.4981E+02  0.4381E+02  0.1047E+04  0.1046E+04
      3.986  0.6816E+02  0.6801E+02  0.1050E+04  0.1050E+04
      4.040  0.1073E+03  0.9262E+02  0.1056E+04  0.1055E+04
      4.093  0.1154E+03  0.1237E+03  0.1062E+04  0.1061E+04
      4.146  0.6886E+02  0.7745E+02  0.1066E+04  0.1065E+04
      4.200  0.1093E+03  0.1053E+03  0.1072E+04  0.1071E+04
      4.253  0.9288E+02  0.8719E+02  0.1077E+04  0.1076E+04
      4.306  0.1150E+03  0.1204E+03  0.1083E+04  0.1082E+04
      4.359  0.1265E+03  0.1217E+03  0.1090E+04  0.1089E+04
      4.413  0.1284E+03  0.1343E+03  0.1096E+04  0.1096E+04
      4.466  0.1218E+03  0.1164E+03  0.1103E+04  0.1102E+04
      4.519  0.9320E+02  0.1001E+03  0.1108E+04  0.1107E+04
      4.573  0.1006E+03  0.9532E+02  0.1113E+04  0.1112E+04
      4.626  0.1242E+03  0.1278E+03  0.1120E+04  0.1119E+04
      4.679  0.1076E+03  0.1066E+03  0.1126E+04  0.1125E+04
      4.732  0.1057E+03  0.1021E+03  0.1131E+04  0.1130E+04
      4.786  0.1208E+03  0.1230E+03  0.1138E+04  0.1137E+04
      4.839  0.1364E+03  0.1385E+03  0.1145E+04  0.1144E+04
      4.892  0.1055E+03  0.1068E+03  0.1151E+04  0.1150E+04
      4.946  0.1262E+03  0.1217E+03  0.1157E+04  0.1156E+04
      4.999  0.1164E+03  0.1178E+03  0.1163E+04  0.1163E+04
      5.052  0.1543E+03  0.1525E+03  0.1172E+04  0.1171E+04
      5.105  0.9245E+02  0.9917E+02  0.1177E+04  0.1176E+04
      5.159  0.1047E+03  0.1048E+03  0.1182E+04  0.1182E+04
      5.212  0.1004E+03  0.9863E+02  0.1188E+04  0.1187E+04
      5.265  0.8834E+02  0.9098E+02  0.1192E+04  0.1192E+04
      5.319  0.1082E+03  0.1073E+03  0.1198E+04  0.1197E+04
      5.372  0.1152E+03  0.1134E+03  0.1204E+04  0.1204E+04
      5.425  0.1390E+03  0.1407E+03  0.1212E+04  0.1211E+04
      5.478  0.1181E+03  0.1148E+03  0.1218E+04  0.1217E+04
      5.532  0.1679E+03  0.1685E+03  0.1227E+04  0.1226E+04
      5.585  0.1416E+03  0.1446E+03  0.1234E+04  0.1234E+04
      5.638  0.1424E+03  0.1429E+03  0.1242E+04  0.1241E+04
      5.692  0.9731E+02  0.1000E+03  0.1247E+04  0.1247E+04
      5.745  0.1203E+03  0.1193E+03  0.1254E+04  0.1253E+04
      5.798  0.1331E+03  0.1317E+03  0.1261E+04  0.1260E+04
      5.851  0.1096E+03  0.1117E+03  0.1266E+04  0.1266E+04
      5.905  0.9003E+02  0.1020E+03  0.1271E+04  0.1272E+04
      5.958  0.1417E+02  0.9238E+01  0.1272E+04  0.1272E+04
      6.011  0.0000E+00  0.0000E+00  0.1272E+04  0.1272E+04
      6.065  0.0000E+00  0.0000E+00  0.1272E+04  0.1272E+04
      6.118  0.0000E+00  0.0000E+00  0.1272E+04  0.1272E+04
      6.171  0.0000E+00  0.0000E+00  0.1272E+04  0.1272E+04
      6.224  0.0000E+00  0.0000E+00  0.1272E+04  0.1272E+04
      6.278  0.0000E+00  0.0000E+00  0.1272E+04  0.1272E+04
      6.331  0.0000E+00  0.0000E+00  0.1272E+04  0.1272E+04
      6.384  0.0000E+00  0.0000E+00  0.1272E+04  0.1272E+04
      6.438  0.0000E+00  0.0000E+00  0.1272E+04  0.1272E+04
      6.491  0.0000E+00  0.0000E+00  0.1272E+04  0.1272E+04
      6.544  0.0000E+00  0.0000E+00  0.1272E+04  0.1272E+04
      6.598  0.0000E+00  0.0000E+00  0.1272E+04  0.1272E+04
      6.651  0.0000E+00  0.0000E+00  0.1272E+04  0.1272E+04
