 vasp.6.4.3 19Mar24 (build Oct 22 2024 11:23:12) complex                        
  
 executed on             LinuxIFC date 2025.06.10  16:52:48
 running   64 mpi-ranks, on    4 nodes
 distrk:  each k-point on   64 cores,    1 groups
 distr:  one band on NCORE=  16 cores,    4 groups


--------------------------------------------------------------------------------------------------------


 INCAR:
   SYSTEM = Si and Ge interface calculation
   ISTART = 0
   ICHARG = 2
   LWAVE = .FALSE.
   LREAL = AUTO
   ENCUT = 700
   ENAUG = 900
   ADDGRID = .TRUE.
   LMAXMIX = 6
   LASPH = .TRUE.
   LMIXTAU = .TRUE.
   NCORE = 16
   NELM = 100
   NBANDS = 634
   EDIFF = 1d-7
   AMIX = 0.6
   ISMEAR = 0
   SIGMA = 0.01
   NELECT = 1056
   ISPIN = 2
   NUPDOWN = 1
   LVTOT = .FALSE.
   LVHAR = .TRUE.

 POTCAR:    PAW_PBE Si 05Jan2001                  
 POTCAR:    PAW_PBE Sn 08Apr2002                  
 -----------------------------------------------------------------------------
|                                                                             |
|           W    W    AA    RRRRR   N    N  II  N    N   GGGG   !!!           |
|           W    W   A  A   R    R  NN   N  II  NN   N  G    G  !!!           |
|           W    W  A    A  R    R  N N  N  II  N N  N  G       !!!           |
|           W WW W  AAAAAA  RRRRR   N  N N  II  N  N N  G  GGG   !            |
|           WW  WW  A    A  R   R   N   NN  II  N   NN  G    G                |
|           W    W  A    A  R    R  N    N  II  N    N   GGGG   !!!           |
|                                                                             |
|     You use a magnetic or noncollinear calculation, but did not specify     |
|     the initial magnetic moment with the MAGMOM tag. Note that a            |
|     default of 3.788e-3 will be used for all atoms. This ferromagnetic      |
|     setup may break the symmetry of the crystal, in particular it may       |
|     rule out finding an antiferromagnetic solution. Thence, we              |
|     recommend setting the initial magnetic moment manually or verifying     |
|     carefully that this magnetic setup is desired.                          |
|                                                                             |
 -----------------------------------------------------------------------------

 POTCAR:    PAW_PBE Si 05Jan2001                  
   VRHFIN =Si: s2p2                                                                                 
   LEXCH  = PE                                                                                      
   EATOM  =   103.0669 eV,    7.5752 Ry                                                             
                                                                                                    
   TITEL  = PAW_PBE Si 05Jan2001                                                                    
   LULTRA =        F    use ultrasoft PP ?                                                          
   IUNSCR =        1    unscreen: 0-lin 1-nonlin 2-no                                               
   RPACOR =    1.500    partial core radius                                                         
   POMASS =   28.085; ZVAL   =    4.000    mass and valenz                                          
   RCORE  =    1.900    outmost cutoff radius                                                       
   RWIGS  =    2.480; RWIGS  =    1.312    wigner-seitz radius (au A)                               
   ENMAX  =  245.345; ENMIN  =  184.009 eV                                                          
   ICORE  =        2    local potential                                                             
   LCOR   =        T    correct aug charges                                                         
   LPAW   =        T    paw PP                                                                      
   EAUG   =  322.069                                                                                
   DEXC   =    0.000                                                                                
   RMAX   =    1.950    core radius for proj-oper                                                   
   RAUG   =    1.300    factor for augmentation sphere                                              
   RDEP   =    1.993    radius for radial grids                                                     
   RDEPT  =    1.837    core radius for aug-charge                                                  
                                                                                                    
   Atomic configuration                                                                             
    6 entries                                                                                       
     n  l   j            E        occ.                                                              
     1  0  0.50     -1785.8828   2.0000                                                             
     2  0  0.50      -139.4969   2.0000                                                             
     2  1  1.50       -95.5546   6.0000                                                             
     3  0  0.50       -10.8127   2.0000                                                             
     3  1  0.50        -4.0811   2.0000                                                             
     3  2  1.50        -4.0817   0.0000                                                             
   Description                                                                                      
     l       E           TYP  RCUT    TYP  RCUT                                                     
     0    -10.8127223     23  1.900                                                                 
     0     -7.6451159     23  1.900                                                                 
     1     -4.0811372     23  1.900                                                                 
     1      2.4879257     23  1.900                                                                 
     2     -4.0817478      7  1.900                                                                 
  local pseudopotential read in
  partial core-charges read in
  partial kinetic energy density read in
  atomic valenz-charges read in
  non local Contribution for L=           0  read in
    real space projection operators read in
  non local Contribution for L=           0  read in
    real space projection operators read in
  non local Contribution for L=           1  read in
    real space projection operators read in
  non local Contribution for L=           1  read in
    real space projection operators read in
    PAW grid and wavefunctions read in
 
   number of l-projection  operators is LMAX  =           4
   number of lm-projection operators is LMMAX =           8
 
 POTCAR:    PAW_PBE Sn 08Apr2002                  
   VRHFIN =Sn: s2p2                                                                                 
   LEXCH  = PE                                                                                      
   EATOM  =    94.0860 eV,    6.9151 Ry                                                             
                                                                                                    
   TITEL  = PAW_PBE Sn 08Apr2002                                                                    
   LULTRA =        F    use ultrasoft PP ?                                                          
   IUNSCR =        1    unscreen: 0-lin 1-nonlin 2-no                                               
   RPACOR =    2.000    partial core radius                                                         
   POMASS =  118.710; ZVAL   =    4.000    mass and valenz                                          
   RCORE  =    3.000    outmost cutoff radius                                                       
   RWIGS  =    2.960; RWIGS  =    1.566    wigner-seitz radius (au A)                               
   ENMAX  =  103.236; ENMIN  =   77.427 eV                                                          
   ICORE  =        3    local potential                                                             
   LCOR   =        T    correct aug charges                                                         
   LPAW   =        T    paw PP                                                                      
   EAUG   =  263.585                                                                                
   DEXC   =    0.000                                                                                
   RMAX   =    3.078    core radius for proj-oper                                                   
   RAUG   =    1.300    factor for augmentation sphere                                              
   RDEP   =    3.022    radius for radial grids                                                     
   RDEPT  =    2.655    core radius for aug-charge                                                  
                                                                                                    
   Atomic configuration                                                                             
   13 entries                                                                                       
     n  l   j            E        occ.                                                              
     1  0  0.50    -29007.2859   2.0000                                                             
     2  0  0.50     -4378.8056   2.0000                                                             
     2  1  1.50     -3930.4293   6.0000                                                             
     3  0  0.50      -845.0264   2.0000                                                             
     3  1  1.50      -698.5725   6.0000                                                             
     3  2  2.50      -473.2839  10.0000                                                             
     4  0  0.50      -133.9036   2.0000                                                             
     4  1  1.50       -89.6752   6.0000                                                             
     4  2  2.50       -25.8375  10.0000                                                             
     5  0  0.50       -10.5484   2.0000                                                             
     5  1  0.50        -3.6940   2.0000                                                             
     5  2  1.50        -1.3606   0.0000                                                             
     4  3  2.50        -4.0817   0.0000                                                             
   Description                                                                                      
     l       E           TYP  RCUT    TYP  RCUT                                                     
     0    -10.5483727     23  3.000                                                                 
     0     27.2116520     23  3.000                                                                 
     1     -3.6939829     23  3.000                                                                 
     1      1.9821976     23  3.000                                                                 
     2     -1.3605826     23  3.000                                                                 
     3     -2.7211652     23  3.000                                                                 
  local pseudopotential read in
  partial core-charges read in
  partial kinetic energy density read in
  atomic valenz-charges read in
  non local Contribution for L=           0  read in
    real space projection operators read in
  non local Contribution for L=           0  read in
    real space projection operators read in
  non local Contribution for L=           1  read in
    real space projection operators read in
  non local Contribution for L=           1  read in
    real space projection operators read in
  non local Contribution for L=           2  read in
    real space projection operators read in
    PAW grid and wavefunctions read in
 
   number of l-projection  operators is LMAX  =           5
   number of lm-projection operators is LMMAX =          13
 
 Optimization of the real space projectors (new method)

 maximal supplied QI-value         = 19.84
 optimisation between [QCUT,QGAM] = [ 13.49, 26.99] = [ 50.98,203.92] Ry 
 Optimized for a Real-space Cutoff    1.07 Angstroem

   l    n(q)    QCUT    max X(q) W(low)/X(q) W(high)/X(q)  e(spline) 
   0      9    13.493   159.560    0.22E-03    0.15E-03    0.72E-07
   0      9    13.493   115.863    0.21E-03    0.15E-03    0.71E-07
   1      8    13.493    88.339    0.15E-03    0.11E-03    0.13E-06
   1      8    13.493    48.592    0.15E-03    0.10E-03    0.13E-06
 Optimization of the real space projectors (new method)

 maximal supplied QI-value         = 12.47
 optimisation between [QCUT,QGAM] = [ 12.47, 27.06] = [ 43.56,205.12] Ry 
 Optimized for a Real-space Cutoff    1.58 Angstroem

   l    n(q)    QCUT    max X(q) W(low)/X(q) W(high)/X(q)  e(spline) 
   0     13    12.472    14.688    0.45E-04    0.45E-04    0.25E-05
   0     13    12.472     7.308    0.94E-04    0.11E-03    0.61E-05
   1     12    12.472    45.102    0.34E-03    0.14E-03    0.21E-05
   1     12    12.472    30.691    0.31E-03    0.13E-03    0.20E-05
   2     12    12.472     7.156    0.86E-04    0.11E-03    0.17E-05
 WARNING: PSMAXN for non-local potential too small
          PSMAXN should be >   13.5545592237991       NTYP=           2
  PAW_PBE Si 05Jan2001                  :
 energy of atom  1       EATOM= -103.0669
 kinetic energy error for atom=    0.0003 (will be added to EATOM!!)
  PAW_PBE Sn 08Apr2002                  :
 energy of atom  2       EATOM=  -94.0860
 kinetic energy error for atom=    0.0000 (will be added to EATOM!!)
 
 
 POSCAR: Si+Sn
  positions in direct lattice
  No initial velocities read in


 exchange-correlation table for PE
   RHO(1)=    0.500       N(1)  =     2000
   RHO(2)=  100.500       N(2)  =     4000
 


--------------------------------------------------------------------------------------------------------


 ion  position               nearest neighbor table
   1  0.996  0.997  0.000- 145 2.35  49 2.35 101 2.93
   2  0.881  0.920  0.142-  76 2.35 146 2.35  50 2.35 145 2.35
   3  0.765  0.843  0.284-  77 2.35  51 2.35 147 2.35 146 2.35
   4  0.073  0.382  0.000-  43 2.35 154 2.35 106 2.92
   5  0.957  0.305  0.142-  73 2.35 160 2.35 155 2.35 154 2.35
   6  0.842  0.228  0.284-  74 2.35 262 2.35 155 2.35 156 2.35
   7  0.227  0.151  0.000- 195 2.35  46 2.35 186 2.93 246 3.43
   8  0.111  0.074  0.142-  49 2.35  47 2.35 195 2.35 119 2.35
   9  0.996  0.997  0.284-  50 2.35 163 2.35 220 2.35 119 2.35
  10  0.176  0.727  0.890- 189 2.30 148 2.82 216 2.82
  11  0.034  0.690  0.142-  40 2.35 122 2.35 121 2.35  53 2.35
  12  0.919  0.613  0.284-  41 2.35 123 2.35 169 2.35 122 2.35
  13  0.304  0.536  0.000-  22 2.28  55 2.35 162 2.35
  14  0.188  0.459  0.142-  43 2.35 125 2.35 172 2.35 162 2.35
  15  0.073  0.382  0.284- 160 2.35 211 2.35 126 2.35 125 2.35
  16  0.457  0.305  0.000- 168 2.35  58 2.35  20 2.91 246 3.44
  17  0.342  0.228  0.142-  46 2.35 232 2.35  59 2.35 168 2.35
  18  0.227  0.151  0.284-  47 2.35 223 2.35 175 2.35 232 2.35
  19  0.611  0.074  0.000- 130 2.35  61 2.35 118 2.91
  20  0.509  0.394  0.890- 171 2.82 228 2.82  16 2.91 261 2.93
  21  0.381  0.920  0.284-  65 2.35  63 2.35 132 2.35 187 2.35
  22  0.342  0.560  0.890-  13 2.28 216 2.82 171 2.82
  23  0.265  0.843  0.142-  52 2.35 134 2.35 252 2.35  65 2.35
  24  0.150  0.766  0.284-  53 2.35 166 2.35 135 2.35 134 2.35
  25  0.534  0.690  0.000-  79 2.28 136 2.35  67 2.35
  26  0.419  0.613  0.142-  55 2.35 137 2.35  68 2.35 136 2.35
  27  0.304  0.536  0.284- 172 2.35 138 2.35  69 2.35 137 2.35
  28  0.688  0.459  0.000- 139 2.35  70 2.35 133 2.90
  29  0.573  0.382  0.142-  58 2.35 140 2.35 139 2.35  71 2.35
  30  0.457  0.305  0.284- 141 2.35  59 2.35  72 2.35 140 2.35
  31  0.842  0.228  0.000- 142 2.35  73 2.35
  32  0.727  0.151  0.142-  61 2.35  74 2.35 143 2.35 142 2.35
  33  0.611  0.074  0.284-  62 2.35 144 2.35  75 2.35 143 2.35
  34  0.765  0.843  0.000- 159 2.35  76 2.35  94 2.90
  35  0.759  0.477  0.805- 133 2.82 210 2.82 200 2.82 251 2.82
  36  0.534  0.690  0.284-  68 2.35 181 2.35 150 2.35 149 2.35
  37  0.919  0.613  0.000-  40 2.35 151 2.35  97 2.93
  38  0.804  0.536  0.142-  70 2.35  41 2.35 152 2.35 151 2.35
  39  0.688  0.459  0.284- 229 2.35  71 2.35 153 2.35 152 2.35
  40  0.015  0.593  0.071-  37 2.35  11 2.35  82 2.35  83 2.35
  41  0.900  0.516  0.213-  83 2.35  38 2.35  12 2.35 235 2.35
  42  0.259  0.977  0.465- 132 2.28 256 2.82  96 2.82
  43  0.169  0.363  0.071-  14 2.35   4 2.35  86 2.35 264 2.35
  44  0.426  0.477  0.465-  69 2.30 190 2.82 259 2.82
  45  0.342  0.227  0.550-  84 2.82 218 2.82  48 2.82 164 2.82
  46  0.323  0.132  0.071-  17 2.35   7 2.35 207 2.35 255 2.35
  47  0.207  0.055  0.213-  18 2.35   8 2.35 255 2.35  90 2.35
  48  0.426  0.144  0.465- 184 2.82  45 2.82 144 2.90 223 2.92
  49  0.092  0.978  0.071-   8 2.35   1 2.35 222 2.35  92 2.35
  50  0.977  0.901  0.213-   9 2.35   2 2.35  92 2.35 196 2.35
  51  0.861  0.824  0.355-   3 2.35 196 2.35  66 2.91
  52  0.246  0.747  0.071-  23 2.35 189 2.35 249 2.35  95 2.35
  53  0.131  0.670  0.213-  24 2.35  95 2.35  11 2.35 202 2.35
  54  0.759  0.477  0.465- 229 2.28 199 2.82 241 2.82
  55  0.400  0.516  0.071-  26 2.35 261 2.35  13 2.35  98 2.35
  56  0.759  0.144  0.465- 102 2.82 244 2.82  75 2.91 156 2.93
  57  0.592  0.977  0.465- 238 2.82 184 2.82
  58  0.554  0.286  0.071-  29 2.35 258 2.35 100 2.35  16 2.35
  59  0.438  0.209  0.213-  30 2.35 193 2.35  17 2.35 258 2.35
  60  0.926  0.644  0.465- 250 2.82  93 2.82 169 2.90 123 2.92
  61  0.707  0.055  0.071-  32 2.35 104 2.35 103 2.35  19 2.35
  62  0.592  0.978  0.213-  33 2.35 105 2.35 104 2.35 201 2.35
  63  0.477  0.901  0.355-  21 2.35 105 2.35  87 2.93
  64  0.477  0.901  0.071- 201 2.35 192 2.35 243 2.35 107 2.35
  65  0.361  0.824  0.213-  21 2.35 107 2.35  23 2.35 108 2.35
  66  0.759  0.810  0.465-  93 2.82 238 2.82  51 2.91 147 2.93
  67  0.631  0.670  0.071- 180 2.35 109 2.35  25 2.35 110 2.35
  68  0.515  0.593  0.213-  36 2.35 110 2.35  26 2.35 111 2.35
  69  0.400  0.516  0.355-  44 2.30 111 2.35  27 2.35
  70  0.784  0.440  0.071-  38 2.35 240 2.35 113 2.35  28 2.35
  71  0.669  0.363  0.213-  39 2.35 114 2.35 113 2.35  29 2.35
  72  0.554  0.286  0.355- 217 2.28 114 2.35  30 2.35
  73  0.938  0.209  0.071-   5 2.35 198 2.35  80 2.35  31 2.35
  74  0.823  0.132  0.213-   6 2.35  80 2.35  32 2.35  81 2.35
  75  0.707  0.055  0.355-  81 2.35  33 2.35  56 2.91
  76  0.861  0.824  0.071-   2 2.35 115 2.35  34 2.35 116 2.35
  77  0.746  0.747  0.213-   3 2.35 116 2.35 180 2.35 117 2.35
  78  0.092  0.144  0.465- 175 2.29 253 2.82  96 2.82
  79  0.509  0.727  0.890-  25 2.28 127 2.82 225 2.82
  80  0.919  0.113  0.142- 145 2.35  74 2.35 119 2.35  73 2.35
  81  0.804  0.036  0.284-  75 2.35 146 2.35 220 2.35  74 2.35
  82  0.111  0.574  0.000-  40 2.35 162 2.35  97 2.91
  83  0.996  0.497  0.142- 154 2.35  41 2.35  40 2.35 125 2.35
  84  0.259  0.310  0.465-  45 2.82 208 2.82 141 2.91 211 2.93
  85  0.009  0.227  0.890- 198 2.28 237 2.82 165 2.82
  86  0.150  0.266  0.142- 195 2.35  43 2.35 232 2.35 160 2.35
  87  0.426  0.810  0.465- 131 2.82 256 2.82 150 2.90  63 2.93
  88  0.842  0.727  0.890- 177 2.82 234 2.82
  89  0.676  0.227  0.890- 100 2.30 183 2.82 228 2.82
  90  0.188  0.959  0.284- 134 2.35 132 2.35 163 2.35  47 2.35
  91  0.592  0.977  0.805- 239 2.82  94 2.82 194 2.82 118 2.82
  92  0.073  0.882  0.142- 121 2.35  50 2.35 134 2.35  49 2.35
  93  0.842  0.727  0.550-  66 2.82 176 2.82  60 2.82 224 2.82
  94  0.676  0.894  0.890-  91 2.82 177 2.82  34 2.90 192 2.92
  95  0.227  0.651  0.142- 162 2.35  53 2.35 137 2.35  52 2.35
  96  0.176  0.060  0.550- 164 2.82  78 2.82 230 2.82  42 2.82
  97  0.009  0.560  0.890- 234 2.82 124 2.82  82 2.91  37 2.93
  98  0.381  0.420  0.142- 168 2.35 172 2.35 140 2.35  55 2.35
  99  0.265  0.343  0.284- 232 2.35 211 2.35 141 2.35 172 2.35
 100  0.650  0.266  0.000-  89 2.30  58 2.35 142 2.35
 101  0.009  0.894  0.890- 231 2.82 148 2.82 115 2.91   1 2.93
 102  0.842  0.060  0.550-  56 2.82 182 2.82 120 2.82 221 2.82
 103  0.804  0.036  0.000- 204 2.28  61 2.35 145 2.35
 104  0.688  0.959  0.142- 159 2.35  61 2.35  62 2.35 146 2.35
 105  0.573  0.882  0.284- 149 2.35  62 2.35 147 2.35  63 2.35
 106  0.176  0.394  0.890- 124 2.82 219 2.82 264 2.90   4 2.92
 107  0.457  0.805  0.142- 136 2.35  65 2.35  64 2.35 149 2.35
 108  0.342  0.728  0.284- 137 2.35 166 2.35 150 2.35  65 2.35
 109  0.727  0.651  0.000-  67 2.35 151 2.35 133 2.93
 110  0.611  0.574  0.142- 139 2.35  68 2.35 152 2.35  67 2.35
 111  0.496  0.497  0.284- 140 2.35  69 2.35 153 2.35  68 2.35
 112  0.342  0.894  0.890- 243 2.29 213 2.82 127 2.82
 113  0.765  0.343  0.142- 155 2.35 142 2.35  70 2.35  71 2.35
 114  0.650  0.266  0.284- 156 2.35  71 2.35 143 2.35  72 2.35
 115  0.957  0.805  0.000- 121 2.35  76 2.35 101 2.91
 116  0.842  0.728  0.142- 151 2.35  77 2.35 122 2.35  76 2.35
 117  0.727  0.651  0.284- 152 2.35 123 2.35 181 2.35  77 2.35
 118  0.509  0.060  0.890- 174 2.82  91 2.82  19 2.91 207 2.93
 119  0.015  0.093  0.213- 157 2.35  80 2.35   8 2.35   9 2.35
 120  0.926  0.977  0.465- 220 2.30 247 2.82 102 2.82
 121  0.054  0.786  0.071-  92 2.35 115 2.35 189 2.35  11 2.35
 122  0.938  0.709  0.213- 196 2.35 116 2.35  11 2.35  12 2.35
 123  0.823  0.632  0.355- 117 2.35  12 2.35  60 2.92
 124  0.092  0.477  0.805- 260 2.82 106 2.82 209 2.82  97 2.82
 125  0.092  0.478  0.213- 202 2.35  14 2.35  83 2.35  15 2.35
 126  0.977  0.401  0.355- 235 2.35  15 2.35 226 2.93 178 3.43
 127  0.426  0.810  0.805-  79 2.82 188 2.82 239 2.82 112 2.82
 128  0.259  0.644  0.465- 259 2.82 205 2.82 138 2.91 166 2.93
 129  0.092  0.810  0.465- 135 2.28 247 2.82 205 2.82
 130  0.515  0.093  0.071- 258 2.35  19 2.35 207 2.35 201 2.35
 131  0.509  0.727  0.550-  87 2.82 167 2.82 214 2.82 215 2.82
 132  0.284  0.940  0.355-  42 2.28  21 2.35  90 2.35
 133  0.676  0.560  0.890- 225 2.82  35 2.82  28 2.90 109 2.93
 134  0.169  0.863  0.213-  90 2.35  23 2.35  24 2.35  92 2.35
 135  0.054  0.786  0.355- 129 2.28  24 2.35 196 2.35
 136  0.438  0.709  0.071- 107 2.35 249 2.35  25 2.35  26 2.35
 137  0.323  0.632  0.213- 108 2.35  95 2.35  26 2.35  27 2.35
 138  0.207  0.555  0.355- 202 2.35  27 2.35 128 2.91 178 3.44
 139  0.592  0.478  0.071- 110 2.35  28 2.35 261 2.35  29 2.35
 140  0.477  0.401  0.213- 111 2.35  29 2.35  98 2.35  30 2.35
 141  0.361  0.324  0.355-  30 2.35  99 2.35  84 2.91
 142  0.746  0.247  0.071-  31 2.35 113 2.35 100 2.35  32 2.35
 143  0.631  0.170  0.213- 258 2.35 114 2.35  32 2.35  33 2.35
 144  0.515  0.093  0.355-  33 2.35 193 2.35  48 2.90
 145  0.900  0.016  0.071-   1 2.35  80 2.35 103 2.35   2 2.35
 146  0.784  0.940  0.213-  81 2.35   2 2.35 104 2.35   3 2.35
 147  0.669  0.863  0.355-   3 2.35 105 2.35  66 2.93
 148  0.092  0.810  0.805-  10 2.82 206 2.82 257 2.82 101 2.82
 149  0.554  0.786  0.213- 105 2.35 180 2.35 107 2.35  36 2.35
 150  0.438  0.709  0.355- 108 2.35  36 2.35  87 2.90
 151  0.823  0.632  0.071- 116 2.35  37 2.35  38 2.35 109 2.35
 152  0.707  0.555  0.213- 117 2.35  38 2.35  39 2.35 110 2.35
 153  0.592  0.478  0.355- 111 2.35  39 2.35
 154  0.977  0.401  0.071-  83 2.35 240 2.35   4 2.35   5 2.35
 155  0.861  0.324  0.213- 235 2.35 113 2.35   5 2.35   6 2.35
 156  0.746  0.247  0.355- 114 2.35   6 2.35  56 2.93
 157  0.034  0.190  0.284- 119 2.35 175 2.35 160 2.35 262 2.35
 158  0.259  0.810  0.635- 205 2.82 188 2.82 257 2.82 256 2.82
 159  0.669  0.863  0.071- 104 2.35  34 2.35 192 2.35 180 2.35
 160  0.054  0.286  0.213-  15 2.35   5 2.35 157 2.35  86 2.35
 161  0.259  0.477  0.635- 208 2.82 260 2.82 191 2.82 259 2.82
 162  0.207  0.555  0.071-  95 2.35  82 2.35  13 2.35  14 2.35
 163  0.092  0.978  0.355-   9 2.35  90 2.35
 164  0.259  0.144  0.635-  96 2.82 185 2.82 263 2.82  45 2.82
 165  0.092  0.144  0.805- 186 2.82 203 2.82 263 2.82  85 2.82
 166  0.246  0.747  0.355- 108 2.35  24 2.35 128 2.93
 167  0.592  0.810  0.635- 197 2.82 131 2.82 239 2.82 238 2.82
 168  0.361  0.324  0.071-  98 2.35 264 2.35  16 2.35  17 2.35
 169  0.015  0.593  0.355-  12 2.35 202 2.35  60 2.90 178 3.45
 170  0.592  0.477  0.635- 200 2.82 242 2.82 241 2.82 190 2.82
 171  0.426  0.477  0.805-  20 2.82 242 2.82 191 2.82  22 2.82
 172  0.284  0.440  0.213-  27 2.35  98 2.35  14 2.35  99 2.35
 173  0.592  0.144  0.635- 194 2.82 184 2.82 245 2.82 244 2.82
 174  0.426  0.144  0.805- 118 2.82 185 2.82 245 2.82 246 2.82
 175  0.131  0.170  0.355-  78 2.29 157 2.35  18 2.35
 176  0.926  0.810  0.635- 248 2.82 206 2.82  93 2.82 247 2.82
 177  0.759  0.810  0.805-  88 2.82 197 2.82  94 2.82 248 2.82
 178  0.092  0.477  0.465- 250 2.82 208 2.82 211 3.41 126 3.43 138 3.44 169 3.45
 179  0.926  0.477  0.635- 251 2.82 209 2.82 250 2.82 199 2.82
 180  0.650  0.766  0.142-  67 2.35 149 2.35  77 2.35 159 2.35
 181  0.631  0.670  0.355- 214 2.29 117 2.35  36 2.35
 182  0.926  0.144  0.635- 254 2.82 203 2.82 102 2.82 253 2.82
 183  0.759  0.144  0.805- 204 2.82 194 2.82  89 2.82 254 2.82
 184  0.509  0.060  0.550-  48 2.82 173 2.82  57 2.82 212 2.82
 185  0.342  0.060  0.720- 164 2.82 212 2.82 174 2.82 213 2.82
 186  0.176  0.060  0.890- 165 2.82 213 2.82 222 2.90   7 2.93
 187  0.400  0.016  0.213- 193 2.35 201 2.35 255 2.35  21 2.35
 188  0.342  0.727  0.720- 158 2.82 127 2.82 215 2.82 216 2.82
 189  0.150  0.766  0.000-  10 2.30  52 2.35 121 2.35
 190  0.509  0.394  0.550- 217 2.82  44 2.82 170 2.82 218 2.82
 191  0.342  0.394  0.720- 218 2.82 219 2.82 161 2.82 171 2.82
 192  0.573  0.882  0.000-  64 2.35 159 2.35  94 2.92
 193  0.419  0.113  0.284- 187 2.35 144 2.35  59 2.35 223 2.35
 194  0.676  0.060  0.720- 173 2.82 183 2.82 221 2.82  91 2.82
 195  0.131  0.170  0.071-  86 2.35   7 2.35 198 2.35   8 2.35
 196  0.957  0.805  0.284- 122 2.35  51 2.35 135 2.35  50 2.35
 197  0.676  0.727  0.720- 167 2.82 177 2.82 224 2.82 225 2.82
 198  0.034  0.190  0.000-  85 2.28  73 2.35 195 2.35
 199  0.842  0.394  0.550- 226 2.82  54 2.82 227 2.82 179 2.82
 200  0.676  0.394  0.720- 227 2.82 228 2.82 170 2.82  35 2.82
 201  0.496  0.997  0.142-  64 2.35 187 2.35 130 2.35  62 2.35
 202  0.111  0.574  0.284- 125 2.35 138 2.35 169 2.35  53 2.35
 203  0.009  0.060  0.720- 165 2.82 182 2.82 231 2.82 230 2.82
 204  0.842  0.060  0.890- 103 2.28 183 2.82 231 2.82
 205  0.176  0.727  0.550- 158 2.82 129 2.82 233 2.82 128 2.82
 206  0.009  0.727  0.720- 148 2.82 176 2.82 234 2.82 233 2.82
 207  0.419  0.113  0.000- 130 2.35  46 2.35 118 2.93 246 3.41
 208  0.176  0.394  0.550- 236 2.82 161 2.82  84 2.82 178 2.82
 209  0.009  0.394  0.720- 237 2.82 124 2.82 236 2.82 179 2.82
 210  0.842  0.394  0.890- 240 2.29  35 2.82 237 2.82
 211  0.169  0.363  0.355-  99 2.35  15 2.35  84 2.93 178 3.41
 212  0.426  0.977  0.635- 256 2.82 185 2.82 239 2.82 184 2.82
 213  0.259  0.977  0.805- 257 2.82 112 2.82 186 2.82 185 2.82
 214  0.592  0.644  0.465- 181 2.29 241 2.82 131 2.82
 215  0.426  0.644  0.635- 259 2.82 188 2.82 242 2.82 131 2.82
 216  0.259  0.644  0.805- 260 2.82  22 2.82  10 2.82 188 2.82
 217  0.592  0.310  0.465-  72 2.28 190 2.82 244 2.82
 218  0.426  0.310  0.635- 191 2.82  45 2.82 245 2.82 190 2.82
 219  0.259  0.310  0.805- 106 2.82 191 2.82 263 2.82 246 2.82
 220  0.900  0.016  0.355- 120 2.30   9 2.35  81 2.35
 221  0.759  0.977  0.635- 238 2.82 194 2.82 248 2.82 102 2.82
 222  0.188  0.959  0.000- 252 2.35  49 2.35 186 2.90
 223  0.323  0.132  0.355-  18 2.35 193 2.35  48 2.92
 224  0.759  0.644  0.635- 241 2.82 197 2.82 251 2.82  93 2.82
 225  0.592  0.644  0.805- 242 2.82 133 2.82 197 2.82  79 2.82
 226  0.926  0.310  0.465- 199 2.82 253 2.82 262 2.90 126 2.93
 227  0.759  0.310  0.635- 200 2.82 244 2.82 199 2.82 254 2.82
 228  0.592  0.310  0.805- 200 2.82 245 2.82  20 2.82  89 2.82
 229  0.784  0.440  0.355-  54 2.28  39 2.35 235 2.35
 230  0.092  0.977  0.635- 257 2.82 247 2.82  96 2.82 203 2.82
 231  0.926  0.977  0.805- 101 2.82 248 2.82 203 2.82 204 2.82
 232  0.246  0.247  0.213-  99 2.35  17 2.35  86 2.35  18 2.35
 233  0.092  0.644  0.635- 260 2.82 250 2.82 205 2.82 206 2.82
 234  0.926  0.644  0.805-  97 2.82 251 2.82 206 2.82  88 2.82
 235  0.881  0.420  0.284- 155 2.35 229 2.35 126 2.35  41 2.35
 236  0.092  0.310  0.635- 263 2.82 208 2.82 209 2.82 253 2.82
 237  0.926  0.310  0.805-  85 2.82 209 2.82 254 2.82 210 2.82
 238  0.676  0.894  0.550-  57 2.82 221 2.82 167 2.82  66 2.82
 239  0.509  0.894  0.720-  91 2.82 212 2.82 167 2.82 127 2.82
 240  0.881  0.420  0.000- 210 2.29  70 2.35 154 2.35
 241  0.676  0.560  0.550- 214 2.82 224 2.82 170 2.82  54 2.82
 242  0.509  0.560  0.720- 225 2.82 170 2.82 215 2.82 171 2.82
 243  0.381  0.920  0.000- 112 2.29 252 2.35  64 2.35
 244  0.676  0.227  0.550- 217 2.82 227 2.82 173 2.82  56 2.82
 245  0.509  0.227  0.720- 173 2.82 228 2.82 174 2.82 218 2.82
 246  0.342  0.227  0.890- 219 2.82 174 2.82 207 3.41   7 3.43  16 3.44 264 3.45
 247  0.009  0.894  0.550- 120 2.82 129 2.82 230 2.82 176 2.82
 248  0.842  0.894  0.720- 231 2.82 176 2.82 221 2.82 177 2.82
 249  0.342  0.728  0.000- 136 2.35  52 2.35
 250  0.009  0.560  0.550- 178 2.82  60 2.82 233 2.82 179 2.82
 251  0.842  0.560  0.720- 234 2.82 179 2.82 224 2.82  35 2.82
 252  0.284  0.940  0.071- 255 2.35 243 2.35 222 2.35  23 2.35
 253  0.009  0.227  0.550-  78 2.82 226 2.82 236 2.82 182 2.82
 254  0.842  0.227  0.720- 182 2.82 237 2.82 227 2.82 183 2.82
 255  0.304  0.036  0.142- 252 2.35  46 2.35  47 2.35 187 2.35
 256  0.342  0.894  0.550-  42 2.82 212 2.82  87 2.82 158 2.82
 257  0.176  0.894  0.720- 230 2.82 148 2.82 213 2.82 158 2.82
 258  0.534  0.190  0.142- 130 2.35 143 2.35  58 2.35  59 2.35
 259  0.342  0.560  0.550- 128 2.82 215 2.82  44 2.82 161 2.82
 260  0.176  0.560  0.720- 233 2.82 124 2.82 216 2.82 161 2.82
 261  0.496  0.497  0.000-  55 2.35 139 2.35  20 2.93
 262  0.938  0.209  0.355-   6 2.35 157 2.35 226 2.90
 263  0.176  0.227  0.720- 236 2.82 165 2.82 164 2.82 219 2.82
 264  0.265  0.343  0.000- 168 2.35  43 2.35 106 2.90 246 3.45
 
  LATTYP: Found a simple tetragonal cell.
 ALAT       =    19.5817508700
 C/A-ratio  =     0.9754107470
  
  Lattice vectors:
  
 A1 = (  19.5817508700,   0.0000000000,   0.0000000000)
 A2 = (   0.0000000000,  19.5817489620,   0.0000000000)
 A3 = (   0.0000000000,   0.0000000000,  19.1002502440)


Analysis of symmetry for initial positions (statically):
=====================================================================
 Subroutine PRICEL returns:
 Original cell was already a primitive cell.
 

 Routine SETGRP: Setting up the symmetry group for a 
 simple tetragonal supercell.


 Subroutine GETGRP returns: Found  1 space group operations
 (whereof  1 operations were pure point group operations)
 out of a pool of 16 trial point group operations.


The static configuration has the point symmetry C_1 .


Analysis of symmetry for dynamics (positions and initial velocities):
=====================================================================
 Subroutine PRICEL returns:
 Original cell was already a primitive cell.
 

 Routine SETGRP: Setting up the symmetry group for a 
 simple tetragonal supercell.


 Subroutine GETGRP returns: Found  1 space group operations
 (whereof  1 operations were pure point group operations)
 out of a pool of 16 trial point group operations.


The dynamic configuration has the point symmetry C_1 .


Analysis of structural, dynamic, and magnetic symmetry:
=====================================================================
 Subroutine PRICEL returns:
 Original cell was already a primitive cell.
 

 Routine SETGRP: Setting up the symmetry group for a 
 simple tetragonal supercell.


 Subroutine GETGRP returns: Found  1 space group operations
 (whereof  1 operations were pure point group operations)
 out of a pool of 16 trial point group operations.


The overall configuration has the point symmetry C_1 .


 Subroutine INISYM returns: Found  1 space group operations
 (whereof  1 operations are pure point group operations),
 and found     1 'primitive' translations


----------------------------------------------------------------------------------------

                                     Primitive cell                                     

  volume of cell :    7323.8941

  direct lattice vectors                    reciprocal lattice vectors
    19.581750870  0.000000000  0.000000000     0.051067956  0.000000000  0.000000000
     0.000000000 19.581748962  0.000000000     0.000000000  0.051067961  0.000000000
     0.000000000  0.000000000 19.100250244     0.000000000  0.000000000  0.052355335

  length of vectors
    19.581750870 19.581748962 19.100250244     0.051067956  0.051067961  0.052355335

  position of ions in fractional coordinates (direct lattice)
     0.995893002  0.997262001  0.000000000
     0.880508363  0.920338869  0.142170906
     0.765123725  0.843415737  0.284341902
     0.072816126  0.381877452  0.000000000
     0.957431436  0.304954290  0.142170906
     0.842046797  0.228031158  0.284341902
     0.226662278  0.151108176  0.000000000
     0.111277618  0.074185051  0.142170906
     0.995892942  0.997261941  0.284341902
     0.175804257  0.726923168  0.890053868
     0.034354534  0.689569712  0.142170906
     0.918969870  0.612646580  0.284341902
     0.303585410  0.535723567  0.000000000
     0.188200727  0.458800435  0.142170906
     0.072816066  0.381877303  0.284341902
     0.457431555  0.304954350  0.000000000
     0.342046857  0.228031203  0.142170906
     0.226662204  0.151108071  0.284341902
     0.611277699  0.074185103  0.000000000
     0.509137630  0.393589735  0.890053868
     0.380508363  0.920338809  0.284341902
     0.342471004  0.560256481  0.890053868
     0.265123844  0.843415916  0.142170906
     0.149739176  0.766492724  0.284341902
     0.534354627  0.689569712  0.000000000
     0.418969929  0.612646580  0.142170906
     0.303585261  0.535723448  0.284341902
     0.688200712  0.458800495  0.000000000
     0.572816074  0.381877363  0.142170906
     0.457431376  0.304954231  0.284341902
     0.842046916  0.228031188  0.000000000
     0.726662278  0.151108041  0.142170906
     0.611277580  0.074184909  0.284341902
     0.765123904  0.843415856  0.000000000
     0.759137690  0.476923108  0.805117786
     0.534354568  0.689569592  0.284341902
     0.918970048  0.612646639  0.000000000
     0.803585410  0.535723507  0.142170906
     0.688200712  0.458800375  0.284341902
     0.015123837  0.593415856  0.071085475
     0.899739206  0.516492724  0.213256419
     0.259137750  0.976923048  0.465373576
     0.168969959  0.362646669  0.071085475
     0.425804377  0.476923108  0.465373576
     0.342471004  0.226923093  0.550309598
     0.322816133  0.131877407  0.071085475
     0.207431450  0.054954268  0.213256419
     0.425804377  0.143589750  0.465373576
     0.092046887  0.978031278  0.071085475
     0.976662219  0.901108146  0.213256419
     0.861277521  0.824185014  0.355427384
     0.245893061  0.747262061  0.071085475
     0.130508408  0.670338929  0.213256419
     0.759137690  0.476923108  0.465373576
     0.399739265  0.516492844  0.071085475
     0.759137690  0.143589750  0.465373576
     0.592471004  0.976923048  0.465373576
     0.553585410  0.285723537  0.071085475
     0.438200712  0.208800390  0.213256419
     0.925804377  0.643589735  0.465373576
     0.707431555  0.054954302  0.071085475
     0.592046857  0.978031158  0.213256419
     0.476662189  0.901108027  0.355427384
     0.476662397  0.901108205  0.071085475
     0.361277699  0.824185073  0.213256419
     0.759137690  0.810256422  0.465373576
     0.630508542  0.670338988  0.071085475
     0.515123844  0.593415797  0.213256419
     0.399739146  0.516492665  0.355427384
     0.784354687  0.439569712  0.071085475
     0.668969989  0.362646550  0.213256419
     0.553585291  0.285723418  0.355427384
     0.938200831  0.208800495  0.071085475
     0.822816133  0.131877348  0.213256419
     0.707431436  0.054954205  0.355427384
     0.861277878  0.824185133  0.071085475
     0.745893180  0.747262001  0.213256419
     0.092471004  0.143589750  0.465373576
     0.509137630  0.726923168  0.890053868
     0.918969929  0.112646602  0.142170906
     0.803585231  0.035723470  0.284341902
     0.111277662  0.574185073  0.000000000
     0.995893002  0.497262001  0.142170906
     0.259137750  0.310256422  0.465373576
     0.009137630  0.226923093  0.890053868
     0.149739191  0.266492784  0.142170906
     0.425804377  0.810256422  0.465373576
     0.842471004  0.726923168  0.890053868
     0.675804377  0.226923093  0.890053868
     0.188200638  0.958800316  0.284341902
     0.592471004  0.976923048  0.805117786
     0.072816059  0.881877303  0.142170906
     0.842471004  0.726923168  0.550309598
     0.675804377  0.893589795  0.890053868
     0.226662233  0.651108146  0.142170906
     0.175804377  0.060256481  0.550309598
     0.009137630  0.560256481  0.890053868
     0.380508423  0.420338869  0.142170906
     0.265123725  0.343415737  0.284341902
     0.649739265  0.266492784  0.000000000
     0.009137630  0.893589795  0.890053868
     0.842471004  0.060256481  0.550309598
     0.803585410  0.035723574  0.000000000
     0.688200712  0.958800435  0.142170906
     0.572816074  0.881877303  0.284341902
     0.175804257  0.393589735  0.890053868
     0.457431436  0.804954290  0.142170906
     0.342046797  0.728031099  0.284341902
     0.726662338  0.651108146  0.000000000
     0.611277640  0.574185014  0.142170906
     0.495892942  0.497261852  0.284341902
     0.342471004  0.893589795  0.890053868
     0.765123844  0.343415856  0.142170906
     0.649739146  0.266492724  0.284341902
     0.957431614  0.804954290  0.000000000
     0.842046916  0.728031158  0.142170906
     0.726662278  0.651108027  0.284341902
     0.509137630  0.060256481  0.890053868
     0.015123768  0.093415834  0.213256419
     0.925804377  0.976923048  0.465373576
     0.053585343  0.785723627  0.071085475
     0.938200712  0.708800435  0.213256419
     0.822816014  0.631877303  0.355427384
     0.092471004  0.476923108  0.805117786
     0.092046872  0.478031248  0.213256419
     0.976662159  0.401108086  0.355427384
     0.425804377  0.810256422  0.805117786
     0.259137750  0.643589735  0.465373576
     0.092471004  0.810256422  0.465373576
     0.515123844  0.093415849  0.071085475
     0.509137690  0.726923168  0.550309598
     0.284354508  0.939569533  0.355427384
     0.675804377  0.560256481  0.890053868
     0.168969989  0.862646639  0.213256419
     0.053585291  0.785723507  0.355427384
     0.438200772  0.708800614  0.071085475
     0.322816074  0.631877422  0.213256419
     0.207431406  0.554954290  0.355427384
     0.592046976  0.478031278  0.071085475
     0.476662278  0.401108146  0.213256419
     0.361277610  0.324185014  0.355427384
     0.745893121  0.247262001  0.071085475
     0.630508423  0.170338869  0.213256419
     0.515123785  0.093415722  0.355427384
     0.899739265  0.016492788  0.071085475
     0.784354568  0.939569652  0.213256419
     0.668969929  0.862646520  0.355427384
     0.092471004  0.810256422  0.805117786
     0.553585410  0.785723627  0.213256419
     0.438200712  0.708800495  0.355427384
     0.822816253  0.631877422  0.071085475
     0.707431555  0.554954290  0.213256419
     0.592046797  0.478031129  0.355427384
     0.976662278  0.401108235  0.071085475
     0.861277580  0.324185073  0.213256419
     0.745892882  0.247261927  0.355427384
     0.034354493  0.189569652  0.284341902
     0.259137630  0.810256422  0.635245681
     0.668970108  0.862646759  0.071085475
     0.053585295  0.285723537  0.213256419
     0.259137630  0.476923108  0.635245681
     0.207431525  0.554954410  0.071085475
     0.092046767  0.978031158  0.355427384
     0.259137630  0.143589750  0.635245681
     0.092471004  0.143589750  0.805117786
     0.245893002  0.747261941  0.355427384
     0.592471004  0.810256422  0.635245681
     0.361277699  0.324185133  0.071085475
     0.015123715  0.593415797  0.355427384
     0.592471004  0.476923108  0.635245681
     0.425804377  0.476923108  0.805117786
     0.284354597  0.439569682  0.213256419
     0.592471004  0.143589750  0.635245681
     0.425804377  0.143589750  0.805117786
     0.130508333  0.170338854  0.355427384
     0.925804377  0.810256422  0.635245681
     0.759137690  0.810256422  0.805117786
     0.092471004  0.476923108  0.465373576
     0.925804377  0.476923108  0.635245681
     0.649739265  0.766492724  0.142170906
     0.630508423  0.670338809  0.355427384
     0.925804377  0.143589750  0.635245681
     0.759137690  0.143589750  0.805117786
     0.509137690  0.060256481  0.550309598
     0.342471004  0.060256481  0.720181704
     0.175804257  0.060256481  0.890053868
     0.399739206  0.016492724  0.213256419
     0.342471004  0.726923168  0.720181704
     0.149739221  0.766492844  0.000000000
     0.509137690  0.393589735  0.550309598
     0.342471004  0.393589735  0.720181704
     0.572816133  0.881877363  0.000000000
     0.418969929  0.112646520  0.284341902
     0.675804317  0.060256481  0.720181704
     0.130508438  0.170338959  0.071085475
     0.957431376  0.804954231  0.284341902
     0.675804317  0.726923168  0.720181704
     0.034354586  0.189569741  0.000000000
     0.842471004  0.393589735  0.550309598
     0.675804317  0.393589735  0.720181704
     0.495893002  0.997261941  0.142170906
     0.111277573  0.574185014  0.284341902
     0.009137750  0.060256481  0.720181704
     0.842471004  0.060256481  0.890053868
     0.175804377  0.726923168  0.550309598
     0.009137750  0.726923168  0.720181704
     0.418969989  0.112646602  0.000000000
     0.175804377  0.393589735  0.550309598
     0.009137750  0.393589735  0.720181704
     0.842471004  0.393589735  0.890053868
     0.168969929  0.362646550  0.355427384
     0.425804257  0.976923048  0.635245681
     0.259137630  0.976923048  0.805117786
     0.592471004  0.643589735  0.465373576
     0.425804257  0.643589735  0.635245681
     0.259137630  0.643589735  0.805117786
     0.592471004  0.310256422  0.465373576
     0.425804257  0.310256422  0.635245681
     0.259137630  0.310256422  0.805117786
     0.899739087  0.016492693  0.355427384
     0.759137630  0.976923048  0.635245681
     0.188200757  0.958800435  0.000000000
     0.322816044  0.131877258  0.355427384
     0.759137630  0.643589735  0.635245681
     0.592471004  0.643589735  0.805117786
     0.925804377  0.310256422  0.465373576
     0.759137630  0.310256422  0.635245681
     0.592471004  0.310256422  0.805117786
     0.784354508  0.439569622  0.355427384
     0.092471123  0.976923048  0.635245681
     0.925804436  0.976923048  0.805117786
     0.245893031  0.247262001  0.213256419
     0.092471123  0.643589735  0.635245681
     0.925804436  0.643589735  0.805117786
     0.880508304  0.420338839  0.284341902
     0.092471123  0.310256422  0.635245681
     0.925804436  0.310256422  0.805117786
     0.675804317  0.893589795  0.550309598
     0.509137690  0.893589795  0.720181704
     0.880508482  0.420338988  0.000000000
     0.675804317  0.560256481  0.550309598
     0.509137690  0.560256481  0.720181704
     0.380508512  0.920339048  0.000000000
     0.675804317  0.226923093  0.550309598
     0.509137690  0.226923093  0.720181704
     0.342471004  0.226923093  0.890053868
     0.009137750  0.893589795  0.550309598
     0.842471123  0.893589795  0.720181704
     0.342046916  0.728031278  0.000000000
     0.009137750  0.560256481  0.550309598
     0.842471123  0.560256481  0.720181704
     0.284354657  0.939569831  0.071085475
     0.009137750  0.226923093  0.550309598
     0.842471123  0.226923093  0.720181704
     0.303585321  0.035723474  0.142170906
     0.342471004  0.893589795  0.550309598
     0.175804257  0.893589795  0.720181704
     0.534354627  0.189569652  0.142170906
     0.342471004  0.560256481  0.550309598
     0.175804257  0.560256481  0.720181704
     0.495893091  0.497262001  0.000000000
     0.938200593  0.208800375  0.355427384
     0.175804257  0.226923093  0.720181704
     0.265123844  0.343415916  0.000000000

  ion indices of the primitive-cell ions
   primitive index   ion index
                 1           1
                 2           2
                 3           3
                 4           4
                 5           5
                 6           6
                 7           7
                 8           8
                 9           9
                10          10
                11          11
                12          12
                13          13
                14          14
                15          15
                16          16
                17          17
                18          18
                19          19
                20          20
                21          21
                22          22
                23          23
                24          24
                25          25
                26          26
                27          27
                28          28
                29          29
                30          30
                31          31
                32          32
                33          33
                34          34
                35          35
                36          36
                37          37
                38          38
                39          39
                40          40
                41          41
                42          42
                43          43
                44          44
                45          45
                46          46
                47          47
                48          48
                49          49
                50          50
                51          51
                52          52
                53          53
                54          54
                55          55
                56          56
                57          57
                58          58
                59          59
                60          60
                61          61
                62          62
                63          63
                64          64
                65          65
                66          66
                67          67
                68          68
                69          69
                70          70
                71          71
                72          72
                73          73
                74          74
                75          75
                76          76
                77          77
                78          78
                79          79
                80          80
                81          81
                82          82
                83          83
                84          84
                85          85
                86          86
                87          87
                88          88
                89          89
                90          90
                91          91
                92          92
                93          93
                94          94
                95          95
                96          96
                97          97
                98          98
                99          99
               100         100
               101         101
               102         102
               103         103
               104         104
               105         105
               106         106
               107         107
               108         108
               109         109
               110         110
               111         111
               112         112
               113         113
               114         114
               115         115
               116         116
               117         117
               118         118
               119         119
               120         120
               121         121
               122         122
               123         123
               124         124
               125         125
               126         126
               127         127
               128         128
               129         129
               130         130
               131         131
               132         132
               133         133
               134         134
               135         135
               136         136
               137         137
               138         138
               139         139
               140         140
               141         141
               142         142
               143         143
               144         144
               145         145
               146         146
               147         147
               148         148
               149         149
               150         150
               151         151
               152         152
               153         153
               154         154
               155         155
               156         156
               157         157
               158         158
               159         159
               160         160
               161         161
               162         162
               163         163
               164         164
               165         165
               166         166
               167         167
               168         168
               169         169
               170         170
               171         171
               172         172
               173         173
               174         174
               175         175
               176         176
               177         177
               178         178
               179         179
               180         180
               181         181
               182         182
               183         183
               184         184
               185         185
               186         186
               187         187
               188         188
               189         189
               190         190
               191         191
               192         192
               193         193
               194         194
               195         195
               196         196
               197         197
               198         198
               199         199
               200         200
               201         201
               202         202
               203         203
               204         204
               205         205
               206         206
               207         207
               208         208
               209         209
               210         210
               211         211
               212         212
               213         213
               214         214
               215         215
               216         216
               217         217
               218         218
               219         219
               220         220
               221         221
               222         222
               223         223
               224         224
               225         225
               226         226
               227         227
               228         228
               229         229
               230         230
               231         231
               232         232
               233         233
               234         234
               235         235
               236         236
               237         237
               238         238
               239         239
               240         240
               241         241
               242         242
               243         243
               244         244
               245         245
               246         246
               247         247
               248         248
               249         249
               250         250
               251         251
               252         252
               253         253
               254         254
               255         255
               256         256
               257         257
               258         258
               259         259
               260         260
               261         261
               262         262
               263         263
               264         264

----------------------------------------------------------------------------------------

 
 
 KPOINTS: Automatic KPOINTS generated             

Automatic generation of k-mesh.
 Grid dimensions read from file:
 generate k-points for:    2    2    2

 Generating k-lattice:

  Cartesian coordinates                     Fractional coordinates (reciprocal lattice)
     0.025533978  0.000000000  0.000000000     0.500000000  0.000000000  0.000000000
     0.000000000  0.025533981  0.000000000     0.000000000  0.500000000  0.000000000
     0.000000000  0.000000000  0.026177667     0.000000000  0.000000000  0.500000000

  Length of vectors
     0.025533978  0.025533981  0.026177667

  Shift w.r.t. Gamma in fractional coordinates (k-lattice)
     0.000000000  0.000000000  0.000000000

 
 Subroutine IBZKPT returns following result:
 ===========================================
 
 Found      8 irreducible k-points:
 
 Following reciprocal coordinates:
            Coordinates               Weight
  0.000000  0.000000  0.000000      1.000000
  0.500000  0.000000  0.000000      1.000000
  0.000000  0.500000  0.000000      1.000000
  0.500000  0.500000  0.000000      1.000000
  0.000000  0.000000  0.500000      1.000000
  0.500000  0.000000  0.500000      1.000000
  0.000000  0.500000  0.500000      1.000000
  0.500000  0.500000  0.500000      1.000000
 
 Following cartesian coordinates:
            Coordinates               Weight
  0.000000  0.000000  0.000000      1.000000
  0.025534  0.000000  0.000000      1.000000
  0.000000  0.025534  0.000000      1.000000
  0.025534  0.025534  0.000000      1.000000
  0.000000  0.000000  0.026178      1.000000
  0.025534  0.000000  0.026178      1.000000
  0.000000  0.025534  0.026178      1.000000
  0.025534  0.025534  0.026178      1.000000
 
 -----------------------------------------------------------------------------
|                                                                             |
|           W    W    AA    RRRRR   N    N  II  N    N   GGGG   !!!           |
|           W    W   A  A   R    R  NN   N  II  NN   N  G    G  !!!           |
|           W    W  A    A  R    R  N N  N  II  N N  N  G       !!!           |
|           W WW W  AAAAAA  RRRRR   N  N N  II  N  N N  G  GGG   !            |
|           WW  WW  A    A  R   R   N   NN  II  N   NN  G    G                |
|           W    W  A    A  R    R  N    N  II  N    N   GGGG   !!!           |
|                                                                             |
|     The number of bands has been changed from the values supplied in        |
|     the INCAR file. This is a result of running the parallel version.       |
|     The orbitals not found in the WAVECAR file will be initialized with     |
|     random numbers, which is usually adequate. For correlated               |
|     calculations, however, you should redo the groundstate calculation.     |
|     I found NBANDS = 634. Now, NBANDS = 636.                                |
|                                                                             |
 -----------------------------------------------------------------------------



--------------------------------------------------------------------------------------------------------




 Dimension of arrays:
   k-points           NKPTS =      8   k-points in BZ     NKDIM =      8   number of bands    NBANDS=    636
   number of dos      NEDOS =    301   number of ions     NIONS =    264
   non local maximal  LDIM  =      5   non local SUM 2l+1 LMDIM =     13
   total plane-waves  NPLWV = ******
   max r-space proj   IRMAX =   4693   max aug-charges    IRDMAX= 217232
   dimension x,y,z NGX =   128 NGY =  128 NGZ =  126
   dimension x,y,z NGXF=   256 NGYF=  256 NGZF=  252
   support grid    NGXF=   512 NGYF=  512 NGZF=  504
   ions per type =             156 108
   NGX,Y,Z   is equivalent  to a cutoff of  10.87, 10.87, 10.97 a.u.
   NGXF,Y,Z  is equivalent  to a cutoff of  21.73, 21.73, 21.93 a.u.

 SYSTEM =  Si and Ge interface calculation         
 POSCAR =  Si+Sn                                   

 Startparameter for this run:
   NWRITE =      2    write-flag & timer
   PREC   = normal    normal or accurate (medium, high low for compatibility)
   ISTART =      0    job   : 0-new  1-cont  2-samecut
   ICHARG =      2    charge: 1-file 2-atom 10-const
   ISPIN  =      2    spin polarized calculation?
   LNONCOLLINEAR =      F non collinear calculations
   LSORBIT =      F    spin-orbit coupling
   INIWAV =      1    electr: 0-lowe 1-rand  2-diag
   LASPH  =      T    aspherical Exc in radial PAW
 Electronic Relaxation 1
   ENCUT  =  700.0 eV  51.45 Ry    7.17 a.u.  42.24 42.24 41.20*2*pi/ulx,y,z
   ENINI  =  700.0     initial cutoff
   ENAUG  =  900.0 eV  augmentation charge cutoff
   NELM   =    100;   NELMIN=  2; NELMDL= -5     # of ELM steps 
   EDIFF  = 0.1E-06   stopping-criterion for ELM
   LREAL  =      T    real-space projection
   NLSPLINE    = F    spline interpolate recip. space projectors
   LCOMPAT=      F    compatible to vasp.4.4
   GGA_COMPAT  = T    GGA compatible to vasp.4.4-vasp.4.6
   LMAXPAW     = -100 max onsite density
   LMAXMIX     =    6 max onsite mixed and CHGCAR
   VOSKOWN=      0    Vosko Wilk Nusair interpolation
   ROPT   =   -0.00050  -0.00050
 Ionic relaxation
   EDIFFG = 0.1E-05   stopping-criterion for IOM
   NSW    =      0    number of steps for IOM
   NBLOCK =      1;   KBLOCK =      1    inner block; outer block 
   IBRION =     -1    ionic relax: 0-MD 1-quasi-New 2-CG
   NFREE  =      0    steps in history (QN), initial steepest desc. (CG)
   ISIF   =      2    stress and relaxation
   IWAVPR =     10    prediction:  0-non 1-charg 2-wave 3-comb
   ISYM   =      2    0-nonsym 1-usesym 2-fastsym
   LCORR  =      T    Harris-Foulkes like correction to forces

   POTIM  = 0.5000    time-step for ionic-motion
   TEIN   =    0.0    initial temperature
   TEBEG  =    0.0;   TEEND  =   0.0 temperature during run
   SMASS  =  -3.00    Nose mass-parameter (am)
   estimated Nose-frequenzy (Omega)   =  0.10E-29 period in steps = 0.13E+47 mass=  -0.876E-26a.u.
   SCALEE = 1.0000    scale energy and forces
   NPACO  =    256;   APACO  = 10.0  distance and # of slots for P.C.
   PSTRESS=    0.0 pullay stress

  Mass of Ions in am
   POMASS =  28.09118.71
  Ionic Valenz
   ZVAL   =   4.00  4.00
  Atomic Wigner-Seitz radii
   RWIGS  =  -1.00 -1.00
  virtual crystal weights 
   VCA    =   1.00  1.00
   NELECT =    1056.0000    total number of electrons
   NUPDOWN=       1.0000    fix difference up-down

 DOS related values:
   EMIN   =  10.00;   EMAX   =-10.00  energy-range for DOS
   EFERMI =   0.00;   METHOD = LEGACY      
   ISMEAR =     0;   SIGMA  =   0.01  broadening in eV -4-tet -1-fermi 0-gaus

 Electronic relaxation 2 (details)
   IALGO  =     38    algorithm
   LDIAG  =      T    sub-space diagonalisation (order eigenvalues)
   LSUBROT=      F    optimize rotation matrix (better conditioning)
   TURBO    =      0    0=normal 1=particle mesh
   IRESTART =      0    0=no restart 2=restart with 2 vectors
   NREBOOT  =      0    no. of reboots
   NMIN     =      0    reboot dimension
   EREF     =   0.00    reference energy to select bands
   IMIX   =      4    mixing-type and parameters
     AMIX     =   0.60;   BMIX     =  1.00
     AMIX_MAG =   2.40;   BMIX_MAG =  1.00
     AMIN     =   0.10
     WC   =   100.;   INIMIX=   1;  MIXPRE=   1;  MAXMIX= -45

 Intra band minimization:
   WEIMIN = 0.0000     energy-eigenvalue tresh-hold
   EBREAK =  0.39E-10  absolut break condition
   DEPER  =   0.30     relativ break condition  

   TIME   =   0.40     timestep for ELM

  volume/ion in A,a.u.               =      27.74       187.21
  Fermi-wavevector in a.u.,A,eV,Ry     =   0.858451  1.622237 10.026649  0.736938
  Thomas-Fermi vector in A             =   1.975657
 
 Write flags
   LWAVE        =      F    write WAVECAR
   LDOWNSAMPLE  =      F    k-point downsampling of WAVECAR
   LCHARG       =      T    write CHGCAR
   LVTOT        =      F    write LOCPOT, total local potential
   LVHAR        =      T    write LOCPOT, Hartree potential only
   WRT_POTENTIAL=  hartree ionic  ! write potential to hdf5 file
   LELF         =      F    write electronic localiz. function (ELF)
   LORBIT       =      0    0 simple, 1 ext, 2 COOP (PROOUT), +10 PAW based schemes


 Dipole corrections
   LMONO      =      F    monopole corrections only (constant potential shift)
   LDIPOL     =      F    correct potential (dipole corrections)
   IDIPOL     =      0    1-x, 2-y, 3-z, 4-all directions 
   EPSILON    =  1.0000000 bulk dielectric constant
   LVACPOTAV  =      F  vacuum potentials using an averaging scheme for the charge density
   VACPOTFLAT =  0.1000000 required flatness to determine vacuum potential
 Exchange correlation treatment:
   GGA     = PE    functional components
   XC_C    = 1    coefficients multiplying the functional components
   LIBXC   =     F    Libxc                    
   VOSKOWN =     0    Vosko Wilk Nusair interpolation
   LHFCALC =     F    Hartree Fock is set to
   LHFONE  =     F    Hartree Fock one center treatment
   AEXX    =    0.0000 exact exchange contribution

 Parameters of functionals:
   PE:
     No parameter
 
 Van der Waals corrections
   IVDW    =     0    specifies the selected vdW correction

 Linear response parameters
   LEPSILON=     F    determine dielectric tensor
   LRPA    =     F    only Hartree local field effects (RPA)
   LNABLA  =     F    use nabla operator in PAW spheres
   LVEL    =     F    velocity operator in full k-point grid
   CSHIFT  =0.1000    complex shift for real part using Kramers Kronig
   OMEGAMAX=  -1.0    maximum frequency
   DEG_THRESHOLD= 0.2000000E-02 threshold for treating states as degnerate
   RTIME   =   -0.100 relaxation time in fs
  (WPLASMAI=    0.000 imaginary part of plasma frequency in eV, 0.658/RTIME)
   DFIELD  = 0.0000000 0.0000000 0.0000000 field for delta impulse in time
 
  Optional k-point grid parameters
   LKPOINTS_OPT  =     F    use optional k-point grid
   KPOINTS_OPT_MODE=     1    mode for optional k-point grid
 
 Orbital magnetization related:
   ORBITALMAG=     F  switch on orbital magnetization
   LCHIMAG   =     F  perturbation theory with respect to B field
   DQ        =  0.001000  dq finite difference perturbation B field
   LLRAUG    =     F  two centre corrections for induced B field
   LBONE     =     F  B-component reconstruction in AE one-centre
   LVGVCALC  =     T  calculate vGv susceptibility
   LVGVAPPL  =     F  apply vGv susceptibility instead of pGv for G=0

 Random number generation:
   RANDOM_GENERATOR = DEFAULT
   PCG_SEED         = not used


--------------------------------------------------------------------------------------------------------


 Static calculation
 charge density and potential will be updated during run
 spin polarized calculation
 Variant of blocked Davidson
 Davidson routine will perform the subspace rotation
 perform sub-space diagonalisation
    after iterative eigenvector-optimisation
 modified Broyden-mixing scheme, WC =      100.0
 initial mixing is a Kerker type mixing with AMIX =  0.6000 and BMIX =      1.0000
 Hartree-type preconditioning will be used
 using additional bands          108
 real space projection scheme for non local part
 use partial core corrections
 calculate Harris-corrections to forces 
   (improved forces if not selfconsistent)
 use gradient corrections 
 use of overlap-Matrix (Vanderbilt PP)
 Gauss-broadening in eV      SIGMA  =   0.01


--------------------------------------------------------------------------------------------------------


  energy-cutoff  :      700.00
  volume of cell :     7323.89
      direct lattice vectors                 reciprocal lattice vectors
    19.581750870  0.000000000  0.000000000     0.051067956  0.000000000  0.000000000
     0.000000000 19.581748962  0.000000000     0.000000000  0.051067961  0.000000000
     0.000000000  0.000000000 19.100250244     0.000000000  0.000000000  0.052355335

  length of vectors
    19.581750870 19.581748962 19.100250244     0.051067956  0.051067961  0.052355335


 
 k-points in units of 2pi/SCALE and weight: Automatic KPOINTS generated             
   0.00000000  0.00000000  0.00000000       0.125
   0.02553398  0.00000000  0.00000000       0.125
   0.00000000  0.02553398  0.00000000       0.125
   0.02553398  0.02553398  0.00000000       0.125
   0.00000000  0.00000000  0.02617767       0.125
   0.02553398  0.00000000  0.02617767       0.125
   0.00000000  0.02553398  0.02617767       0.125
   0.02553398  0.02553398  0.02617767       0.125
 
 k-points in reciprocal lattice and weights: Automatic KPOINTS generated             
   0.00000000  0.00000000  0.00000000       0.125
   0.50000000  0.00000000  0.00000000       0.125
   0.00000000  0.50000000  0.00000000       0.125
   0.50000000  0.50000000  0.00000000       0.125
   0.00000000  0.00000000  0.50000000       0.125
   0.50000000  0.00000000  0.50000000       0.125
   0.00000000  0.50000000  0.50000000       0.125
   0.50000000  0.50000000  0.50000000       0.125
 
 position of ions in fractional coordinates (direct lattice) 
   0.99589300  0.99726200  0.00000000
   0.88050836  0.92033887  0.14217091
   0.76512373  0.84341574  0.28434190
   0.07281613  0.38187745  0.00000000
   0.95743144  0.30495429  0.14217091
   0.84204680  0.22803116  0.28434190
   0.22666228  0.15110818  0.00000000
   0.11127762  0.07418505  0.14217091
   0.99589294  0.99726194  0.28434190
   0.17580426  0.72692317  0.89005387
   0.03435453  0.68956971  0.14217091
   0.91896987  0.61264658  0.28434190
   0.30358541  0.53572357  0.00000000
   0.18820073  0.45880044  0.14217091
   0.07281607  0.38187730  0.28434190
   0.45743155  0.30495435  0.00000000
   0.34204686  0.22803120  0.14217091
   0.22666220  0.15110807  0.28434190
   0.61127770  0.07418510  0.00000000
   0.50913763  0.39358973  0.89005387
   0.38050836  0.92033881  0.28434190
   0.34247100  0.56025648  0.89005387
   0.26512384  0.84341592  0.14217091
   0.14973918  0.76649272  0.28434190
   0.53435463  0.68956971  0.00000000
   0.41896993  0.61264658  0.14217091
   0.30358526  0.53572345  0.28434190
   0.68820071  0.45880049  0.00000000
   0.57281607  0.38187736  0.14217091
   0.45743138  0.30495423  0.28434190
   0.84204692  0.22803119  0.00000000
   0.72666228  0.15110804  0.14217091
   0.61127758  0.07418491  0.28434190
   0.76512390  0.84341586  0.00000000
   0.75913769  0.47692311  0.80511779
   0.53435457  0.68956959  0.28434190
   0.91897005  0.61264664  0.00000000
   0.80358541  0.53572351  0.14217091
   0.68820071  0.45880038  0.28434190
   0.01512384  0.59341586  0.07108547
   0.89973921  0.51649272  0.21325642
   0.25913775  0.97692305  0.46537358
   0.16896996  0.36264667  0.07108547
   0.42580438  0.47692311  0.46537358
   0.34247100  0.22692309  0.55030960
   0.32281613  0.13187741  0.07108547
   0.20743145  0.05495427  0.21325642
   0.42580438  0.14358975  0.46537358
   0.09204689  0.97803128  0.07108547
   0.97666222  0.90110815  0.21325642
   0.86127752  0.82418501  0.35542738
   0.24589306  0.74726206  0.07108547
   0.13050841  0.67033893  0.21325642
   0.75913769  0.47692311  0.46537358
   0.39973927  0.51649284  0.07108547
   0.75913769  0.14358975  0.46537358
   0.59247100  0.97692305  0.46537358
   0.55358541  0.28572354  0.07108547
   0.43820071  0.20880039  0.21325642
   0.92580438  0.64358973  0.46537358
   0.70743155  0.05495430  0.07108547
   0.59204686  0.97803116  0.21325642
   0.47666219  0.90110803  0.35542738
   0.47666240  0.90110820  0.07108547
   0.36127770  0.82418507  0.21325642
   0.75913769  0.81025642  0.46537358
   0.63050854  0.67033899  0.07108547
   0.51512384  0.59341580  0.21325642
   0.39973915  0.51649267  0.35542738
   0.78435469  0.43956971  0.07108547
   0.66896999  0.36264655  0.21325642
   0.55358529  0.28572342  0.35542738
   0.93820083  0.20880049  0.07108547
   0.82281613  0.13187735  0.21325642
   0.70743144  0.05495421  0.35542738
   0.86127788  0.82418513  0.07108547
   0.74589318  0.74726200  0.21325642
   0.09247100  0.14358975  0.46537358
   0.50913763  0.72692317  0.89005387
   0.91896993  0.11264660  0.14217091
   0.80358523  0.03572347  0.28434190
   0.11127766  0.57418507  0.00000000
   0.99589300  0.49726200  0.14217091
   0.25913775  0.31025642  0.46537358
   0.00913763  0.22692309  0.89005387
   0.14973919  0.26649278  0.14217091
   0.42580438  0.81025642  0.46537358
   0.84247100  0.72692317  0.89005387
   0.67580438  0.22692309  0.89005387
   0.18820064  0.95880032  0.28434190
   0.59247100  0.97692305  0.80511779
   0.07281606  0.88187730  0.14217091
   0.84247100  0.72692317  0.55030960
   0.67580438  0.89358979  0.89005387
   0.22666223  0.65110815  0.14217091
   0.17580438  0.06025648  0.55030960
   0.00913763  0.56025648  0.89005387
   0.38050842  0.42033887  0.14217091
   0.26512373  0.34341574  0.28434190
   0.64973927  0.26649278  0.00000000
   0.00913763  0.89358979  0.89005387
   0.84247100  0.06025648  0.55030960
   0.80358541  0.03572357  0.00000000
   0.68820071  0.95880044  0.14217091
   0.57281607  0.88187730  0.28434190
   0.17580426  0.39358973  0.89005387
   0.45743144  0.80495429  0.14217091
   0.34204680  0.72803110  0.28434190
   0.72666234  0.65110815  0.00000000
   0.61127764  0.57418501  0.14217091
   0.49589294  0.49726185  0.28434190
   0.34247100  0.89358979  0.89005387
   0.76512384  0.34341586  0.14217091
   0.64973915  0.26649272  0.28434190
   0.95743161  0.80495429  0.00000000
   0.84204692  0.72803116  0.14217091
   0.72666228  0.65110803  0.28434190
   0.50913763  0.06025648  0.89005387
   0.01512377  0.09341583  0.21325642
   0.92580438  0.97692305  0.46537358
   0.05358534  0.78572363  0.07108547
   0.93820071  0.70880044  0.21325642
   0.82281601  0.63187730  0.35542738
   0.09247100  0.47692311  0.80511779
   0.09204687  0.47803125  0.21325642
   0.97666216  0.40110809  0.35542738
   0.42580438  0.81025642  0.80511779
   0.25913775  0.64358973  0.46537358
   0.09247100  0.81025642  0.46537358
   0.51512384  0.09341585  0.07108547
   0.50913769  0.72692317  0.55030960
   0.28435451  0.93956953  0.35542738
   0.67580438  0.56025648  0.89005387
   0.16896999  0.86264664  0.21325642
   0.05358529  0.78572351  0.35542738
   0.43820077  0.70880061  0.07108547
   0.32281607  0.63187742  0.21325642
   0.20743141  0.55495429  0.35542738
   0.59204698  0.47803128  0.07108547
   0.47666228  0.40110815  0.21325642
   0.36127761  0.32418501  0.35542738
   0.74589312  0.24726200  0.07108547
   0.63050842  0.17033887  0.21325642
   0.51512379  0.09341572  0.35542738
   0.89973927  0.01649279  0.07108547
   0.78435457  0.93956965  0.21325642
   0.66896993  0.86264652  0.35542738
   0.09247100  0.81025642  0.80511779
   0.55358541  0.78572363  0.21325642
   0.43820071  0.70880049  0.35542738
   0.82281625  0.63187742  0.07108547
   0.70743155  0.55495429  0.21325642
   0.59204680  0.47803113  0.35542738
   0.97666228  0.40110824  0.07108547
   0.86127758  0.32418507  0.21325642
   0.74589288  0.24726193  0.35542738
   0.03435449  0.18956965  0.28434190
   0.25913763  0.81025642  0.63524568
   0.66897011  0.86264676  0.07108547
   0.05358529  0.28572354  0.21325642
   0.25913763  0.47692311  0.63524568
   0.20743152  0.55495441  0.07108547
   0.09204677  0.97803116  0.35542738
   0.25913763  0.14358975  0.63524568
   0.09247100  0.14358975  0.80511779
   0.24589300  0.74726194  0.35542738
   0.59247100  0.81025642  0.63524568
   0.36127770  0.32418513  0.07108547
   0.01512372  0.59341580  0.35542738
   0.59247100  0.47692311  0.63524568
   0.42580438  0.47692311  0.80511779
   0.28435460  0.43956968  0.21325642
   0.59247100  0.14358975  0.63524568
   0.42580438  0.14358975  0.80511779
   0.13050833  0.17033885  0.35542738
   0.92580438  0.81025642  0.63524568
   0.75913769  0.81025642  0.80511779
   0.09247100  0.47692311  0.46537358
   0.92580438  0.47692311  0.63524568
   0.64973927  0.76649272  0.14217091
   0.63050842  0.67033881  0.35542738
   0.92580438  0.14358975  0.63524568
   0.75913769  0.14358975  0.80511779
   0.50913769  0.06025648  0.55030960
   0.34247100  0.06025648  0.72018170
   0.17580426  0.06025648  0.89005387
   0.39973921  0.01649272  0.21325642
   0.34247100  0.72692317  0.72018170
   0.14973922  0.76649284  0.00000000
   0.50913769  0.39358973  0.55030960
   0.34247100  0.39358973  0.72018170
   0.57281613  0.88187736  0.00000000
   0.41896993  0.11264652  0.28434190
   0.67580432  0.06025648  0.72018170
   0.13050844  0.17033896  0.07108547
   0.95743138  0.80495423  0.28434190
   0.67580432  0.72692317  0.72018170
   0.03435459  0.18956974  0.00000000
   0.84247100  0.39358973  0.55030960
   0.67580432  0.39358973  0.72018170
   0.49589300  0.99726194  0.14217091
   0.11127757  0.57418501  0.28434190
   0.00913775  0.06025648  0.72018170
   0.84247100  0.06025648  0.89005387
   0.17580438  0.72692317  0.55030960
   0.00913775  0.72692317  0.72018170
   0.41896999  0.11264660  0.00000000
   0.17580438  0.39358973  0.55030960
   0.00913775  0.39358973  0.72018170
   0.84247100  0.39358973  0.89005387
   0.16896993  0.36264655  0.35542738
   0.42580426  0.97692305  0.63524568
   0.25913763  0.97692305  0.80511779
   0.59247100  0.64358973  0.46537358
   0.42580426  0.64358973  0.63524568
   0.25913763  0.64358973  0.80511779
   0.59247100  0.31025642  0.46537358
   0.42580426  0.31025642  0.63524568
   0.25913763  0.31025642  0.80511779
   0.89973909  0.01649269  0.35542738
   0.75913763  0.97692305  0.63524568
   0.18820076  0.95880044  0.00000000
   0.32281604  0.13187726  0.35542738
   0.75913763  0.64358973  0.63524568
   0.59247100  0.64358973  0.80511779
   0.92580438  0.31025642  0.46537358
   0.75913763  0.31025642  0.63524568
   0.59247100  0.31025642  0.80511779
   0.78435451  0.43956962  0.35542738
   0.09247112  0.97692305  0.63524568
   0.92580444  0.97692305  0.80511779
   0.24589303  0.24726200  0.21325642
   0.09247112  0.64358973  0.63524568
   0.92580444  0.64358973  0.80511779
   0.88050830  0.42033884  0.28434190
   0.09247112  0.31025642  0.63524568
   0.92580444  0.31025642  0.80511779
   0.67580432  0.89358979  0.55030960
   0.50913769  0.89358979  0.72018170
   0.88050848  0.42033899  0.00000000
   0.67580432  0.56025648  0.55030960
   0.50913769  0.56025648  0.72018170
   0.38050851  0.92033905  0.00000000
   0.67580432  0.22692309  0.55030960
   0.50913769  0.22692309  0.72018170
   0.34247100  0.22692309  0.89005387
   0.00913775  0.89358979  0.55030960
   0.84247112  0.89358979  0.72018170
   0.34204692  0.72803128  0.00000000
   0.00913775  0.56025648  0.55030960
   0.84247112  0.56025648  0.72018170
   0.28435466  0.93956983  0.07108547
   0.00913775  0.22692309  0.55030960
   0.84247112  0.22692309  0.72018170
   0.30358532  0.03572347  0.14217091
   0.34247100  0.89358979  0.55030960
   0.17580426  0.89358979  0.72018170
   0.53435463  0.18956965  0.14217091
   0.34247100  0.56025648  0.55030960
   0.17580426  0.56025648  0.72018170
   0.49589309  0.49726200  0.00000000
   0.93820059  0.20880038  0.35542738
   0.17580426  0.22692309  0.72018170
   0.26512384  0.34341592  0.00000000
 
 position of ions in cartesian coordinates  (Angst):
  19.50132866 19.52813415  0.00000000
  17.24189540 18.02184469  2.71549988
  14.98246217 16.51555523  5.43100148
   1.42586724  7.47782840  0.00000000
  18.74818385  5.97153835  2.71549988
  16.48875060  4.46524889  5.43100148
   4.43844426  2.95896237  0.00000000
   2.17901059  1.45267305  2.71549988
  19.50132748 19.52813298  5.43100148
   3.44255516 14.23442699 17.00025161
   0.67272193 13.50298099  2.71549988
  17.99503905 11.99669153  5.43100148
   5.94473387 10.49040440  0.00000000
   3.68529975  8.98411494  2.71549988
   1.42586606  7.47782548  5.43100148
   8.95731075  5.97153953  0.00000000
   6.69787634  4.46524977  2.71549988
   4.43844281  2.95896031  5.43100148
  11.96988761  1.45267406  0.00000000
   9.96980623  7.70717538 17.00025161
   7.45101997 18.02184352  5.43100148
   6.70618188 10.97080177 17.00025161
   5.19158906 16.51555874  2.71549988
   2.93215524 15.00926810  5.43100148
  10.46359918 13.50298099  0.00000000
   8.20416477 11.99669153  2.71549988
   5.94473095 10.49040207  5.43100148
  13.47617489  8.98411612  0.00000000
  11.21674166  7.47782666  2.71549988
   8.95730724  5.97153720  5.43100148
  16.48875293  4.46524948  0.00000000
  14.22931969  2.95895973  2.71549988
  11.96988528  1.45267026  5.43100148
  14.98246567 16.51555756  0.00000000
  14.86524512  9.33898858 15.37795119
  10.46359803 13.50297864  5.43100148
  17.99504254 11.99669269  0.00000000
  15.73560930 10.49040323  2.71549988
  13.47617489  8.98411377  5.43100148
   0.29615121 11.62012032  1.35775036
  17.61846898 10.11383086  4.07325097
   5.07437086 19.12986188  8.88875176
   3.30872764  7.10125603  1.35775036
   8.33799523  9.33898858  8.88875176
   6.70618188  4.44355104 10.51105103
   6.32130509  2.58239028  1.35775036
   4.06187098  1.07610068  4.07325097
   8.33799523  2.81173844  8.88875176
   1.80243921 19.15156296  1.35775036
  19.12475626 17.64527350  4.07325097
  16.86532185 16.13898404  6.78875198
   4.81501666 14.63269809  1.35775036
   2.55558313 13.12640863  4.07325097
  14.86524512  9.33898858  8.88875176
   7.82759470 10.11383321  1.35775036
  14.86524512  2.81173844  8.88875176
  11.60161960 19.12986188  8.88875176
  10.84017158  5.59496657  1.35775036
   8.58073717  4.08867682  4.07325097
  18.12887066 12.60261263  8.88875176
  13.85274847  1.07610135  1.35775036
  11.59331406 19.15156061  4.07325097
   9.33388023 17.64527117  6.78875198
   9.33388431 17.64527466  1.35775036
   7.07444990 16.13898520  4.07325097
  14.86524512 15.86623785  8.88875176
  12.34646119 13.12640978  1.35775036
  10.08702678 11.62011917  4.07325097
   7.82759237 10.11382971  6.78875198
  15.35903807  8.60754375  1.35775036
  13.09960366  7.10125370  4.07325097
  10.84016925  5.59496424  6.78875198
  18.37161494  4.08867888  1.35775036
  16.11218053  2.58238912  4.07325097
  13.85274614  1.07609945  6.78875198
  16.86532884 16.13898637  1.35775036
  14.60589443 14.63269691  4.07325097
   1.81074416  2.81173844  8.88875176
   9.96980623 14.23442699 17.00025161
  17.99504021  2.20581748  2.71549988
  15.73560580  0.69952802  5.43100148
   2.17901145 11.24354796  0.00000000
  19.50132866  9.73725967  2.71549988
   5.07437086  6.07536337  8.88875176
   0.17893079  4.44355104 17.00025161
   2.93215553  5.21839480  2.71549988
   8.33799523 15.86623785  8.88875176
  16.49705732 14.23442699 17.00025161
  13.23343295  4.44355104 17.00025161
   3.68529801 18.77498709  5.43100148
  11.60161960 19.12986188 15.37795119
   1.42586593 17.26869996  2.71549988
  16.49705732 14.23442699 10.51105103
  13.23343295 17.49805104 17.00025161
   4.43844338 12.74983626  2.71549988
   3.44255751  1.17992728 10.51105103
   0.17893079 10.97080177 17.00025161
   7.45102114  8.23097021  2.71549988
   5.19158673  6.72468075  5.43100148
  12.72303242  5.21839480  0.00000000
   0.17893079 17.49805104 17.00025161
  16.49705732  1.17992728 10.51105103
[...]
      2.55558     13.12641      4.07325         0.410589      2.326416     -1.754381
     14.86525      9.33899      8.88875        -0.311329      0.795777      3.753089
      7.82759     10.11383      1.35775        -2.343553      0.179693      1.049184
     14.86525      2.81174      8.88875        -0.417658     -0.165766     -0.834355
     11.60162     19.12986      8.88875         0.030933     -0.011449     -0.609489
     10.84017      5.59497      1.35775         0.273995      2.223106     -2.236729
      8.58074      4.08868      4.07325        -1.660593      2.616190     -0.037869
     18.12887     12.60261      8.88875        -0.784692      0.285391     -0.014524
     13.85275      1.07610      1.35775         0.019980      0.329476     -0.479224
     11.59331     19.15156      4.07325         2.356022     -0.421739      1.633936
      9.33388     17.64527      6.78875         0.177464     -0.303080      1.424526
      9.33388     17.64527      1.35775        -0.516009     -2.485077      0.561477
      7.07445     16.13899      4.07325        -0.072261     -0.084768      0.010528
     14.86525     15.86624      8.88875         0.642059     -0.273816     -0.361279
     12.34646     13.12641      1.35775        -0.235758     -2.247970     -2.087688
     10.08703     11.62012      4.07325        -0.117164     -0.043361      0.019803
      7.82759     10.11383      6.78875         0.786783      0.091415     -0.101299
     15.35904      8.60754      1.35775        -2.119891      0.892168      1.358866
     13.09960      7.10125      4.07325         0.080214      0.020713     -0.008097
     10.84017      5.59496      6.78875        -0.762333     -0.940094     -3.127840
     18.37161      4.08868      1.35775        -2.372481      0.617612      1.470103
     16.11218      2.58239      4.07325        -0.016608      0.043032     -0.087697
     13.85275      1.07610      6.78875        -0.160222      0.295409      1.357757
     16.86533     16.13899      1.35775         0.153175      0.485918     -0.355293
     14.60589     14.63270      4.07325         2.215213     -0.438872      1.583427
      1.81074      2.81174      8.88875        -0.304508     -1.633078      3.901702
      9.96981     14.23443     17.00025         0.057301      0.249860     -1.109579
     17.99504      2.20582      2.71550         0.033766     -0.012812     -0.017412
     15.73561      0.69953      5.43100        -2.279049      0.409428     -0.953538
      2.17901     11.24355      0.00000        -3.579328      0.362130     -2.597108
     19.50133      9.73726      2.71550        -0.068291      0.080477      0.020475
      5.07437      6.07536      8.88875         0.841955     -0.379129      0.021372
      0.17893      4.44355     17.00025        -0.312537      0.802461     -3.748457
      2.93216      5.21839      2.71550         0.388124      2.316488     -1.542473
      8.33800     15.86624      8.88875         1.252090     -0.716671     -0.869946
     16.49706     14.23443     17.00025         0.037441     -0.002159      0.617251
     13.23343      4.44355     17.00025        -0.549123      0.272058     -0.531933
      3.68530     18.77499      5.43100         2.367144     -0.310101     -1.328571
     11.60162     19.12986     15.37795         0.062847     -0.013713      0.549259
      1.42587     17.26870      2.71550        -0.005307      0.082213      0.054988
     16.49706     14.23443     10.51105         0.005433      0.048382     -0.582190
     13.23343     17.49805     17.00025        -0.340051      0.275016     -0.203346
      4.43844     12.74984      2.71550         0.426067      2.308459      1.723237
      3.44256      1.17993     10.51105        -0.176908      0.316940     -0.904934
      0.17893     10.97080     17.00025         0.640543     -0.262322      0.356885
      7.45102      8.23097      2.71550         2.692324      1.804496      0.168622
      5.19159      6.72468      5.43100         2.462404     -0.245433      1.642196
     12.72303      5.21839      0.00000         0.781508      0.071455      0.094947
      0.17893     17.49805     17.00025        -0.423843     -0.170738      0.838331
     16.49706      1.17993     10.51105         0.195613     -0.283180     -0.758152
     15.73561      0.69953      0.00000        -0.770852     -0.903226      3.121984
     13.47617     18.77499      2.71550         0.634673      2.180429      1.681063
     11.21674     17.26870      5.43100        -0.151409     -0.477540      0.277294
      3.44256      7.70718     17.00025        -0.784070      0.300998      0.033438
      8.95731     15.76241      2.71550         0.066033     -0.063526      0.150747
      6.69788     14.25612      5.43100         2.377140     -0.433089     -1.371502
     14.22932     12.74984      0.00000         0.165816     -0.337880     -1.409242
     11.96989     11.24355      2.71550        -0.042234     -0.066735     -0.009145
      9.71045      9.73726      5.43100         0.034310     -0.139476      0.162720
      6.70618     17.49805     17.00025        -0.321153     -1.649004     -3.904419
     14.98246      6.72468      2.71550        -0.143692     -0.071076     -0.026462
     12.72303      5.21839      5.43100        -0.079578     -0.389479      0.331015
     18.74819     15.76241      0.00000        -0.164746      0.304917     -1.355560
     16.48875     14.25612      2.71550         0.016712     -0.050333     -0.055822
     14.22932     12.74983      5.43100         2.095026     -0.634284     -0.940602
      9.96981      1.17993     17.00025         0.859535     -0.397035     -0.020677
      0.29615      1.82925      4.07325        -0.531576     -2.309827     -1.621347
     18.12887     19.12986      8.88875        -0.127858     -0.402895      3.886239
      1.04929     15.38584      1.35775        -2.293062      0.408294      0.953337
     18.37161     13.87955      4.07325        -0.357201     -2.307441     -1.674842
     16.11218     12.37326      6.78875         1.197088      0.139587      0.870343
      1.81074      9.33899     15.37795        -0.015335      0.048055      0.594817
      1.80244      9.36069      4.07325        -0.517405     -2.240832     -1.570008
     19.12476      7.85440      6.78875         2.658350     -0.438877      2.569906
      8.33800     15.86624     15.37795        -0.177857      0.312089      0.916815
      5.07437     12.60261      8.88875        -0.825951      0.073436     -0.876627
      1.81074     15.86624      8.88875        -0.206494      0.507237      0.500075
     10.08703      1.82925      1.35775         2.442353     -0.244338     -1.651997
      9.96981     14.23443     10.51105        -0.343367      0.580203     -0.468166
      5.56816     18.39841      6.78875        -0.651434     -0.209512     -0.293973
     13.23343     10.97080     17.00025         1.261978     -0.705961      0.857458
      3.30873     16.89213      4.07325         0.060325     -0.007000      0.015825
      1.04929     15.38584      6.78875         2.547302     -0.679216      1.528754
      8.58074     13.87956      1.35775         2.344974     -0.319876      1.343979
      6.32130     12.37327      4.07325         0.085789      0.080595      0.037091
      4.06187     10.86698      6.78875         2.283117     -0.129736      2.965466
     11.59332      9.36069      1.35775         2.355549     -0.429400      1.374510
      9.33388      7.85440      4.07325         0.014525      0.062996     -0.079040
      7.07445      6.34811      6.78875        -1.173431     -0.152769      0.984504
     14.60589      4.84182      1.35775         0.031623     -0.148743     -0.143748
     12.34646      3.33553      4.07325         2.265482     -0.457178      1.500969
     10.08703      1.82924      6.78875         1.626762     -0.424679      2.304311
     17.61847      0.32296      1.35775        -0.125602     -0.398730     -0.318943
     15.35904     18.39842      4.07325         0.063049     -0.070517     -0.060819
     13.09960     16.89213      6.78875         0.642278      0.000821      0.776049
      1.81074     15.86624     15.37795         0.192152     -0.284923      0.768430
     10.84017     15.38584      4.07325        -2.283222      0.432400      1.511788
      8.58074     13.87955      6.78875        -0.680893      0.372071      0.939283
     16.11218     12.37327      1.35775        -0.159759     -0.487463     -0.237577
     13.85275     10.86698      4.07325         0.085541     -0.025952     -0.137801
     11.59331      9.36069      6.78875        -0.095214      0.008280      0.776365
     19.12476      7.85440      1.35775         2.013703     -0.641956      0.929656
     16.86532      6.34811      4.07325        -0.499736     -2.258203     -1.753112
     14.60589      4.84182      6.78875         0.606983     -0.341565      0.908827
      0.67272      3.71211      5.43100        -0.598536     -2.710993     -1.688058
      5.07437     15.86624     12.13335         0.012063      0.049811     -0.037805
     13.09961     16.89213      1.35775         3.723241      2.231685      0.109831
      1.04929      5.59497      4.07325         0.464214      3.125325     -2.390741
      5.07437      9.33899     12.13335        -0.127421      0.075168      0.144462
      4.06187     10.86698      1.35775        -0.092369      0.199018     -0.670814
      1.80244     19.15156      6.78875         0.077415     -0.108914      3.946939
      5.07437      2.81174     12.13335         0.098745      0.009210     -1.101867
      1.81074      2.81174     15.37795        -0.768700      0.850302      0.607823
      4.81502     14.63270      6.78875         0.648904     -0.169339      3.756087
     11.60162     15.86624     12.13335        -0.512185     -0.734108     -0.488797
      7.07445      6.34811      1.35775         3.243424     -0.133700      1.692774
      0.29615     11.62012      6.78875        -3.532417      0.821426      5.531323
     11.60162      9.33899     12.13335         0.013723      0.004205     -0.007796
      8.33800      9.33899     15.37795        -0.042313     -0.371933      1.211265
      5.56816      8.60754      4.07325         0.126494     -0.016619      0.081647
     11.60162      2.81174     12.13335        -0.085392      0.082215      0.096161
      8.33800      2.81174     15.37795         0.709920     -0.487352      0.261275
      2.55558      3.33553      6.78875         3.966950      0.139336      2.505896
     18.12887     15.86624     12.13335        -0.702934     -0.587841     -0.493511
     14.86525     15.86624     15.37795        -0.138562     -0.114449      0.950800
      1.81074      9.33899      8.88875         0.040742     -0.041096     -1.327290
     18.12887      9.33899     12.13335         0.106638     -0.083038      0.155880
     12.72303     15.00927      2.71550        -0.586772     -2.986388      2.242011
     12.34646     13.12641      6.78875         2.389744      1.844752     -3.980914
     18.12887      2.81174     12.13335        -0.636001     -0.696127     -0.624644
     14.86525      2.81174     15.37795        -0.415584      0.335109      0.742209
      9.96981      1.17993     10.51105        -0.099572     -0.123882     -0.954681
      6.70618      1.17993     13.75565         0.099962     -0.156275     -0.141985
      3.44256      1.17993     17.00025         0.516400      0.162822      1.106676
      7.82759      0.32296      4.07325        -0.553697     -2.994864      2.158052
      6.70618     14.23443     13.75565         0.618532      0.602727      0.626556
      2.93216     15.00927      0.00000        -0.340061      1.063637     -0.238922
      9.96981      7.70718     10.51105        -0.431102      0.346895     -0.730453
      6.70618      7.70718     13.75565        -0.106215      0.109377     -0.099693
     11.21674     17.26870      0.00000        -2.229272      0.699935     -5.966407
      8.20416      2.20582      5.43100         3.704758      2.228398      0.090625
     13.23343      1.17993     13.75565        -0.760188     -0.539472      0.480485
      2.55558      3.33553      1.35775         2.942025     -0.570674      1.448304
     18.74818     15.76241      5.43100        -0.019091      0.202161      0.590341
     13.23343     14.23443     13.75565         0.101254     -0.041372     -0.139833
      0.67272      3.71211      0.00000        -2.812849     -0.436325     -2.219049
     16.49706      7.70718     10.51105        -0.753996      0.840057     -0.614089
     13.23343      7.70718     13.75565         0.570081      0.614651      0.650543
      9.71045     19.52813      2.71550         3.078054     -0.672252     -2.061467
      2.17901     11.24355      5.43100         3.163045     -0.132312     -1.780280
      0.17893      1.17993     13.75565         0.031535      0.018920      0.011811
     16.49706      1.17993     17.00025         0.838563      1.077508     -2.374049
      3.44256     14.23443     10.51105        -0.024515     -0.373034     -1.209363
      0.17893     14.23443     13.75565         0.518990      0.628318      0.477663
      8.20417      2.20582      0.00000         0.400868     -0.070064     -3.479473
      3.44256      7.70718     10.51105         0.716897     -0.496160     -0.256173
      0.17893      7.70718     13.75565         0.706231      0.563155      0.518043
     16.49706      7.70718     17.00025        -2.863213     -1.490030     -7.088779
      3.30873      7.10125      6.78875         0.409633     -0.052566      3.470511
      8.33799     19.12986     12.13335         0.094112     -0.025241      0.125810
      5.07437     19.12986     15.37795         0.684171     -0.285138      0.551597
     11.60162     12.60261      8.88875        -2.859799     -1.505070      7.112041
      8.33799     12.60261     12.13335         0.591700      0.601267     -0.620202
      5.07437     12.60261     15.37795         0.080211     -0.212196      1.377471
     11.60162      6.07536      8.88875         0.830570      1.083317      2.369391
      8.33799      6.07536     12.13335        -0.749661     -0.570198     -0.509216
      5.07437      6.07536     15.37795        -0.751891      0.511661      0.248929
     17.61847      0.32296      6.78875        -0.358696      1.058313      0.230927
     14.86524     19.12986     12.13335         0.531049      0.648607     -0.450453
      3.68530     18.77499      0.00000        -3.740072      0.292813     -5.296447
      6.32130      2.58239      6.78875        -2.210350      0.728785      5.977914
     14.86524     12.60261     12.13335         0.706830      0.557774     -0.484905
     11.60162     12.60261     15.37795        -0.155818      0.240482      1.180375
     18.12887      6.07536      8.88875         0.531495      0.173670     -1.086201
     14.86524      6.07536     12.13335         0.042970      0.015942     -0.055014
     11.60162      6.07536     15.37795         0.187870     -0.251022      1.254109
     15.35903      8.60754      6.78875        -2.788152     -0.439027      2.203445
      1.81075     19.12986     12.13335         0.617841      0.615746     -0.610210
     18.12887     19.12986     15.37795         0.567303     -0.813785      0.668649
      4.81502      4.84182      4.07325        -0.003987      0.040079     -0.027894
      1.81075     12.60261     12.13335        -0.116288      0.128722      0.129299
     18.12887     12.60261     15.37795         0.077420      0.168640      0.999612
     17.24189      8.23097      5.43100         2.952406     -0.562883     -1.551761
      1.81075      6.07536     12.13335         0.118629     -0.119631      0.109264
     18.12887      6.07536     15.37795         0.433126     -0.399053      0.717037
     13.23343     17.49805     10.51105         0.067414      0.184087     -0.987412
      9.96981     17.49805     13.75565         0.095407      0.014357      1.095285
     17.24190      8.23097      0.00000         2.374964      1.850491      3.958490
     13.23343     10.97080     10.51105         0.433512     -0.387968     -0.721514
      9.96981     10.97080     13.75565         0.049439      0.051577      0.033062
      7.45102     18.02185      0.00000         3.993917      0.152253     -2.495995
     13.23343      4.44355     10.51105         0.549528     -0.803053     -0.671669
      9.96981      4.44355     13.75565        -0.096257      0.080297     -0.137318
      6.70618      4.44355     17.00025         0.033728     -0.048874      1.312231
      0.17893     17.49805     10.51105         0.065821     -0.217784     -1.383108
     16.49706     17.49805     13.75565        -0.095829      0.109822     -0.103264
      6.69788     14.25613      0.00000         0.049932     -0.087547     -3.955280
      0.17893     10.97080     10.51105        -0.754898      0.530023     -0.253632
     16.49706     10.97080     13.75565        -0.519145     -0.689168      0.503173
      5.56816     18.39842      1.35775        -0.684807     -2.715780      1.617222
      0.17893      4.44355     10.51105         0.690430     -0.313247     -0.551309
     16.49706      4.44355     13.75565         0.003854     -0.006330      0.023459
      5.94473      0.69953      2.71550        -2.575076      3.607254      0.245590
      6.70618     17.49805     10.51105        -0.153124      0.256950     -1.169028
      3.44256     17.49805     13.75565        -0.619608     -0.670102      0.617814
     10.46360      3.71211      2.71550         0.195134      0.013357      0.013318
      6.70618     10.97080     10.51105         0.175147     -0.240878     -1.266513
      3.44256     10.97080     13.75565        -0.699309     -0.588259      0.499419
      9.71045      9.73726      0.00000         0.637003     -0.181062     -3.735850
     18.37161      4.08868      6.78875        -3.771787      0.286006      5.277123
      3.44256      4.44355     13.75565         0.117314     -0.086971     -0.137792
      5.19159      6.72468      0.00000        -3.537030      0.825889     -5.549285
 -----------------------------------------------------------------------------------
    total drift:                                0.177989      0.289806     -0.053993


--------------------------------------------------------------------------------------------------------



  FREE ENERGIE OF THE ION-ELECTRON SYSTEM (eV)
  ---------------------------------------------------
  free  energy   TOTEN  =     -1094.77526252 eV

  energy  without entropy=    -1094.76944018  energy(sigma->0) =    -1094.77235135
 


--------------------------------------------------------------------------------------------------------


    POTLOK:  cpu time      3.0123: real time      3.0327


--------------------------------------------------------------------------------------------------------


     LOOP+:  cpu time   6435.7856: real time   6498.9701
    4ORBIT:  cpu time      0.0000: real time      0.0000

 total amount of memory used by VASP MPI-rank0   919129. kBytes
=======================================================================

   base      :      30000. kBytes
   nonlr-proj:      25879. kBytes
   fftplans  :      41700. kBytes
   grid      :      31129. kBytes
   one-center:        275. kBytes
   wavefun   :     790146. kBytes
 
  
  
 General timing and accounting informations for this job:
 ========================================================
  
                  Total CPU time used (sec):     6758.015
                            User time (sec):     6495.694
                          System time (sec):      262.321
                         Elapsed time (sec):     6828.489
  
                   Maximum memory used (kb):     1228188.
                   Average memory used (kb):          N/A
  
                          Minor page faults:       629929
                          Major page faults:         1191
                 Voluntary context switches:         4022
