  96  96   0   0
  0.2243693E+02  0.1265123E-08  0.1265123E-08  0.1373516E-08  0.5000000E-15
  1.000000000000000E-004
  CAR 
 Si and Ge interface calculation         
      6.51251602    -10.94808261  301      3.71136226      1.00000000
    -10.948  0.0000E+00  0.0000E+00  0.0000E+00  0.0000E+00
    -10.890  0.0000E+00  0.0000E+00  0.0000E+00  0.0000E+00
    -10.832  0.0000E+00  0.0000E+00  0.0000E+00  0.0000E+00
    -10.773  0.0000E+00  0.0000E+00  0.0000E+00  0.0000E+00
    -10.715  0.0000E+00  0.0000E+00  0.0000E+00  0.0000E+00
    -10.657  0.0000E+00  0.0000E+00  0.0000E+00  0.0000E+00
    -10.599  0.0000E+00  0.0000E+00  0.0000E+00  0.0000E+00
    -10.541  0.0000E+00  0.0000E+00  0.0000E+00  0.0000E+00
    -10.482  0.0000E+00  0.0000E+00  0.0000E+00  0.0000E+00
    -10.424  0.0000E+00  0.0000E+00  0.0000E+00  0.0000E+00
    -10.366  0.0000E+00  0.0000E+00  0.0000E+00  0.0000E+00
    -10.308  0.0000E+00  0.0000E+00  0.0000E+00  0.0000E+00
    -10.250  0.0000E+00  0.0000E+00  0.0000E+00  0.0000E+00
    -10.191  0.1550E-06  0.8934E-10  0.9022E-08  0.5200E-11
    -10.133  0.5201E+01  0.2280E+01  0.3027E+00  0.1327E+00
    -10.075  0.3657E+02  0.3615E+02  0.2431E+01  0.2236E+01
    -10.017  0.2582E+02  0.2364E+02  0.3934E+01  0.3612E+01
     -9.959  0.1137E+01  0.6660E+01  0.4000E+01  0.4000E+01
     -9.900  0.1440E-01  0.8709E-04  0.4001E+01  0.4000E+01
     -9.842  0.2289E+02  0.2283E+02  0.5333E+01  0.5328E+01
     -9.784  0.0000E+00  0.8160E-01  0.5333E+01  0.5333E+01
     -9.726  0.0000E+00  0.0000E+00  0.5333E+01  0.5333E+01
     -9.668  0.3492E-10  0.6782E-14  0.5333E+01  0.5333E+01
     -9.609  0.1261E+02  0.4443E+01  0.6067E+01  0.5592E+01
     -9.551  0.1030E+02  0.1847E+02  0.6667E+01  0.6667E+01
     -9.493  0.0000E+00  0.0000E+00  0.6667E+01  0.6667E+01
     -9.435  0.6212E-02  0.3006E-04  0.6667E+01  0.6667E+01
     -9.377  0.3435E+02  0.3403E+02  0.8666E+01  0.8647E+01
     -9.318  0.8521E-02  0.3305E+00  0.8667E+01  0.8667E+01
     -9.260  0.1978E+02  0.1031E+02  0.9818E+01  0.9267E+01
     -9.202  0.3124E+01  0.1260E+02  0.1000E+02  0.1000E+02
     -9.144  0.0000E+00  0.0000E+00  0.1000E+02  0.1000E+02
     -9.086  0.0000E+00  0.0000E+00  0.1000E+02  0.1000E+02
     -9.027  0.0000E+00  0.0000E+00  0.1000E+02  0.1000E+02
     -8.969  0.2294E-06  0.6612E-10  0.1000E+02  0.1000E+02
     -8.911  0.2538E+02  0.1972E+02  0.1148E+02  0.1115E+02
     -8.853  0.3169E+02  0.3658E+02  0.1332E+02  0.1328E+02
     -8.795  0.2012E+00  0.9597E+00  0.1333E+02  0.1333E+02
     -8.736  0.2591E+02  0.1856E+02  0.1484E+02  0.1441E+02
     -8.678  0.1990E+02  0.2726E+02  0.1600E+02  0.1600E+02
     -8.620  0.0000E+00  0.0000E+00  0.1600E+02  0.1600E+02
     -8.562  0.0000E+00  0.0000E+00  0.1600E+02  0.1600E+02
     -8.504  0.0000E+00  0.0000E+00  0.1600E+02  0.1600E+02
     -8.445  0.2429E-02  0.2521E-04  0.1600E+02  0.1600E+02
     -8.387  0.1574E+02  0.1089E+02  0.1692E+02  0.1663E+02
     -8.329  0.1632E+02  0.1951E+02  0.1787E+02  0.1777E+02
     -8.271  0.2006E+02  0.1888E+02  0.1903E+02  0.1887E+02
     -8.213  0.1912E+02  0.2133E+02  0.2015E+02  0.2011E+02
     -8.154  0.3105E+02  0.2938E+02  0.2195E+02  0.2182E+02
     -8.096  0.1616E+02  0.1561E+02  0.2289E+02  0.2273E+02
     -8.038  0.3727E+01  0.6569E+01  0.2311E+02  0.2311E+02
     -7.980  0.1117E+02  0.7267E+01  0.2376E+02  0.2353E+02
     -7.922  0.2479E+02  0.2700E+02  0.2520E+02  0.2511E+02
     -7.863  0.2303E+02  0.2088E+02  0.2654E+02  0.2632E+02
     -7.805  0.1673E+02  0.1607E+02  0.2752E+02  0.2726E+02
     -7.747  0.1791E+02  0.1939E+02  0.2856E+02  0.2838E+02
     -7.689  0.1522E+02  0.1759E+02  0.2945E+02  0.2941E+02
     -7.631  0.2925E+02  0.2810E+02  0.3115E+02  0.3104E+02
     -7.572  0.2294E+02  0.1843E+02  0.3249E+02  0.3212E+02
     -7.514  0.1741E+02  0.2087E+02  0.3350E+02  0.3333E+02
     -7.456  0.2033E+02  0.2111E+02  0.3468E+02  0.3456E+02
     -7.398  0.1805E+02  0.1572E+02  0.3573E+02  0.3548E+02
     -7.340  0.2786E+02  0.2860E+02  0.3735E+02  0.3714E+02
     -7.281  0.1505E+02  0.1653E+02  0.3823E+02  0.3810E+02
     -7.223  0.2386E+02  0.2289E+02  0.3962E+02  0.3943E+02
     -7.165  0.3808E+02  0.3561E+02  0.4184E+02  0.4151E+02
     -7.107  0.3702E+02  0.3756E+02  0.4399E+02  0.4369E+02
     -7.049  0.1968E+02  0.2436E+02  0.4514E+02  0.4511E+02
     -6.990  0.2928E+02  0.2540E+02  0.4684E+02  0.4659E+02
     -6.932  0.2925E+02  0.3122E+02  0.4854E+02  0.4841E+02
     -6.874  0.3743E+02  0.3682E+02  0.5072E+02  0.5055E+02
     -6.816  0.1787E+02  0.1786E+02  0.5176E+02  0.5159E+02
     -6.758  0.2319E+02  0.2283E+02  0.5311E+02  0.5292E+02
     -6.699  0.1649E+02  0.1729E+02  0.5407E+02  0.5392E+02
     -6.641  0.4843E+02  0.4832E+02  0.5689E+02  0.5674E+02
     -6.583  0.1570E+02  0.1781E+02  0.5780E+02  0.5777E+02
     -6.525  0.2819E+02  0.2585E+02  0.5944E+02  0.5928E+02
     -6.467  0.3969E+02  0.3523E+02  0.6175E+02  0.6133E+02
     -6.408  0.2109E+02  0.2264E+02  0.6298E+02  0.6265E+02
     -6.350  0.3600E+02  0.3732E+02  0.6508E+02  0.6482E+02
     -6.292  0.3204E+02  0.3346E+02  0.6694E+02  0.6677E+02
     -6.234  0.2176E+02  0.2041E+02  0.6821E+02  0.6795E+02
     -6.176  0.3571E+02  0.3409E+02  0.7029E+02  0.6994E+02
     -6.117  0.3420E+02  0.3590E+02  0.7228E+02  0.7203E+02
     -6.059  0.3305E+02  0.3517E+02  0.7420E+02  0.7407E+02
     -6.001  0.2642E+02  0.2377E+02  0.7574E+02  0.7546E+02
     -5.943  0.1577E+02  0.1794E+02  0.7666E+02  0.7650E+02
     -5.885  0.2879E+02  0.2559E+02  0.7833E+02  0.7799E+02
     -5.826  0.2608E+02  0.2727E+02  0.7985E+02  0.7958E+02
     -5.768  0.1882E+02  0.2191E+02  0.8095E+02  0.8085E+02
     -5.710  0.8193E+01  0.8167E+01  0.8142E+02  0.8133E+02
     -5.652  0.6715E+01  0.7809E+01  0.8181E+02  0.8178E+02
     -5.593  0.2300E+02  0.1905E+02  0.8315E+02  0.8289E+02
     -5.535  0.2707E+02  0.2798E+02  0.8473E+02  0.8452E+02
     -5.477  0.1971E+02  0.1687E+02  0.8587E+02  0.8550E+02
     -5.419  0.3861E+02  0.4394E+02  0.8812E+02  0.8806E+02
     -5.361  0.1805E+02  0.1451E+02  0.8917E+02  0.8891E+02
     -5.302  0.2605E+02  0.2584E+02  0.9069E+02  0.9041E+02
     -5.244  0.2991E+02  0.3174E+02  0.9243E+02  0.9226E+02
     -5.186  0.2347E+02  0.2287E+02  0.9380E+02  0.9359E+02
     -5.128  0.2000E+02  0.2096E+02  0.9496E+02  0.9481E+02
     -5.070  0.2377E+02  0.2051E+02  0.9634E+02  0.9600E+02
     -5.011  0.3248E+02  0.3438E+02  0.9823E+02  0.9800E+02
     -4.953  0.3195E+02  0.2653E+02  0.1001E+03  0.9955E+02
     -4.895  0.2072E+02  0.2535E+02  0.1013E+03  0.1010E+03
     -4.837  0.3123E+02  0.3170E+02  0.1031E+03  0.1029E+03
     -4.779  0.3721E+02  0.3099E+02  0.1053E+03  0.1047E+03
     -4.720  0.3730E+02  0.4011E+02  0.1075E+03  0.1070E+03
     -4.662  0.2653E+02  0.3162E+02  0.1090E+03  0.1088E+03
     -4.604  0.3274E+02  0.2839E+02  0.1109E+03  0.1105E+03
     -4.546  0.2172E+02  0.2424E+02  0.1122E+03  0.1119E+03
     -4.488  0.7962E+01  0.1124E+02  0.1126E+03  0.1126E+03
     -4.429  0.2946E+02  0.2346E+02  0.1143E+03  0.1139E+03
     -4.371  0.2093E+02  0.2529E+02  0.1156E+03  0.1154E+03
     -4.313  0.2044E+02  0.2161E+02  0.1168E+03  0.1167E+03
     -4.255  0.1561E+02  0.1658E+02  0.1177E+03  0.1176E+03
     -4.197  0.2362E+02  0.2015E+02  0.1190E+03  0.1188E+03
     -4.138  0.1682E+02  0.1245E+02  0.1200E+03  0.1195E+03
     -4.080  0.3049E+02  0.3537E+02  0.1218E+03  0.1216E+03
     -4.022  0.2586E+02  0.2664E+02  0.1233E+03  0.1231E+03
     -3.964  0.1490E+02  0.1607E+02  0.1242E+03  0.1241E+03
     -3.906  0.3676E+02  0.3113E+02  0.1263E+03  0.1259E+03
     -3.847  0.2391E+02  0.2703E+02  0.1277E+03  0.1275E+03
     -3.789  0.2483E+02  0.2337E+02  0.1291E+03  0.1288E+03
     -3.731  0.2246E+02  0.2350E+02  0.1304E+03  0.1302E+03
     -3.673  0.3347E+02  0.3329E+02  0.1324E+03  0.1321E+03
     -3.615  0.2409E+02  0.2193E+02  0.1338E+03  0.1334E+03
     -3.556  0.3018E+02  0.3536E+02  0.1356E+03  0.1355E+03
     -3.498  0.1744E+02  0.1381E+02  0.1366E+03  0.1363E+03
     -3.440  0.1408E+02  0.1524E+02  0.1374E+03  0.1371E+03
     -3.382  0.2015E+02  0.2311E+02  0.1386E+03  0.1385E+03
     -3.324  0.2448E+02  0.2400E+02  0.1400E+03  0.1399E+03
     -3.265  0.2761E+02  0.2148E+02  0.1416E+03  0.1411E+03
     -3.207  0.2399E+02  0.2539E+02  0.1430E+03  0.1426E+03
     -3.149  0.2445E+02  0.2797E+02  0.1444E+03  0.1442E+03
     -3.091  0.2154E+02  0.2151E+02  0.1457E+03  0.1455E+03
     -3.033  0.3267E+02  0.2766E+02  0.1476E+03  0.1471E+03
     -2.974  0.2130E+02  0.2842E+02  0.1488E+03  0.1488E+03
     -2.916  0.2849E+02  0.2402E+02  0.1505E+03  0.1502E+03
     -2.858  0.1943E+02  0.2131E+02  0.1516E+03  0.1514E+03
     -2.800  0.3797E+02  0.3537E+02  0.1538E+03  0.1535E+03
     -2.742  0.2932E+02  0.3337E+02  0.1555E+03  0.1554E+03
     -2.683  0.2207E+02  0.2043E+02  0.1568E+03  0.1566E+03
     -2.625  0.3787E+02  0.3248E+02  0.1590E+03  0.1585E+03
     -2.567  0.2973E+02  0.3707E+02  0.1607E+03  0.1606E+03
     -2.509  0.4415E+02  0.4009E+02  0.1633E+03  0.1630E+03
     -2.451  0.1529E+02  0.1918E+02  0.1642E+03  0.1641E+03
     -2.392  0.3210E+02  0.2695E+02  0.1661E+03  0.1657E+03
     -2.334  0.3879E+02  0.4158E+02  0.1683E+03  0.1681E+03
     -2.276  0.2824E+02  0.2554E+02  0.1700E+03  0.1696E+03
     -2.218  0.4175E+02  0.4184E+02  0.1724E+03  0.1720E+03
     -2.160  0.2276E+02  0.2420E+02  0.1737E+03  0.1734E+03
     -2.101  0.3712E+02  0.3773E+02  0.1759E+03  0.1756E+03
     -2.043  0.2687E+02  0.2882E+02  0.1774E+03  0.1773E+03
     -1.985  0.2396E+02  0.2242E+02  0.1788E+03  0.1786E+03
     -1.927  0.1722E+02  0.1903E+02  0.1798E+03  0.1797E+03
     -1.869  0.2306E+02  0.2463E+02  0.1812E+03  0.1811E+03
     -1.810  0.2005E+02  0.2038E+02  0.1823E+03  0.1823E+03
     -1.752  0.1452E+02  0.1389E+02  0.1832E+03  0.1831E+03
     -1.694  0.2942E+02  0.2892E+02  0.1849E+03  0.1848E+03
     -1.636  0.2377E+02  0.2264E+02  0.1863E+03  0.1861E+03
     -1.578  0.2170E+02  0.1885E+02  0.1876E+03  0.1872E+03
     -1.519  0.1907E+02  0.2215E+02  0.1887E+03  0.1885E+03
     -1.461  0.1401E+02  0.1509E+02  0.1895E+03  0.1894E+03
     -1.403  0.1118E+02  0.9246E+01  0.1901E+03  0.1899E+03
     -1.345  0.1784E+02  0.1923E+02  0.1912E+03  0.1910E+03
     -1.287  0.2055E+02  0.1863E+02  0.1924E+03  0.1921E+03
     -1.228  0.2310E+02  0.2105E+02  0.1937E+03  0.1934E+03
     -1.170  0.2041E+02  0.2543E+02  0.1949E+03  0.1948E+03
     -1.112  0.1117E+02  0.7778E+01  0.1955E+03  0.1953E+03
     -1.054  0.1048E+02  0.1315E+02  0.1962E+03  0.1960E+03
     -0.996  0.3484E+02  0.3244E+02  0.1982E+03  0.1979E+03
     -0.937  0.9843E+01  0.1090E+02  0.1988E+03  0.1986E+03
     -0.879  0.1590E+02  0.1680E+02  0.1997E+03  0.1995E+03
     -0.821  0.1451E+02  0.1545E+02  0.2005E+03  0.2004E+03
     -0.763  0.2323E+02  0.1750E+02  0.2019E+03  0.2015E+03
     -0.705  0.3555E+02  0.3590E+02  0.2039E+03  0.2036E+03
     -0.646  0.3003E+02  0.3502E+02  0.2057E+03  0.2056E+03
     -0.588  0.3298E+02  0.2567E+02  0.2076E+03  0.2071E+03
     -0.530  0.4642E+02  0.5133E+02  0.2103E+03  0.2101E+03
     -0.472  0.4307E+02  0.3821E+02  0.2128E+03  0.2123E+03
     -0.414  0.3942E+02  0.4350E+02  0.2151E+03  0.2148E+03
     -0.355  0.3623E+02  0.3643E+02  0.2172E+03  0.2170E+03
     -0.297  0.3171E+02  0.3153E+02  0.2191E+03  0.2188E+03
     -0.239  0.4003E+02  0.3588E+02  0.2214E+03  0.2209E+03
     -0.181  0.4904E+02  0.4949E+02  0.2243E+03  0.2238E+03
     -0.123  0.3296E+02  0.3777E+02  0.2262E+03  0.2260E+03
     -0.064  0.2771E+02  0.2581E+02  0.2278E+03  0.2275E+03
     -0.006  0.5238E+02  0.5127E+02  0.2308E+03  0.2304E+03
      0.052  0.3779E+02  0.4014E+02  0.2330E+03  0.2328E+03
      0.110  0.3112E+02  0.2954E+02  0.2348E+03  0.2345E+03
      0.168  0.5198E+02  0.5252E+02  0.2379E+03  0.2376E+03
      0.227  0.4838E+02  0.4672E+02  0.2407E+03  0.2403E+03
      0.285  0.4205E+02  0.4343E+02  0.2431E+03  0.2428E+03
      0.343  0.3794E+02  0.4161E+02  0.2453E+03  0.2452E+03
      0.401  0.3446E+02  0.3320E+02  0.2474E+03  0.2472E+03
      0.460  0.5393E+02  0.5184E+02  0.2505E+03  0.2502E+03
      0.518  0.5338E+02  0.5133E+02  0.2536E+03  0.2532E+03
      0.576  0.3320E+02  0.3621E+02  0.2555E+03  0.2553E+03
      0.634  0.4739E+02  0.4453E+02  0.2583E+03  0.2579E+03
      0.692  0.4154E+02  0.4133E+02  0.2607E+03  0.2603E+03
      0.751  0.5645E+02  0.5471E+02  0.2640E+03  0.2635E+03
      0.809  0.4502E+02  0.4533E+02  0.2666E+03  0.2661E+03
      0.867  0.5045E+02  0.5319E+02  0.2695E+03  0.2692E+03
      0.925  0.4352E+02  0.4537E+02  0.2721E+03  0.2718E+03
      0.983  0.5893E+02  0.4971E+02  0.2755E+03  0.2747E+03
      1.042  0.5349E+02  0.5967E+02  0.2786E+03  0.2782E+03
      1.100  0.4966E+02  0.5117E+02  0.2815E+03  0.2812E+03
      1.158  0.5676E+02  0.5497E+02  0.2848E+03  0.2844E+03
      1.216  0.5155E+02  0.5225E+02  0.2878E+03  0.2874E+03
      1.274  0.4552E+02  0.4462E+02  0.2905E+03  0.2900E+03
      1.333  0.5246E+02  0.5514E+02  0.2935E+03  0.2932E+03
      1.391  0.4666E+02  0.4859E+02  0.2962E+03  0.2960E+03
      1.449  0.3667E+02  0.3403E+02  0.2984E+03  0.2980E+03
      1.507  0.4292E+02  0.4338E+02  0.3009E+03  0.3006E+03
      1.565  0.3625E+02  0.3744E+02  0.3030E+03  0.3027E+03
      1.624  0.3643E+02  0.3432E+02  0.3051E+03  0.3047E+03
      1.682  0.3660E+02  0.3925E+02  0.3072E+03  0.3070E+03
      1.740  0.3566E+02  0.3099E+02  0.3093E+03  0.3088E+03
      1.798  0.2945E+02  0.3332E+02  0.3110E+03  0.3108E+03
      1.856  0.3878E+02  0.3989E+02  0.3133E+03  0.3131E+03
      1.915  0.4288E+02  0.4307E+02  0.3158E+03  0.3156E+03
      1.973  0.2876E+02  0.2520E+02  0.3174E+03  0.3171E+03
      2.031  0.3300E+02  0.3893E+02  0.3194E+03  0.3193E+03
      2.089  0.2147E+02  0.1841E+02  0.3206E+03  0.3204E+03
      2.147  0.2708E+02  0.2659E+02  0.3222E+03  0.3219E+03
      2.206  0.5057E+02  0.4732E+02  0.3251E+03  0.3247E+03
      2.264  0.4321E+02  0.3771E+02  0.3277E+03  0.3269E+03
      2.322  0.3180E+02  0.3671E+02  0.3295E+03  0.3290E+03
      2.380  0.4052E+02  0.4382E+02  0.3319E+03  0.3316E+03
      2.438  0.4564E+02  0.3741E+02  0.3345E+03  0.3337E+03
      2.497  0.3111E+02  0.3357E+02  0.3363E+03  0.3357E+03
      2.555  0.4555E+02  0.5094E+02  0.3390E+03  0.3387E+03
      2.613  0.4276E+02  0.3537E+02  0.3415E+03  0.3407E+03
      2.671  0.3268E+02  0.3519E+02  0.3434E+03  0.3428E+03
      2.729  0.3877E+02  0.4187E+02  0.3456E+03  0.3452E+03
      2.788  0.3391E+02  0.3247E+02  0.3476E+03  0.3471E+03
      2.846  0.3739E+02  0.3840E+02  0.3498E+03  0.3493E+03
      2.904  0.3658E+02  0.3953E+02  0.3519E+03  0.3516E+03
      2.962  0.3613E+02  0.3349E+02  0.3540E+03  0.3536E+03
      3.020  0.4818E+02  0.4265E+02  0.3568E+03  0.3561E+03
      3.079  0.2795E+02  0.3436E+02  0.3584E+03  0.3581E+03
      3.137  0.3315E+02  0.3184E+02  0.3604E+03  0.3599E+03
      3.195  0.3929E+02  0.3523E+02  0.3627E+03  0.3620E+03
      3.253  0.4171E+02  0.4651E+02  0.3651E+03  0.3647E+03
      3.311  0.3006E+02  0.2786E+02  0.3668E+03  0.3663E+03
      3.370  0.4127E+02  0.3867E+02  0.3692E+03  0.3686E+03
      3.428  0.4636E+02  0.3921E+02  0.3719E+03  0.3708E+03
      3.486  0.4110E+02  0.4776E+02  0.3743E+03  0.3736E+03
      3.544  0.4055E+02  0.4246E+02  0.3767E+03  0.3761E+03
      3.602  0.3609E+02  0.3578E+02  0.3788E+03  0.3782E+03
      3.661  0.4613E+02  0.4625E+02  0.3815E+03  0.3809E+03
      3.719  0.4053E+02  0.4218E+02  0.3838E+03  0.3833E+03
      3.777  0.4233E+02  0.3814E+02  0.3863E+03  0.3855E+03
      3.835  0.3523E+02  0.3899E+02  0.3883E+03  0.3878E+03
      3.893  0.3802E+02  0.4216E+02  0.3906E+03  0.3903E+03
      3.952  0.3090E+02  0.2935E+02  0.3924E+03  0.3920E+03
      4.010  0.3482E+02  0.3583E+02  0.3944E+03  0.3941E+03
      4.068  0.3411E+02  0.3207E+02  0.3964E+03  0.3959E+03
      4.126  0.4634E+02  0.4218E+02  0.3991E+03  0.3984E+03
      4.184  0.3298E+02  0.3772E+02  0.4010E+03  0.4006E+03
      4.243  0.4838E+02  0.4608E+02  0.4038E+03  0.4033E+03
      4.301  0.4055E+02  0.3768E+02  0.4062E+03  0.4054E+03
      4.359  0.3858E+02  0.4062E+02  0.4084E+03  0.4078E+03
      4.417  0.4697E+02  0.3973E+02  0.4111E+03  0.4101E+03
      4.475  0.4395E+02  0.4806E+02  0.4137E+03  0.4129E+03
      4.534  0.3907E+02  0.3651E+02  0.4160E+03  0.4150E+03
      4.592  0.3011E+02  0.4328E+02  0.4177E+03  0.4176E+03
      4.650  0.4586E+02  0.3326E+02  0.4204E+03  0.4195E+03
      4.708  0.4545E+02  0.5107E+02  0.4230E+03  0.4225E+03
      4.766  0.3752E+02  0.3944E+02  0.4252E+03  0.4248E+03
      4.825  0.3634E+02  0.3558E+02  0.4273E+03  0.4268E+03
      4.883  0.3971E+02  0.3190E+02  0.4296E+03  0.4287E+03
      4.941  0.4024E+02  0.4662E+02  0.4320E+03  0.4314E+03
      4.999  0.4693E+02  0.4893E+02  0.4347E+03  0.4343E+03
      5.057  0.5083E+02  0.4687E+02  0.4377E+03  0.4370E+03
      5.116  0.2742E+02  0.3445E+02  0.4393E+03  0.4390E+03
      5.174  0.4227E+02  0.3542E+02  0.4417E+03  0.4411E+03
      5.232  0.4503E+02  0.4727E+02  0.4444E+03  0.4438E+03
      5.290  0.4143E+02  0.4219E+02  0.4468E+03  0.4463E+03
      5.348  0.4174E+02  0.4236E+02  0.4492E+03  0.4487E+03
      5.407  0.4457E+02  0.4675E+02  0.4518E+03  0.4514E+03
      5.465  0.3608E+02  0.3449E+02  0.4539E+03  0.4535E+03
      5.523  0.5238E+02  0.5011E+02  0.4569E+03  0.4564E+03
      5.581  0.5934E+02  0.5991E+02  0.4604E+03  0.4599E+03
      5.639  0.4172E+02  0.4577E+02  0.4628E+03  0.4625E+03
      5.698  0.1951E+02  0.1778E+02  0.4640E+03  0.4636E+03
      5.756  0.7207E+00  0.7635E+01  0.4640E+03  0.4640E+03
      5.814  0.0000E+00  0.0000E+00  0.4640E+03  0.4640E+03
      5.872  0.0000E+00  0.0000E+00  0.4640E+03  0.4640E+03
      5.930  0.0000E+00  0.0000E+00  0.4640E+03  0.4640E+03
      5.989  0.0000E+00  0.0000E+00  0.4640E+03  0.4640E+03
      6.047  0.0000E+00  0.0000E+00  0.4640E+03  0.4640E+03
      6.105  0.0000E+00  0.0000E+00  0.4640E+03  0.4640E+03
      6.163  0.0000E+00  0.0000E+00  0.4640E+03  0.4640E+03
      6.222  0.0000E+00  0.0000E+00  0.4640E+03  0.4640E+03
      6.280  0.0000E+00  0.0000E+00  0.4640E+03  0.4640E+03
      6.338  0.0000E+00  0.0000E+00  0.4640E+03  0.4640E+03
      6.396  0.0000E+00  0.0000E+00  0.4640E+03  0.4640E+03
      6.454  0.0000E+00  0.0000E+00  0.4640E+03  0.4640E+03
      6.513  0.0000E+00  0.0000E+00  0.4640E+03  0.4640E+03
