Si and Ge interface calculation         
           1
    12.978400    0.000000    0.000000
   -12.978400   14.510293    0.000000
     0.000000    0.000000    9.389106
   Sn   Ge
    24    24
Direct configuration=     1
   0.97956431  0.03065353  0.00000001
   0.77956426  0.33065358  0.15454395
   0.57956415  0.63065362  0.30908790
   0.47956425  0.03065353  0.00000001
   0.27956420  0.33065358  0.15454395
   0.07956413  0.63065362  0.30908790
   0.25456432  0.68065351  0.07727182
   0.05456416  0.98065347  0.23181579
   0.85456413  0.28065360  0.38635969
   0.75456440  0.68065351  0.07727182
   0.55456424  0.98065347  0.23181579
   0.35456416  0.28065360  0.38635969
   0.22956428  0.53065348  0.00000000
   0.02956419  0.83065349  0.15454395
   0.82956403  0.13065362  0.30908790
   0.72956419  0.53065348  0.00000000
   0.52956414  0.83065349  0.15454395
   0.32956403  0.13065362  0.30908790
   0.00456433  0.18065351  0.07727183
   0.80456418  0.48065358  0.23181579
   0.60456425  0.78065366  0.38635969
   0.50456429  0.18065351  0.07727183
   0.30456418  0.48065358  0.23181579
   0.10456417  0.78065366  0.38635969
   0.05052662  0.83143258  0.55565727
   0.93385988  0.41476583  0.61066627
   0.81719315  0.99809903  0.66567528
   0.70052630  0.58143234  0.72068435
   0.58385962  0.16476560  0.77569330
   0.46719280  0.74809861  0.83070236
   0.55052662  0.08143246  0.55565727
   0.43385988  0.66476572  0.61066627
   0.31719312  0.24809909  0.66567528
   0.20052633  0.83143234  0.72068423
   0.08385957  0.41476560  0.77569324
   0.96719289  0.99809867  0.83070231
   0.55052662  0.33143246  0.55565733
   0.43385986  0.91476583  0.61066633
   0.31719309  0.49809909  0.66567528
   0.20052636  0.08143222  0.72068429
   0.08385963  0.66476560  0.77569330
   0.96719277  0.24809861  0.83070236
   0.05052662  0.58143258  0.55565733
   0.93385982  0.16476572  0.61066633
   0.81719309  0.74809897  0.66567528
   0.70052630  0.33143222  0.72068429
   0.58385956  0.91476560  0.77569336
   0.46719280  0.49809861  0.83070236
