       N       E                     dE             d eps       ncg     rms          rms(c)
DAV:   1     0.465052541319E+04    0.46505E+04   -0.44328E+05 20352   0.167E+03
DAV:   2    -0.599269138207E+03   -0.52498E+04   -0.50689E+04 23976   0.203E+02
DAV:   3    -0.113206325272E+04   -0.53279E+03   -0.51551E+03 25984   0.587E+01
DAV:   4    -0.115437309950E+04   -0.22310E+02   -0.21823E+02 24904   0.128E+01
DAV:   5    -0.115540179159E+04   -0.10287E+01   -0.10185E+01 28736   0.271E+00    0.478E+01
DAV:   6    -0.112418066001E+04    0.31221E+02   -0.11951E+02 31288   0.137E+01    0.220E+01
DAV:   7    -0.112242669881E+04    0.17540E+01   -0.70682E+01 26016   0.116E+01    0.158E+01
DAV:   8    -0.111972653696E+04    0.27002E+01   -0.15500E+01 24144   0.505E+00    0.313E+00
DAV:   9    -0.111975921171E+04   -0.32675E-01   -0.41629E+00 25488   0.211E+00    0.222E+00
DAV:  10    -0.111967184299E+04    0.87369E-01   -0.11664E+00 24784   0.127E+00    0.156E+00
DAV:  11    -0.111965313528E+04    0.18708E-01   -0.21575E-01 23936   0.555E-01    0.105E+00
DAV:  12    -0.111965555767E+04   -0.24224E-02   -0.54270E-02 23656   0.269E-01    0.638E-01
DAV:  13    -0.111965375787E+04    0.17998E-02   -0.22720E-02 25240   0.203E-01    0.320E-01
DAV:  14    -0.111965360267E+04    0.15520E-03   -0.10976E-02 25216   0.126E-01    0.172E-01
DAV:  15    -0.111965318197E+04    0.42070E-03   -0.49226E-03 24888   0.861E-02    0.969E-02
DAV:  16    -0.111965305631E+04    0.12566E-03   -0.16256E-03 24416   0.486E-02    0.674E-02
DAV:  17    -0.111965304692E+04    0.93873E-05   -0.41894E-04 23848   0.232E-02    0.519E-02
DAV:  18    -0.111965305686E+04   -0.99341E-05   -0.11717E-04 23952   0.127E-02    0.247E-02
DAV:  19    -0.111965305413E+04    0.27281E-05   -0.42902E-05 24768   0.885E-03    0.148E-02
DAV:  20    -0.111965304964E+04    0.44908E-05   -0.15627E-05 24696   0.535E-03    0.107E-02
DAV:  21    -0.111965305037E+04   -0.73206E-06   -0.64184E-06 24056   0.248E-03    0.624E-03
DAV:  22    -0.111965305086E+04   -0.48701E-06   -0.15708E-06 23864   0.128E-03    0.272E-03
DAV:  23    -0.111965305139E+04   -0.53064E-06   -0.31781E-07 15096   0.578E-04    0.184E-03
DAV:  24    -0.111965305192E+04   -0.52960E-06   -0.18281E-07 14504   0.454E-04    0.117E-03
DAV:  25    -0.111965305213E+04   -0.21121E-06   -0.93943E-08 11824   0.304E-04    0.100E-03
DAV:  26    -0.111965305208E+04    0.44311E-07   -0.28658E-08 11768   0.200E-04
   1 F= -.11196531E+04 E0= -.11196506E+04  d E =-.493976E-02  mag=     1.0000
