Si Bulk DFT energetics calculations using VASP\n
This script is running on comp019.cluster.local in /lustre/home/ah1365/projects/127870/upgrade_report/case_studies/common/structures/interfaces/120_Si72Ge48_011_001_a0.368421_b0.222222_c2.163935_interface6shift5swap3\n
Job started on: Sun  8 Jun 11:12:32 UTC 2025\n
 running   64 mpi-ranks, on    4 nodes
 distrk:  each k-point on   64 cores,    1 groups
 distr:  one band on   16 cores,    4 groups
 vasp.6.4.3 19Mar24 (build Oct 22 2024 11:23:12) complex                        
  
 POSCAR found type information on POSCAR SiGe
 POSCAR found :  2 types and     120 ions
 -----------------------------------------------------------------------------
|                                                                             |
|           W    W    AA    RRRRR   N    N  II  N    N   GGGG   !!!           |
|           W    W   A  A   R    R  NN   N  II  NN   N  G    G  !!!           |
|           W    W  A    A  R    R  N N  N  II  N N  N  G       !!!           |
|           W WW W  AAAAAA  RRRRR   N  N N  II  N  N N  G  GGG   !            |
|           WW  WW  A    A  R   R   N   NN  II  N   NN  G    G                |
|           W    W  A    A  R    R  N    N  II  N    N   GGGG   !!!           |
|                                                                             |
|     You use a magnetic or noncollinear calculation, but did not specify     |
|     the initial magnetic moment with the MAGMOM tag. Note that a            |
|     default of 8.333e-3 will be used for all atoms. This ferromagnetic      |
|     setup may break the symmetry of the crystal, in particular it may       |
|     rule out finding an antiferromagnetic solution. Thence, we              |
|     recommend setting the initial magnetic moment manually or verifying     |
|     carefully that this magnetic setup is desired.                          |
|                                                                             |
 -----------------------------------------------------------------------------

 scaLAPACK will be used
 LDA part: xc-table for (Slater+PW92), standard interpolation
 POSCAR, INCAR and KPOINTS ok, starting setup
 FFT: planning ... GRIDC
 FFT: planning ... GRID_SOFT
 FFT: planning ... GRID
 WAVECAR not read
 entering main loop
       N       E                     dE             d eps       ncg     rms          rms(c)
DAV:   1     0.196892146893E+04    0.19689E+04   -0.21441E+05 13824   0.173E+03
DAV:   2    -0.360259258075E+03   -0.23292E+04   -0.22465E+04 16192   0.215E+02
DAV:   3    -0.576971929381E+03   -0.21671E+03   -0.21039E+03 17048   0.573E+01
DAV:   4    -0.584755622180E+03   -0.77837E+01   -0.76643E+01 16344   0.117E+01
DAV:   5    -0.585041357836E+03   -0.28574E+00   -0.28407E+00 18200   0.221E+00    0.318E+01
DAV:   6    -0.576041510830E+03    0.89998E+01   -0.13835E+01 16680   0.769E+00    0.145E+01
DAV:   7    -0.576017364060E+03    0.24147E-01   -0.14191E+01 16704   0.817E+00    0.620E+00
DAV:   8    -0.575273174648E+03    0.74419E+00   -0.37864E+00 16664   0.460E+00    0.165E+00
DAV:   9    -0.575298123734E+03   -0.24949E-01   -0.97333E-01 16464   0.148E+00    0.114E+00
DAV:  10    -0.575285459228E+03    0.12665E-01   -0.15439E-01 16080   0.691E-01    0.705E-01
DAV:  11    -0.575285843566E+03   -0.38434E-03   -0.33062E-02 15816   0.298E-01    0.416E-01
DAV:  12    -0.575284690302E+03    0.11533E-02   -0.84980E-03 16264   0.186E-01    0.209E-01
DAV:  13    -0.575284750534E+03   -0.60232E-04   -0.26927E-03 15528   0.806E-02    0.116E-01
DAV:  14    -0.575284819081E+03   -0.68547E-04   -0.68391E-04 15600   0.475E-02    0.645E-02
DAV:  15    -0.575284834057E+03   -0.14976E-04   -0.20157E-04 15768   0.225E-02    0.384E-02
DAV:  16    -0.575284850735E+03   -0.16678E-04   -0.10228E-04 16080   0.153E-02    0.228E-02
DAV:  17    -0.575284864186E+03   -0.13451E-04   -0.71034E-05 16368   0.129E-02    0.152E-02
DAV:  18    -0.575284870804E+03   -0.66173E-05   -0.33017E-05 16152   0.891E-03    0.132E-02
DAV:  19    -0.575284878830E+03   -0.80267E-05   -0.20889E-05 16064   0.578E-03    0.100E-02
DAV:  20    -0.575284891039E+03   -0.12209E-04   -0.38301E-05 16464   0.676E-03    0.621E-03
DAV:  21    -0.575284900937E+03   -0.98985E-05   -0.38062E-05 16536   0.656E-03    0.573E-03
DAV:  22    -0.575284906883E+03   -0.59458E-05   -0.24181E-05 16960   0.526E-03    0.485E-03
DAV:  23    -0.575284914793E+03   -0.79095E-05   -0.76107E-05 16144   0.932E-03    0.369E-03
DAV:  24    -0.575284917343E+03   -0.25498E-05   -0.16711E-05 17616   0.435E-03    0.328E-03
DAV:  25    -0.575284919008E+03   -0.16658E-05   -0.83304E-06 16696   0.310E-03    0.232E-03
DAV:  26    -0.575284920370E+03   -0.13615E-05   -0.12709E-05 16584   0.373E-03    0.190E-03
DAV:  27    -0.575284921452E+03   -0.10818E-05   -0.12575E-05 16672   0.373E-03    0.178E-03
DAV:  28    -0.575284922126E+03   -0.67404E-06   -0.96438E-06 16784   0.324E-03    0.136E-03
DAV:  29    -0.575284922641E+03   -0.51547E-06   -0.81024E-06 16752   0.298E-03    0.652E-04
DAV:  30    -0.575284922912E+03   -0.27048E-06   -0.63027E-07 15336   0.101E-03    0.109E-03
DAV:  31    -0.575284922909E+03    0.30141E-08   -0.27874E-08  8216   0.253E-04
   1 F= -.57528492E+03 E0= -.57528405E+03  d E =-.175277E-02  mag=     1.0000
Job ended on: Sun  8 Jun 11:37:26 UTC 2025\n
