  48  48   0   0
  0.1668662E+02  0.7680595E-09  0.1214409E-08  0.9051668E-09  0.5000000E-15
  1.000000000000000E-004
  CAR 
 Si and Ge interface calculation         
     10.99831053     -8.93812978  301      7.99661167      1.00000000
     -8.938  0.0000E+00  0.0000E+00  0.0000E+00  0.0000E+00
     -8.872  0.0000E+00  0.0000E+00  0.0000E+00  0.0000E+00
     -8.805  0.0000E+00  0.0000E+00  0.0000E+00  0.0000E+00
     -8.739  0.0000E+00  0.0000E+00  0.0000E+00  0.0000E+00
     -8.672  0.0000E+00  0.0000E+00  0.0000E+00  0.0000E+00
     -8.606  0.0000E+00  0.0000E+00  0.0000E+00  0.0000E+00
     -8.539  0.0000E+00  0.0000E+00  0.0000E+00  0.0000E+00
     -8.473  0.0000E+00  0.0000E+00  0.0000E+00  0.0000E+00
     -8.406  0.0000E+00  0.0000E+00  0.0000E+00  0.0000E+00
     -8.340  0.0000E+00  0.0000E+00  0.0000E+00  0.0000E+00
     -8.274  0.0000E+00  0.0000E+00  0.0000E+00  0.0000E+00
     -8.207  0.0000E+00  0.0000E+00  0.0000E+00  0.0000E+00
     -8.141  0.0000E+00  0.0000E+00  0.0000E+00  0.0000E+00
     -8.074  0.9361E-09  0.0000E+00  0.6221E-10  0.0000E+00
     -8.008  0.7163E+01  0.2637E+00  0.4760E+00  0.1752E-01
     -7.941  0.1428E+01  0.7260E+01  0.5736E+00  0.5000E+00
     -7.875  0.1394E+02  0.1502E+02  0.1500E+01  0.1498E+01
     -7.808  0.0000E+00  0.0000E+00  0.1500E+01  0.1500E+01
     -7.742  0.1049E-13  0.0000E+00  0.1500E+01  0.1500E+01
     -7.675  0.1097E+02  0.1439E-01  0.2229E+01  0.1501E+01
     -7.609  0.4075E+01  0.1503E+02  0.2500E+01  0.2500E+01
     -7.543  0.0000E+00  0.0000E+00  0.2500E+01  0.2500E+01
     -7.476  0.0000E+00  0.0000E+00  0.2500E+01  0.2500E+01
     -7.410  0.6538E-02  0.2021E-11  0.2500E+01  0.2500E+01
     -7.343  0.1506E+02  0.1419E+02  0.3501E+01  0.3443E+01
     -7.277  0.7442E+01  0.5064E+01  0.3996E+01  0.3786E+01
     -7.210  0.1137E+02  0.7882E+01  0.4756E+01  0.4310E+01
     -7.144  0.1120E+02  0.1354E+02  0.5500E+01  0.5209E+01
     -7.077  0.0000E+00  0.4372E+01  0.5500E+01  0.5500E+01
     -7.011  0.0000E+00  0.0000E+00  0.5500E+01  0.5500E+01
     -6.944  0.0000E+00  0.0000E+00  0.5500E+01  0.5500E+01
     -6.878  0.2550E+01  0.2151E-06  0.5669E+01  0.5500E+01
     -6.812  0.1250E+02  0.1006E+02  0.6500E+01  0.6169E+01
     -6.745  0.0000E+00  0.4987E+01  0.6500E+01  0.6500E+01
     -6.679  0.0000E+00  0.0000E+00  0.6500E+01  0.6500E+01
     -6.612  0.0000E+00  0.0000E+00  0.6500E+01  0.6500E+01
     -6.546  0.0000E+00  0.0000E+00  0.6500E+01  0.6500E+01
     -6.479  0.0000E+00  0.0000E+00  0.6500E+01  0.6500E+01
     -6.413  0.2416E+01  0.2700E-07  0.6661E+01  0.6500E+01
     -6.346  0.1263E+02  0.1056E+02  0.7500E+01  0.7202E+01
     -6.280  0.2907E+01  0.6025E+01  0.7693E+01  0.7606E+01
     -6.213  0.4758E+01  0.5893E+01  0.8009E+01  0.7997E+01
     -6.147  0.1280E+02  0.8584E+01  0.8860E+01  0.8570E+01
     -6.081  0.9627E+01  0.9536E+01  0.9500E+01  0.9206E+01
     -6.014  0.0000E+00  0.4426E+01  0.9500E+01  0.9500E+01
     -5.948  0.1878E-06  0.0000E+00  0.9500E+01  0.9500E+01
     -5.881  0.7486E+01  0.1171E+01  0.9997E+01  0.9578E+01
     -5.815  0.7561E+01  0.1232E+02  0.1050E+02  0.1040E+02
     -5.748  0.0000E+00  0.1560E+01  0.1050E+02  0.1050E+02
     -5.682  0.0000E+00  0.0000E+00  0.1050E+02  0.1050E+02
     -5.615  0.0000E+00  0.0000E+00  0.1050E+02  0.1050E+02
     -5.549  0.4748E-01  0.4637E-11  0.1050E+02  0.1050E+02
     -5.482  0.1037E+02  0.4970E+01  0.1119E+02  0.1083E+02
     -5.416  0.4629E+01  0.1003E+02  0.1150E+02  0.1150E+02
     -5.350  0.1087E-05  0.0000E+00  0.1150E+02  0.1150E+02
     -5.283  0.5022E+01  0.1678E+01  0.1183E+02  0.1161E+02
     -5.217  0.2502E+01  0.5728E+01  0.1200E+02  0.1199E+02
     -5.150  0.0000E+00  0.1184E+00  0.1200E+02  0.1200E+02
     -5.084  0.0000E+00  0.0000E+00  0.1200E+02  0.1200E+02
     -5.017  0.0000E+00  0.0000E+00  0.1200E+02  0.1200E+02
     -4.951  0.0000E+00  0.0000E+00  0.1200E+02  0.1200E+02
     -4.884  0.0000E+00  0.0000E+00  0.1200E+02  0.1200E+02
     -4.818  0.0000E+00  0.0000E+00  0.1200E+02  0.1200E+02
     -4.751  0.0000E+00  0.0000E+00  0.1200E+02  0.1200E+02
     -4.685  0.0000E+00  0.0000E+00  0.1200E+02  0.1200E+02
     -4.619  0.0000E+00  0.0000E+00  0.1200E+02  0.1200E+02
     -4.552  0.0000E+00  0.0000E+00  0.1200E+02  0.1200E+02
     -4.486  0.0000E+00  0.0000E+00  0.1200E+02  0.1200E+02
     -4.419  0.2863E-02  0.1161E-09  0.1200E+02  0.1200E+02
     -4.353  0.3342E+01  0.3329E+01  0.1222E+02  0.1222E+02
     -4.286  0.5981E+01  0.3949E+01  0.1262E+02  0.1248E+02
     -4.220  0.5736E+01  0.3800E+01  0.1300E+02  0.1274E+02
     -4.153  0.3270E+01  0.7254E+01  0.1322E+02  0.1322E+02
     -4.087  0.5799E+01  0.3366E+01  0.1361E+02  0.1345E+02
     -4.020  0.9655E+01  0.9418E+01  0.1425E+02  0.1407E+02
     -3.954  0.8733E+01  0.9387E+01  0.1483E+02  0.1470E+02
     -3.888  0.6537E+01  0.4978E+01  0.1527E+02  0.1503E+02
     -3.821  0.2972E+01  0.5390E+01  0.1547E+02  0.1539E+02
     -3.755  0.1321E+02  0.5527E+01  0.1634E+02  0.1576E+02
     -3.688  0.1630E+02  0.1944E+02  0.1743E+02  0.1705E+02
     -3.622  0.9949E+01  0.1162E+02  0.1809E+02  0.1782E+02
     -3.555  0.1231E+02  0.1470E+02  0.1891E+02  0.1880E+02
     -3.489  0.6398E+01  0.6172E+01  0.1934E+02  0.1921E+02
     -3.422  0.1022E+02  0.9420E+01  0.2002E+02  0.1984E+02
     -3.356  0.9915E+01  0.8837E+01  0.2067E+02  0.2042E+02
     -3.289  0.1424E+02  0.1422E+02  0.2162E+02  0.2137E+02
     -3.223  0.1066E+02  0.1024E+02  0.2233E+02  0.2205E+02
     -3.157  0.8409E+01  0.1056E+02  0.2289E+02  0.2275E+02
     -3.090  0.8357E+01  0.8461E+01  0.2345E+02  0.2331E+02
     -3.024  0.1029E+02  0.1038E+02  0.2414E+02  0.2400E+02
     -2.957  0.8978E+01  0.7536E+01  0.2473E+02  0.2451E+02
     -2.891  0.8230E+01  0.8783E+01  0.2528E+02  0.2509E+02
     -2.824  0.1044E+02  0.9156E+01  0.2598E+02  0.2570E+02
     -2.758  0.1190E+02  0.1408E+02  0.2677E+02  0.2664E+02
     -2.691  0.1329E+02  0.1015E+02  0.2765E+02  0.2731E+02
     -2.625  0.1260E+02  0.1440E+02  0.2849E+02  0.2827E+02
     -2.558  0.1904E+02  0.1753E+02  0.2975E+02  0.2944E+02
     -2.492  0.1100E+02  0.1346E+02  0.3049E+02  0.3033E+02
     -2.426  0.1166E+02  0.1100E+02  0.3126E+02  0.3106E+02
     -2.359  0.6943E+01  0.6507E+01  0.3173E+02  0.3150E+02
     -2.293  0.2452E+02  0.2323E+02  0.3336E+02  0.3305E+02
     -2.226  0.1024E+02  0.1099E+02  0.3404E+02  0.3378E+02
     -2.160  0.1581E+02  0.1263E+02  0.3509E+02  0.3462E+02
     -2.093  0.1076E+02  0.1439E+02  0.3580E+02  0.3558E+02
     -2.027  0.1479E+02  0.1131E+02  0.3679E+02  0.3633E+02
     -1.960  0.1013E+02  0.1392E+02  0.3747E+02  0.3725E+02
     -1.894  0.5922E+01  0.7089E+01  0.3786E+02  0.3773E+02
     -1.827  0.1150E+02  0.9640E+01  0.3863E+02  0.3837E+02
     -1.761  0.1501E+02  0.1387E+02  0.3963E+02  0.3929E+02
     -1.695  0.1771E+02  0.1814E+02  0.4081E+02  0.4050E+02
     -1.628  0.8710E+01  0.1200E+02  0.4139E+02  0.4130E+02
     -1.562  0.1374E+02  0.5193E+01  0.4230E+02  0.4164E+02
     -1.495  0.9228E+01  0.1557E+02  0.4292E+02  0.4268E+02
     -1.429  0.1857E+02  0.1649E+02  0.4415E+02  0.4378E+02
     -1.362  0.1347E+02  0.1571E+02  0.4505E+02  0.4482E+02
     -1.296  0.1557E+02  0.1170E+02  0.4609E+02  0.4560E+02
     -1.229  0.1359E+02  0.1783E+02  0.4699E+02  0.4679E+02
     -1.163  0.6838E+01  0.8603E+01  0.4745E+02  0.4736E+02
     -1.096  0.9614E+01  0.6249E+01  0.4808E+02  0.4777E+02
     -1.030  0.9304E+01  0.1065E+02  0.4870E+02  0.4848E+02
     -0.964  0.1541E+02  0.1408E+02  0.4973E+02  0.4942E+02
     -0.897  0.1352E+02  0.1544E+02  0.5063E+02  0.5044E+02
     -0.831  0.1037E+02  0.9729E+01  0.5131E+02  0.5109E+02
     -0.764  0.1277E+02  0.1252E+02  0.5217E+02  0.5192E+02
     -0.698  0.8824E+01  0.8668E+01  0.5275E+02  0.5250E+02
     -0.631  0.1125E+02  0.1197E+02  0.5350E+02  0.5330E+02
     -0.565  0.1749E+02  0.1363E+02  0.5466E+02  0.5420E+02
     -0.498  0.1265E+02  0.1556E+02  0.5550E+02  0.5524E+02
     -0.432  0.3573E+01  0.5611E+01  0.5574E+02  0.5561E+02
     -0.365  0.1346E+02  0.9300E+01  0.5664E+02  0.5623E+02
     -0.299  0.1394E+02  0.1344E+02  0.5757E+02  0.5713E+02
     -0.233  0.1226E+02  0.1722E+02  0.5839E+02  0.5827E+02
     -0.166  0.5419E+01  0.5176E+01  0.5875E+02  0.5862E+02
     -0.100  0.2144E+02  0.1363E+02  0.6017E+02  0.5952E+02
     -0.033  0.1025E+02  0.1625E+02  0.6085E+02  0.6061E+02
      0.033  0.1007E+02  0.1024E+02  0.6152E+02  0.6129E+02
      0.100  0.1293E+02  0.1402E+02  0.6238E+02  0.6222E+02
      0.166  0.1331E+02  0.1056E+02  0.6327E+02  0.6292E+02
      0.233  0.5971E+01  0.1076E+02  0.6367E+02  0.6364E+02
      0.299  0.1100E+02  0.6066E+01  0.6440E+02  0.6405E+02
      0.366  0.8684E+01  0.1069E+02  0.6498E+02  0.6476E+02
      0.432  0.9976E+01  0.1093E+02  0.6564E+02  0.6548E+02
      0.498  0.1285E+02  0.1334E+02  0.6650E+02  0.6637E+02
      0.565  0.1300E+02  0.1198E+02  0.6736E+02  0.6717E+02
      0.631  0.7977E+01  0.1018E+02  0.6789E+02  0.6785E+02
      0.698  0.1812E+02  0.1244E+02  0.6910E+02  0.6867E+02
      0.764  0.9834E+01  0.1209E+02  0.6975E+02  0.6948E+02
      0.831  0.1958E+02  0.1828E+02  0.7105E+02  0.7069E+02
      0.897  0.7556E+01  0.1269E+02  0.7156E+02  0.7154E+02
      0.964  0.4553E+01  0.1923E+01  0.7186E+02  0.7167E+02
      1.030  0.1562E+02  0.1258E+02  0.7290E+02  0.7250E+02
      1.097  0.1259E+02  0.1314E+02  0.7373E+02  0.7338E+02
      1.163  0.1054E+02  0.1191E+02  0.7444E+02  0.7417E+02
      1.229  0.7886E+01  0.1065E+02  0.7496E+02  0.7488E+02
      1.296  0.1715E+02  0.1231E+02  0.7610E+02  0.7569E+02
      1.362  0.1634E+02  0.1814E+02  0.7719E+02  0.7690E+02
      1.429  0.1395E+02  0.1381E+02  0.7811E+02  0.7782E+02
      1.495  0.1677E+02  0.1461E+02  0.7923E+02  0.7879E+02
      1.562  0.2172E+02  0.1828E+02  0.8067E+02  0.8001E+02
      1.628  0.2102E+02  0.2473E+02  0.8207E+02  0.8165E+02
      1.695  0.2337E+02  0.2022E+02  0.8362E+02  0.8300E+02
      1.761  0.2764E+02  0.2177E+02  0.8546E+02  0.8445E+02
      1.828  0.1342E+02  0.2563E+02  0.8636E+02  0.8615E+02
      1.894  0.8810E+01  0.7667E+01  0.8694E+02  0.8666E+02
      1.960  0.9200E+01  0.9329E+01  0.8755E+02  0.8728E+02
      2.027  0.1513E+02  0.1642E+02  0.8856E+02  0.8837E+02
      2.093  0.2460E+02  0.2091E+02  0.9020E+02  0.8977E+02
      2.160  0.1298E+02  0.1572E+02  0.9106E+02  0.9081E+02
      2.226  0.1654E+02  0.1578E+02  0.9216E+02  0.9186E+02
      2.293  0.1478E+02  0.1428E+02  0.9314E+02  0.9281E+02
      2.359  0.1624E+02  0.1688E+02  0.9422E+02  0.9394E+02
      2.426  0.1873E+02  0.2059E+02  0.9547E+02  0.9531E+02
      2.492  0.1853E+02  0.1533E+02  0.9670E+02  0.9633E+02
      2.559  0.1707E+02  0.1802E+02  0.9783E+02  0.9753E+02
      2.625  0.1354E+02  0.1431E+02  0.9873E+02  0.9848E+02
      2.691  0.1432E+02  0.1047E+02  0.9969E+02  0.9918E+02
      2.758  0.1365E+02  0.1541E+02  0.1006E+03  0.1002E+03
      2.824  0.1444E+02  0.1481E+02  0.1016E+03  0.1012E+03
      2.891  0.9302E+01  0.1063E+02  0.1022E+03  0.1019E+03
      2.957  0.1162E+02  0.1429E+02  0.1029E+03  0.1028E+03
      3.024  0.3777E+01  0.1573E+01  0.1032E+03  0.1029E+03
      3.090  0.1827E+02  0.9829E+01  0.1044E+03  0.1036E+03
      3.157  0.1828E+02  0.2920E+02  0.1056E+03  0.1055E+03
      3.223  0.1058E+02  0.7886E+01  0.1063E+03  0.1061E+03
      3.290  0.1099E+02  0.9531E+01  0.1071E+03  0.1067E+03
      3.356  0.1705E+02  0.1890E+02  0.1082E+03  0.1080E+03
      3.422  0.2080E+02  0.1751E+02  0.1096E+03  0.1091E+03
      3.489  0.1345E+02  0.1489E+02  0.1105E+03  0.1101E+03
      3.555  0.2771E+02  0.2452E+02  0.1123E+03  0.1117E+03
      3.622  0.1590E+02  0.1887E+02  0.1134E+03  0.1130E+03
      3.688  0.2016E+02  0.1803E+02  0.1147E+03  0.1142E+03
      3.755  0.1927E+02  0.2454E+02  0.1160E+03  0.1158E+03
      3.821  0.8313E+01  0.8955E+01  0.1165E+03  0.1164E+03
      3.888  0.2425E+02  0.2107E+02  0.1182E+03  0.1178E+03
      3.954  0.1243E+02  0.1413E+02  0.1190E+03  0.1188E+03
      4.021  0.1188E+02  0.1276E+02  0.1198E+03  0.1196E+03
      4.087  0.2185E+02  0.1356E+02  0.1212E+03  0.1205E+03
      4.153  0.2041E+02  0.3029E+02  0.1226E+03  0.1225E+03
      4.220  0.2221E+02  0.1529E+02  0.1241E+03  0.1236E+03
      4.286  0.2188E+02  0.2334E+02  0.1255E+03  0.1251E+03
      4.353  0.1595E+02  0.1708E+02  0.1266E+03  0.1262E+03
      4.419  0.2780E+02  0.2754E+02  0.1284E+03  0.1281E+03
      4.486  0.1351E+02  0.1682E+02  0.1293E+03  0.1292E+03
      4.552  0.2656E+02  0.2389E+02  0.1311E+03  0.1308E+03
      4.619  0.1767E+02  0.1638E+02  0.1323E+03  0.1319E+03
      4.685  0.2025E+02  0.1654E+02  0.1336E+03  0.1330E+03
      4.752  0.3810E+02  0.3910E+02  0.1362E+03  0.1356E+03
      4.818  0.1322E+02  0.2032E+02  0.1370E+03  0.1369E+03
      4.884  0.2368E+02  0.1823E+02  0.1386E+03  0.1381E+03
      4.951  0.1713E+02  0.1910E+02  0.1397E+03  0.1394E+03
      5.017  0.1912E+02  0.2213E+02  0.1410E+03  0.1409E+03
      5.084  0.1476E+02  0.1032E+02  0.1420E+03  0.1416E+03
      5.150  0.2672E+02  0.2427E+02  0.1438E+03  0.1432E+03
      5.217  0.1892E+02  0.1945E+02  0.1450E+03  0.1445E+03
      5.283  0.2693E+02  0.2644E+02  0.1468E+03  0.1462E+03
      5.350  0.2580E+02  0.2729E+02  0.1485E+03  0.1480E+03
      5.416  0.2663E+02  0.2877E+02  0.1503E+03  0.1500E+03
      5.483  0.1872E+02  0.1777E+02  0.1516E+03  0.1511E+03
      5.549  0.2577E+02  0.2677E+02  0.1533E+03  0.1529E+03
      5.615  0.1789E+02  0.1997E+02  0.1545E+03  0.1543E+03
      5.682  0.2043E+02  0.2194E+02  0.1558E+03  0.1557E+03
      5.748  0.2433E+02  0.1601E+02  0.1574E+03  0.1568E+03
      5.815  0.2520E+02  0.2514E+02  0.1591E+03  0.1585E+03
      5.881  0.2649E+02  0.2913E+02  0.1609E+03  0.1604E+03
      5.948  0.1678E+02  0.1736E+02  0.1620E+03  0.1615E+03
      6.014  0.1346E+02  0.1411E+02  0.1629E+03  0.1625E+03
      6.081  0.2019E+02  0.2319E+02  0.1642E+03  0.1640E+03
      6.147  0.1939E+02  0.1767E+02  0.1655E+03  0.1652E+03
      6.214  0.1651E+02  0.1802E+02  0.1666E+03  0.1664E+03
      6.280  0.1780E+02  0.1622E+02  0.1678E+03  0.1675E+03
      6.346  0.2453E+02  0.1951E+02  0.1694E+03  0.1688E+03
      6.413  0.1680E+02  0.2059E+02  0.1706E+03  0.1702E+03
      6.479  0.8936E+01  0.9985E+01  0.1711E+03  0.1708E+03
      6.546  0.1237E+02  0.1515E+02  0.1720E+03  0.1718E+03
      6.612  0.1925E+02  0.1477E+02  0.1733E+03  0.1728E+03
      6.679  0.1618E+02  0.1920E+02  0.1743E+03  0.1741E+03
      6.745  0.1678E+02  0.1493E+02  0.1754E+03  0.1751E+03
      6.812  0.1284E+02  0.1571E+02  0.1763E+03  0.1761E+03
      6.878  0.7843E+01  0.5476E+01  0.1768E+03  0.1765E+03
      6.945  0.1163E+02  0.1254E+02  0.1776E+03  0.1773E+03
      7.011  0.7210E+01  0.6160E+01  0.1781E+03  0.1777E+03
      7.077  0.2237E+02  0.1789E+02  0.1796E+03  0.1789E+03
      7.144  0.1614E+02  0.1684E+02  0.1806E+03  0.1800E+03
      7.210  0.1304E+02  0.1296E+02  0.1815E+03  0.1809E+03
      7.277  0.6065E+01  0.1278E+02  0.1819E+03  0.1818E+03
      7.343  0.8403E+01  0.7013E+01  0.1825E+03  0.1822E+03
      7.410  0.9820E+01  0.1194E+02  0.1831E+03  0.1830E+03
      7.476  0.1285E+02  0.5518E+01  0.1840E+03  0.1834E+03
      7.543  0.1111E+02  0.1745E+02  0.1847E+03  0.1845E+03
      7.609  0.1240E+02  0.8045E+01  0.1855E+03  0.1851E+03
      7.676  0.8693E+01  0.1300E+02  0.1861E+03  0.1859E+03
      7.742  0.1997E+02  0.1465E+02  0.1874E+03  0.1869E+03
      7.808  0.1702E+02  0.1781E+02  0.1886E+03  0.1881E+03
      7.875  0.1665E+02  0.1850E+02  0.1897E+03  0.1893E+03
      7.941  0.1450E+02  0.1146E+02  0.1906E+03  0.1901E+03
      8.008  0.1393E+02  0.1655E+02  0.1916E+03  0.1912E+03
      8.074  0.1604E+02  0.1011E+02  0.1926E+03  0.1919E+03
      8.141  0.1200E+02  0.1572E+02  0.1934E+03  0.1929E+03
      8.207  0.1811E+02  0.1901E+02  0.1946E+03  0.1942E+03
      8.274  0.1955E+02  0.1870E+02  0.1959E+03  0.1954E+03
      8.340  0.1958E+02  0.1557E+02  0.1972E+03  0.1965E+03
      8.407  0.1839E+02  0.2353E+02  0.1985E+03  0.1980E+03
      8.473  0.2223E+02  0.1435E+02  0.1999E+03  0.1990E+03
      8.539  0.2195E+02  0.2982E+02  0.2014E+03  0.2010E+03
      8.606  0.1990E+02  0.1696E+02  0.2027E+03  0.2021E+03
      8.672  0.2104E+02  0.1709E+02  0.2041E+03  0.2032E+03
      8.739  0.2060E+02  0.2662E+02  0.2055E+03  0.2050E+03
      8.805  0.2264E+02  0.2133E+02  0.2070E+03  0.2064E+03
      8.872  0.1963E+02  0.1851E+02  0.2083E+03  0.2077E+03
      8.938  0.1761E+02  0.1805E+02  0.2095E+03  0.2089E+03
      9.005  0.2212E+02  0.1848E+02  0.2110E+03  0.2101E+03
      9.071  0.2376E+02  0.2597E+02  0.2125E+03  0.2118E+03
      9.138  0.2003E+02  0.1828E+02  0.2139E+03  0.2130E+03
      9.204  0.2290E+02  0.2795E+02  0.2154E+03  0.2149E+03
      9.270  0.1892E+02  0.1799E+02  0.2167E+03  0.2161E+03
      9.337  0.2027E+02  0.1832E+02  0.2180E+03  0.2173E+03
      9.403  0.2446E+02  0.2315E+02  0.2196E+03  0.2188E+03
      9.470  0.1488E+02  0.1904E+02  0.2206E+03  0.2201E+03
      9.536  0.2738E+02  0.2770E+02  0.2224E+03  0.2219E+03
      9.603  0.2892E+02  0.2636E+02  0.2244E+03  0.2237E+03
      9.669  0.2077E+02  0.2520E+02  0.2257E+03  0.2254E+03
      9.736  0.2067E+02  0.1810E+02  0.2271E+03  0.2266E+03
      9.802  0.2011E+02  0.1878E+02  0.2285E+03  0.2278E+03
      9.869  0.2566E+02  0.2297E+02  0.2302E+03  0.2294E+03
      9.935  0.1485E+02  0.2409E+02  0.2311E+03  0.2310E+03
     10.001  0.7772E+01  0.7532E+01  0.2317E+03  0.2315E+03
     10.068  0.4729E+01  0.6274E+01  0.2320E+03  0.2319E+03
     10.134  0.2780E+00  0.1671E+01  0.2320E+03  0.2320E+03
     10.201  0.0000E+00  0.0000E+00  0.2320E+03  0.2320E+03
     10.267  0.0000E+00  0.0000E+00  0.2320E+03  0.2320E+03
     10.334  0.0000E+00  0.0000E+00  0.2320E+03  0.2320E+03
     10.400  0.0000E+00  0.0000E+00  0.2320E+03  0.2320E+03
     10.467  0.0000E+00  0.0000E+00  0.2320E+03  0.2320E+03
     10.533  0.0000E+00  0.0000E+00  0.2320E+03  0.2320E+03
     10.600  0.0000E+00  0.0000E+00  0.2320E+03  0.2320E+03
     10.666  0.0000E+00  0.0000E+00  0.2320E+03  0.2320E+03
     10.732  0.0000E+00  0.0000E+00  0.2320E+03  0.2320E+03
     10.799  0.0000E+00  0.0000E+00  0.2320E+03  0.2320E+03
     10.865  0.0000E+00  0.0000E+00  0.2320E+03  0.2320E+03
     10.932  0.0000E+00  0.0000E+00  0.2320E+03  0.2320E+03
     10.998  0.0000E+00  0.0000E+00  0.2320E+03  0.2320E+03
