  84  84   0   0
  0.1809767E+02  0.5657800E-09  0.1600268E-08  0.1679042E-08  0.5000000E-15
  1.000000000000000E-004
  CAR 
 Si and Ge interface calculation         
      9.34965025    -11.36256187  301      6.29298739      1.00000000
    -11.363  0.0000E+00  0.0000E+00  0.0000E+00  0.0000E+00
    -11.294  0.0000E+00  0.0000E+00  0.0000E+00  0.0000E+00
    -11.224  0.0000E+00  0.0000E+00  0.0000E+00  0.0000E+00
    -11.155  0.0000E+00  0.0000E+00  0.0000E+00  0.0000E+00
    -11.086  0.0000E+00  0.0000E+00  0.0000E+00  0.0000E+00
    -11.017  0.0000E+00  0.0000E+00  0.0000E+00  0.0000E+00
    -10.948  0.0000E+00  0.0000E+00  0.0000E+00  0.0000E+00
    -10.879  0.0000E+00  0.0000E+00  0.0000E+00  0.0000E+00
    -10.810  0.0000E+00  0.0000E+00  0.0000E+00  0.0000E+00
    -10.741  0.0000E+00  0.0000E+00  0.0000E+00  0.0000E+00
    -10.672  0.0000E+00  0.0000E+00  0.0000E+00  0.0000E+00
    -10.603  0.0000E+00  0.0000E+00  0.0000E+00  0.0000E+00
    -10.534  0.0000E+00  0.0000E+00  0.0000E+00  0.0000E+00
    -10.465  0.6039E-09  0.1856E-09  0.4169E-10  0.1281E-10
    -10.396  0.9135E+01  0.8679E+01  0.6307E+00  0.5992E+00
    -10.327  0.1991E+02  0.2033E+02  0.2006E+01  0.2004E+01
    -10.258  0.2663E+02  0.2625E+02  0.3845E+01  0.3816E+01
    -10.189  0.3011E+01  0.3208E+01  0.4059E+01  0.4046E+01
    -10.120  0.1364E+02  0.1382E+02  0.5000E+01  0.5000E+01
    -10.051  0.1388E+02  0.1369E+02  0.5958E+01  0.5946E+01
     -9.982  0.5261E+00  0.6707E+00  0.6000E+01  0.6000E+01
     -9.913  0.0000E+00  0.0000E+00  0.6000E+01  0.6000E+01
     -9.844  0.1034E-11  0.4710E-13  0.6000E+01  0.6000E+01
     -9.775  0.4705E+01  0.4517E+01  0.6325E+01  0.6312E+01
     -9.706  0.9769E+01  0.9934E+01  0.7000E+01  0.7000E+01
     -9.637  0.1220E+02  0.1163E+02  0.7842E+01  0.7803E+01
     -9.568  0.1728E+02  0.1740E+02  0.9035E+01  0.9005E+01
     -9.498  0.1371E+02  0.1440E+02  0.1000E+02  0.1000E+02
     -9.429  0.0000E+00  0.0000E+00  0.1000E+02  0.1000E+02
     -9.360  0.0000E+00  0.0000E+00  0.1000E+02  0.1000E+02
     -9.291  0.0000E+00  0.0000E+00  0.1000E+02  0.1000E+02
     -9.222  0.4571E-04  0.8289E-06  0.1000E+02  0.1000E+02
     -9.153  0.1091E+02  0.9147E+01  0.1075E+02  0.1063E+02
     -9.084  0.1273E+02  0.1372E+02  0.1165E+02  0.1158E+02
     -9.015  0.5079E+01  0.5962E+01  0.1200E+02  0.1200E+02
     -8.946  0.0000E+00  0.0000E+00  0.1200E+02  0.1200E+02
     -8.877  0.0000E+00  0.0000E+00  0.1200E+02  0.1200E+02
     -8.808  0.0000E+00  0.0000E+00  0.1200E+02  0.1200E+02
     -8.739  0.0000E+00  0.0000E+00  0.1200E+02  0.1200E+02
     -8.670  0.0000E+00  0.0000E+00  0.1200E+02  0.1200E+02
     -8.601  0.0000E+00  0.0000E+00  0.1200E+02  0.1200E+02
     -8.532  0.0000E+00  0.0000E+00  0.1200E+02  0.1200E+02
     -8.463  0.0000E+00  0.0000E+00  0.1200E+02  0.1200E+02
     -8.394  0.0000E+00  0.0000E+00  0.1200E+02  0.1200E+02
     -8.325  0.0000E+00  0.0000E+00  0.1200E+02  0.1200E+02
     -8.256  0.0000E+00  0.0000E+00  0.1200E+02  0.1200E+02
     -8.187  0.0000E+00  0.0000E+00  0.1200E+02  0.1200E+02
     -8.118  0.2227E-06  0.4937E-07  0.1200E+02  0.1200E+02
     -8.049  0.6167E+01  0.5821E+01  0.1243E+02  0.1240E+02
     -7.980  0.3411E+02  0.3382E+02  0.1478E+02  0.1474E+02
     -7.911  0.1765E+02  0.1825E+02  0.1600E+02  0.1600E+02
     -7.841  0.3029E+00  0.2049E+00  0.1602E+02  0.1601E+02
     -7.772  0.9072E+01  0.8964E+01  0.1665E+02  0.1663E+02
     -7.703  0.4885E+01  0.5339E+01  0.1700E+02  0.1700E+02
     -7.634  0.2973E+02  0.2661E+02  0.1906E+02  0.1884E+02
     -7.565  0.1113E+02  0.1418E+02  0.1983E+02  0.1982E+02
     -7.496  0.2297E+01  0.2622E+01  0.2000E+02  0.2000E+02
     -7.427  0.0000E+00  0.0000E+00  0.2000E+02  0.2000E+02
     -7.358  0.0000E+00  0.0000E+00  0.2000E+02  0.2000E+02
     -7.289  0.0000E+00  0.0000E+00  0.2000E+02  0.2000E+02
     -7.220  0.0000E+00  0.0000E+00  0.2000E+02  0.2000E+02
     -7.151  0.0000E+00  0.0000E+00  0.2000E+02  0.2000E+02
     -7.082  0.0000E+00  0.0000E+00  0.2000E+02  0.2000E+02
     -7.013  0.0000E+00  0.0000E+00  0.2000E+02  0.2000E+02
     -6.944  0.0000E+00  0.0000E+00  0.2000E+02  0.2000E+02
     -6.875  0.0000E+00  0.0000E+00  0.2000E+02  0.2000E+02
     -6.806  0.0000E+00  0.0000E+00  0.2000E+02  0.2000E+02
     -6.737  0.7011E-10  0.6686E-11  0.2000E+02  0.2000E+02
     -6.668  0.2387E+01  0.2355E+01  0.2016E+02  0.2016E+02
     -6.599  0.2001E+02  0.1957E+02  0.2155E+02  0.2152E+02
     -6.530  0.6731E+01  0.7102E+01  0.2202E+02  0.2201E+02
     -6.461  0.1986E+02  0.1928E+02  0.2339E+02  0.2334E+02
     -6.392  0.4594E+01  0.5122E+01  0.2371E+02  0.2370E+02
     -6.323  0.7171E+01  0.6754E+01  0.2420E+02  0.2416E+02
     -6.254  0.2661E+01  0.2964E+01  0.2439E+02  0.2437E+02
     -6.185  0.1494E+02  0.1453E+02  0.2542E+02  0.2537E+02
     -6.115  0.1438E+02  0.1503E+02  0.2642E+02  0.2642E+02
     -6.046  0.7429E+01  0.7150E+01  0.2693E+02  0.2691E+02
     -5.977  0.1738E+02  0.1664E+02  0.2813E+02  0.2806E+02
     -5.908  0.4798E+01  0.4809E+01  0.2847E+02  0.2840E+02
     -5.839  0.1985E+02  0.1979E+02  0.2984E+02  0.2977E+02
     -5.770  0.1184E+02  0.1264E+02  0.3066E+02  0.3064E+02
     -5.701  0.9939E+01  0.9322E+01  0.3134E+02  0.3129E+02
     -5.632  0.6702E+01  0.7266E+01  0.3181E+02  0.3179E+02
     -5.563  0.8110E+01  0.7838E+01  0.3237E+02  0.3233E+02
     -5.494  0.7954E+01  0.8371E+01  0.3292E+02  0.3291E+02
     -5.425  0.1692E+02  0.1594E+02  0.3409E+02  0.3402E+02
     -5.356  0.1198E+02  0.1288E+02  0.3492E+02  0.3491E+02
     -5.287  0.1080E+02  0.9843E+01  0.3567E+02  0.3559E+02
     -5.218  0.1798E+02  0.1803E+02  0.3691E+02  0.3683E+02
     -5.149  0.1752E+02  0.1791E+02  0.3813E+02  0.3808E+02
     -5.080  0.1113E+02  0.1121E+02  0.3890E+02  0.3885E+02
     -5.011  0.1433E+02  0.1348E+02  0.3989E+02  0.3978E+02
     -4.942  0.1944E+02  0.1873E+02  0.4123E+02  0.4107E+02
     -4.873  0.2025E+02  0.1871E+02  0.4263E+02  0.4237E+02
     -4.804  0.1567E+02  0.1820E+02  0.4371E+02  0.4363E+02
     -4.735  0.1984E+02  0.1955E+02  0.4509E+02  0.4498E+02
     -4.666  0.2136E+02  0.2227E+02  0.4656E+02  0.4652E+02
     -4.597  0.2076E+02  0.1738E+02  0.4800E+02  0.4773E+02
     -4.528  0.2133E+02  0.2295E+02  0.4948E+02  0.4932E+02
     -4.458  0.2124E+02  0.2295E+02  0.5095E+02  0.5090E+02
     -4.389  0.2615E+02  0.2385E+02  0.5276E+02  0.5255E+02
     -4.320  0.3098E+02  0.3111E+02  0.5491E+02  0.5471E+02
     -4.251  0.1052E+02  0.1226E+02  0.5565E+02  0.5556E+02
     -4.182  0.2847E+02  0.2796E+02  0.5761E+02  0.5749E+02
     -4.113  0.2148E+02  0.2162E+02  0.5911E+02  0.5900E+02
     -4.044  0.2019E+02  0.2034E+02  0.6050E+02  0.6041E+02
     -3.975  0.2023E+02  0.1985E+02  0.6190E+02  0.6178E+02
     -3.906  0.2589E+02  0.2494E+02  0.6369E+02  0.6350E+02
     -3.837  0.2258E+02  0.2285E+02  0.6525E+02  0.6508E+02
     -3.768  0.2187E+02  0.2227E+02  0.6677E+02  0.6662E+02
     -3.699  0.2350E+02  0.2297E+02  0.6840E+02  0.6821E+02
     -3.630  0.2211E+02  0.2171E+02  0.6993E+02  0.6972E+02
     -3.561  0.2232E+02  0.2237E+02  0.7147E+02  0.7126E+02
     -3.492  0.2481E+02  0.2521E+02  0.7319E+02  0.7300E+02
     -3.423  0.1264E+02  0.1403E+02  0.7406E+02  0.7397E+02
     -3.354  0.2047E+02  0.1880E+02  0.7548E+02  0.7527E+02
     -3.285  0.1907E+02  0.1823E+02  0.7680E+02  0.7653E+02
     -3.216  0.1813E+02  0.1937E+02  0.7806E+02  0.7787E+02
     -3.147  0.1613E+02  0.1539E+02  0.7918E+02  0.7893E+02
     -3.078  0.1935E+02  0.2092E+02  0.8052E+02  0.8038E+02
     -3.009  0.2537E+02  0.2267E+02  0.8228E+02  0.8194E+02
     -2.940  0.9048E+01  0.1279E+02  0.8292E+02  0.8284E+02
     -2.871  0.1850E+02  0.1796E+02  0.8420E+02  0.8408E+02
     -2.802  0.2834E+02  0.2644E+02  0.8616E+02  0.8591E+02
     -2.732  0.2047E+02  0.2157E+02  0.8757E+02  0.8740E+02
     -2.663  0.1627E+02  0.1646E+02  0.8871E+02  0.8854E+02
     -2.594  0.2833E+02  0.2852E+02  0.9067E+02  0.9051E+02
     -2.525  0.2376E+02  0.2155E+02  0.9231E+02  0.9200E+02
     -2.456  0.1820E+02  0.2040E+02  0.9357E+02  0.9341E+02
     -2.387  0.1988E+02  0.1948E+02  0.9494E+02  0.9476E+02
     -2.318  0.1938E+02  0.1894E+02  0.9628E+02  0.9607E+02
     -2.249  0.1785E+02  0.1778E+02  0.9753E+02  0.9730E+02
     -2.180  0.2202E+02  0.2360E+02  0.9905E+02  0.9894E+02
     -2.111  0.2461E+02  0.2232E+02  0.1007E+03  0.1005E+03
     -2.042  0.2368E+02  0.2517E+02  0.1024E+03  0.1022E+03
     -1.973  0.2314E+02  0.2300E+02  0.1040E+03  0.1038E+03
     -1.904  0.1955E+02  0.1884E+02  0.1053E+03  0.1051E+03
     -1.835  0.2796E+02  0.2805E+02  0.1073E+03  0.1071E+03
     -1.766  0.2073E+02  0.2152E+02  0.1087E+03  0.1086E+03
     -1.697  0.1512E+02  0.1628E+02  0.1097E+03  0.1097E+03
     -1.628  0.3287E+02  0.3101E+02  0.1120E+03  0.1118E+03
     -1.559  0.2169E+02  0.2008E+02  0.1135E+03  0.1132E+03
     -1.490  0.2053E+02  0.2436E+02  0.1149E+03  0.1149E+03
     -1.421  0.1827E+02  0.1643E+02  0.1162E+03  0.1160E+03
     -1.352  0.2833E+02  0.2462E+02  0.1182E+03  0.1177E+03
     -1.283  0.2238E+02  0.2608E+02  0.1197E+03  0.1195E+03
     -1.214  0.1775E+02  0.1891E+02  0.1209E+03  0.1209E+03
     -1.145  0.2812E+02  0.2583E+02  0.1229E+03  0.1226E+03
     -1.075  0.2286E+02  0.2124E+02  0.1245E+03  0.1241E+03
     -1.006  0.1547E+02  0.1827E+02  0.1255E+03  0.1254E+03
     -0.937  0.2557E+02  0.2581E+02  0.1273E+03  0.1272E+03
     -0.868  0.2200E+02  0.2169E+02  0.1288E+03  0.1287E+03
     -0.799  0.2295E+02  0.1961E+02  0.1304E+03  0.1300E+03
     -0.730  0.2362E+02  0.2313E+02  0.1320E+03  0.1316E+03
     -0.661  0.2235E+02  0.2303E+02  0.1336E+03  0.1332E+03
     -0.592  0.2351E+02  0.2640E+02  0.1352E+03  0.1350E+03
     -0.523  0.1615E+02  0.1653E+02  0.1363E+03  0.1362E+03
     -0.454  0.1829E+02  0.1733E+02  0.1376E+03  0.1374E+03
     -0.385  0.1904E+02  0.2147E+02  0.1389E+03  0.1389E+03
     -0.316  0.2001E+02  0.1712E+02  0.1403E+03  0.1401E+03
     -0.247  0.2945E+02  0.2746E+02  0.1424E+03  0.1420E+03
     -0.178  0.2004E+02  0.2259E+02  0.1437E+03  0.1435E+03
     -0.109  0.2487E+02  0.2211E+02  0.1455E+03  0.1451E+03
     -0.040  0.2550E+02  0.2771E+02  0.1472E+03  0.1470E+03
      0.029  0.1873E+02  0.1776E+02  0.1485E+03  0.1482E+03
      0.098  0.2021E+02  0.2137E+02  0.1499E+03  0.1497E+03
      0.167  0.2185E+02  0.2109E+02  0.1514E+03  0.1512E+03
      0.236  0.2223E+02  0.2480E+02  0.1530E+03  0.1529E+03
      0.305  0.2040E+02  0.1575E+02  0.1544E+03  0.1540E+03
      0.374  0.2336E+02  0.2553E+02  0.1560E+03  0.1557E+03
      0.443  0.2816E+02  0.2677E+02  0.1579E+03  0.1576E+03
      0.512  0.1430E+02  0.1532E+02  0.1589E+03  0.1587E+03
      0.581  0.3255E+02  0.2894E+02  0.1612E+03  0.1606E+03
      0.651  0.2082E+02  0.2128E+02  0.1626E+03  0.1621E+03
      0.720  0.1954E+02  0.2322E+02  0.1640E+03  0.1637E+03
      0.789  0.2120E+02  0.2397E+02  0.1655E+03  0.1654E+03
      0.858  0.1966E+02  0.1751E+02  0.1668E+03  0.1666E+03
      0.927  0.1833E+02  0.1861E+02  0.1681E+03  0.1679E+03
      0.996  0.3232E+02  0.3168E+02  0.1703E+03  0.1701E+03
      1.065  0.2062E+02  0.1775E+02  0.1717E+03  0.1713E+03
      1.134  0.2331E+02  0.2616E+02  0.1734E+03  0.1731E+03
      1.203  0.3008E+02  0.2677E+02  0.1754E+03  0.1750E+03
      1.272  0.2851E+02  0.2968E+02  0.1774E+03  0.1770E+03
      1.341  0.2383E+02  0.2319E+02  0.1791E+03  0.1786E+03
      1.410  0.2998E+02  0.2810E+02  0.1811E+03  0.1806E+03
      1.479  0.2374E+02  0.2715E+02  0.1828E+03  0.1824E+03
      1.548  0.2887E+02  0.3086E+02  0.1848E+03  0.1846E+03
      1.617  0.2282E+02  0.2089E+02  0.1864E+03  0.1860E+03
      1.686  0.3234E+02  0.3004E+02  0.1886E+03  0.1881E+03
      1.755  0.2586E+02  0.2615E+02  0.1904E+03  0.1899E+03
      1.824  0.2391E+02  0.2372E+02  0.1921E+03  0.1916E+03
      1.893  0.4224E+02  0.4434E+02  0.1950E+03  0.1946E+03
      1.962  0.3329E+02  0.3030E+02  0.1973E+03  0.1967E+03
      2.031  0.2260E+02  0.2810E+02  0.1988E+03  0.1987E+03
      2.100  0.3059E+02  0.2701E+02  0.2010E+03  0.2005E+03
      2.169  0.2971E+02  0.3224E+02  0.2030E+03  0.2028E+03
      2.238  0.4019E+02  0.3904E+02  0.2058E+03  0.2055E+03
      2.307  0.2910E+02  0.3073E+02  0.2078E+03  0.2076E+03
      2.377  0.3255E+02  0.3158E+02  0.2101E+03  0.2098E+03
      2.446  0.4068E+02  0.3869E+02  0.2129E+03  0.2125E+03
      2.515  0.3161E+02  0.3292E+02  0.2151E+03  0.2147E+03
      2.584  0.3919E+02  0.3750E+02  0.2178E+03  0.2173E+03
      2.653  0.3214E+02  0.3477E+02  0.2200E+03  0.2198E+03
      2.722  0.3850E+02  0.3707E+02  0.2227E+03  0.2223E+03
      2.791  0.3553E+02  0.3552E+02  0.2251E+03  0.2248E+03
      2.860  0.3753E+02  0.3640E+02  0.2277E+03  0.2273E+03
      2.929  0.4097E+02  0.3893E+02  0.2306E+03  0.2300E+03
      2.998  0.4361E+02  0.4583E+02  0.2336E+03  0.2332E+03
      3.067  0.3610E+02  0.3439E+02  0.2361E+03  0.2355E+03
      3.136  0.4235E+02  0.4322E+02  0.2390E+03  0.2385E+03
      3.205  0.4525E+02  0.4903E+02  0.2422E+03  0.2419E+03
      3.274  0.4649E+02  0.4159E+02  0.2454E+03  0.2448E+03
      3.343  0.3264E+02  0.3481E+02  0.2476E+03  0.2472E+03
      3.412  0.3652E+02  0.4062E+02  0.2502E+03  0.2500E+03
      3.481  0.4158E+02  0.3865E+02  0.2531E+03  0.2527E+03
      3.550  0.3911E+02  0.4020E+02  0.2558E+03  0.2555E+03
      3.619  0.4252E+02  0.3865E+02  0.2587E+03  0.2582E+03
      3.688  0.4103E+02  0.4201E+02  0.2616E+03  0.2611E+03
      3.757  0.3524E+02  0.3655E+02  0.2640E+03  0.2636E+03
      3.826  0.4461E+02  0.4486E+02  0.2671E+03  0.2667E+03
      3.895  0.2982E+02  0.2970E+02  0.2691E+03  0.2688E+03
      3.964  0.3669E+02  0.3623E+02  0.2717E+03  0.2713E+03
      4.034  0.3692E+02  0.3511E+02  0.2742E+03  0.2737E+03
      4.103  0.3216E+02  0.3149E+02  0.2765E+03  0.2759E+03
      4.172  0.3377E+02  0.3392E+02  0.2788E+03  0.2782E+03
      4.241  0.2745E+02  0.3084E+02  0.2807E+03  0.2804E+03
      4.310  0.3131E+02  0.3176E+02  0.2829E+03  0.2826E+03
      4.379  0.2619E+02  0.2588E+02  0.2847E+03  0.2844E+03
      4.448  0.3573E+02  0.3059E+02  0.2872E+03  0.2865E+03
      4.517  0.3243E+02  0.3403E+02  0.2894E+03  0.2888E+03
      4.586  0.2940E+02  0.2352E+02  0.2914E+03  0.2905E+03
      4.655  0.2488E+02  0.2949E+02  0.2932E+03  0.2925E+03
      4.724  0.1709E+02  0.2281E+02  0.2943E+03  0.2941E+03
      4.793  0.3316E+02  0.2644E+02  0.2966E+03  0.2959E+03
      4.862  0.2873E+02  0.2748E+02  0.2986E+03  0.2978E+03
      4.931  0.2756E+02  0.3058E+02  0.3005E+03  0.2999E+03
      5.000  0.2817E+02  0.2443E+02  0.3025E+03  0.3016E+03
      5.069  0.2302E+02  0.3133E+02  0.3041E+03  0.3038E+03
      5.138  0.2039E+02  0.1695E+02  0.3055E+03  0.3050E+03
      5.207  0.2567E+02  0.2411E+02  0.3073E+03  0.3066E+03
      5.276  0.1752E+02  0.1773E+02  0.3085E+03  0.3079E+03
      5.345  0.2822E+02  0.2252E+02  0.3104E+03  0.3094E+03
      5.414  0.2540E+02  0.2592E+02  0.3122E+03  0.3112E+03
      5.483  0.1969E+02  0.2567E+02  0.3136E+03  0.3130E+03
      5.552  0.2895E+02  0.2182E+02  0.3156E+03  0.3145E+03
      5.621  0.2310E+02  0.2368E+02  0.3172E+03  0.3161E+03
      5.690  0.2495E+02  0.2779E+02  0.3189E+03  0.3181E+03
      5.760  0.2910E+02  0.2400E+02  0.3209E+03  0.3197E+03
      5.829  0.2732E+02  0.2461E+02  0.3228E+03  0.3214E+03
      5.898  0.3030E+02  0.3149E+02  0.3249E+03  0.3236E+03
      5.967  0.1857E+02  0.2430E+02  0.3262E+03  0.3253E+03
      6.036  0.3050E+02  0.3065E+02  0.3283E+03  0.3274E+03
      6.105  0.3372E+02  0.2023E+02  0.3306E+03  0.3288E+03
      6.174  0.3023E+02  0.3181E+02  0.3327E+03  0.3310E+03
      6.243  0.3993E+02  0.3710E+02  0.3355E+03  0.3336E+03
      6.312  0.3356E+02  0.3285E+02  0.3378E+03  0.3358E+03
      6.381  0.3436E+02  0.3433E+02  0.3402E+03  0.3382E+03
      6.450  0.3686E+02  0.3632E+02  0.3428E+03  0.3407E+03
      6.519  0.3308E+02  0.3516E+02  0.3450E+03  0.3432E+03
      6.588  0.2313E+02  0.3432E+02  0.3466E+03  0.3455E+03
      6.657  0.3440E+02  0.3028E+02  0.3490E+03  0.3476E+03
      6.726  0.1995E+02  0.3279E+02  0.3504E+03  0.3499E+03
      6.795  0.3326E+02  0.2780E+02  0.3527E+03  0.3518E+03
      6.864  0.2830E+02  0.3049E+02  0.3547E+03  0.3539E+03
      6.933  0.2880E+02  0.2817E+02  0.3567E+03  0.3559E+03
      7.002  0.2428E+02  0.2484E+02  0.3583E+03  0.3576E+03
      7.071  0.3194E+02  0.3529E+02  0.3605E+03  0.3600E+03
      7.140  0.2907E+02  0.3098E+02  0.3626E+03  0.3622E+03
      7.209  0.3542E+02  0.3090E+02  0.3650E+03  0.3643E+03
      7.278  0.3698E+02  0.4058E+02  0.3676E+03  0.3671E+03
      7.347  0.3025E+02  0.2884E+02  0.3697E+03  0.3691E+03
      7.417  0.3656E+02  0.3489E+02  0.3722E+03  0.3715E+03
      7.486  0.3444E+02  0.3575E+02  0.3746E+03  0.3740E+03
      7.555  0.3639E+02  0.3213E+02  0.3771E+03  0.3762E+03
      7.624  0.3611E+02  0.3945E+02  0.3796E+03  0.3790E+03
      7.693  0.3929E+02  0.3709E+02  0.3823E+03  0.3815E+03
      7.762  0.3552E+02  0.3594E+02  0.3848E+03  0.3840E+03
      7.831  0.3326E+02  0.3713E+02  0.3871E+03  0.3866E+03
      7.900  0.4420E+02  0.4261E+02  0.3901E+03  0.3895E+03
      7.969  0.3164E+02  0.3413E+02  0.3923E+03  0.3919E+03
      8.038  0.3785E+02  0.3259E+02  0.3949E+03  0.3942E+03
      8.107  0.3862E+02  0.3948E+02  0.3976E+03  0.3969E+03
      8.176  0.4530E+02  0.4758E+02  0.4007E+03  0.4002E+03
      8.245  0.3252E+02  0.3345E+02  0.4030E+03  0.4025E+03
      8.314  0.4258E+02  0.4564E+02  0.4059E+03  0.4057E+03
      8.383  0.2797E+02  0.2997E+02  0.4079E+03  0.4077E+03
      8.452  0.1851E+01  0.3469E+01  0.4080E+03  0.4080E+03
      8.521  0.0000E+00  0.0000E+00  0.4080E+03  0.4080E+03
      8.590  0.0000E+00  0.0000E+00  0.4080E+03  0.4080E+03
      8.659  0.0000E+00  0.0000E+00  0.4080E+03  0.4080E+03
      8.728  0.0000E+00  0.0000E+00  0.4080E+03  0.4080E+03
      8.797  0.0000E+00  0.0000E+00  0.4080E+03  0.4080E+03
      8.866  0.0000E+00  0.0000E+00  0.4080E+03  0.4080E+03
      8.935  0.0000E+00  0.0000E+00  0.4080E+03  0.4080E+03
      9.004  0.0000E+00  0.0000E+00  0.4080E+03  0.4080E+03
      9.073  0.0000E+00  0.0000E+00  0.4080E+03  0.4080E+03
      9.143  0.0000E+00  0.0000E+00  0.4080E+03  0.4080E+03
      9.212  0.0000E+00  0.0000E+00  0.4080E+03  0.4080E+03
      9.281  0.0000E+00  0.0000E+00  0.4080E+03  0.4080E+03
      9.350  0.0000E+00  0.0000E+00  0.4080E+03  0.4080E+03
