Si and Ge interface calculation         
           1
     5.657800    0.000000    0.000000
     0.000000   16.002676    0.000000
     0.000000    0.000000   16.790424
   Ge   Si
    48    36
Direct configuration=     1
   0.05867448  0.45599416  0.00000003
   0.55867451  0.08099414  0.11913545
   0.05867446  0.70599413  0.23827089
   0.55867422  0.33099425  0.35740629
   0.05867457  0.95599413  0.47654173
   0.55867457  0.58099413  0.59567720
   0.05867448  0.95599413  0.00000002
   0.55867451  0.58099413  0.11913548
   0.05867446  0.20599413  0.23827088
   0.55867422  0.83099437  0.35740629
   0.05867457  0.45599413  0.47654176
   0.55867457  0.08099413  0.59567714
   0.05867448  0.70599413  0.00000003
   0.55867451  0.33099413  0.11913545
   0.05867446  0.95599413  0.23827088
   0.55867422  0.58099425  0.35740632
   0.05867457  0.20599419  0.47654176
   0.55867457  0.83099413  0.59567720
   0.05867448  0.20599414  0.00000003
   0.55867451  0.83099413  0.11913545
   0.05867446  0.45599413  0.23827088
   0.55867422  0.08099425  0.35740632
   0.05867457  0.70599425  0.47654173
   0.55867457  0.33099413  0.59567714
   0.80867446  0.58099419  0.00000004
   0.30867446  0.20599416  0.11913545
   0.80867457  0.83099413  0.23827088
   0.30867433  0.45599425  0.35740629
   0.80867457  0.08099419  0.47654176
   0.30867433  0.70599413  0.59567720
   0.80867446  0.08099414  0.00000002
   0.30867446  0.70599413  0.11913545
   0.80867457  0.33099413  0.23827088
   0.30867433  0.95599425  0.35740632
   0.80867457  0.58099425  0.47654173
   0.30867433  0.20599401  0.59567714
   0.80867446  0.83099419  0.00000000
   0.30867446  0.45599419  0.11913545
   0.80867457  0.08099417  0.23827088
   0.30867433  0.70599431  0.35740629
   0.80867457  0.33099425  0.47654173
   0.30867433  0.95599413  0.59567714
   0.80867446  0.33099413  0.00000003
   0.30867446  0.95599413  0.11913548
   0.80867457  0.58099413  0.23827088
   0.30867433  0.20599425  0.35740632
   0.80867457  0.83099413  0.47654173
   0.30867433  0.45599413  0.59567714
   0.01779686  0.66666675  0.59567726
   0.51779687  0.66666675  0.75740641
   0.01779687  0.66666675  0.91913545
   0.01779686  0.33333337  0.59567726
   0.51779687  0.33333337  0.75740641
   0.01779687  0.33333337  0.91913545
   0.01779686  0.00000000  0.59567726
   0.51779687  0.00000000  0.75740641
   0.01779687  0.00000000  0.91913545
   0.26779687  0.91666675  0.67654175
   0.76779693  0.91666675  0.83827090
   0.26779699  0.91666675  0.00000000
   0.26779687  0.58333343  0.67654175
   0.76779693  0.58333343  0.83827090
   0.26779699  0.58333343  0.00000000
   0.26779687  0.25000000  0.67654175
   0.76779693  0.25000000  0.83827090
   0.26779699  0.25000000  0.00000000
   0.51779687  0.83333331  0.59567726
   0.01779687  0.83333331  0.75740641
   0.51779699  0.83333331  0.91913545
   0.51779687  0.50000000  0.59567726
   0.01779687  0.50000000  0.75740641
   0.51779699  0.50000000  0.91913545
   0.51779687  0.16666669  0.59567726
   0.01779687  0.16666669  0.75740641
   0.51779699  0.16666669  0.91913545
   0.76779693  0.75000006  0.67654175
   0.26779687  0.75000006  0.83827090
   0.76779699  0.75000006  0.00000000
   0.76779693  0.41666669  0.67654175
   0.26779687  0.41666669  0.83827090
   0.76779699  0.41666669  0.00000000
   0.76779693  0.08333335  0.67654175
   0.26779687  0.08333335  0.83827090
   0.76779699  0.08333335  0.00000000
