Si and Ge interface calculation         
           1
    19.581751    0.000000    0.000000
     0.000000   19.581749    0.000000
     0.000000    0.000000   19.100250
   Si   Sn
   156   108
Direct configuration=     1
   0.99589300  0.99726200  0.00000000
   0.88050836  0.92033887  0.14217091
   0.76512373  0.84341574  0.28434190
   0.07281613  0.38187745  0.00000000
   0.95743144  0.30495429  0.14217091
   0.84204680  0.22803116  0.28434190
   0.22666228  0.15110818  0.00000000
   0.11127762  0.07418505  0.14217091
   0.99589294  0.99726194  0.28434190
   0.02195811  0.62948728  0.89005387
   0.03435453  0.68956971  0.14217091
   0.91896987  0.61264658  0.28434190
   0.30358541  0.53572357  0.00000000
   0.18820073  0.45880044  0.14217091
   0.07281607  0.38187730  0.28434190
   0.45743155  0.30495435  0.00000000
   0.34204686  0.22803120  0.14217091
   0.22666220  0.15110807  0.28434190
   0.61127770  0.07418510  0.00000000
   0.35529149  0.29615384  0.89005387
   0.38050836  0.92033881  0.28434190
   0.18862486  0.46282056  0.89005387
   0.26512384  0.84341592  0.14217091
   0.14973918  0.76649272  0.28434190
   0.53435463  0.68956971  0.00000000
   0.41896993  0.61264658  0.14217091
   0.30358526  0.53572345  0.28434190
   0.68820071  0.45880049  0.00000000
   0.57281607  0.38187736  0.14217091
   0.45743138  0.30495423  0.28434190
   0.84204692  0.22803119  0.00000000
   0.72666228  0.15110804  0.14217091
   0.61127758  0.07418491  0.28434190
   0.76512390  0.84341586  0.00000000
   0.60529155  0.37948719  0.80511779
   0.53435457  0.68956959  0.28434190
   0.91897005  0.61264664  0.00000000
   0.80358541  0.53572351  0.14217091
   0.68820071  0.45880038  0.28434190
   0.01512384  0.59341586  0.07108547
   0.89973921  0.51649272  0.21325642
   0.10529160  0.87948716  0.46537358
   0.16896996  0.36264667  0.07108547
   0.27195823  0.37948719  0.46537358
   0.18862486  0.12948719  0.55030960
   0.32281613  0.13187741  0.07108547
   0.20743145  0.05495427  0.21325642
   0.27195823  0.04615385  0.46537358
   0.09204689  0.97803128  0.07108547
   0.97666222  0.90110815  0.21325642
   0.86127752  0.82418501  0.35542738
   0.24589306  0.74726206  0.07108547
   0.13050841  0.67033893  0.21325642
   0.60529155  0.37948719  0.46537358
   0.39973927  0.51649284  0.07108547
   0.60529155  0.04615385  0.46537358
   0.43862486  0.87948716  0.46537358
   0.55358541  0.28572354  0.07108547
   0.43820071  0.20880039  0.21325642
   0.77195823  0.54615384  0.46537358
   0.70743155  0.05495430  0.07108547
   0.59204686  0.97803116  0.21325642
   0.47666219  0.90110803  0.35542738
   0.47666240  0.90110820  0.07108547
   0.36127770  0.82418507  0.21325642
   0.60529155  0.71282053  0.46537358
   0.63050854  0.67033899  0.07108547
   0.51512384  0.59341580  0.21325642
   0.39973915  0.51649267  0.35542738
   0.78435469  0.43956971  0.07108547
   0.66896999  0.36264655  0.21325642
   0.55358529  0.28572342  0.35542738
   0.93820083  0.20880049  0.07108547
   0.82281613  0.13187735  0.21325642
   0.70743144  0.05495421  0.35542738
   0.86127788  0.82418513  0.07108547
   0.74589318  0.74726200  0.21325642
   0.93862486  0.04615385  0.46537358
   0.35529149  0.62948728  0.89005387
   0.91896993  0.11264660  0.14217091
   0.80358523  0.03572347  0.28434190
   0.11127766  0.57418507  0.00000000
   0.99589300  0.49726200  0.14217091
   0.10529160  0.21282051  0.46537358
   0.85529149  0.12948719  0.89005387
   0.14973919  0.26649278  0.14217091
   0.27195823  0.71282053  0.46537358
   0.68862486  0.62948728  0.89005387
   0.52195823  0.12948719  0.89005387
   0.18820064  0.95880032  0.28434190
   0.43862486  0.87948716  0.80511779
   0.07281606  0.88187730  0.14217091
   0.68862486  0.62948728  0.55030960
   0.52195823  0.79615390  0.89005387
   0.22666223  0.65110815  0.14217091
   0.02195823  0.96282059  0.55030960
   0.85529149  0.46282056  0.89005387
   0.38050842  0.42033887  0.14217091
   0.26512373  0.34341574  0.28434190
   0.64973927  0.26649278  0.00000000
   0.85529149  0.79615390  0.89005387
   0.68862486  0.96282059  0.55030960
   0.80358541  0.03572357  0.00000000
   0.68820071  0.95880044  0.14217091
   0.57281607  0.88187730  0.28434190
   0.02195811  0.29615384  0.89005387
   0.45743144  0.80495429  0.14217091
   0.34204680  0.72803110  0.28434190
   0.72666234  0.65110815  0.00000000
   0.61127764  0.57418501  0.14217091
   0.49589294  0.49726185  0.28434190
   0.18862486  0.79615390  0.89005387
   0.76512384  0.34341586  0.14217091
   0.64973915  0.26649272  0.28434190
   0.95743161  0.80495429  0.00000000
   0.84204692  0.72803116  0.14217091
   0.72666228  0.65110803  0.28434190
   0.35529149  0.96282059  0.89005387
   0.01512377  0.09341583  0.21325642
   0.77195823  0.87948716  0.46537358
   0.05358534  0.78572363  0.07108547
   0.93820071  0.70880044  0.21325642
   0.82281601  0.63187730  0.35542738
   0.93862486  0.37948719  0.80511779
   0.09204687  0.47803125  0.21325642
   0.97666216  0.40110809  0.35542738
   0.27195823  0.71282053  0.80511779
   0.10529160  0.54615384  0.46537358
   0.93862486  0.71282053  0.46537358
   0.51512384  0.09341585  0.07108547
   0.35529152  0.62948728  0.55030960
   0.28435451  0.93956953  0.35542738
   0.52195823  0.46282056  0.89005387
   0.16896999  0.86264664  0.21325642
   0.05358529  0.78572351  0.35542738
   0.43820077  0.70880061  0.07108547
   0.32281607  0.63187742  0.21325642
   0.20743141  0.55495429  0.35542738
   0.59204698  0.47803128  0.07108547
   0.47666228  0.40110815  0.21325642
   0.36127761  0.32418501  0.35542738
   0.74589312  0.24726200  0.07108547
   0.63050842  0.17033887  0.21325642
   0.51512379  0.09341572  0.35542738
   0.89973927  0.01649279  0.07108547
   0.78435457  0.93956965  0.21325642
   0.66896993  0.86264652  0.35542738
   0.93862486  0.71282053  0.80511779
   0.55358541  0.78572363  0.21325642
   0.43820071  0.70880049  0.35542738
   0.82281625  0.63187742  0.07108547
   0.70743155  0.55495429  0.21325642
   0.59204680  0.47803113  0.35542738
   0.97666228  0.40110824  0.07108547
   0.86127758  0.32418507  0.21325642
   0.74589288  0.24726193  0.35542738
   0.03435449  0.18956965  0.28434190
   0.10529149  0.71282053  0.63524568
   0.66897011  0.86264676  0.07108547
   0.05358529  0.28572354  0.21325642
   0.10529149  0.37948719  0.63524568
   0.20743152  0.55495441  0.07108547
   0.09204677  0.97803116  0.35542738
   0.10529149  0.04615385  0.63524568
   0.93862486  0.04615385  0.80511779
   0.24589300  0.74726194  0.35542738
   0.43862483  0.71282053  0.63524568
   0.36127770  0.32418513  0.07108547
   0.01512372  0.59341580  0.35542738
   0.43862483  0.37948719  0.63524568
   0.27195823  0.37948719  0.80511779
   0.28435460  0.43956968  0.21325642
   0.43862483  0.04615385  0.63524568
   0.27195823  0.04615385  0.80511779
   0.13050833  0.17033885  0.35542738
   0.77195823  0.71282053  0.63524568
   0.60529155  0.71282053  0.80511779
   0.93862486  0.37948719  0.46537358
   0.77195823  0.37948719  0.63524568
   0.64973927  0.76649272  0.14217091
   0.63050842  0.67033881  0.35542738
   0.77195823  0.04615385  0.63524568
   0.60529155  0.04615385  0.80511779
   0.35529152  0.96282059  0.55030960
   0.18862486  0.96282059  0.72018170
   0.02195811  0.96282059  0.89005387
   0.39973921  0.01649272  0.21325642
   0.18862486  0.62948728  0.72018170
   0.14973922  0.76649284  0.00000000
   0.35529152  0.29615384  0.55030960
   0.18862486  0.29615384  0.72018170
   0.57281613  0.88187736  0.00000000
   0.41896993  0.11264652  0.28434190
   0.52195817  0.96282059  0.72018170
   0.13050844  0.17033896  0.07108547
   0.95743138  0.80495423  0.28434190
   0.52195817  0.62948728  0.72018170
   0.03435459  0.18956974  0.00000000
   0.68862486  0.29615384  0.55030960
   0.52195817  0.29615384  0.72018170
   0.49589300  0.99726194  0.14217091
   0.11127757  0.57418501  0.28434190
   0.85529160  0.96282059  0.72018170
   0.68862486  0.96282059  0.89005387
   0.02195823  0.62948728  0.55030960
   0.85529160  0.62948728  0.72018170
   0.41896999  0.11264660  0.00000000
   0.02195823  0.29615384  0.55030960
   0.85529160  0.29615384  0.72018170
   0.68862486  0.29615384  0.89005387
   0.16896993  0.36264655  0.35542738
   0.27195811  0.87948716  0.63524568
   0.10529149  0.87948716  0.80511779
   0.43862486  0.54615384  0.46537358
   0.27195811  0.54615384  0.63524568
   0.10529149  0.54615384  0.80511779
   0.43862486  0.21282051  0.46537358
   0.27195811  0.21282051  0.63524568
   0.10529149  0.21282051  0.80511779
   0.89973909  0.01649269  0.35542738
   0.60529149  0.87948716  0.63524568
   0.18820076  0.95880044  0.00000000
   0.32281604  0.13187726  0.35542738
   0.60529149  0.54615384  0.63524568
   0.43862486  0.54615384  0.80511779
   0.77195823  0.21282051  0.46537358
   0.60529149  0.21282051  0.63524568
   0.43862486  0.21282051  0.80511779
   0.78435451  0.43956962  0.35542738
   0.93862498  0.87948716  0.63524568
   0.77195829  0.87948716  0.80511779
   0.24589303  0.24726200  0.21325642
   0.93862498  0.54615384  0.63524568
   0.77195829  0.54615384  0.80511779
   0.88050830  0.42033884  0.28434190
   0.93862498  0.21282051  0.63524568
   0.77195829  0.21282051  0.80511779
   0.52195817  0.79615390  0.55030960
   0.35529152  0.79615390  0.72018170
   0.88050848  0.42033899  0.00000000
   0.52195817  0.46282056  0.55030960
   0.35529152  0.46282056  0.72018170
   0.38050851  0.92033905  0.00000000
   0.52195817  0.12948719  0.55030960
   0.35529152  0.12948719  0.72018170
   0.18862486  0.12948719  0.89005387
   0.85529160  0.79615390  0.55030960
   0.68862498  0.79615390  0.72018170
   0.34204692  0.72803128  0.00000000
   0.85529160  0.46282056  0.55030960
   0.68862498  0.46282056  0.72018170
   0.28435466  0.93956983  0.07108547
   0.85529160  0.12948719  0.55030960
   0.68862498  0.12948719  0.72018170
   0.30358532  0.03572347  0.14217091
   0.18862486  0.79615390  0.55030960
   0.02195811  0.79615390  0.72018170
   0.53435463  0.18956965  0.14217091
   0.18862486  0.46282056  0.55030960
   0.02195811  0.46282056  0.72018170
   0.49589309  0.49726200  0.00000000
   0.93820059  0.20880038  0.35542738
   0.02195811  0.12948719  0.72018170
   0.26512384  0.34341592  0.00000000
