  264  264    1    2
  0.2770664E+02  0.1946760E-08  0.1946760E-08  0.1930025E-08  0.5000000E-15
  1.000000000000000E-004
  CAR 
 Si and Ge interface calculation         
   1056      8    636
