 168 168   0   0
  0.2743752E+02  0.1123962E-08  0.1589523E-08  0.2580094E-08  0.5000000E-15
  1.000000000000000E-004
  CAR 
 Si and Ge interface calculation         
      6.49864237     -9.84754733  301      3.45948281      1.00000000
     -9.848  0.0000E+00  0.0000E+00  0.0000E+00  0.0000E+00
     -9.793  0.0000E+00  0.0000E+00  0.0000E+00  0.0000E+00
     -9.739  0.0000E+00  0.0000E+00  0.0000E+00  0.0000E+00
     -9.684  0.0000E+00  0.0000E+00  0.0000E+00  0.0000E+00
     -9.630  0.0000E+00  0.0000E+00  0.0000E+00  0.0000E+00
     -9.575  0.0000E+00  0.0000E+00  0.0000E+00  0.0000E+00
     -9.521  0.0000E+00  0.0000E+00  0.0000E+00  0.0000E+00
     -9.466  0.0000E+00  0.0000E+00  0.0000E+00  0.0000E+00
     -9.412  0.0000E+00  0.0000E+00  0.0000E+00  0.0000E+00
     -9.357  0.0000E+00  0.0000E+00  0.0000E+00  0.0000E+00
     -9.303  0.0000E+00  0.0000E+00  0.0000E+00  0.0000E+00
     -9.248  0.0000E+00  0.0000E+00  0.0000E+00  0.0000E+00
     -9.194  0.0000E+00  0.0000E+00  0.0000E+00  0.0000E+00
     -9.139  0.2878E-05  0.2823E-07  0.1568E-06  0.1538E-08
     -9.085  0.6102E+01  0.5965E+01  0.3325E+00  0.3250E+00
     -9.030  0.1561E-01  0.1524E+00  0.3333E+00  0.3333E+00
     -8.976  0.1914E+02  0.1521E+02  0.1376E+01  0.1162E+01
     -8.921  0.5327E+01  0.9262E+01  0.1667E+01  0.1667E+01
     -8.867  0.2047E+02  0.1384E+02  0.2782E+01  0.2421E+01
     -8.812  0.4115E+01  0.1064E+02  0.3006E+01  0.3001E+01
     -8.758  0.6109E+01  0.6113E+01  0.3339E+01  0.3334E+01
     -8.703  0.1213E+02  0.1223E+02  0.4000E+01  0.4000E+01
     -8.649  0.2093E+02  0.1706E+02  0.5140E+01  0.4930E+01
     -8.594  0.4008E+02  0.4308E+02  0.7324E+01  0.7277E+01
     -8.540  0.1308E+02  0.5533E+01  0.8037E+01  0.7578E+01
     -8.485  0.3837E+02  0.4506E+02  0.1013E+02  0.1003E+02
     -8.431  0.9896E+01  0.1162E+02  0.1067E+02  0.1067E+02
     -8.376  0.3706E+02  0.3165E+02  0.1269E+02  0.1239E+02
     -8.322  0.3487E+02  0.3641E+02  0.1459E+02  0.1438E+02
     -8.267  0.2099E+02  0.2002E+02  0.1573E+02  0.1547E+02
     -8.213  0.2332E+02  0.2813E+02  0.1700E+02  0.1700E+02
     -8.158  0.3723E+02  0.3420E+02  0.1903E+02  0.1886E+02
     -8.104  0.1513E+02  0.1597E+02  0.1985E+02  0.1973E+02
     -8.049  0.3450E+02  0.3247E+02  0.2173E+02  0.2150E+02
     -7.995  0.2939E+02  0.3361E+02  0.2333E+02  0.2333E+02
     -7.940  0.8453E+01  0.6920E+01  0.2379E+02  0.2371E+02
     -7.886  0.2212E+02  0.2367E+02  0.2500E+02  0.2500E+02
     -7.832  0.2163E+02  0.1211E+02  0.2618E+02  0.2566E+02
     -7.777  0.5134E+02  0.5889E+02  0.2898E+02  0.2887E+02
     -7.723  0.6579E+01  0.8487E+01  0.2933E+02  0.2933E+02
     -7.668  0.6249E+01  0.6178E+01  0.2967E+02  0.2967E+02
     -7.614  0.1294E+02  0.1237E+02  0.3038E+02  0.3034E+02
     -7.559  0.6587E+02  0.5802E+02  0.3397E+02  0.3350E+02
     -7.505  0.3545E+02  0.4082E+02  0.3590E+02  0.3573E+02
     -7.450  0.4682E+02  0.4799E+02  0.3845E+02  0.3834E+02
     -7.396  0.2839E+02  0.3023E+02  0.4000E+02  0.3999E+02
     -7.341  0.8396E+01  0.4689E+01  0.4046E+02  0.4024E+02
     -7.287  0.1913E+02  0.2108E+02  0.4150E+02  0.4139E+02
     -7.232  0.5263E+02  0.4797E+02  0.4437E+02  0.4401E+02
     -7.178  0.2844E+02  0.3171E+02  0.4592E+02  0.4573E+02
     -7.123  0.6322E+02  0.6122E+02  0.4936E+02  0.4907E+02
     -7.069  0.3931E+02  0.4145E+02  0.5150E+02  0.5133E+02
     -7.014  0.2274E+02  0.2490E+02  0.5274E+02  0.5269E+02
     -6.960  0.5810E+02  0.5404E+02  0.5591E+02  0.5563E+02
     -6.905  0.3313E+02  0.3672E+02  0.5771E+02  0.5763E+02
     -6.851  0.5499E+02  0.5275E+02  0.6071E+02  0.6051E+02
     -6.796  0.2194E+02  0.2242E+02  0.6190E+02  0.6173E+02
     -6.742  0.4905E+02  0.4899E+02  0.6458E+02  0.6440E+02
     -6.687  0.5905E+02  0.6043E+02  0.6779E+02  0.6769E+02
     -6.633  0.5528E+02  0.4775E+02  0.7081E+02  0.7029E+02
     -6.578  0.5714E+02  0.6370E+02  0.7392E+02  0.7376E+02
     -6.524  0.2059E+01  0.4438E+01  0.7403E+02  0.7400E+02
     -6.469  0.3442E+02  0.3203E+02  0.7591E+02  0.7575E+02
     -6.415  0.2794E+02  0.2418E+02  0.7743E+02  0.7707E+02
     -6.360  0.3938E+02  0.3747E+02  0.7957E+02  0.7911E+02
     -6.306  0.6535E+02  0.6804E+02  0.8313E+02  0.8282E+02
     -6.251  0.6176E+02  0.6000E+02  0.8650E+02  0.8608E+02
     -6.197  0.5863E+02  0.6499E+02  0.8969E+02  0.8963E+02
     -6.142  0.6718E+02  0.6300E+02  0.9335E+02  0.9306E+02
     -6.088  0.6533E+02  0.6502E+02  0.9691E+02  0.9660E+02
     -6.033  0.3798E+02  0.4296E+02  0.9898E+02  0.9894E+02
     -5.979  0.1254E+02  0.1330E+02  0.9967E+02  0.9967E+02
     -5.924  0.3008E+02  0.2838E+02  0.1013E+03  0.1012E+03
     -5.870  0.4970E+02  0.4238E+02  0.1040E+03  0.1035E+03
     -5.815  0.2736E+02  0.3460E+02  0.1055E+03  0.1054E+03
     -5.761  0.4408E+02  0.4249E+02  0.1079E+03  0.1077E+03
     -5.707  0.3842E+02  0.4177E+02  0.1100E+03  0.1100E+03
     -5.652  0.5242E+02  0.4663E+02  0.1129E+03  0.1125E+03
     -5.598  0.1255E+02  0.1628E+02  0.1135E+03  0.1134E+03
     -5.543  0.3084E+02  0.3000E+02  0.1152E+03  0.1151E+03
     -5.489  0.3853E+02  0.3711E+02  0.1173E+03  0.1171E+03
     -5.434  0.6580E+02  0.6603E+02  0.1209E+03  0.1207E+03
     -5.380  0.6232E+02  0.6022E+02  0.1243E+03  0.1240E+03
     -5.325  0.4595E+02  0.4846E+02  0.1268E+03  0.1266E+03
     -5.271  0.4485E+02  0.4586E+02  0.1292E+03  0.1291E+03
     -5.216  0.5813E+02  0.5349E+02  0.1324E+03  0.1320E+03
     -5.162  0.6610E+02  0.6921E+02  0.1360E+03  0.1358E+03
     -5.107  0.6205E+02  0.6326E+02  0.1394E+03  0.1392E+03
     -5.053  0.4355E+02  0.4516E+02  0.1418E+03  0.1417E+03
     -4.998  0.6138E+02  0.5697E+02  0.1451E+03  0.1448E+03
     -4.944  0.4417E+02  0.4656E+02  0.1475E+03  0.1473E+03
     -4.889  0.3417E+02  0.3034E+02  0.1494E+03  0.1490E+03
     -4.835  0.7231E+02  0.7436E+02  0.1533E+03  0.1530E+03
     -4.780  0.7908E+02  0.7907E+02  0.1576E+03  0.1573E+03
     -4.726  0.2056E+02  0.2424E+02  0.1588E+03  0.1587E+03
     -4.671  0.5766E+02  0.5599E+02  0.1619E+03  0.1617E+03
     -4.617  0.2795E+02  0.2974E+02  0.1634E+03  0.1633E+03
     -4.562  0.4620E+02  0.3302E+02  0.1659E+03  0.1651E+03
     -4.508  0.7386E+02  0.7850E+02  0.1700E+03  0.1694E+03
     -4.453  0.5188E+02  0.6052E+02  0.1728E+03  0.1727E+03
     -4.399  0.5403E+02  0.4942E+02  0.1757E+03  0.1754E+03
     -4.344  0.5215E+02  0.4524E+02  0.1786E+03  0.1779E+03
     -4.290  0.4798E+02  0.5023E+02  0.1812E+03  0.1806E+03
     -4.235  0.6277E+02  0.6967E+02  0.1846E+03  0.1844E+03
     -4.181  0.2813E+02  0.2519E+02  0.1861E+03  0.1858E+03
     -4.126  0.4469E+02  0.4834E+02  0.1886E+03  0.1884E+03
     -4.072  0.5288E+02  0.4702E+02  0.1915E+03  0.1910E+03
     -4.017  0.4100E+02  0.4593E+02  0.1937E+03  0.1935E+03
     -3.963  0.6230E+02  0.6286E+02  0.1971E+03  0.1969E+03
     -3.908  0.4761E+02  0.4936E+02  0.1997E+03  0.1996E+03
     -3.854  0.5964E+02  0.5284E+02  0.2029E+03  0.2025E+03
     -3.799  0.6898E+02  0.7611E+02  0.2067E+03  0.2066E+03
     -3.745  0.1622E+02  0.1456E+02  0.2076E+03  0.2074E+03
     -3.690  0.5286E+02  0.4849E+02  0.2104E+03  0.2101E+03
     -3.636  0.6220E+02  0.6528E+02  0.2138E+03  0.2136E+03
     -3.582  0.5205E+02  0.5130E+02  0.2167E+03  0.2164E+03
     -3.527  0.7004E+02  0.6835E+02  0.2205E+03  0.2201E+03
     -3.473  0.4593E+02  0.5194E+02  0.2230E+03  0.2230E+03
     -3.418  0.3281E+02  0.2647E+02  0.2248E+03  0.2244E+03
     -3.364  0.5060E+02  0.5478E+02  0.2275E+03  0.2274E+03
     -3.309  0.4542E+02  0.4473E+02  0.2300E+03  0.2298E+03
     -3.255  0.4257E+02  0.4595E+02  0.2323E+03  0.2323E+03
     -3.200  0.4460E+02  0.3654E+02  0.2348E+03  0.2343E+03
     -3.146  0.4559E+02  0.4696E+02  0.2372E+03  0.2369E+03
     -3.091  0.3129E+02  0.2905E+02  0.2390E+03  0.2385E+03
     -3.037  0.3219E+02  0.3808E+02  0.2407E+03  0.2405E+03
     -2.982  0.3731E+02  0.3644E+02  0.2427E+03  0.2425E+03
     -2.928  0.7735E+02  0.7550E+02  0.2470E+03  0.2466E+03
     -2.873  0.6499E+02  0.5866E+02  0.2505E+03  0.2498E+03
     -2.819  0.3844E+02  0.4744E+02  0.2526E+03  0.2524E+03
     -2.764  0.5495E+02  0.5536E+02  0.2556E+03  0.2554E+03
     -2.710  0.1955E+02  0.1511E+02  0.2566E+03  0.2563E+03
     -2.655  0.5523E+02  0.6142E+02  0.2597E+03  0.2596E+03
     -2.601  0.3970E+02  0.3725E+02  0.2618E+03  0.2616E+03
     -2.546  0.6107E+02  0.6020E+02  0.2651E+03  0.2649E+03
     -2.492  0.6812E+02  0.6917E+02  0.2689E+03  0.2687E+03
     -2.437  0.4851E+02  0.4849E+02  0.2715E+03  0.2713E+03
     -2.383  0.5527E+02  0.5642E+02  0.2745E+03  0.2744E+03
     -2.328  0.5491E+02  0.5338E+02  0.2775E+03  0.2773E+03
     -2.274  0.2514E+02  0.2385E+02  0.2789E+03  0.2786E+03
     -2.219  0.5103E+02  0.5488E+02  0.2817E+03  0.2816E+03
     -2.165  0.4534E+02  0.4077E+02  0.2841E+03  0.2838E+03
     -2.110  0.3352E+02  0.3608E+02  0.2860E+03  0.2858E+03
     -2.056  0.3083E+02  0.3226E+02  0.2876E+03  0.2875E+03
     -2.001  0.2392E+02  0.2211E+02  0.2889E+03  0.2887E+03
     -1.947  0.3785E+02  0.4122E+02  0.2910E+03  0.2910E+03
     -1.892  0.1889E+02  0.1620E+02  0.2920E+03  0.2919E+03
     -1.838  0.3044E+02  0.3298E+02  0.2937E+03  0.2937E+03
     -1.783  0.4203E+02  0.3857E+02  0.2960E+03  0.2958E+03
     -1.729  0.4322E+02  0.4679E+02  0.2983E+03  0.2983E+03
     -1.674  0.3441E+02  0.2837E+02  0.3002E+03  0.2999E+03
     -1.620  0.3935E+02  0.4532E+02  0.3024E+03  0.3023E+03
     -1.565  0.3693E+02  0.3617E+02  0.3044E+03  0.3043E+03
     -1.511  0.2250E+02  0.2137E+02  0.3056E+03  0.3055E+03
     -1.457  0.3483E+02  0.3081E+02  0.3075E+03  0.3072E+03
     -1.402  0.4985E+02  0.5279E+02  0.3102E+03  0.3100E+03
     -1.348  0.3004E+02  0.3150E+02  0.3118E+03  0.3117E+03
     -1.293  0.8947E+01  0.1003E+02  0.3123E+03  0.3123E+03
     -1.239  0.2296E+02  0.1663E+02  0.3136E+03  0.3132E+03
     -1.184  0.7734E+01  0.1475E+02  0.3140E+03  0.3140E+03
     -1.130  0.6855E+00  0.1555E+00  0.3140E+03  0.3140E+03
     -1.075  0.3620E+02  0.3228E+02  0.3160E+03  0.3158E+03
     -1.021  0.1224E+02  0.1653E+02  0.3167E+03  0.3167E+03
     -0.966  0.1264E+02  0.1232E+02  0.3174E+03  0.3173E+03
     -0.912  0.1169E+02  0.1213E+02  0.3180E+03  0.3180E+03
     -0.857  0.3504E+02  0.2887E+02  0.3199E+03  0.3196E+03
     -0.803  0.2592E+02  0.3134E+02  0.3213E+03  0.3213E+03
     -0.748  0.1288E+02  0.1328E+02  0.3220E+03  0.3220E+03
     -0.694  0.2802E+02  0.2601E+02  0.3236E+03  0.3234E+03
     -0.639  0.3248E+02  0.2807E+02  0.3253E+03  0.3250E+03
     -0.585  0.6558E+02  0.6946E+02  0.3289E+03  0.3287E+03
     -0.530  0.7326E+02  0.7191E+02  0.3329E+03  0.3327E+03
     -0.476  0.4978E+02  0.4711E+02  0.3356E+03  0.3352E+03
     -0.421  0.7701E+02  0.7022E+02  0.3398E+03  0.3390E+03
     -0.367  0.6399E+02  0.7325E+02  0.3433E+03  0.3430E+03
     -0.312  0.3615E+02  0.3374E+02  0.3453E+03  0.3449E+03
     -0.258  0.1077E+03  0.1072E+03  0.3511E+03  0.3507E+03
     -0.203  0.6956E+02  0.7008E+02  0.3549E+03  0.3545E+03
     -0.149  0.6535E+02  0.6785E+02  0.3585E+03  0.3582E+03
     -0.094  0.6488E+02  0.6749E+02  0.3620E+03  0.3619E+03
     -0.040  0.7278E+02  0.6138E+02  0.3660E+03  0.3653E+03
      0.015  0.6218E+02  0.7129E+02  0.3694E+03  0.3691E+03
      0.069  0.7400E+02  0.6540E+02  0.3734E+03  0.3727E+03
      0.124  0.7599E+02  0.8276E+02  0.3775E+03  0.3772E+03
      0.178  0.8306E+02  0.7554E+02  0.3821E+03  0.3813E+03
      0.233  0.7996E+02  0.8246E+02  0.3864E+03  0.3858E+03
      0.287  0.9033E+02  0.9645E+02  0.3913E+03  0.3911E+03
      0.342  0.9242E+02  0.9353E+02  0.3964E+03  0.3962E+03
      0.396  0.9188E+02  0.8461E+02  0.4014E+03  0.4008E+03
      0.451  0.1078E+03  0.1105E+03  0.4073E+03  0.4068E+03
      0.505  0.1061E+03  0.1053E+03  0.4130E+03  0.4125E+03
      0.560  0.9426E+02  0.9109E+02  0.4182E+03  0.4175E+03
      0.614  0.1255E+03  0.1290E+03  0.4250E+03  0.4245E+03
      0.669  0.1179E+03  0.1142E+03  0.4314E+03  0.4308E+03
      0.723  0.1656E+03  0.1656E+03  0.4405E+03  0.4398E+03
      0.777  0.1472E+03  0.1526E+03  0.4485E+03  0.4481E+03
      0.832  0.6191E+02  0.6211E+02  0.4519E+03  0.4515E+03
      0.886  0.1303E+03  0.1294E+03  0.4590E+03  0.4585E+03
      0.941  0.8678E+02  0.8641E+02  0.4637E+03  0.4632E+03
      0.995  0.1162E+03  0.1212E+03  0.4700E+03  0.4698E+03
      1.050  0.8970E+02  0.8444E+02  0.4749E+03  0.4744E+03
      1.104  0.5243E+02  0.5271E+02  0.4778E+03  0.4773E+03
      1.159  0.1262E+03  0.1261E+03  0.4846E+03  0.4842E+03
      1.213  0.1257E+03  0.1202E+03  0.4915E+03  0.4907E+03
      1.268  0.9902E+02  0.1096E+03  0.4969E+03  0.4967E+03
      1.322  0.1534E+03  0.1440E+03  0.5052E+03  0.5046E+03
      1.377  0.1231E+03  0.1271E+03  0.5119E+03  0.5115E+03
      1.431  0.8618E+02  0.8657E+02  0.5166E+03  0.5162E+03
      1.486  0.1228E+03  0.1235E+03  0.5233E+03  0.5229E+03
      1.540  0.1121E+03  0.1119E+03  0.5294E+03  0.5290E+03
      1.595  0.1264E+03  0.1239E+03  0.5363E+03  0.5358E+03
      1.649  0.8811E+02  0.8696E+02  0.5411E+03  0.5405E+03
      1.704  0.1205E+03  0.1230E+03  0.5477E+03  0.5472E+03
      1.758  0.1189E+03  0.1136E+03  0.5542E+03  0.5534E+03
      1.813  0.9839E+02  0.9962E+02  0.5595E+03  0.5588E+03
      1.867  0.1254E+03  0.1289E+03  0.5664E+03  0.5659E+03
      1.922  0.8743E+02  0.8961E+02  0.5711E+03  0.5707E+03
      1.976  0.8212E+02  0.8065E+02  0.5756E+03  0.5751E+03
      2.031  0.1095E+03  0.1016E+03  0.5816E+03  0.5807E+03
      2.085  0.7872E+02  0.8506E+02  0.5859E+03  0.5853E+03
      2.140  0.8424E+02  0.8970E+02  0.5905E+03  0.5902E+03
      2.194  0.8595E+02  0.8306E+02  0.5951E+03  0.5947E+03
      2.249  0.9642E+02  0.9181E+02  0.6004E+03  0.5997E+03
      2.303  0.9174E+02  0.8766E+02  0.6054E+03  0.6045E+03
      2.358  0.7858E+02  0.9339E+02  0.6097E+03  0.6096E+03
      2.412  0.7102E+02  0.6307E+02  0.6135E+03  0.6130E+03
      2.467  0.4970E+02  0.5536E+02  0.6163E+03  0.6160E+03
      2.521  0.7881E+02  0.7403E+02  0.6205E+03  0.6201E+03
      2.576  0.1117E+03  0.1089E+03  0.6266E+03  0.6260E+03
      2.630  0.5149E+02  0.5888E+02  0.6294E+03  0.6292E+03
      2.685  0.6540E+02  0.6885E+02  0.6330E+03  0.6330E+03
      2.739  0.7582E+02  0.6621E+02  0.6371E+03  0.6366E+03
      2.794  0.7661E+02  0.8329E+02  0.6413E+03  0.6411E+03
      2.848  0.3349E+02  0.3039E+02  0.6431E+03  0.6428E+03
      2.902  0.8378E+02  0.8293E+02  0.6477E+03  0.6473E+03
      2.957  0.4173E+02  0.4518E+02  0.6500E+03  0.6498E+03
      3.011  0.4897E+02  0.4718E+02  0.6526E+03  0.6523E+03
      3.066  0.4153E+02  0.3989E+02  0.6549E+03  0.6545E+03
      3.120  0.4325E+02  0.4540E+02  0.6573E+03  0.6570E+03
      3.175  0.3722E+02  0.3693E+02  0.6593E+03  0.6590E+03
      3.229  0.4887E+02  0.4567E+02  0.6619E+03  0.6615E+03
      3.284  0.4335E+02  0.4319E+02  0.6643E+03  0.6638E+03
      3.338  0.5010E+02  0.5171E+02  0.6670E+03  0.6666E+03
      3.393  0.4096E+02  0.4278E+02  0.6693E+03  0.6690E+03
      3.447  0.3388E+02  0.2952E+02  0.6711E+03  0.6706E+03
      3.502  0.2494E+02  0.2148E+02  0.6725E+03  0.6717E+03
      3.556  0.2939E+02  0.3253E+02  0.6741E+03  0.6735E+03
      3.611  0.1523E+02  0.1588E+02  0.6749E+03  0.6744E+03
      3.665  0.4401E+02  0.4865E+02  0.6773E+03  0.6770E+03
      3.720  0.3584E+02  0.3579E+02  0.6793E+03  0.6790E+03
      3.774  0.5579E+02  0.5207E+02  0.6823E+03  0.6818E+03
      3.829  0.1897E+02  0.2719E+02  0.6833E+03  0.6833E+03
      3.883  0.2586E+01  0.6889E+00  0.6835E+03  0.6833E+03
      3.938  0.9678E+01  0.1203E+02  0.6840E+03  0.6840E+03
      3.992  0.2961E+02  0.2548E+02  0.6856E+03  0.6854E+03
      4.047  0.1320E+02  0.1734E+02  0.6863E+03  0.6863E+03
      4.101  0.1512E+02  0.1314E+02  0.6872E+03  0.6870E+03
      4.156  0.3502E+02  0.2935E+02  0.6891E+03  0.6886E+03
      4.210  0.1278E+02  0.1363E+02  0.6898E+03  0.6894E+03
      4.265  0.6041E+02  0.6123E+02  0.6931E+03  0.6927E+03
      4.319  0.2678E+02  0.2768E+02  0.6945E+03  0.6942E+03
      4.374  0.1752E+02  0.2090E+02  0.6955E+03  0.6954E+03
      4.428  0.4754E+02  0.4846E+02  0.6981E+03  0.6980E+03
      4.483  0.3747E+02  0.3516E+02  0.7001E+03  0.6999E+03
      4.537  0.7210E+02  0.6698E+02  0.7040E+03  0.7036E+03
      4.592  0.7823E+02  0.8077E+02  0.7083E+03  0.7080E+03
      4.646  0.5810E+02  0.5343E+02  0.7115E+03  0.7109E+03
      4.701  0.4922E+02  0.5209E+02  0.7141E+03  0.7137E+03
      4.755  0.8005E+02  0.7897E+02  0.7185E+03  0.7180E+03
      4.810  0.9137E+02  0.9340E+02  0.7235E+03  0.7231E+03
      4.864  0.7840E+02  0.7527E+02  0.7277E+03  0.7272E+03
      4.919  0.6574E+02  0.6495E+02  0.7313E+03  0.7308E+03
      4.973  0.9354E+02  0.9849E+02  0.7364E+03  0.7361E+03
      5.027  0.7917E+02  0.7665E+02  0.7407E+03  0.7403E+03
      5.082  0.1152E+03  0.1170E+03  0.7470E+03  0.7467E+03
      5.136  0.9931E+02  0.9867E+02  0.7524E+03  0.7521E+03
      5.191  0.9762E+02  0.9339E+02  0.7577E+03  0.7571E+03
      5.245  0.8662E+02  0.9093E+02  0.7625E+03  0.7621E+03
      5.300  0.1135E+03  0.1089E+03  0.7687E+03  0.7680E+03
      5.354  0.9962E+02  0.1023E+03  0.7741E+03  0.7736E+03
      5.409  0.9511E+02  0.8968E+02  0.7793E+03  0.7785E+03
      5.463  0.9916E+02  0.1040E+03  0.7847E+03  0.7842E+03
      5.518  0.1239E+03  0.1219E+03  0.7914E+03  0.7908E+03
      5.572  0.1241E+03  0.1268E+03  0.7982E+03  0.7977E+03
      5.627  0.8131E+02  0.8088E+02  0.8026E+03  0.8021E+03
      5.681  0.4884E+02  0.5364E+02  0.8053E+03  0.8050E+03
      5.736  0.3959E+02  0.3706E+02  0.8074E+03  0.8071E+03
      5.790  0.1049E+02  0.1724E+02  0.8080E+03  0.8080E+03
      5.845  0.0000E+00  0.0000E+00  0.8080E+03  0.8080E+03
      5.899  0.0000E+00  0.0000E+00  0.8080E+03  0.8080E+03
      5.954  0.0000E+00  0.0000E+00  0.8080E+03  0.8080E+03
      6.008  0.0000E+00  0.0000E+00  0.8080E+03  0.8080E+03
      6.063  0.0000E+00  0.0000E+00  0.8080E+03  0.8080E+03
      6.117  0.0000E+00  0.0000E+00  0.8080E+03  0.8080E+03
      6.172  0.0000E+00  0.0000E+00  0.8080E+03  0.8080E+03
      6.226  0.0000E+00  0.0000E+00  0.8080E+03  0.8080E+03
      6.281  0.0000E+00  0.0000E+00  0.8080E+03  0.8080E+03
      6.335  0.0000E+00  0.0000E+00  0.8080E+03  0.8080E+03
      6.390  0.0000E+00  0.0000E+00  0.8080E+03  0.8080E+03
      6.444  0.0000E+00  0.0000E+00  0.8080E+03  0.8080E+03
      6.499  0.0000E+00  0.0000E+00  0.8080E+03  0.8080E+03
