<?xml version="1.0" encoding="ISO-8859-1"?>
<modeling>
 <generator>
  <i name="program" type="string">vasp </i>
  <i name="version" type="string">6.4.3  </i>
  <i name="subversion" type="string">19Mar24 (build Oct 22 2024 11:23:12) complex                          parallel </i>
  <i name="platform" type="string">LinuxIFC </i>
  <i name="date" type="string">2025 06 08 </i>
  <i name="time" type="string">04:34:52 </i>
 </generator>
 <incar>
  <i type="string" name="SYSTEM">Si and Ge interface calculation</i>
  <i type="int" name="ISTART">     0</i>
  <i type="logical" name="ADDGRID"> T  </i>
  <i type="int" name="ISPIN">     2</i>
  <i name="AMIX">      0.60000000</i>
  <i type="int" name="ICHARG">     2</i>
  <i type="int" name="NELM">   100</i>
  <i name="EDIFF">      0.00000010</i>
  <i name="ENCUT">    700.00000000</i>
  <i name="ENAUG">    900.00000000</i>
  <i type="int" name="NBANDS">   288</i>
  <i name="NUPDOWN">      1.00000000</i>
  <i name="NELECT">    480.00000000</i>
  <i type="string" name="LREAL">AUTO</i>
  <i type="int" name="ISMEAR">     0</i>
  <i name="SIGMA">      0.01000000</i>
  <i type="int" name="LMAXMIX">     6</i>
  <i type="logical" name="LWAVE"> F  </i>
  <i type="logical" name="LVTOT"> F  </i>
  <i type="logical" name="LVHAR"> T  </i>
  <i type="logical" name="LASPH"> T  </i>
  <i type="logical" name="LMIXTAU"> T  </i>
 </incar>
 <primitive_cell>
  <structure name="primitive_cell" >
   <crystal>
    <varray name="basis" >
     <v>      -2.71550101      -6.07204221       0.00000000 </v>
     <v>       0.00000000       0.00000000       7.99474955 </v>
     <v>     -13.57750147       6.07204367       0.00000000 </v>
    </varray>
    <i name="volume">    790.93498543 </i>
    <varray name="rec_basis" >
     <v>      -0.06137605      -0.13724102       0.00000000 </v>
     <v>       0.00000000       0.00000000       0.12508209 </v>
     <v>      -0.06137604       0.02744821       0.00000000 </v>
    </varray>
   </crystal>
   <varray name="positions" >
    <v>       0.37606913       0.00000000       0.65811962 </v>
    <v>       0.87606936       0.15190083       0.55811954 </v>
    <v>       0.37606957       0.30380166       0.45811955 </v>
    <v>       0.70940247       0.00000000       0.32478627 </v>
    <v>       0.20940280       0.15190083       0.22478611 </v>
    <v>       0.70940285       0.30380166       0.12478633 </v>
    <v>       0.04273576       0.00000000       0.99145299 </v>
    <v>       0.54273596       0.15190083       0.89145288 </v>
    <v>       0.04273625       0.30380166       0.79145286 </v>
    <v>       0.70940255       0.07595026       0.02478613 </v>
    <v>       0.20940245       0.22785109       0.92478644 </v>
    <v>       0.70940247       0.37975192       0.82478651 </v>
    <v>       0.04273578       0.07595027       0.69145286 </v>
    <v>       0.54273594       0.22785109       0.59145295 </v>
    <v>       0.04273613       0.37975192       0.49145283 </v>
    <v>       0.37606910       0.07595027       0.35811955 </v>
    <v>       0.87606923       0.22785109       0.25811960 </v>
    <v>       0.37606938       0.37975192       0.15811957 </v>
    <v>       0.12007996       0.56517518       0.33646348 </v>
    <v>       0.90579426       0.66493583       0.06503475 </v>
    <v>       0.69150826       0.76469648       0.79360607 </v>
    <v>       0.69150847       0.56517518       0.19360620 </v>
    <v>       0.47722258       0.66493583       0.92217765 </v>
    <v>       0.26293712       0.76469648       0.65074891 </v>
    <v>       0.26293697       0.56517518       0.05074928 </v>
    <v>       0.04865121       0.66493583       0.77932049 </v>
    <v>       0.83436551       0.76469648       0.50789175 </v>
    <v>       0.83436553       0.56517518       0.90789206 </v>
    <v>       0.62007977       0.66493583       0.63646339 </v>
    <v>       0.40579401       0.76469648       0.36503447 </v>
    <v>       0.40579415       0.56517518       0.76503490 </v>
    <v>       0.19150845       0.66493583       0.49360617 </v>
    <v>       0.97722269       0.76469648       0.22217749 </v>
    <v>       0.97722278       0.56517518       0.62217774 </v>
    <v>       0.76293687       0.66493583       0.35074898 </v>
    <v>       0.54865126       0.76469648       0.07932039 </v>
    <v>       0.54865122       0.56517518       0.47932064 </v>
    <v>       0.33436552       0.66493583       0.20789179 </v>
    <v>       0.12007982       0.76469648       0.93646329 </v>
    <v>       0.19150858       0.61505544       0.59360619 </v>
    <v>       0.97722282       0.71481609       0.32217751 </v>
    <v>       0.76293700       0.81457674       0.05074890 </v>
    <v>       0.76293717       0.61505544       0.45074942 </v>
    <v>       0.54865147       0.71481609       0.17932056 </v>
    <v>       0.33436532       0.81457674       0.90789180 </v>
    <v>       0.33436576       0.61505544       0.30789216 </v>
    <v>       0.12007982       0.71481609       0.03646343 </v>
    <v>       0.90579418       0.81457674       0.76503464 </v>
    <v>       0.90579421       0.61505544       0.16503495 </v>
    <v>       0.69150833       0.71481609       0.89360615 </v>
    <v>       0.47722251       0.81457674       0.62217754 </v>
    <v>       0.47722289       0.61505544       0.02217797 </v>
    <v>       0.26293701       0.71481609       0.75074917 </v>
    <v>       0.04865149       0.81457674       0.47932049 </v>
    <v>       0.04865133       0.61505544       0.87932051 </v>
    <v>       0.83436548       0.71481609       0.60789192 </v>
    <v>       0.62007981       0.81457663       0.33646316 </v>
    <v>       0.62008007       0.61505544       0.73646371 </v>
    <v>       0.40579426       0.71481609       0.46503485 </v>
    <v>       0.19150855       0.81457663       0.19360612 </v>
   </varray>
  </structure>
  <varray name="primitive_index" >
   <v type="int" >        1 </v>
   <v type="int" >       26 </v>
   <v type="int" >       27 </v>
   <v type="int" >        4 </v>
   <v type="int" >       20 </v>
   <v type="int" >        6 </v>
   <v type="int" >        7 </v>
   <v type="int" >        8 </v>
   <v type="int" >       24 </v>
   <v type="int" >       10 </v>
   <v type="int" >       35 </v>
   <v type="int" >       36 </v>
   <v type="int" >       28 </v>
   <v type="int" >       29 </v>
   <v type="int" >       15 </v>
   <v type="int" >       31 </v>
   <v type="int" >       17 </v>
   <v type="int" >       18 </v>
   <v type="int" >       88 </v>
   <v type="int" >       38 </v>
   <v type="int" >       90 </v>
   <v type="int" >       40 </v>
   <v type="int" >       92 </v>
   <v type="int" >       93 </v>
   <v type="int" >       94 </v>
   <v type="int" >       95 </v>
   <v type="int" >       45 </v>
   <v type="int" >       46 </v>
   <v type="int" >       47 </v>
   <v type="int" >       48 </v>
   <v type="int" >       49 </v>
   <v type="int" >       50 </v>
   <v type="int" >       51 </v>
   <v type="int" >       52 </v>
   <v type="int" >       83 </v>
   <v type="int" >       54 </v>
   <v type="int" >       85 </v>
   <v type="int" >       86 </v>
   <v type="int" >       57 </v>
   <v type="int" >      112 </v>
   <v type="int" >      113 </v>
   <v type="int" >      114 </v>
   <v type="int" >       61 </v>
   <v type="int" >       62 </v>
   <v type="int" >      117 </v>
   <v type="int" >       64 </v>
   <v type="int" >      119 </v>
   <v type="int" >      120 </v>
   <v type="int" >       67 </v>
   <v type="int" >       68 </v>
   <v type="int" >       69 </v>
   <v type="int" >       70 </v>
   <v type="int" >       71 </v>
   <v type="int" >       72 </v>
   <v type="int" >       73 </v>
   <v type="int" >      107 </v>
   <v type="int" >      108 </v>
   <v type="int" >      109 </v>
   <v type="int" >      110 </v>
   <v type="int" >      111 </v>
  </varray>
 </primitive_cell>
 <kpoints>
  <generation param="Gamma">
   <v type="int" name="divisions">       3        3        4 </v>
   <v name="usershift">      0.00000000       0.00000000       0.00000000 </v>
   <v name="genvec1">      0.33333333       0.00000000       0.00000000 </v>
   <v name="genvec2">      0.00000000       0.33333333       0.00000000 </v>
   <v name="genvec3">      0.00000000       0.00000000       0.25000000 </v>
   <v name="shift">      0.00000000       0.00000000       0.00000000 </v>
  </generation>
  <varray name="kpointlist" >
   <v>       0.00000000       0.00000000       0.00000000 </v>
   <v>       0.33333333      -0.00000000       0.00000000 </v>
   <v>       0.00000000       0.33333333       0.00000000 </v>
   <v>       0.33333333       0.33333333       0.00000000 </v>
   <v>      -0.33333333       0.33333333       0.00000000 </v>
   <v>       0.00000000       0.00000000       0.25000000 </v>
   <v>       0.33333333      -0.00000000       0.25000000 </v>
   <v>      -0.33333333       0.00000000       0.25000000 </v>
   <v>       0.00000000       0.33333333      -0.25000000 </v>
   <v>       0.00000000      -0.33333333      -0.25000000 </v>
   <v>       0.33333333       0.33333333       0.25000000 </v>
   <v>      -0.33333333      -0.33333333       0.25000000 </v>
   <v>      -0.33333333       0.33333333       0.25000000 </v>
   <v>       0.33333333      -0.33333333       0.25000000 </v>
   <v>       0.00000000       0.00000000       0.50000000 </v>
   <v>       0.33333333      -0.00000000       0.50000000 </v>
   <v>       0.00000000       0.33333333       0.50000000 </v>
   <v>       0.33333333       0.33333333       0.50000000 </v>
   <v>      -0.33333333       0.33333333       0.50000000 </v>
  </varray>
  <varray name="weights" >
   <v>       0.02777778 </v>
   <v>       0.05555556 </v>
   <v>       0.05555556 </v>
   <v>       0.05555556 </v>
   <v>       0.05555556 </v>
   <v>       0.05555556 </v>
   <v>       0.05555556 </v>
   <v>       0.05555556 </v>
   <v>       0.05555556 </v>
   <v>       0.05555556 </v>
   <v>       0.05555556 </v>
   <v>       0.05555556 </v>
   <v>       0.05555556 </v>
   <v>       0.05555556 </v>
   <v>       0.02777778 </v>
   <v>       0.05555556 </v>
   <v>       0.05555556 </v>
   <v>       0.05555556 </v>
   <v>       0.05555556 </v>
  </varray>
 </kpoints>
 <parameters>
  <separator name="general" >
   <i type="string" name="SYSTEM">Si and Ge interface calculation</i>
   <i type="logical" name="LCOMPAT"> F  </i>
  </separator>
  <separator name="electronic" >
   <i type="string" name="PREC">normal</i>
   <i name="ENMAX">    700.00000000</i>
   <i name="ENAUG">    900.00000000</i>
   <i name="EDIFF">      0.00000010</i>
   <i type="int" name="IALGO">    38</i>
   <i type="int" name="IWAVPR">    10</i>
   <i type="int" name="NBANDS">   288</i>
   <i type="int" name="NBANDSLOW">    -1</i>
   <i type="int" name="NBANDSHIGH">    -1</i>
   <i name="NELECT">    480.00000000</i>
   <i type="int" name="TURBO">     0</i>
   <i type="int" name="IRESTART">     0</i>
   <i type="int" name="NREBOOT">     0</i>
   <i type="int" name="NMIN">     0</i>
   <i name="EREF">      0.00000000</i>
   <separator name="electronic smearing" >
    <i type="int" name="ISMEAR">     0</i>
    <i name="SIGMA">      0.01000000</i>
    <i name="KSPACING">      0.50000000</i>
    <i type="logical" name="KGAMMA"> T  </i>
    <i type="logical" name="KBLOWUP"> T  </i>
   </separator>
   <separator name="electronic projectors" >
    <i type="logical" name="LREAL"> T  </i>
    <v name="ROPT">     -0.00050000     -0.00050000</v>
    <i type="int" name="LMAXPAW">  -100</i>
    <i type="int" name="LMAXMIX">     6</i>
    <i type="logical" name="NLSPLINE"> F  </i>
   </separator>
   <separator name="electronic startup" >
    <i type="int" name="ISTART">     0</i>
    <i type="int" name="ICHARG">     2</i>
    <i type="int" name="INIWAV">     1</i>
   </separator>
   <separator name="electronic spin" >
    <i type="int" name="ISPIN">     2</i>
    <i type="logical" name="LNONCOLLINEAR"> F  </i>
    <v name="MAGMOM">      0.00833333      0.00833333      0.00833333      0.00833333      0.00833333      0.00833333      0.00833333      0.00833333      0.00833333      0.00833333      0.00833333      0.00833333      0.00833333      0.00833333      0.00833333      0.00833333      0.00833333      0.00833333      0.00833333      0.00833333
      0.00833333      0.00833333      0.00833333      0.00833333      0.00833333      0.00833333      0.00833333      0.00833333      0.00833333      0.00833333      0.00833333      0.00833333      0.00833333      0.00833333      0.00833333      0.00833333      0.00833333      0.00833333      0.00833333      0.00833333
      0.00833333      0.00833333      0.00833333      0.00833333      0.00833333      0.00833333      0.00833333      0.00833333      0.00833333      0.00833333      0.00833333      0.00833333      0.00833333      0.00833333      0.00833333      0.00833333      0.00833333      0.00833333      0.00833333      0.00833333
      0.00833333      0.00833333      0.00833333      0.00833333      0.00833333      0.00833333      0.00833333      0.00833333      0.00833333      0.00833333      0.00833333      0.00833333      0.00833333      0.00833333      0.00833333      0.00833333      0.00833333      0.00833333      0.00833333      0.00833333
      0.00833333      0.00833333      0.00833333      0.00833333      0.00833333      0.00833333      0.00833333      0.00833333      0.00833333      0.00833333      0.00833333      0.00833333      0.00833333      0.00833333      0.00833333      0.00833333      0.00833333      0.00833333      0.00833333      0.00833333
      0.00833333      0.00833333      0.00833333      0.00833333      0.00833333      0.00833333      0.00833333      0.00833333      0.00833333      0.00833333      0.00833333      0.00833333      0.00833333      0.00833333      0.00833333      0.00833333      0.00833333      0.00833333      0.00833333      0.00833333
</v>
    <i name="NUPDOWN">      1.00000000</i>
    <i type="logical" name="LSORBIT"> F  </i>
    <v name="SAXIS">      0.00000000      0.00000000      1.00000000</v>
    <i type="logical" name="LSPIRAL"> F  </i>
    <v name="QSPIRAL">      0.00000000      0.00000000      0.00000000</v>
    <i type="logical" name="LZEROZ"> F  </i>
   </separator>
   <separator name="electronic exchange-correlation" >
    <i type="logical" name="LASPH"> T  </i>
   </separator>
   <separator name="electronic convergence" >
    <i type="int" name="NELM">   100</i>
    <i type="int" name="NELMDL">    -5</i>
    <i type="int" name="NELMIN">     2</i>
    <i name="ENINI">    700.00000000</i>
    <separator name="electronic convergence detail" >
     <i type="logical" name="LDIAG"> T  </i>
     <i type="logical" name="LSUBROT"> F  </i>
     <i name="WEIMIN">      0.00000000</i>
     <i name="EBREAK">      0.00000000</i>
     <i name="DEPER">      0.30000000</i>
     <i type="int" name="NRMM">     4</i>
     <i name="TIME">      0.40000000</i>
    </separator>
   </separator>
   <separator name="electronic mixer" >
    <i name="AMIX">      0.60000000</i>
    <i name="BMIX">      1.00000000</i>
    <i name="AMIN">      0.10000000</i>
    <i name="AMIX_MAG">      2.40000000</i>
    <i name="BMIX_MAG">      1.00000000</i>
    <separator name="electronic mixer details" >
     <i type="int" name="IMIX">     4</i>
     <i type="logical" name="MIXFIRST"> F  </i>
     <i type="int" name="MAXMIX">   -45</i>
     <i name="WC">    100.00000000</i>
     <i type="int" name="INIMIX">     1</i>
     <i type="int" name="MIXPRE">     1</i>
     <i type="int" name="MREMOVE">     5</i>
    </separator>
   </separator>
   <separator name="electronic dipolcorrection" >
    <i type="logical" name="LDIPOL"> F  </i>
    <i type="logical" name="LMONO"> F  </i>
    <i type="int" name="IDIPOL">     0</i>
    <i name="EPSILON">      1.00000000</i>
    <v name="DIPOL">   -100.00000000   -100.00000000   -100.00000000</v>
    <i name="EFIELD">      0.00000000</i>
    <i type="logical" name="LVACPOTAV"> F  </i>
   </separator>
  </separator>
  <separator name="grids" >
   <i type="int" name="NGX">   108</i>
   <i type="int" name="NGY">   108</i>
   <i type="int" name="NGZ">    54</i>
   <i type="int" name="NGXF">   216</i>
   <i type="int" name="NGYF">   216</i>
   <i type="int" name="NGZF">   108</i>
   <i type="logical" name="ADDGRID"> T  </i>
  </separator>
  <separator name="ionic" >
   <i type="int" name="NSW">     0</i>
   <i type="int" name="IBRION">    -1</i>
   <i type="int" name="MDALGO">     0</i>
   <i type="int" name="ISIF">     2</i>
   <i name="PSTRESS">      0.00000000</i>
   <i name="EDIFFG">      0.00000100</i>
   <i type="int" name="NFREE">     0</i>
   <i name="POTIM">      0.50000000</i>
   <i name="SMASS">     -3.00000000</i>
   <i name="SCALEE">      1.00000000</i>
  </separator>
  <separator name="ionic md" >
   <i name="TEBEG">      0.00010000</i>
   <i name="TEEND">      0.00010000</i>
   <i type="int" name="NBLOCK">     1</i>
   <i type="int" name="KBLOCK">     1</i>
   <i type="int" name="NPACO">   256</i>
   <i name="APACO">     10.00000000</i>
  </separator>
  <separator name="symmetry" >
   <i type="int" name="ISYM">     2</i>
   <i name="SYMPREC">      0.00001000</i>
  </separator>
  <separator name="dos" >
   <i type="int" name="LORBIT">     0</i>
   <v name="RWIGS">     -1.00000000     -1.00000000</v>
   <i type="int" name="NEDOS">   301</i>
   <i name="EMIN">     10.00000000</i>
   <i name="EMAX">    -10.00000000</i>
   <i name="EFERMI">      0.00000000</i>
  </separator>
  <separator name="writing" >
   <i type="int" name="NWRITE">     2</i>
   <i type="logical" name="LWAVE"> F  </i>
   <i type="logical" name="LDOWNSAMPLE"> F  </i>
   <i type="logical" name="LCHARG"> T  </i>
   <i type="logical" name="LPARD"> F  </i>
   <i type="logical" name="LVTOT"> F  </i>
   <i type="logical" name="LVHAR"> T  </i>
   <i type="logical" name="LELF"> F  </i>
   <i type="logical" name="LOPTICS"> F  </i>
   <v name="STM">      0.00000000      0.00000000      0.00000000      0.00000000      0.00000000      0.00000000      0.00000000</v>
  </separator>
  <separator name="performance" >
   <i type="int" name="NPAR">     4</i>
   <i type="int" name="NSIM">     4</i>
   <i type="int" name="NBLK">    -1</i>
   <i type="logical" name="LPLANE"> T  </i>
   <i type="logical" name="LSCALAPACK"> T  </i>
   <i type="logical" name="LSCAAWARE"> F  </i>
   <i type="logical" name="LSCALU"> F  </i>
   <i type="logical" name="LASYNC"> F  </i>
   <i type="logical" name="LORBITALREAL"> F  </i>
  </separator>
  <separator name="miscellaneous" >
   <i type="int" name="IDIOT">     3</i>
   <i type="int" name="PHON_NSTRUCT">    -1</i>
   <i type="logical" name="LMUSIC"> F  </i>
   <v name="POMASS">     28.08500000     12.01100000</v>
   <v name="DARWINR">      0.00000000      0.00000000</v>
   <v name="DARWINV">      1.00000000      1.00000000</v>
   <i type="logical" name="LCORR"> T  </i>
  </separator>
  <i type="logical" name="GGA_COMPAT"> T  </i>
  <i type="logical" name="LBERRY"> F  </i>
  <i type="int" name="ICORELEVEL">     0</i>
  <i type="logical" name="LDAU"> F  </i>
  <i type="int" name="I_CONSTRAINED_M">     0</i>
  <separator name="electronic exchange-correlation" >
   <i type="string" name="GGA    ">PE</i>
   <i type="string" name="XC_C">1</i>
   <i type="int" name="VOSKOWN">     0</i>
   <i type="logical" name="LHFCALC"> F  </i>
   <i type="string" name="PRECFOCK"></i>
   <i type="logical" name="LSYMGRAD"> F  </i>
   <i type="logical" name="LHFONE"> F  </i>
   <i type="logical" name="LRHFCALC"> F  </i>
   <i type="logical" name="LTHOMAS"> F  </i>
   <i type="logical" name="LMODELHF"> F  </i>
   <i type="logical" name="LFOCKACE"> F  </i>
   <i name="ENCUT4O">     -1.00000000</i>
   <i type="int" name="EXXOEP">     0</i>
   <i type="int" name="FOURORBIT">     0</i>
   <i name="AEXX">      0.00000000</i>
   <i name="HFALPHA">      0.00000000</i>
   <i name="MCALPHA">      0.00000000</i>
   <i name="ALDAX">      1.00000000</i>
   <i name="AGGAX">      1.00000000</i>
   <i name="AMGGAX">      1.00000000</i>
   <i name="ALDAC">      1.00000000</i>
   <i name="AGGAC">      1.00000000</i>
   <i name="AMGGAC">      1.00000000</i>
   <i type="int" name="NKREDX">     1</i>
   <i type="int" name="NKREDY">     1</i>
   <i type="int" name="NKREDZ">     1</i>
   <i type="logical" name="SHIFTRED"> F  </i>
   <i type="logical" name="ODDONLY"> F  </i>
   <i type="logical" name="EVENONLY"> F  </i>
   <i type="int" name="LMAXFOCK">     0</i>
   <i type="int" name="NMAXFOCKAE">     0</i>
   <i type="logical" name="LFOCKAEDFT"> F  </i>
   <i name="HFSCREEN">      0.00000000</i>
   <i name="HFSCREENC">      0.00000000</i>
   <i type="int" name="NBANDSGWLOW">     0</i>
  </separator>
  <separator name="vdW DFT" >
   <i type="logical" name="LUSE_VDW"> F  </i>
   <i type="int" name="IVDW_NL">    -1</i>
   <i type="logical" name="LSPIN_VDW"> F  </i>
   <i name="ZAB_VDW">     -0.84910000</i>
   <i name="GAMMA_VDW">      1.39626340</i>
   <i name="ALPHA_VDW">      0.00000000</i>
   <i name="PARAM1">      0.12340000</i>
   <i name="PARAM2">      1.00000000</i>
   <i name="BPARAM">      6.30000000</i>
   <i name="CPARAM">      0.00930000</i>
  </separator>
  <separator name="model GW" >
   <i type="int" name="MODEL_GW">     0</i>
   <i name="MODEL_EPS0">      7.90934985</i>
   <i name="MODEL_ALPHA">      1.00000000</i>
  </separator>
  <separator name="linear response parameters" >
   <i type="logical" name="LEPSILON"> F  </i>
   <i type="logical" name="LRPA"> F  </i>
   <i type="logical" name="LNABLA"> F  </i>
   <i type="logical" name="LVEL"> F  </i>
   <i name="CSHIFT">      0.10000000</i>
   <i name="OMEGAMAX">     -1.00000000</i>
   <i name="DEG_THRESHOLD">      0.00200000</i>
   <i name="RTIME">     -0.10000000</i>
   <i name="WPLASMAI">      0.00000000</i>
   <v name="DFIELD">      0.00000000      0.00000000      0.00000000</v>
   <v name="WPLASMA">      0.00000000      0.00000000      0.00000000      0.00000000      0.00000000      0.00000000      0.00000000      0.00000000      0.00000000</v>
  </separator>
  <separator name="orbital magnetization" >
   <i type="logical" name="NUCIND"> F  </i>
   <v name="MAGPOS">      0.00000000      0.00000000      0.00000000</v>
   <i type="logical" name="LNICSALL"> T  </i>
   <i type="logical" name="ORBITALMAG"> F  </i>
   <i type="logical" name="LMAGBLOCH"> F  </i>
   <i type="logical" name="LCHIMAG"> F  </i>
   <i type="logical" name="LGAUGE"> T  </i>
   <i type="int" name="MAGATOM">     0</i>
   <v name="MAGDIPOL">      0.00000000      0.00000000      0.00000000</v>
   <v name="AVECCONST">      0.00000000      0.00000000      0.00000000</v>
  </separator>
  <separator name="response functions" >
   <i type="logical" name="LALL_IN_ONE"> F  </i>
   <i type="int" name="IALL_IN_ONE">    -1</i>
   <i type="int" name="NBANDS_WAVE">    -1</i>
   <i type="logical" name="LFINITE_TEMPERATURE"> F  </i>
   <i type="logical" name="LADDER"> F  </i>
   <i type="logical" name="LRPAFORCE"> F  </i>
   <i type="logical" name="LFXC"> F  </i>
   <i type="logical" name="LHARTREE"> T  </i>
   <i type="int" name="IBSE">     0</i>
   <v type="int" name="KPOINT">    -1     0     0     0</v>
   <i type="logical" name="LTCTC"> F  </i>
   <i type="logical" name="LTCTE"> F  </i>
   <i type="logical" name="LTETE"> F  </i>
   <i type="logical" name="LTRIPLET"> F  </i>
   <i type="logical" name="LFXCEPS"> F  </i>
   <i type="logical" name="LFXHEG"> F  </i>
   <i type="int" name="NATURALO">     2</i>
   <i type="logical" name="LHOLEGF"> F  </i>
   <i type="logical" name="L2ORDER"> F  </i>
   <i type="logical" name="LDMP1"> F  </i>
   <i type="logical" name="LMP2LT"> F  </i>
   <i type="logical" name="LSMP2LT"> F  </i>
   <i type="logical" name="LGWLF"> F  </i>
   <i name="ENCUTGW">     -1.60000002</i>
   <i name="ENCUTGWSOFT">     -1.60000002</i>
   <i name="ENCUTLF">     -1.00000000</i>
   <i type="logical" name="ESF_SPLINES"> F  </i>
   <i name="ESF_CONV">      0.01000000</i>
   <i type="int" name="ESF_NINTER">    15</i>
   <i type="int" name="LMAXMP2">    -1</i>
   <i name="SCISSOR">      0.00000000</i>
   <i type="int" name="NOMEGA">     0</i>
   <i type="int" name="NOMEGAR">     0</i>
   <i type="int" name="NBANDSGW">    -1</i>
   <i type="int" name="NBANDSO">    -1</i>
   <i type="int" name="NBANDSV">    -1</i>
   <i type="int" name="NELMGW">     1</i>
   <i type="int" name="NELMHF">     1</i>
   <i type="int" name="DIM">     3</i>
   <i type="int" name="IESPILON">     4</i>
   <i type="int" name="ANTIRES">     0</i>
   <i name="OMEGAMAX">    -30.00000000</i>
   <i name="OMEGAMIN">    -30.00000000</i>
   <i name="OMEGATL">   -200.00000000</i>
   <i type="int" name="OMEGAGRID">     0</i>
   <i name="CSHIFT">     -0.10000000</i>
   <i type="logical" name="LSELFENERGY"> F  </i>
   <i type="logical" name="LSPECTRAL"> F  </i>
   <i type="logical" name="LSPECTRALGW"> F  </i>
   <i type="logical" name="LSINGLES"> F  </i>
   <i type="logical" name="LFERMIGW"> F  </i>
   <i type="logical" name="ODDONLYGW"> F  </i>
   <i type="logical" name="EVENONLYGW"> F  </i>
   <i type="int" name="NKREDLFX">     1</i>
   <i type="int" name="NKREDLFY">     1</i>
   <i type="int" name="NKREDLFZ">     1</i>
   <i type="int" name="MAXMEM">  2800</i>
   <i type="int" name="TELESCOPE">     0</i>
   <i type="int" name="NTAUPAR">    -1</i>
   <i type="int" name="NOMEGAPAR">    -1</i>
   <i name="DAMP_NEWTON">      0.80000001</i>
   <i name="LAMBDA">      1.00000000</i>
  </separator>
  <separator name="External order field" >
   <i name="OFIELD_KAPPA">      0.00000000</i>
   <v name="OFIELD_K">      0.00000000      0.00000000      0.00000000</v>
   <i name="OFIELD_Q6_NEAR">      0.00000000</i>
   <i name="OFIELD_Q6_FAR">      0.00000000</i>
   <i name="OFIELD_A">      0.00000000</i>
  </separator>
  <separator name="optional k-points parameters" >
   <i type="int" name="KPOINTS_OPT_MODE">     1</i>
   <i type="logical" name="LKPOINTS_OPT"> F  </i>
  </separator>
 </parameters>
 <atominfo>
  <atoms>     120 </atoms>
  <types>       2 </types>
  <array name="atoms" >
   <dimension dim="1">ion</dimension>
   <field type="string">element</field>
   <field type="int">atomtype</field>
   <set>
    <rc><c>Si</c><c>   1</c></rc>
    <rc><c>Si</c><c>   1</c></rc>
    <rc><c>Si</c><c>   1</c></rc>
    <rc><c>Si</c><c>   1</c></rc>
    <rc><c>Si</c><c>   1</c></rc>
    <rc><c>Si</c><c>   1</c></rc>
    <rc><c>Si</c><c>   1</c></rc>
    <rc><c>Si</c><c>   1</c></rc>
    <rc><c>Si</c><c>   1</c></rc>
    <rc><c>Si</c><c>   1</c></rc>
    <rc><c>Si</c><c>   1</c></rc>
    <rc><c>Si</c><c>   1</c></rc>
    <rc><c>Si</c><c>   1</c></rc>
    <rc><c>Si</c><c>   1</c></rc>
    <rc><c>Si</c><c>   1</c></rc>
    <rc><c>Si</c><c>   1</c></rc>
    <rc><c>Si</c><c>   1</c></rc>
    <rc><c>Si</c><c>   1</c></rc>
    <rc><c>Si</c><c>   1</c></rc>
    <rc><c>Si</c><c>   1</c></rc>
    <rc><c>Si</c><c>   1</c></rc>
    <rc><c>Si</c><c>   1</c></rc>
    <rc><c>Si</c><c>   1</c></rc>
    <rc><c>Si</c><c>   1</c></rc>
    <rc><c>Si</c><c>   1</c></rc>
    <rc><c>Si</c><c>   1</c></rc>
    <rc><c>Si</c><c>   1</c></rc>
    <rc><c>Si</c><c>   1</c></rc>
    <rc><c>Si</c><c>   1</c></rc>
    <rc><c>Si</c><c>   1</c></rc>
    <rc><c>Si</c><c>   1</c></rc>
    <rc><c>Si</c><c>   1</c></rc>
    <rc><c>Si</c><c>   1</c></rc>
    <rc><c>Si</c><c>   1</c></rc>
    <rc><c>Si</c><c>   1</c></rc>
    <rc><c>Si</c><c>   1</c></rc>
    <rc><c>C </c><c>   2</c></rc>
    <rc><c>C </c><c>   2</c></rc>
    <rc><c>C </c><c>   2</c></rc>
    <rc><c>C </c><c>   2</c></rc>
    <rc><c>C </c><c>   2</c></rc>
    <rc><c>C </c><c>   2</c></rc>
    <rc><c>C </c><c>   2</c></rc>
    <rc><c>C </c><c>   2</c></rc>
    <rc><c>C </c><c>   2</c></rc>
    <rc><c>C </c><c>   2</c></rc>
    <rc><c>C </c><c>   2</c></rc>
    <rc><c>C </c><c>   2</c></rc>
    <rc><c>C </c><c>   2</c></rc>
    <rc><c>C </c><c>   2</c></rc>
    <rc><c>C </c><c>   2</c></rc>
    <rc><c>C </c><c>   2</c></rc>
    <rc><c>C </c><c>   2</c></rc>
    <rc><c>C </c><c>   2</c></rc>
    <rc><c>C </c><c>   2</c></rc>
    <rc><c>C </c><c>   2</c></rc>
    <rc><c>C </c><c>   2</c></rc>
    <rc><c>C </c><c>   2</c></rc>
    <rc><c>C </c><c>   2</c></rc>
    <rc><c>C </c><c>   2</c></rc>
    <rc><c>C </c><c>   2</c></rc>
    <rc><c>C </c><c>   2</c></rc>
    <rc><c>C </c><c>   2</c></rc>
    <rc><c>C </c><c>   2</c></rc>
    <rc><c>C </c><c>   2</c></rc>
    <rc><c>C </c><c>   2</c></rc>
    <rc><c>C </c><c>   2</c></rc>
    <rc><c>C </c><c>   2</c></rc>
    <rc><c>C </c><c>   2</c></rc>
    <rc><c>C </c><c>   2</c></rc>
    <rc><c>C </c><c>   2</c></rc>
    <rc><c>C </c><c>   2</c></rc>
    <rc><c>C </c><c>   2</c></rc>
    <rc><c>C </c><c>   2</c></rc>
    <rc><c>C </c><c>   2</c></rc>
    <rc><c>C </c><c>   2</c></rc>
    <rc><c>C </c><c>   2</c></rc>
    <rc><c>C </c><c>   2</c></rc>
    <rc><c>C </c><c>   2</c></rc>
    <rc><c>C </c><c>   2</c></rc>
    <rc><c>C </c><c>   2</c></rc>
    <rc><c>C </c><c>   2</c></rc>
    <rc><c>C </c><c>   2</c></rc>
    <rc><c>C </c><c>   2</c></rc>
    <rc><c>C </c><c>   2</c></rc>
    <rc><c>C </c><c>   2</c></rc>
    <rc><c>C </c><c>   2</c></rc>
    <rc><c>C </c><c>   2</c></rc>
    <rc><c>C </c><c>   2</c></rc>
    <rc><c>C </c><c>   2</c></rc>
    <rc><c>C </c><c>   2</c></rc>
    <rc><c>C </c><c>   2</c></rc>
    <rc><c>C </c><c>   2</c></rc>
    <rc><c>C </c><c>   2</c></rc>
    <rc><c>C </c><c>   2</c></rc>
    <rc><c>C </c><c>   2</c></rc>
    <rc><c>C </c><c>   2</c></rc>
    <rc><c>C </c><c>   2</c></rc>
    <rc><c>C </c><c>   2</c></rc>
    <rc><c>C </c><c>   2</c></rc>
    <rc><c>C </c><c>   2</c></rc>
    <rc><c>C </c><c>   2</c></rc>
    <rc><c>C </c><c>   2</c></rc>
    <rc><c>C </c><c>   2</c></rc>
    <rc><c>C </c><c>   2</c></rc>
    <rc><c>C </c><c>   2</c></rc>
    <rc><c>C </c><c>   2</c></rc>
    <rc><c>C </c><c>   2</c></rc>
    <rc><c>C </c><c>   2</c></rc>
    <rc><c>C </c><c>   2</c></rc>
    <rc><c>C </c><c>   2</c></rc>
    <rc><c>C </c><c>   2</c></rc>
    <rc><c>C </c><c>   2</c></rc>
    <rc><c>C </c><c>   2</c></rc>
    <rc><c>C </c><c>   2</c></rc>
    <rc><c>C </c><c>   2</c></rc>
    <rc><c>C </c><c>   2</c></rc>
    <rc><c>C </c><c>   2</c></rc>
    <rc><c>C </c><c>   2</c></rc>
    <rc><c>C </c><c>   2</c></rc>
   </set>
  </array>
  <array name="atomtypes" >
   <dimension dim="1">type</dimension>
   <field type="int">atomspertype</field>
   <field type="string">element</field>
   <field>mass</field>
   <field>valence</field>
   <field type="string">pseudopotential</field>
   <set>
    <rc><c>  36</c><c>Si</c><c>     28.08500000</c><c>      4.00000000</c><c>  PAW_PBE Si 05Jan2001                  </c></rc>
    <rc><c>  84</c><c>C </c><c>     12.01100000</c><c>      4.00000000</c><c>  PAW_PBE C 08Apr2002                   </c></rc>
   </set>
  </array>
 </atominfo>
 <structure name="initialpos" >
  <crystal>
   <varray name="basis" >
    <v>      16.29300118       0.00000000       0.00000000 </v>
    <v>     -10.86200046      12.14408588       0.00000000 </v>
    <v>       0.00000000       0.00000000       7.99474955 </v>
   </varray>
   <i name="volume">   1581.86997086 </i>
   <varray name="rec_basis" >
    <v>       0.06137605       0.05489640       0.00000000 </v>
    <v>       0.00000000       0.08234461       0.00000000 </v>
    <v>       0.00000000       0.00000000       0.12508209 </v>
   </varray>
  </crystal>
  <varray name="positions" >
   <v>       0.98290563       0.64102513       0.00000000 </v>
   <v>       0.78290558       0.34102503       0.15190083 </v>
   <v>       0.58290541       0.04102494       0.30380166 </v>
   <v>       0.98290563       0.30769178       0.00000000 </v>
   <v>       0.78290558       0.00769171       0.15190083 </v>
   <v>       0.58290541       0.70769167       0.30380166 </v>
   <v>       0.98290563       0.97435850       0.00000000 </v>
   <v>       0.78290558       0.67435837       0.15190083 </v>
   <v>       0.58290541       0.37435830       0.30380166 </v>
   <v>       0.63290566       0.65769172       0.07595026 </v>
   <v>       0.43290559       0.35769162       0.22785109 </v>
   <v>       0.23290552       0.05769158       0.37975192 </v>
   <v>       0.63290566       0.32435846       0.07595026 </v>
   <v>       0.43290559       0.02435837       0.22785109 </v>
   <v>       0.23290552       0.72435832       0.37975192 </v>
   <v>       0.63290566       0.99102521       0.07595026 </v>
   <v>       0.43290559       0.69102514       0.22785109 </v>
   <v>       0.23290552       0.39102507       0.37975192 </v>
   <v>       0.48290563       0.80769175       0.00000000 </v>
   <v>       0.28290555       0.50769162       0.15190083 </v>
   <v>       0.08290544       0.20769161       0.30380166 </v>
   <v>       0.48290563       0.47435844       0.00000000 </v>
   <v>       0.28290555       0.17435835       0.15190083 </v>
   <v>       0.08290544       0.87435830       0.30380166 </v>
   <v>       0.48290563       0.14102514       0.00000000 </v>
   <v>       0.28290555       0.84102505       0.15190083 </v>
   <v>       0.08290544       0.54102498       0.30380166 </v>
   <v>       0.13290568       0.82435852       0.07595027 </v>
   <v>       0.93290555       0.52435839       0.22785109 </v>
   <v>       0.73290551       0.22435838       0.37975192 </v>
   <v>       0.13290568       0.49102521       0.07595027 </v>
   <v>       0.93290555       0.19102511       0.22785109 </v>
   <v>       0.73290551       0.89102513       0.37975192 </v>
   <v>       0.13290568       0.15769196       0.07595027 </v>
   <v>       0.93290555       0.85769188       0.22785109 </v>
   <v>       0.73290551       0.55769193       0.37975192 </v>
   <v>       0.77172834       0.10819173       0.56517518 </v>
   <v>       0.01458549       0.07962024       0.66493583 </v>
   <v>       0.25744271       0.05104876       0.76469648 </v>
   <v>       0.05744267       0.25104886       0.56517518 </v>
   <v>       0.30029988       0.22247738       0.66493583 </v>
   <v>       0.54315710       0.19390592       0.76469648 </v>
   <v>       0.34315682       0.39390597       0.56517518 </v>
   <v>       0.58601403       0.36533448       0.66493583 </v>
   <v>       0.82887137       0.33676302       0.76469648 </v>
   <v>       0.62887120       0.53676319       0.56517518 </v>
   <v>       0.87172842       0.50819171       0.66493583 </v>
   <v>       0.11458576       0.47962022       0.76469648 </v>
   <v>       0.91458547       0.67962027       0.56517518 </v>
   <v>       0.15744269       0.65104884       0.66493583 </v>
   <v>       0.40029991       0.62247735       0.76469648 </v>
   <v>       0.20029974       0.82247746       0.56517518 </v>
   <v>       0.44315696       0.79390597       0.66493583 </v>
   <v>       0.68601417       0.76533449       0.76469648 </v>
   <v>       0.48601401       0.96533459       0.56517518 </v>
   <v>       0.72887123       0.93676305       0.66493583 </v>
   <v>       0.97172844       0.90819162       0.76469648 </v>
   <v>       0.60744250       0.20104888       0.61505544 </v>
   <v>       0.85029984       0.17247739       0.71481609 </v>
   <v>       0.09315705       0.14390588       0.81457663 </v>
   <v>       0.89315671       0.34390602       0.61505544 </v>
   <v>       0.13601398       0.31533453       0.71481609 </v>
   <v>       0.37887120       0.28676301       0.81457674 </v>
   <v>       0.17887104       0.48676318       0.61505544 </v>
   <v>       0.42172837       0.45819169       0.71481609 </v>
   <v>       0.66458559       0.42962021       0.81457674 </v>
   <v>       0.46458542       0.62962031       0.61505544 </v>
   <v>       0.70744276       0.60104883       0.71481609 </v>
   <v>       0.95029998       0.57247740       0.81457674 </v>
   <v>       0.75029957       0.77247745       0.61505544 </v>
   <v>       0.99315691       0.74390596       0.71481609 </v>
   <v>       0.23601401       0.71533447       0.81457674 </v>
   <v>       0.03601408       0.91533458       0.61505544 </v>
   <v>       0.27887130       0.88676304       0.71481609 </v>
   <v>       0.52172852       0.85819161       0.81457663 </v>
   <v>       0.32172823       0.05819166       0.61505544 </v>
   <v>       0.56458545       0.02962029       0.71481609 </v>
   <v>       0.80744266       0.00104880       0.81457663 </v>
   <v>       0.41458559       0.17962033       0.56517518 </v>
   <v>       0.65744269       0.15104881       0.66493583 </v>
   <v>       0.90030003       0.12247739       0.76469648 </v>
   <v>       0.70029998       0.32247746       0.56517518 </v>
   <v>       0.94315708       0.29390594       0.66493583 </v>
   <v>       0.18601417       0.26533446       0.76469648 </v>
   <v>       0.98601407       0.46533459       0.56517518 </v>
   <v>       0.22887135       0.43676311       0.66493583 </v>
   <v>       0.47172856       0.40819162       0.76469648 </v>
   <v>       0.27172828       0.60819173       0.56517518 </v>
   <v>       0.51458549       0.57962024       0.66493583 </v>
   <v>       0.75744283       0.55104882       0.76469648 </v>
   <v>       0.55744266       0.75104886       0.56517518 </v>
   <v>       0.80029988       0.72247744       0.66493583 </v>
   <v>       0.04315698       0.69390589       0.76469648 </v>
   <v>       0.84315687       0.89390606       0.56517518 </v>
   <v>       0.08601415       0.86533463       0.66493583 </v>
   <v>       0.32887149       0.83676314       0.76469648 </v>
   <v>       0.12887120       0.03676319       0.56517518 </v>
   <v>       0.37172842       0.00819182       0.66493583 </v>
   <v>       0.61458564       0.97962028       0.76469648 </v>
   <v>       0.96458548       0.12962031       0.61505544 </v>
   <v>       0.20744276       0.10104883       0.71481609 </v>
   <v>       0.45029998       0.07247734       0.81457674 </v>
   <v>       0.25029969       0.27247745       0.61505544 </v>
   <v>       0.49315691       0.24390596       0.71481609 </v>
   <v>       0.73601413       0.21533451       0.81457663 </v>
   <v>       0.53601384       0.41533455       0.61505544 </v>
   <v>       0.77887130       0.38676313       0.71481609 </v>
   <v>       0.02172852       0.35819167       0.81457663 </v>
   <v>       0.82172811       0.55819172       0.61505544 </v>
   <v>       0.06458545       0.52962029       0.71481609 </v>
   <v>       0.30744267       0.50104874       0.81457663 </v>
   <v>       0.10744262       0.70104879       0.61505544 </v>
   <v>       0.35029984       0.67247731       0.71481609 </v>
   <v>       0.59315705       0.64390588       0.81457674 </v>
   <v>       0.39315689       0.84390598       0.61505544 </v>
   <v>       0.63601422       0.81533450       0.71481609 </v>
   <v>       0.87887144       0.78676313       0.81457674 </v>
   <v>       0.67887104       0.98676312       0.61505544 </v>
   <v>       0.92172837       0.95819169       0.71481609 </v>
   <v>       0.16458559       0.92962021       0.81457674 </v>
  </varray>
 </structure>
 <calculation>
  <scstep>
   <time name="dav">   39.75   40.10</time>
   <time name="total">   40.49   40.84</time>
   <energy>
    <i name="alphaZ">    615.38788919 </i>
    <i name="ewald">  -8772.78409735 </i>
    <i name="hartreedc">  -8330.69537727 </i>
    <i name="XCdc">    738.03893379 </i>
    <i name="pawpsdc">  12288.30765307 </i>
    <i name="pawaedc"> -11702.77953025 </i>
    <i name="eentropy">     -0.00124392 </i>
    <i name="bandstr">   1474.54968237 </i>
    <i name="atom">  16071.23009607 </i>
    <i name="e_fr_energy">   2381.25400570 </i>
    <i name="e_wo_entrp">   2381.25524962 </i>
    <i name="e_0_energy">   2381.25462766 </i>
   </energy>
  </scstep>
  <scstep>
   <time name="dav">   46.49   46.88</time>
   <time name="total">   46.49   46.89</time>
   <energy>
    <i name="e_fr_energy">   -514.23924331 </i>
    <i name="e_wo_entrp">   -514.23751276 </i>
    <i name="e_0_energy">   -514.23837804 </i>
   </energy>
  </scstep>
  <scstep>
   <time name="dav">   46.89   47.28</time>
   <time name="total">   46.89   47.28</time>
   <energy>
    <i name="e_fr_energy">   -826.40311236 </i>
    <i name="e_wo_entrp">   -826.40089347 </i>
    <i name="e_0_energy">   -826.40200292 </i>
   </energy>
  </scstep>
  <scstep>
   <time name="dav">   49.73   50.14</time>
   <time name="total">   49.73   50.15</time>
   <energy>
    <i name="e_fr_energy">   -842.97062404 </i>
    <i name="e_wo_entrp">   -842.96896328 </i>
    <i name="e_0_energy">   -842.96979366 </i>
   </energy>
  </scstep>
  <scstep>
   <time name="dav">   52.76   53.20</time>
   <time name="total">   54.63   55.08</time>
   <energy>
    <i name="e_fr_energy">   -843.82409151 </i>
    <i name="e_wo_entrp">   -843.82234865 </i>
    <i name="e_0_energy">   -843.82322008 </i>
   </energy>
  </scstep>
  <scstep>
   <time name="dav">   50.73   51.17</time>
   <time name="total">   53.29   53.74</time>
   <energy>
    <i name="e_fr_energy">   -831.07026369 </i>
    <i name="e_wo_entrp">   -831.06826254 </i>
    <i name="e_0_energy">   -831.06926312 </i>
   </energy>
  </scstep>
  <scstep>
   <time name="dav">   50.68   51.10</time>
   <time name="total">   53.22   53.65</time>
   <energy>
    <i name="e_fr_energy">   -794.63661597 </i>
    <i name="e_wo_entrp">   -794.63342918 </i>
    <i name="e_0_energy">   -794.63502257 </i>
   </energy>
  </scstep>
  <scstep>
   <time name="dav">   51.41   51.83</time>
   <time name="total">   53.96   54.40</time>
   <energy>
    <i name="e_fr_energy">   -799.17383954 </i>
    <i name="e_wo_entrp">   -799.17141110 </i>
    <i name="e_0_energy">   -799.17262532 </i>
   </energy>
  </scstep>
  <scstep>
   <time name="dav">   49.11   49.53</time>
   <time name="total">   51.64   52.08</time>
   <energy>
    <i name="e_fr_energy">   -796.21851956 </i>
    <i name="e_wo_entrp">   -796.21544085 </i>
    <i name="e_0_energy">   -796.21698021 </i>
   </energy>
  </scstep>
  <scstep>
   <time name="dav">   51.01   51.44</time>
   <time name="total">   53.54   53.99</time>
   <energy>
    <i name="e_fr_energy">   -795.93880859 </i>
    <i name="e_wo_entrp">   -795.93509481 </i>
    <i name="e_0_energy">   -795.93695170 </i>
   </energy>
  </scstep>
  <scstep>
   <time name="dav">   49.70   50.13</time>
   <time name="total">   52.25   52.69</time>
   <energy>
    <i name="e_fr_energy">   -795.79682986 </i>
    <i name="e_wo_entrp">   -795.79416418 </i>
    <i name="e_0_energy">   -795.79549702 </i>
   </energy>
  </scstep>
  <scstep>
   <time name="dav">   47.63   48.02</time>
   <time name="total">   50.18   50.58</time>
   <energy>
    <i name="e_fr_energy">   -795.79932598 </i>
    <i name="e_wo_entrp">   -795.79594443 </i>
    <i name="e_0_energy">   -795.79763521 </i>
   </energy>
  </scstep>
  <scstep>
   <time name="dav">   48.49   48.88</time>
   <time name="total">   51.04   51.45</time>
   <energy>
    <i name="e_fr_energy">   -795.79320028 </i>
    <i name="e_wo_entrp">   -795.79023874 </i>
    <i name="e_0_energy">   -795.79171951 </i>
   </energy>
  </scstep>
  <scstep>
   <time name="dav">   48.87   49.27</time>
   <time name="total">   51.42   51.84</time>
   <energy>
    <i name="e_fr_energy">   -795.78733212 </i>
    <i name="e_wo_entrp">   -795.78431643 </i>
    <i name="e_0_energy">   -795.78582428 </i>
   </energy>
  </scstep>
  <scstep>
   <time name="dav">   48.75   49.15</time>
   <time name="total">   51.30   51.71</time>
   <energy>
    <i name="e_fr_energy">   -795.78443232 </i>
    <i name="e_wo_entrp">   -795.78132740 </i>
    <i name="e_0_energy">   -795.78287986 </i>
   </energy>
  </scstep>
  <scstep>
   <time name="dav">   48.99   49.42</time>
   <time name="total">   51.55   51.99</time>
   <energy>
    <i name="e_fr_energy">   -795.78426413 </i>
    <i name="e_wo_entrp">   -795.78124817 </i>
    <i name="e_0_energy">   -795.78275615 </i>
   </energy>
  </scstep>
  <scstep>
   <time name="dav">   49.51   49.94</time>
   <time name="total">   52.08   52.53</time>
   <energy>
    <i name="e_fr_energy">   -795.78417843 </i>
    <i name="e_wo_entrp">   -795.78113243 </i>
    <i name="e_0_energy">   -795.78265543 </i>
   </energy>
  </scstep>
  <scstep>
   <time name="dav">   50.29   50.74</time>
   <time name="total">   52.87   53.34</time>
   <energy>
    <i name="e_fr_energy">   -795.78415878 </i>
    <i name="e_wo_entrp">   -795.78113025 </i>
    <i name="e_0_energy">   -795.78264451 </i>
   </energy>
  </scstep>
  <scstep>
   <time name="dav">   49.50   50.02</time>
   <time name="total">   52.08   52.62</time>
   <energy>
    <i name="e_fr_energy">   -795.78415336 </i>
    <i name="e_wo_entrp">   -795.78112566 </i>
    <i name="e_0_energy">   -795.78263951 </i>
   </energy>
  </scstep>
  <scstep>
   <time name="dav">   48.25   48.68</time>
   <time name="total">   50.83   51.28</time>
   <energy>
    <i name="e_fr_energy">   -795.78415462 </i>
    <i name="e_wo_entrp">   -795.78112548 </i>
    <i name="e_0_energy">   -795.78264005 </i>
   </energy>
  </scstep>
  <scstep>
   <time name="dav">   47.79   48.21</time>
   <time name="total">   50.37   50.80</time>
   <energy>
    <i name="e_fr_energy">   -795.78415635 </i>
    <i name="e_wo_entrp">   -795.78113045 </i>
    <i name="e_0_energy">   -795.78264340 </i>
   </energy>
  </scstep>
  <scstep>
   <time name="dav">   50.75   51.19</time>
   <time name="total">   53.33   53.78</time>
   <energy>
    <i name="e_fr_energy">   -795.78415770 </i>
    <i name="e_wo_entrp">   -795.78113227 </i>
    <i name="e_0_energy">   -795.78264499 </i>
   </energy>
  </scstep>
  <scstep>
   <time name="dav">   50.09   50.55</time>
   <time name="total">   52.66   53.14</time>
   <energy>
    <i name="e_fr_energy">   -795.78415846 </i>
    <i name="e_wo_entrp">   -795.78113513 </i>
    <i name="e_0_energy">   -795.78264680 </i>
   </energy>
  </scstep>
  <scstep>
   <time name="dav">   50.11   50.57</time>
   <time name="total">   52.68   53.15</time>
   <energy>
    <i name="e_fr_energy">   -795.78415904 </i>
    <i name="e_wo_entrp">   -795.78113637 </i>
    <i name="e_0_energy">   -795.78264770 </i>
   </energy>
  </scstep>
  <scstep>
   <time name="dav">   48.30   48.71</time>
   <time name="total">   50.86   51.30</time>
   <energy>
    <i name="e_fr_energy">   -795.78415927 </i>
    <i name="e_wo_entrp">   -795.78113755 </i>
    <i name="e_0_energy">   -795.78264841 </i>
   </energy>
  </scstep>
  <scstep>
   <time name="dav">   44.90   45.30</time>
   <time name="total">   47.46   47.88</time>
   <energy>
    <i name="e_fr_energy">   -795.78415938 </i>
    <i name="e_wo_entrp">   -795.78113860 </i>
    <i name="e_0_energy">   -795.78264899 </i>
   </energy>
  </scstep>
  <scstep>
   <time name="dav">   34.41   34.72</time>
   <time name="total">   35.12   35.43</time>
   <energy>
    <i name="alphaZ">    615.38788919 </i>
    <i name="ewald">  -8772.78409735 </i>
    <i name="hartreedc">  -8920.20847218 </i>
    <i name="XCdc">    772.95143647 </i>
    <i name="pawpsdc">  35318.28208603 </i>
    <i name="pawaedc"> -34739.58150020 </i>
    <i name="eentropy">     -0.00302064 </i>
    <i name="bandstr">  -1141.05857685 </i>
    <i name="atom">  16071.23009607 </i>
    <i name="e_fr_energy">   -795.78415946 </i>
    <i name="e_wo_entrp">   -795.78113882 </i>
    <i name="e_0_energy">   -795.78264914 </i>
   </energy>
  </scstep>
  <structure>
   <crystal>
    <varray name="basis" >
     <v>      16.29300118       0.00000000       0.00000000 </v>
     <v>     -10.86200046      12.14408588       0.00000000 </v>
     <v>       0.00000000       0.00000000       7.99474955 </v>
    </varray>
    <i name="volume">   1581.86997086 </i>
    <varray name="rec_basis" >
     <v>       0.06137605       0.05489640       0.00000000 </v>
     <v>       0.00000000       0.08234461       0.00000000 </v>
     <v>       0.00000000       0.00000000       0.12508209 </v>
    </varray>
   </crystal>
   <varray name="positions" >
    <v>       0.98290563       0.64102513       0.00000000 </v>
    <v>       0.78290558       0.34102503       0.15190083 </v>
    <v>       0.58290541       0.04102494       0.30380166 </v>
    <v>       0.98290563       0.30769178       0.00000000 </v>
    <v>       0.78290558       0.00769171       0.15190083 </v>
    <v>       0.58290541       0.70769167       0.30380166 </v>
    <v>       0.98290563       0.97435850       0.00000000 </v>
    <v>       0.78290558       0.67435837       0.15190083 </v>
    <v>       0.58290541       0.37435830       0.30380166 </v>
    <v>       0.63290566       0.65769172       0.07595026 </v>
    <v>       0.43290559       0.35769162       0.22785109 </v>
    <v>       0.23290552       0.05769158       0.37975192 </v>
    <v>       0.63290566       0.32435846       0.07595026 </v>
    <v>       0.43290559       0.02435837       0.22785109 </v>
    <v>       0.23290552       0.72435832       0.37975192 </v>
    <v>       0.63290566       0.99102521       0.07595026 </v>
    <v>       0.43290559       0.69102514       0.22785109 </v>
    <v>       0.23290552       0.39102507       0.37975192 </v>
    <v>       0.48290563       0.80769175       0.00000000 </v>
    <v>       0.28290555       0.50769162       0.15190083 </v>
    <v>       0.08290544       0.20769161       0.30380166 </v>
    <v>       0.48290563       0.47435844       0.00000000 </v>
    <v>       0.28290555       0.17435835       0.15190083 </v>
    <v>       0.08290544       0.87435830       0.30380166 </v>
    <v>       0.48290563       0.14102514       0.00000000 </v>
    <v>       0.28290555       0.84102505       0.15190083 </v>
    <v>       0.08290544       0.54102498       0.30380166 </v>
    <v>       0.13290568       0.82435852       0.07595027 </v>
    <v>       0.93290555       0.52435839       0.22785109 </v>
    <v>       0.73290551       0.22435838       0.37975192 </v>
    <v>       0.13290568       0.49102521       0.07595027 </v>
    <v>       0.93290555       0.19102511       0.22785109 </v>
    <v>       0.73290551       0.89102513       0.37975192 </v>
    <v>       0.13290568       0.15769196       0.07595027 </v>
    <v>       0.93290555       0.85769188       0.22785109 </v>
    <v>       0.73290551       0.55769193       0.37975192 </v>
    <v>       0.77172834       0.10819173       0.56517518 </v>
    <v>       0.01458549       0.07962024       0.66493583 </v>
    <v>       0.25744271       0.05104876       0.76469648 </v>
    <v>       0.05744267       0.25104886       0.56517518 </v>
    <v>       0.30029988       0.22247738       0.66493583 </v>
    <v>       0.54315710       0.19390592       0.76469648 </v>
    <v>       0.34315682       0.39390597       0.56517518 </v>
    <v>       0.58601403       0.36533448       0.66493583 </v>
    <v>       0.82887137       0.33676302       0.76469648 </v>
    <v>       0.62887120       0.53676319       0.56517518 </v>
    <v>       0.87172842       0.50819171       0.66493583 </v>
    <v>       0.11458576       0.47962022       0.76469648 </v>
    <v>       0.91458547       0.67962027       0.56517518 </v>
    <v>       0.15744269       0.65104884       0.66493583 </v>
    <v>       0.40029991       0.62247735       0.76469648 </v>
    <v>       0.20029974       0.82247746       0.56517518 </v>
    <v>       0.44315696       0.79390597       0.66493583 </v>
    <v>       0.68601417       0.76533449       0.76469648 </v>
    <v>       0.48601401       0.96533459       0.56517518 </v>
    <v>       0.72887123       0.93676305       0.66493583 </v>
    <v>       0.97172844       0.90819162       0.76469648 </v>
    <v>       0.60744250       0.20104888       0.61505544 </v>
    <v>       0.85029984       0.17247739       0.71481609 </v>
    <v>       0.09315705       0.14390588       0.81457663 </v>
    <v>       0.89315671       0.34390602       0.61505544 </v>
    <v>       0.13601398       0.31533453       0.71481609 </v>
    <v>       0.37887120       0.28676301       0.81457674 </v>
    <v>       0.17887104       0.48676318       0.61505544 </v>
    <v>       0.42172837       0.45819169       0.71481609 </v>
    <v>       0.66458559       0.42962021       0.81457674 </v>
    <v>       0.46458542       0.62962031       0.61505544 </v>
    <v>       0.70744276       0.60104883       0.71481609 </v>
    <v>       0.95029998       0.57247740       0.81457674 </v>
    <v>       0.75029957       0.77247745       0.61505544 </v>
    <v>       0.99315691       0.74390596       0.71481609 </v>
    <v>       0.23601401       0.71533447       0.81457674 </v>
    <v>       0.03601408       0.91533458       0.61505544 </v>
    <v>       0.27887130       0.88676304       0.71481609 </v>
    <v>       0.52172852       0.85819161       0.81457663 </v>
    <v>       0.32172823       0.05819166       0.61505544 </v>
    <v>       0.56458545       0.02962029       0.71481609 </v>
    <v>       0.80744266       0.00104880       0.81457663 </v>
    <v>       0.41458559       0.17962033       0.56517518 </v>
    <v>       0.65744269       0.15104881       0.66493583 </v>
    <v>       0.90030003       0.12247739       0.76469648 </v>
    <v>       0.70029998       0.32247746       0.56517518 </v>
    <v>       0.94315708       0.29390594       0.66493583 </v>
    <v>       0.18601417       0.26533446       0.76469648 </v>
    <v>       0.98601407       0.46533459       0.56517518 </v>
    <v>       0.22887135       0.43676311       0.66493583 </v>
    <v>       0.47172856       0.40819162       0.76469648 </v>
    <v>       0.27172828       0.60819173       0.56517518 </v>
    <v>       0.51458549       0.57962024       0.66493583 </v>
    <v>       0.75744283       0.55104882       0.76469648 </v>
    <v>       0.55744266       0.75104886       0.56517518 </v>
    <v>       0.80029988       0.72247744       0.66493583 </v>
    <v>       0.04315698       0.69390589       0.76469648 </v>
    <v>       0.84315687       0.89390606       0.56517518 </v>
    <v>       0.08601415       0.86533463       0.66493583 </v>
    <v>       0.32887149       0.83676314       0.76469648 </v>
    <v>       0.12887120       0.03676319       0.56517518 </v>
    <v>       0.37172842       0.00819182       0.66493583 </v>
    <v>       0.61458564       0.97962028       0.76469648 </v>
    <v>       0.96458548       0.12962031       0.61505544 </v>
    <v>       0.20744276       0.10104883       0.71481609 </v>
    <v>       0.45029998       0.07247734       0.81457674 </v>
    <v>       0.25029969       0.27247745       0.61505544 </v>
    <v>       0.49315691       0.24390596       0.71481609 </v>
    <v>       0.73601413       0.21533451       0.81457663 </v>
    <v>       0.53601384       0.41533455       0.61505544 </v>
    <v>       0.77887130       0.38676313       0.71481609 </v>
    <v>       0.02172852       0.35819167       0.81457663 </v>
    <v>       0.82172811       0.55819172       0.61505544 </v>
    <v>       0.06458545       0.52962029       0.71481609 </v>
    <v>       0.30744267       0.50104874       0.81457663 </v>
    <v>       0.10744262       0.70104879       0.61505544 </v>
    <v>       0.35029984       0.67247731       0.71481609 </v>
    <v>       0.59315705       0.64390588       0.81457674 </v>
    <v>       0.39315689       0.84390598       0.61505544 </v>
    <v>       0.63601422       0.81533450       0.71481609 </v>
    <v>       0.87887144       0.78676313       0.81457674 </v>
    <v>       0.67887104       0.98676312       0.61505544 </v>
    <v>       0.92172837       0.95819169       0.71481609 </v>
    <v>       0.16458559       0.92962021       0.81457674 </v>
   </varray>
  </structure>
  <varray name="forces" >
   <v>      -0.29728971      -0.02301737       2.82475003 </v>
   <v>       0.42383751       0.35002434      -0.20786486 </v>
   <v>      -1.19985993      -0.48497235       1.64357328 </v>
   <v>       0.21017714      -1.84045973       6.44337300 </v>
   <v>       0.21033967       0.74449881      -0.88086686 </v>
   <v>      -0.49859506       0.69097982       0.91676783 </v>
   <v>       0.72915943      -0.20229286      -0.45022321 </v>
   <v>       0.49213279       0.78779233      -0.31518274 </v>
   <v>       0.00906569      -0.28775341       0.11006525 </v>
   <v>      -0.29003505      -1.00442765      -1.49019806 </v>
   <v>      -0.19763908      -0.76996596       0.15677078 </v>
   <v>      -0.58671599      -0.76827415       1.74757870 </v>
   <v>      -0.66724385       0.77433152      -1.55947077 </v>
   <v>      -0.04852181      -0.23094424      -0.02038116 </v>
   <v>       0.50660849       0.47290393       1.87947983 </v>
   <v>       0.43526548       0.00752994      -0.31279019 </v>
   <v>      -0.33152294      -0.38540332      -0.19037076 </v>
   <v>       1.39576266       0.39755326       1.51589071 </v>
   <v>       0.21017714      -1.84045973       6.44337300 </v>
   <v>       0.21033967       0.74449881      -0.88086686 </v>
   <v>      -0.49859506       0.69097982       0.91676783 </v>
   <v>       0.72915943      -0.20229286      -0.45022321 </v>
   <v>       0.49213279       0.78779233      -0.31518274 </v>
   <v>       0.00906569      -0.28775341       0.11006525 </v>
   <v>      -0.29728971      -0.02301737       2.82475003 </v>
   <v>       0.42383751       0.35002434      -0.20786486 </v>
   <v>      -1.19985993      -0.48497235       1.64357328 </v>
   <v>      -0.66724385       0.77433152      -1.55947077 </v>
   <v>      -0.04852181      -0.23094424      -0.02038116 </v>
   <v>       0.50660849       0.47290393       1.87947983 </v>
   <v>       0.43526548       0.00752994      -0.31279019 </v>
   <v>      -0.33152294      -0.38540332      -0.19037076 </v>
   <v>       1.39576266       0.39755326       1.51589071 </v>
   <v>      -0.29003505      -1.00442765      -1.49019806 </v>
   <v>      -0.19763908      -0.76996596       0.15677078 </v>
   <v>      -0.58671599      -0.76827415       1.74757870 </v>
   <v>      -0.22092749      -1.21272645       2.98323208 </v>
   <v>      -0.89724041      -1.68644109       3.82970229 </v>
   <v>      -2.10894043      -3.22515328      -1.05218913 </v>
   <v>      -0.47051139      -1.80771374       2.37636477 </v>
   <v>      -1.18765714      -1.87237298       4.05858890 </v>
   <v>      -1.20795054      -2.05149570      -3.37405457 </v>
   <v>      -1.07528344      -2.08303360       0.70354716 </v>
   <v>      -1.67384091      -1.37404231       4.19181933 </v>
   <v>      -1.67706285      -3.79966281      -1.98300665 </v>
   <v>       0.87055493      -1.50002794       1.70236950 </v>
   <v>      -1.16673224      -2.40157615       3.46880950 </v>
   <v>      -1.89536586      -2.71480451      -0.50893690 </v>
   <v>      -0.03281688      -0.58301530       3.26723736 </v>
   <v>      -1.81422091      -1.39581711       4.14116320 </v>
   <v>      -1.28428604      -3.68792946      -2.54784725 </v>
   <v>       0.11309270      -2.29391048       1.86218227 </v>
   <v>      -1.28886213      -1.81106053       2.76719948 </v>
   <v>      -1.56216370      -3.20353499      -2.65657064 </v>
   <v>       0.60405091      -0.70312691       1.52396953 </v>
   <v>      -1.95047464      -1.92510541       2.98922417 </v>
   <v>      -1.70693531      -2.18930155       0.24664669 </v>
   <v>       1.25967587       3.55195755       2.31804126 </v>
   <v>       1.11363903       1.73849159      -4.37284963 </v>
   <v>       1.13045879       2.28602768      -1.88099915 </v>
   <v>       1.29314849       2.82305216       0.90537747 </v>
   <v>       1.80167340       1.41644497      -3.82341415 </v>
   <v>       0.08526586       0.38078212      -3.45787220 </v>
   <v>       1.46465581       3.69040017       2.03140500 </v>
   <v>       0.47100620       1.49105706      -4.22610173 </v>
   <v>       1.04811092       0.54685329      -2.01986363 </v>
   <v>       1.33517962       3.56798015       2.92250947 </v>
   <v>       1.64581913       2.04148259      -2.94422718 </v>
   <v>      -0.22242961       0.12138637      -3.93287492 </v>
   <v>       1.59991746       3.57841562       2.77367641 </v>
   <v>       0.90547500       1.60788349      -4.26092968 </v>
   <v>       0.60677370       2.02933998      -2.94629200 </v>
   <v>       1.88796982       3.56800652       1.21091517 </v>
   <v>       1.76901525       1.96513983      -4.07181144 </v>
   <v>      -0.14054644       2.49138927      -8.87739178 </v>
   <v>       0.76164245       3.11599051       0.54481155 </v>
   <v>       1.16275515       1.61913444      -4.04549726 </v>
   <v>       0.35944242       1.66253402      -1.64696346 </v>
   <v>      -0.03281688      -0.58301530       3.26723736 </v>
   <v>      -1.81422091      -1.39581711       4.14116320 </v>
   <v>      -1.28428604      -3.68792946      -2.54784725 </v>
   <v>       0.11309270      -2.29391048       1.86218227 </v>
   <v>      -1.28886213      -1.81106053       2.76719948 </v>
   <v>      -1.56216370      -3.20353499      -2.65657064 </v>
   <v>       0.60405091      -0.70312691       1.52396953 </v>
   <v>      -1.95047464      -1.92510541       2.98922417 </v>
   <v>      -1.70693531      -2.18930155       0.24664669 </v>
   <v>      -0.22092749      -1.21272645       2.98323208 </v>
   <v>      -0.89724041      -1.68644109       3.82970229 </v>
   <v>      -2.10894043      -3.22515328      -1.05218913 </v>
   <v>      -0.47051139      -1.80771374       2.37636477 </v>
   <v>      -1.18765714      -1.87237298       4.05858890 </v>
   <v>      -1.20795054      -2.05149570      -3.37405457 </v>
   <v>      -1.07528344      -2.08303360       0.70354716 </v>
   <v>      -1.67384091      -1.37404231       4.19181933 </v>
   <v>      -1.67706285      -3.79966281      -1.98300665 </v>
   <v>       0.87055493      -1.50002794       1.70236950 </v>
   <v>      -1.16673224      -2.40157615       3.46880950 </v>
   <v>      -1.89536586      -2.71480451      -0.50893690 </v>
   <v>       1.33517962       3.56798015       2.92250947 </v>
   <v>       1.64581913       2.04148259      -2.94422718 </v>
   <v>      -0.22242961       0.12138637      -3.93287492 </v>
   <v>       1.59991746       3.57841562       2.77367641 </v>
   <v>       0.90547500       1.60788349      -4.26092968 </v>
   <v>       0.60677370       2.02933998      -2.94629200 </v>
   <v>       1.88796982       3.56800652       1.21091517 </v>
   <v>       1.76901525       1.96513983      -4.07181144 </v>
   <v>      -0.14054644       2.49138927      -8.87739178 </v>
   <v>       0.76164245       3.11599051       0.54481155 </v>
   <v>       1.16275515       1.61913444      -4.04549726 </v>
   <v>       0.35944242       1.66253402      -1.64696346 </v>
   <v>       1.25967587       3.55195755       2.31804126 </v>
   <v>       1.11363903       1.73849159      -4.37284963 </v>
   <v>       1.13045879       2.28602768      -1.88099915 </v>
   <v>       1.29314849       2.82305216       0.90537747 </v>
   <v>       1.80167340       1.41644497      -3.82341415 </v>
   <v>       0.08526586       0.38078212      -3.45787220 </v>
   <v>       1.46465581       3.69040017       2.03140500 </v>
   <v>       0.47100620       1.49105706      -4.22610173 </v>
   <v>       1.04811092       0.54685329      -2.01986363 </v>
  </varray>
  <varray name="stress" >
   <v>    -105.33216600       0.75996329     -14.86887678 </v>
   <v>       0.76002370     -71.62793776     -16.41488529 </v>
   <v>     -14.86887108     -16.41489453    -178.52012963 </v>
  </varray>
  <energy>
   <i name="e_fr_energy">   -795.78415946 </i>
   <i name="e_wo_entrp">   -795.78113882 </i>
   <i name="e_0_energy">   -795.78264914 </i>
  </energy>
  <time name="totalsc"> 1411.38 1423.85</time>
  <eigenvalues>
   <array>
    <dimension dim="1">band</dimension>
    <dimension dim="2">kpoint</dimension>
    <dimension dim="3">spin</dimension>
    <field>eigene</field>
    <field>occ</field>
    <set>
     <set comment="spin 1">
      <set comment="kpoint 1">
       <r>  -13.8643    1.0000 </r>
       <r>  -13.4563    1.0000 </r>
       <r>  -13.3756    1.0000 </r>
       <r>  -13.2677    1.0000 </r>
       <r>  -13.1807    1.0000 </r>
       <r>  -13.1537    1.0000 </r>
       <r>  -13.0733    1.0000 </r>
       <r>  -12.6690    1.0000 </r>
       <r>  -12.3982    1.0000 </r>
       <r>  -12.3269    1.0000 </r>
       <r>  -12.2810    1.0000 </r>
       <r>  -12.1949    1.0000 </r>
       <r>  -11.7064    1.0000 </r>
       <r>  -11.6527    1.0000 </r>
       <r>  -11.4543    1.0000 </r>
       <r>  -11.2125    1.0000 </r>
       <r>  -11.0408    1.0000 </r>
       <r>  -10.8436    1.0000 </r>
       <r>  -10.8129    1.0000 </r>
       <r>  -10.6995    1.0000 </r>
       <r>  -10.5126    1.0000 </r>
       <r>  -10.2720    1.0000 </r>
       <r>  -10.1905    1.0000 </r>
       <r>   -9.8518    1.0000 </r>
       <r>   -9.6324    1.0000 </r>
       <r>   -9.5730    1.0000 </r>
       <r>   -9.4993    1.0000 </r>
       <r>   -9.4378    1.0000 </r>
       <r>   -9.3793    1.0000 </r>
       <r>   -9.3323    1.0000 </r>
       <r>   -9.1515    1.0000 </r>
       <r>   -8.8857    1.0000 </r>
       <r>   -8.8019    1.0000 </r>
       <r>   -8.7675    1.0000 </r>
       <r>   -8.7218    1.0000 </r>
       <r>   -8.7033    1.0000 </r>
       <r>   -8.4878    1.0000 </r>
       <r>   -8.4040    1.0000 </r>
       <r>   -8.3406    1.0000 </r>
       <r>   -8.0239    1.0000 </r>
       <r>   -7.9832    1.0000 </r>
       <r>   -7.3341    1.0000 </r>
       <r>   -7.3047    1.0000 </r>
       <r>   -7.2987    1.0000 </r>
       <r>   -7.1108    1.0000 </r>
       <r>   -6.5712    1.0000 </r>
       <r>   -6.5557    1.0000 </r>
       <r>   -6.4511    1.0000 </r>
       <r>   -6.3503    1.0000 </r>
       <r>   -6.3494    1.0000 </r>
       <r>   -6.2710    1.0000 </r>
       <r>   -6.1095    1.0000 </r>
       <r>   -5.9579    1.0000 </r>
       <r>   -5.8383    1.0000 </r>
       <r>   -5.7437    1.0000 </r>
       <r>   -5.7079    1.0000 </r>
       <r>   -5.6887    1.0000 </r>
       <r>   -5.6666    1.0000 </r>
       <r>   -5.5909    1.0000 </r>
       <r>   -5.4763    1.0000 </r>
       <r>   -5.4120    1.0000 </r>
       <r>   -5.2745    1.0000 </r>
       <r>   -5.2588    1.0000 </r>
       <r>   -5.1096    1.0000 </r>
       <r>   -5.0694    1.0000 </r>
       <r>   -5.0631    1.0000 </r>
       <r>   -5.0525    1.0000 </r>
       <r>   -4.8777    1.0000 </r>
       <r>   -4.7562    1.0000 </r>
       <r>   -4.6748    1.0000 </r>
       <r>   -4.6475    1.0000 </r>
       <r>   -4.5936    1.0000 </r>
       <r>   -4.5533    1.0000 </r>
       <r>   -4.5361    1.0000 </r>
       <r>   -4.4488    1.0000 </r>
       <r>   -4.3293    1.0000 </r>
       <r>   -4.2765    1.0000 </r>
       <r>   -4.2240    1.0000 </r>
       <r>   -4.1214    1.0000 </r>
       <r>   -4.0342    1.0000 </r>
       <r>   -4.0235    1.0000 </r>
       <r>   -3.9806    1.0000 </r>
       <r>   -3.9189    1.0000 </r>
       <r>   -3.8419    1.0000 </r>
       <r>   -3.8260    1.0000 </r>
       <r>   -3.7173    1.0000 </r>
       <r>   -3.6873    1.0000 </r>
       <r>   -3.6476    1.0000 </r>
       <r>   -3.5471    1.0000 </r>
       <r>   -3.4983    1.0000 </r>
       <r>   -3.4800    1.0000 </r>
       <r>   -3.4574    1.0000 </r>
       <r>   -3.3277    1.0000 </r>
       <r>   -3.2729    1.0000 </r>
       <r>   -3.1632    1.0000 </r>
       <r>   -3.0181    1.0000 </r>
       <r>   -2.8902    1.0000 </r>
       <r>   -2.8791    1.0000 </r>
       <r>   -2.7308    1.0000 </r>
       <r>   -2.5579    1.0000 </r>
       <r>   -2.5257    1.0000 </r>
       <r>   -2.3704    1.0000 </r>
       <r>   -2.3635    1.0000 </r>
       <r>   -2.3306    1.0000 </r>
       <r>   -2.2863    1.0000 </r>
       <r>   -2.1920    1.0000 </r>
       <r>   -2.1516    1.0000 </r>
       <r>   -2.1302    1.0000 </r>
       <r>   -2.0964    1.0000 </r>
       <r>   -2.0317    1.0000 </r>
       <r>   -2.0233    1.0000 </r>
       <r>   -1.9405    1.0000 </r>
       <r>   -1.8828    1.0000 </r>
       <r>   -1.8559    1.0000 </r>
       <r>   -1.7581    1.0000 </r>
       <r>   -1.6255    1.0000 </r>
       <r>   -1.6208    1.0000 </r>
       <r>   -1.5987    1.0000 </r>
       <r>   -1.5419    1.0000 </r>
       <r>   -1.4904    1.0000 </r>
       <r>   -1.3929    1.0000 </r>
       <r>   -1.3692    1.0000 </r>
       <r>   -1.3164    1.0000 </r>
       <r>   -1.3105    1.0000 </r>
       <r>   -1.2180    1.0000 </r>
       <r>   -1.1809    1.0000 </r>
       <r>   -1.1175    1.0000 </r>
       <r>   -1.0372    1.0000 </r>
       <r>   -1.0260    1.0000 </r>
       <r>   -0.9141    1.0000 </r>
       <r>   -0.8393    1.0000 </r>
       <r>   -0.7748    1.0000 </r>
       <r>   -0.7099    1.0000 </r>
       <r>   -0.6780    1.0000 </r>
       <r>   -0.6233    1.0000 </r>
       <r>   -0.5849    1.0000 </r>
       <r>   -0.5380    1.0000 </r>
       <r>   -0.5075    1.0000 </r>
       <r>   -0.4977    1.0000 </r>
       <r>   -0.4725    1.0000 </r>
       <r>   -0.4606    1.0000 </r>
       <r>   -0.4269    1.0000 </r>
       <r>   -0.3429    1.0000 </r>
       <r>   -0.2637    1.0000 </r>
       <r>   -0.1553    1.0000 </r>
       <r>   -0.1463    1.0000 </r>
       <r>    0.0489    1.0000 </r>
       <r>    0.0723    1.0000 </r>
       <r>    0.0768    1.0000 </r>
       <r>    0.1187    1.0000 </r>
       <r>    0.1936    1.0000 </r>
       <r>    0.3211    1.0000 </r>
       <r>    0.3754    1.0000 </r>
       <r>    0.4220    1.0000 </r>
       <r>    0.4673    1.0000 </r>
       <r>    0.4914    1.0000 </r>
       <r>    0.5016    1.0000 </r>
       <r>    0.5371    1.0000 </r>
       <r>    0.5708    1.0000 </r>
       <r>    0.6205    1.0000 </r>
       <r>    0.6825    1.0000 </r>
       <r>    0.7654    1.0000 </r>
       <r>    0.8134    1.0000 </r>
       <r>    0.9095    1.0000 </r>
       <r>    0.9197    1.0000 </r>
       <r>    0.9534    1.0000 </r>
       <r>    0.9910    1.0000 </r>
       <r>    1.0215    1.0000 </r>
       <r>    1.0950    1.0000 </r>
       <r>    1.1215    1.0000 </r>
       <r>    1.2113    1.0000 </r>
       <r>    1.2551    1.0000 </r>
       <r>    1.3272    1.0000 </r>
       <r>    1.3925    1.0000 </r>
       <r>    1.4371    1.0000 </r>
       <r>    1.4416    1.0000 </r>
       <r>    1.4440    1.0000 </r>
       <r>    1.5524    1.0000 </r>
       <r>    1.5849    1.0000 </r>
       <r>    1.6369    1.0000 </r>
       <r>    1.7123    1.0000 </r>
       <r>    1.7263    1.0000 </r>
       <r>    1.7817    1.0000 </r>
       <r>    1.8328    1.0000 </r>
       <r>    1.8457    1.0000 </r>
       <r>    1.9195    1.0000 </r>
       <r>    1.9888    1.0000 </r>
       <r>    2.0209    1.0000 </r>
       <r>    2.0411    1.0000 </r>
       <r>    2.0754    1.0000 </r>
       <r>    2.1516    1.0000 </r>
       <r>    2.1732    1.0000 </r>
       <r>    2.1978    1.0000 </r>
       <r>    2.2794    1.0000 </r>
       <r>    2.3238    1.0000 </r>
       <r>    2.4125    1.0000 </r>
       <r>    2.4201    1.0000 </r>
       <r>    2.5146    1.0000 </r>
       <r>    2.5154    1.0000 </r>
       <r>    2.6155    1.0000 </r>
       <r>    2.6539    1.0000 </r>
       <r>    2.6916    1.0000 </r>
       <r>    2.7363    1.0000 </r>
       <r>    2.7538    1.0000 </r>
       <r>    2.7764    1.0000 </r>
       <r>    2.8275    1.0000 </r>
       <r>    2.8323    1.0000 </r>
       <r>    2.8998    1.0000 </r>
       <r>    2.9213    1.0000 </r>
       <r>    2.9953    1.0000 </r>
       <r>    3.0524    1.0000 </r>
       <r>    3.0584    1.0000 </r>
       <r>    3.1642    1.0000 </r>
       <r>    3.1855    1.0000 </r>
       <r>    3.1872    1.0000 </r>
       <r>    3.1977    1.0000 </r>
       <r>    3.2663    1.0000 </r>
       <r>    3.2769    1.0000 </r>
       <r>    3.3187    1.0000 </r>
       <r>    3.3251    1.0000 </r>
       <r>    3.3867    1.0000 </r>
       <r>    3.4524    1.0000 </r>
       <r>    3.5145    1.0000 </r>
       <r>    3.5534    1.0000 </r>
       <r>    3.5554    1.0000 </r>
       <r>    3.5630    1.0000 </r>
       <r>    3.6755    1.0000 </r>
       <r>    3.6776    1.0000 </r>
       <r>    3.7450    1.0000 </r>
       <r>    3.7802    1.0000 </r>
       <r>    3.7937    1.0000 </r>
       <r>    3.8152    1.0000 </r>
       <r>    3.8989    1.0000 </r>
       <r>    3.9631    1.0000 </r>
       <r>    3.9891    1.0000 </r>
       <r>    4.0637    1.0000 </r>
       <r>    4.1030    1.0000 </r>
       <r>    4.1169    1.0000 </r>
       <r>    4.2145    1.0000 </r>
       <r>    4.2415    1.0000 </r>
       <r>    4.2811    0.9346 </r>
       <r>    4.3192    0.0001 </r>
       <r>    4.3295    0.0000 </r>
       <r>    4.3949    0.0000 </r>
       <r>    4.4755    0.0000 </r>
       <r>    4.4960    0.0000 </r>
       <r>    4.5193    0.0000 </r>
       <r>    4.5994    0.0000 </r>
       <r>    4.6023    0.0000 </r>
       <r>    4.6947    0.0000 </r>
       <r>    4.7222    0.0000 </r>
       <r>    4.7603    0.0000 </r>
       <r>    4.8189    0.0000 </r>
       <r>    4.8351    0.0000 </r>
       <r>    4.8468    0.0000 </r>
       <r>    4.9302    0.0000 </r>
       <r>    4.9575    0.0000 </r>
       <r>    5.0094    0.0000 </r>
       <r>    5.0794    0.0000 </r>
       <r>    5.1193    0.0000 </r>
       <r>    5.1516    0.0000 </r>
       <r>    5.1943    0.0000 </r>
       <r>    5.2058    0.0000 </r>
       <r>    5.2575    0.0000 </r>
       <r>    5.2897    0.0000 </r>
       <r>    5.3024    0.0000 </r>
       <r>    5.3614    0.0000 </r>
       <r>    5.4120    0.0000 </r>
       <r>    5.4485    0.0000 </r>
       <r>    5.4713    0.0000 </r>
       <r>    5.6016    0.0000 </r>
       <r>    5.6816    0.0000 </r>
       <r>    5.6987    0.0000 </r>
       <r>    5.7349    0.0000 </r>
       <r>    5.7866    0.0000 </r>
       <r>    5.9016    0.0000 </r>
       <r>    5.9665    0.0000 </r>
       <r>    5.9746    0.0000 </r>
       <r>    6.1041    0.0000 </r>
       <r>    6.2324    0.0000 </r>
       <r>    6.2759    0.0000 </r>
       <r>    6.2773    0.0000 </r>
       <r>    6.3526    0.0000 </r>
       <r>    6.3890    0.0000 </r>
       <r>    6.4710    0.0000 </r>
       <r>    6.5412    0.0000 </r>
       <r>    6.5788    0.0000 </r>
       <r>    6.6316    0.0000 </r>
      </set>
      <set comment="kpoint 2">
       <r>  -13.7865    1.0000 </r>
       <r>  -13.5571    1.0000 </r>
       <r>  -13.4915    1.0000 </r>
       <r>  -13.4068    1.0000 </r>
       <r>  -13.1940    1.0000 </r>
       <r>  -12.8828    1.0000 </r>
       <r>  -12.7676    1.0000 </r>
       <r>  -12.6397    1.0000 </r>
       <r>  -12.5757    1.0000 </r>
       <r>  -12.4990    1.0000 </r>
       <r>  -12.2264    1.0000 </r>
       <r>  -12.0391    1.0000 </r>
       <r>  -11.9238    1.0000 </r>
       <r>  -11.9114    1.0000 </r>
       <r>  -11.3646    1.0000 </r>
       <r>  -11.1172    1.0000 </r>
       <r>  -11.0212    1.0000 </r>
       <r>  -10.9462    1.0000 </r>
       <r>  -10.7516    1.0000 </r>
       <r>  -10.5660    1.0000 </r>
       <r>  -10.3670    1.0000 </r>
       <r>  -10.1451    1.0000 </r>
       <r>  -10.0239    1.0000 </r>
       <r>   -9.9154    1.0000 </r>
       <r>   -9.8403    1.0000 </r>
       <r>   -9.7493    1.0000 </r>
       <r>   -9.4982    1.0000 </r>
       <r>   -9.3878    1.0000 </r>
       <r>   -9.3105    1.0000 </r>
       <r>   -9.3090    1.0000 </r>
       <r>   -9.0359    1.0000 </r>
       <r>   -9.0024    1.0000 </r>
       <r>   -8.9070    1.0000 </r>
       <r>   -8.8083    1.0000 </r>
       <r>   -8.7845    1.0000 </r>
       <r>   -8.7382    1.0000 </r>
       <r>   -8.5132    1.0000 </r>
       <r>   -8.5104    1.0000 </r>
       <r>   -8.3140    1.0000 </r>
       <r>   -8.1652    1.0000 </r>
       <r>   -7.9761    1.0000 </r>
       <r>   -7.5384    1.0000 </r>
       <r>   -7.0497    1.0000 </r>
       <r>   -6.9655    1.0000 </r>
       <r>   -6.7875    1.0000 </r>
       <r>   -6.5216    1.0000 </r>
       <r>   -6.5134    1.0000 </r>
       <r>   -6.4178    1.0000 </r>
       <r>   -6.4148    1.0000 </r>
       <r>   -6.3206    1.0000 </r>
       <r>   -6.2915    1.0000 </r>
       <r>   -6.0887    1.0000 </r>
       <r>   -5.9777    1.0000 </r>
       <r>   -5.8021    1.0000 </r>
       <r>   -5.7676    1.0000 </r>
       <r>   -5.7653    1.0000 </r>
       <r>   -5.6742    1.0000 </r>
       <r>   -5.6252    1.0000 </r>
       <r>   -5.6101    1.0000 </r>
       <r>   -5.5670    1.0000 </r>
       <r>   -5.4383    1.0000 </r>
       <r>   -5.4197    1.0000 </r>
       <r>   -5.2994    1.0000 </r>
       <r>   -5.1852    1.0000 </r>
       <r>   -5.1085    1.0000 </r>
       <r>   -5.0936    1.0000 </r>
       <r>   -5.0205    1.0000 </r>
       <r>   -4.9462    1.0000 </r>
       <r>   -4.8558    1.0000 </r>
       <r>   -4.7941    1.0000 </r>
       <r>   -4.7474    1.0000 </r>
       <r>   -4.7315    1.0000 </r>
       <r>   -4.6375    1.0000 </r>
       <r>   -4.5374    1.0000 </r>
       <r>   -4.4191    1.0000 </r>
       <r>   -4.3718    1.0000 </r>
       <r>   -4.1933    1.0000 </r>
       <r>   -4.1885    1.0000 </r>
       <r>   -4.1179    1.0000 </r>
       <r>   -4.0299    1.0000 </r>
       <r>   -3.9946    1.0000 </r>
       <r>   -3.9000    1.0000 </r>
       <r>   -3.8903    1.0000 </r>
       <r>   -3.8359    1.0000 </r>
       <r>   -3.8047    1.0000 </r>
       <r>   -3.7408    1.0000 </r>
       <r>   -3.6787    1.0000 </r>
       <r>   -3.6127    1.0000 </r>
       <r>   -3.5528    1.0000 </r>
       <r>   -3.5401    1.0000 </r>
       <r>   -3.4253    1.0000 </r>
       <r>   -3.3600    1.0000 </r>
       <r>   -3.1953    1.0000 </r>
       <r>   -3.1420    1.0000 </r>
       <r>   -3.0539    1.0000 </r>
       <r>   -2.9464    1.0000 </r>
       <r>   -2.9015    1.0000 </r>
       <r>   -2.8621    1.0000 </r>
       <r>   -2.5895    1.0000 </r>
       <r>   -2.5491    1.0000 </r>
       <r>   -2.4966    1.0000 </r>
       <r>   -2.4788    1.0000 </r>
       <r>   -2.4090    1.0000 </r>
       <r>   -2.2911    1.0000 </r>
       <r>   -2.2667    1.0000 </r>
       <r>   -2.2540    1.0000 </r>
       <r>   -2.2055    1.0000 </r>
       <r>   -2.1122    1.0000 </r>
       <r>   -2.0509    1.0000 </r>
       <r>   -2.0054    1.0000 </r>
       <r>   -1.9356    1.0000 </r>
       <r>   -1.8820    1.0000 </r>
       <r>   -1.8702    1.0000 </r>
       <r>   -1.8312    1.0000 </r>
       <r>   -1.8161    1.0000 </r>
       <r>   -1.7647    1.0000 </r>
       <r>   -1.6370    1.0000 </r>
       <r>   -1.6183    1.0000 </r>
       <r>   -1.5572    1.0000 </r>
       <r>   -1.4859    1.0000 </r>
       <r>   -1.4232    1.0000 </r>
       <r>   -1.3603    1.0000 </r>
       <r>   -1.3088    1.0000 </r>
       <r>   -1.2995    1.0000 </r>
       <r>   -1.2054    1.0000 </r>
       <r>   -1.1360    1.0000 </r>
       <r>   -1.1071    1.0000 </r>
       <r>   -1.0754    1.0000 </r>
       <r>   -1.0033    1.0000 </r>
       <r>   -0.9977    1.0000 </r>
       <r>   -0.9407    1.0000 </r>
       <r>   -0.9320    1.0000 </r>
       <r>   -0.8048    1.0000 </r>
       <r>   -0.7535    1.0000 </r>
       <r>   -0.7201    1.0000 </r>
       <r>   -0.6887    1.0000 </r>
       <r>   -0.6622    1.0000 </r>
       <r>   -0.5265    1.0000 </r>
       <r>   -0.4694    1.0000 </r>
       <r>   -0.3917    1.0000 </r>
       <r>   -0.3278    1.0000 </r>
       <r>   -0.3072    1.0000 </r>
       <r>   -0.2108    1.0000 </r>
       <r>   -0.1822    1.0000 </r>
       <r>   -0.1523    1.0000 </r>
       <r>   -0.1452    1.0000 </r>
       <r>   -0.1169    1.0000 </r>
       <r>    0.0076    1.0000 </r>
       <r>    0.0145    1.0000 </r>
       <r>    0.0877    1.0000 </r>
       <r>    0.1921    1.0000 </r>
       <r>    0.1985    1.0000 </r>
       <r>    0.3295    1.0000 </r>
[...]
       <r>   -10.2152     3.3775    43.5556 </r>
       <r>   -10.1397    11.3483    44.4118 </r>
       <r>   -10.0642     3.3502    44.6667 </r>
       <r>    -9.9888    15.9658    45.8713 </r>
       <r>    -9.9133     2.7136    46.0761 </r>
       <r>    -9.8379    25.8361    48.0255 </r>
       <r>    -9.7624    11.2798    48.8898 </r>
       <r>    -9.6870     8.6295    49.5409 </r>
       <r>    -9.6115    23.6926    51.3286 </r>
       <r>    -9.5361    14.7078    52.4431 </r>
       <r>    -9.4606    20.6164    54.0000 </r>
       <r>    -9.3852    10.0192    54.7560 </r>
       <r>    -9.3097    31.0352    57.1116 </r>
       <r>    -9.2343    19.7413    58.6667 </r>
       <r>    -9.1588     8.4837    59.3068 </r>
       <r>    -9.0834    16.7824    60.5730 </r>
       <r>    -9.0079    18.1632    62.0053 </r>
       <r>    -8.9325    23.7546    63.7984 </r>
       <r>    -8.8570    25.0964    65.7911 </r>
       <r>    -8.7816    35.3640    68.4757 </r>
       <r>    -8.7061    19.5529    70.0093 </r>
       <r>    -8.6307    14.5953    71.1111 </r>
       <r>    -8.5552    18.7263    72.5241 </r>
       <r>    -8.4798    23.4812    74.3143 </r>
       <r>    -8.4043     6.8392    74.8311 </r>
       <r>    -8.3289    30.5402    77.1439 </r>
       <r>    -8.2534    14.7937    78.2913 </r>
       <r>    -8.1780     7.4477    78.8917 </r>
       <r>    -8.1025     6.8431    79.4080 </r>
       <r>    -8.0270    10.8340    80.2254 </r>
       <r>    -7.9516    12.4831    81.1673 </r>
       <r>    -7.8761    16.8379    82.4429 </r>
       <r>    -7.8007     0.0000    82.4444 </r>
       <r>    -7.7252    11.6917    83.3266 </r>
       <r>    -7.6498     0.0000    83.3333 </r>
       <r>    -7.5743     0.0000    83.3333 </r>
       <r>    -7.4989     5.8904    83.7778 </r>
       <r>    -7.4234     5.8900    84.2222 </r>
       <r>    -7.3480     0.1024    84.2300 </r>
       <r>    -7.2725     8.7249    84.8883 </r>
       <r>    -7.1971     0.0000    84.8889 </r>
       <r>    -7.1216     8.9693    85.5656 </r>
       <r>    -7.0462    13.0906    86.5626 </r>
       <r>    -6.9707     4.7709    86.9225 </r>
       <r>    -6.8953    10.2812    87.6983 </r>
       <r>    -6.8198     7.6589    88.2777 </r>
       <r>    -6.7444    14.7145    89.3879 </r>
       <r>    -6.6689     1.5318    89.5600 </r>
       <r>    -6.5935     8.0103    90.1644 </r>
       <r>    -6.5180    15.0200    91.3000 </r>
       <r>    -6.4426    24.1930    93.1460 </r>
       <r>    -6.3671    25.5270    95.0738 </r>
       <r>    -6.2917    31.0876    97.4757 </r>
       <r>    -6.2162    24.2380    99.3251 </r>
       <r>    -6.1407    21.4905   101.0080 </r>
       <r>    -6.0653    24.2244   102.8587 </r>
       <r>    -5.9898    15.9342   104.0834 </r>
       <r>    -5.9144    27.2792   106.1438 </r>
       <r>    -5.8389    24.9325   108.0321 </r>
       <r>    -5.7635    37.9362   110.9133 </r>
       <r>    -5.6880    24.7174   112.8026 </r>
       <r>    -5.6126    33.3262   115.3233 </r>
       <r>    -5.5371    31.9446   117.7703 </r>
       <r>    -5.4617    29.2037   120.0047 </r>
       <r>    -5.3862    25.9119   121.9917 </r>
       <r>    -5.3108    23.3710   123.7680 </r>
       <r>    -5.2353    25.4681   125.7335 </r>
       <r>    -5.1599    36.6999   128.5170 </r>
       <r>    -5.0844    24.1406   130.4130 </r>
       <r>    -5.0090    35.0321   133.0630 </r>
       <r>    -4.9335    31.4790   135.5000 </r>
       <r>    -4.8581    21.3418   137.1376 </r>
       <r>    -4.7826    31.4061   139.5616 </r>
       <r>    -4.7072    24.4906   141.4127 </r>
       <r>    -4.6317    27.3620   143.4925 </r>
       <r>    -4.5563    25.9916   145.4829 </r>
       <r>    -4.4808    32.5237   147.9588 </r>
       <r>    -4.4054    32.1286   150.4298 </r>
       <r>    -4.3299    20.7956   152.0482 </r>
       <r>    -4.2545    36.0639   154.7974 </r>
       <r>    -4.1790    28.8766   157.0168 </r>
       <r>    -4.1035    32.0826   159.4966 </r>
       <r>    -4.0281    27.6605   161.6312 </r>
       <r>    -3.9526    18.2447   163.0210 </r>
       <r>    -3.8772    21.6926   164.6718 </r>
       <r>    -3.8017    19.4942   166.1943 </r>
       <r>    -3.7263    31.3455   168.5819 </r>
       <r>    -3.6508    31.5892   171.0357 </r>
       <r>    -3.5754    34.7241   173.6663 </r>
       <r>    -3.4999    30.7575   175.9983 </r>
       <r>    -3.4245    23.7339   177.8028 </r>
       <r>    -3.3490    29.7605   180.0806 </r>
       <r>    -3.2736    22.1214   181.7509 </r>
       <r>    -3.1981    26.3153   183.7788 </r>
       <r>    -3.1227    32.9318   186.2898 </r>
       <r>    -3.0472    30.8163   188.6768 </r>
       <r>    -2.9718    24.9762   190.6328 </r>
       <r>    -2.8963    24.2025   192.4621 </r>
       <r>    -2.8209    28.6559   194.6248 </r>
       <r>    -2.7454    20.7359   196.2236 </r>
       <r>    -2.6700    17.9116   197.5756 </r>
       <r>    -2.5945    28.1585   199.7006 </r>
       <r>    -2.5191    27.6078   201.8440 </r>
       <r>    -2.4436    38.5229   204.7876 </r>
       <r>    -2.3682    33.8517   207.3545 </r>
       <r>    -2.2927    28.0590   209.5556 </r>
       <r>    -2.2173    38.4019   212.5166 </r>
       <r>    -2.1418    29.2676   214.7794 </r>
       <r>    -2.0663    34.9408   217.4487 </r>
       <r>    -1.9909    35.1767   220.1391 </r>
       <r>    -1.9154    45.4760   223.6547 </r>
       <r>    -1.8400    28.0396   225.8462 </r>
       <r>    -1.7645    32.0920   228.2925 </r>
       <r>    -1.6891    35.5270   231.0100 </r>
       <r>    -1.6136    31.9699   233.4560 </r>
       <r>    -1.5382    41.4835   236.5933 </r>
       <r>    -1.4627    31.2974   239.0106 </r>
       <r>    -1.3873    39.3001   242.0053 </r>
       <r>    -1.3118    37.9629   244.8770 </r>
       <r>    -1.2364    33.2099   247.4347 </r>
       <r>    -1.1609    45.0768   250.8516 </r>
       <r>    -1.0855    48.4831   254.5629 </r>
       <r>    -1.0100    37.9537   257.4981 </r>
       <r>    -0.9346    46.3780   261.0470 </r>
       <r>    -0.8591    40.8417   264.1471 </r>
       <r>    -0.7837    33.1965   266.6563 </r>
       <r>    -0.7082    33.2287   269.1759 </r>
       <r>    -0.6328    29.6784   271.4700 </r>
       <r>    -0.5573    33.8815   274.0629 </r>
       <r>    -0.4819    41.4020   277.2213 </r>
       <r>    -0.4064    33.8032   279.8517 </r>
       <r>    -0.3310    32.9348   282.3728 </r>
       <r>    -0.2555    33.1263   284.9014 </r>
       <r>    -0.1800    39.5521   287.9496 </r>
       <r>    -0.1046    31.9799   290.4077 </r>
       <r>    -0.0291    32.2458   292.8664 </r>
       <r>     0.0463    38.7094   295.8459 </r>
       <r>     0.1218    39.7988   298.9001 </r>
       <r>     0.1972    42.6461   302.1866 </r>
       <r>     0.2727    26.0903   304.1828 </r>
       <r>     0.3481    32.4409   306.6494 </r>
       <r>     0.4236    42.1052   309.8921 </r>
       <r>     0.4990    47.2326   313.5204 </r>
       <r>     0.5745    36.7364   316.3898 </r>
       <r>     0.6499    41.2933   319.5595 </r>
       <r>     0.7254    29.1548   321.7977 </r>
       <r>     0.8008    31.9082   324.2470 </r>
       <r>     0.8763    37.5689   327.1372 </r>
       <r>     0.9517    39.4070   330.2147 </r>
       <r>     1.0272    25.3239   332.2097 </r>
       <r>     1.1026    40.2534   335.2581 </r>
       <r>     1.1781    40.8662   338.3960 </r>
       <r>     1.2535    47.6567   342.0859 </r>
       <r>     1.3290    48.4545   345.7889 </r>
       <r>     1.4044    47.2427   349.3554 </r>
       <r>     1.4799    38.8497   352.3609 </r>
       <r>     1.5553    47.0021   355.9616 </r>
       <r>     1.6308    51.1720   359.8368 </r>
       <r>     1.7062    35.2520   362.5615 </r>
       <r>     1.7817    34.8074   365.2262 </r>
       <r>     1.8572    45.0443   368.6641 </r>
       <r>     1.9326    41.6150   371.8206 </r>
       <r>     2.0081    44.6391   375.2523 </r>
       <r>     2.0835    35.4225   377.9420 </r>
       <r>     2.1590    46.7473   381.5192 </r>
       <r>     2.2344    42.7877   384.7917 </r>
       <r>     2.3099    44.6937   388.2173 </r>
       <r>     2.3853    50.6043   392.1385 </r>
       <r>     2.4608    42.0658   395.3789 </r>
       <r>     2.5362    45.2668   398.8216 </r>
       <r>     2.6117    44.8029   402.2789 </r>
       <r>     2.6871    39.1630   405.2945 </r>
       <r>     2.7626    47.2164   408.8979 </r>
       <r>     2.8380    43.0302   412.1825 </r>
       <r>     2.9135    52.2501   416.1624 </r>
       <r>     2.9889    38.7464   419.0975 </r>
       <r>     3.0644    51.1863   422.9681 </r>
       <r>     3.1398    47.8911   426.6834 </r>
       <r>     3.2153    52.1225   430.6569 </r>
       <r>     3.2907    35.6409   433.4301 </r>
       <r>     3.3662    52.3909   437.4662 </r>
       <r>     3.4416    41.2317   440.6062 </r>
       <r>     3.5171    43.2319   443.9174 </r>
       <r>     3.5925    48.5150   447.6415 </r>
       <r>     3.6680    39.4193   450.6678 </r>
       <r>     3.7435    45.1095   454.1418 </r>
       <r>     3.8189    47.1056   457.7380 </r>
       <r>     3.8944    41.0595   460.8821 </r>
       <r>     3.9698    30.4857   463.2124 </r>
       <r>     4.0453    46.0964   466.6998 </r>
       <r>     4.1207    44.8097   470.1551 </r>
       <r>     4.1962    47.5412   473.8337 </r>
       <r>     4.2716    54.6762   478.0524 </r>
       <r>     4.3471    58.0369   482.4821 </r>
       <r>     4.4225    47.3700   486.1119 </r>
       <r>     4.4980    40.1847   489.1818 </r>
       <r>     4.5734    45.7525   492.6766 </r>
       <r>     4.6489    35.5528   495.3771 </r>
       <r>     4.7243    39.5905   498.3992 </r>
       <r>     4.7998    40.9925   501.5358 </r>
       <r>     4.8752    43.3300   504.8311 </r>
       <r>     4.9507    38.9712   507.8557 </r>
       <r>     5.0261    36.0463   510.6309 </r>
       <r>     5.1016    52.6123   514.6227 </r>
       <r>     5.1770    49.8068   518.4379 </r>
       <r>     5.2525    42.3319   521.7303 </r>
       <r>     5.3279    43.9252   525.0972 </r>
       <r>     5.4034    39.4193   528.1636 </r>
       <r>     5.4788    45.0952   531.6188 </r>
       <r>     5.5543    34.0462   534.2168 </r>
       <r>     5.6297    37.9223   537.1664 </r>
       <r>     5.7052    33.4252   539.7608 </r>
       <r>     5.7807    38.8828   542.7485 </r>
       <r>     5.8561    32.4654   545.2294 </r>
       <r>     5.9316    40.3974   548.2945 </r>
       <r>     6.0070    32.5249   550.7831 </r>
       <r>     6.0825    44.3875   554.1463 </r>
       <r>     6.1579    30.8797   556.4973 </r>
       <r>     6.2334    37.2204   559.3657 </r>
       <r>     6.3088    42.2943   562.6027 </r>
       <r>     6.3843    38.9905   565.5538 </r>
       <r>     6.4597    36.3239   568.3031 </r>
       <r>     6.5352    32.3471   570.7531 </r>
       <r>     6.6106    32.7010   573.2288 </r>
       <r>     6.6861    29.6019   575.5131 </r>
       <r>     6.7615     6.1295   576.0000 </r>
       <r>     6.8370     0.0000   576.0000 </r>
       <r>     6.9124     0.0000   576.0000 </r>
       <r>     6.9879     0.0000   576.0000 </r>
       <r>     7.0633     0.0000   576.0000 </r>
       <r>     7.1388     0.0000   576.0000 </r>
       <r>     7.2142     0.0000   576.0000 </r>
       <r>     7.2897     0.0000   576.0000 </r>
       <r>     7.3651     0.0000   576.0000 </r>
       <r>     7.4406     0.0000   576.0000 </r>
       <r>     7.5160     0.0000   576.0000 </r>
       <r>     7.5915     0.0000   576.0000 </r>
       <r>     7.6669     0.0000   576.0000 </r>
       <r>     7.7424     0.0000   576.0000 </r>
      </set>
     </set>
    </array>
   </total>
  </dos>
 </calculation>
 <structure name="finalpos" >
  <crystal>
   <varray name="basis" >
    <v>      16.29300118       0.00000000       0.00000000 </v>
    <v>     -10.86200046      12.14408588       0.00000000 </v>
    <v>       0.00000000       0.00000000       7.99474955 </v>
   </varray>
   <i name="volume">   1581.86997086 </i>
   <varray name="rec_basis" >
    <v>       0.06137605       0.05489640       0.00000000 </v>
    <v>       0.00000000       0.08234461       0.00000000 </v>
    <v>       0.00000000       0.00000000       0.12508209 </v>
   </varray>
  </crystal>
  <varray name="positions" >
   <v>       0.98290563       0.64102513       0.00000000 </v>
   <v>       0.78290558       0.34102503       0.15190083 </v>
   <v>       0.58290541       0.04102494       0.30380166 </v>
   <v>       0.98290563       0.30769178       0.00000000 </v>
   <v>       0.78290558       0.00769171       0.15190083 </v>
   <v>       0.58290541       0.70769167       0.30380166 </v>
   <v>       0.98290563       0.97435850       0.00000000 </v>
   <v>       0.78290558       0.67435837       0.15190083 </v>
   <v>       0.58290541       0.37435830       0.30380166 </v>
   <v>       0.63290566       0.65769172       0.07595026 </v>
   <v>       0.43290559       0.35769162       0.22785109 </v>
   <v>       0.23290552       0.05769158       0.37975192 </v>
   <v>       0.63290566       0.32435846       0.07595026 </v>
   <v>       0.43290559       0.02435837       0.22785109 </v>
   <v>       0.23290552       0.72435832       0.37975192 </v>
   <v>       0.63290566       0.99102521       0.07595026 </v>
   <v>       0.43290559       0.69102514       0.22785109 </v>
   <v>       0.23290552       0.39102507       0.37975192 </v>
   <v>       0.48290563       0.80769175       0.00000000 </v>
   <v>       0.28290555       0.50769162       0.15190083 </v>
   <v>       0.08290544       0.20769161       0.30380166 </v>
   <v>       0.48290563       0.47435844       0.00000000 </v>
   <v>       0.28290555       0.17435835       0.15190083 </v>
   <v>       0.08290544       0.87435830       0.30380166 </v>
   <v>       0.48290563       0.14102514       0.00000000 </v>
   <v>       0.28290555       0.84102505       0.15190083 </v>
   <v>       0.08290544       0.54102498       0.30380166 </v>
   <v>       0.13290568       0.82435852       0.07595027 </v>
   <v>       0.93290555       0.52435839       0.22785109 </v>
   <v>       0.73290551       0.22435838       0.37975192 </v>
   <v>       0.13290568       0.49102521       0.07595027 </v>
   <v>       0.93290555       0.19102511       0.22785109 </v>
   <v>       0.73290551       0.89102513       0.37975192 </v>
   <v>       0.13290568       0.15769196       0.07595027 </v>
   <v>       0.93290555       0.85769188       0.22785109 </v>
   <v>       0.73290551       0.55769193       0.37975192 </v>
   <v>       0.77172834       0.10819173       0.56517518 </v>
   <v>       0.01458549       0.07962024       0.66493583 </v>
   <v>       0.25744271       0.05104876       0.76469648 </v>
   <v>       0.05744267       0.25104886       0.56517518 </v>
   <v>       0.30029988       0.22247738       0.66493583 </v>
   <v>       0.54315710       0.19390592       0.76469648 </v>
   <v>       0.34315682       0.39390597       0.56517518 </v>
   <v>       0.58601403       0.36533448       0.66493583 </v>
   <v>       0.82887137       0.33676302       0.76469648 </v>
   <v>       0.62887120       0.53676319       0.56517518 </v>
   <v>       0.87172842       0.50819171       0.66493583 </v>
   <v>       0.11458576       0.47962022       0.76469648 </v>
   <v>       0.91458547       0.67962027       0.56517518 </v>
   <v>       0.15744269       0.65104884       0.66493583 </v>
   <v>       0.40029991       0.62247735       0.76469648 </v>
   <v>       0.20029974       0.82247746       0.56517518 </v>
   <v>       0.44315696       0.79390597       0.66493583 </v>
   <v>       0.68601417       0.76533449       0.76469648 </v>
   <v>       0.48601401       0.96533459       0.56517518 </v>
   <v>       0.72887123       0.93676305       0.66493583 </v>
   <v>       0.97172844       0.90819162       0.76469648 </v>
   <v>       0.60744250       0.20104888       0.61505544 </v>
   <v>       0.85029984       0.17247739       0.71481609 </v>
   <v>       0.09315705       0.14390588       0.81457663 </v>
   <v>       0.89315671       0.34390602       0.61505544 </v>
   <v>       0.13601398       0.31533453       0.71481609 </v>
   <v>       0.37887120       0.28676301       0.81457674 </v>
   <v>       0.17887104       0.48676318       0.61505544 </v>
   <v>       0.42172837       0.45819169       0.71481609 </v>
   <v>       0.66458559       0.42962021       0.81457674 </v>
   <v>       0.46458542       0.62962031       0.61505544 </v>
   <v>       0.70744276       0.60104883       0.71481609 </v>
   <v>       0.95029998       0.57247740       0.81457674 </v>
   <v>       0.75029957       0.77247745       0.61505544 </v>
   <v>       0.99315691       0.74390596       0.71481609 </v>
   <v>       0.23601401       0.71533447       0.81457674 </v>
   <v>       0.03601408       0.91533458       0.61505544 </v>
   <v>       0.27887130       0.88676304       0.71481609 </v>
   <v>       0.52172852       0.85819161       0.81457663 </v>
   <v>       0.32172823       0.05819166       0.61505544 </v>
   <v>       0.56458545       0.02962029       0.71481609 </v>
   <v>       0.80744266       0.00104880       0.81457663 </v>
   <v>       0.41458559       0.17962033       0.56517518 </v>
   <v>       0.65744269       0.15104881       0.66493583 </v>
   <v>       0.90030003       0.12247739       0.76469648 </v>
   <v>       0.70029998       0.32247746       0.56517518 </v>
   <v>       0.94315708       0.29390594       0.66493583 </v>
   <v>       0.18601417       0.26533446       0.76469648 </v>
   <v>       0.98601407       0.46533459       0.56517518 </v>
   <v>       0.22887135       0.43676311       0.66493583 </v>
   <v>       0.47172856       0.40819162       0.76469648 </v>
   <v>       0.27172828       0.60819173       0.56517518 </v>
   <v>       0.51458549       0.57962024       0.66493583 </v>
   <v>       0.75744283       0.55104882       0.76469648 </v>
   <v>       0.55744266       0.75104886       0.56517518 </v>
   <v>       0.80029988       0.72247744       0.66493583 </v>
   <v>       0.04315698       0.69390589       0.76469648 </v>
   <v>       0.84315687       0.89390606       0.56517518 </v>
   <v>       0.08601415       0.86533463       0.66493583 </v>
   <v>       0.32887149       0.83676314       0.76469648 </v>
   <v>       0.12887120       0.03676319       0.56517518 </v>
   <v>       0.37172842       0.00819182       0.66493583 </v>
   <v>       0.61458564       0.97962028       0.76469648 </v>
   <v>       0.96458548       0.12962031       0.61505544 </v>
   <v>       0.20744276       0.10104883       0.71481609 </v>
   <v>       0.45029998       0.07247734       0.81457674 </v>
   <v>       0.25029969       0.27247745       0.61505544 </v>
   <v>       0.49315691       0.24390596       0.71481609 </v>
   <v>       0.73601413       0.21533451       0.81457663 </v>
   <v>       0.53601384       0.41533455       0.61505544 </v>
   <v>       0.77887130       0.38676313       0.71481609 </v>
   <v>       0.02172852       0.35819167       0.81457663 </v>
   <v>       0.82172811       0.55819172       0.61505544 </v>
   <v>       0.06458545       0.52962029       0.71481609 </v>
   <v>       0.30744267       0.50104874       0.81457663 </v>
   <v>       0.10744262       0.70104879       0.61505544 </v>
   <v>       0.35029984       0.67247731       0.71481609 </v>
   <v>       0.59315705       0.64390588       0.81457674 </v>
   <v>       0.39315689       0.84390598       0.61505544 </v>
   <v>       0.63601422       0.81533450       0.71481609 </v>
   <v>       0.87887144       0.78676313       0.81457674 </v>
   <v>       0.67887104       0.98676312       0.61505544 </v>
   <v>       0.92172837       0.95819169       0.71481609 </v>
   <v>       0.16458559       0.92962021       0.81457674 </v>
  </varray>
 </structure>
</modeling>
