  48  48   0   0
  0.2283438E+02  0.8001338E-09  0.1265123E-08  0.1141337E-08  0.5000000E-15
  1.000000000000000E-004
  CAR 
 Si and Ge interface calculation         
      6.79537312    -11.46924137  301      3.52457950      1.00000000
    -11.469  0.0000E+00  0.0000E+00  0.0000E+00  0.0000E+00
    -11.408  0.0000E+00  0.0000E+00  0.0000E+00  0.0000E+00
    -11.347  0.0000E+00  0.0000E+00  0.0000E+00  0.0000E+00
    -11.287  0.0000E+00  0.0000E+00  0.0000E+00  0.0000E+00
    -11.226  0.0000E+00  0.0000E+00  0.0000E+00  0.0000E+00
    -11.165  0.0000E+00  0.0000E+00  0.0000E+00  0.0000E+00
    -11.104  0.0000E+00  0.0000E+00  0.0000E+00  0.0000E+00
    -11.043  0.0000E+00  0.0000E+00  0.0000E+00  0.0000E+00
    -10.982  0.0000E+00  0.0000E+00  0.0000E+00  0.0000E+00
    -10.921  0.0000E+00  0.0000E+00  0.0000E+00  0.0000E+00
    -10.860  0.0000E+00  0.0000E+00  0.0000E+00  0.0000E+00
    -10.800  0.0000E+00  0.0000E+00  0.0000E+00  0.0000E+00
    -10.739  0.0000E+00  0.0000E+00  0.0000E+00  0.0000E+00
    -10.678  0.2025E-07  0.5065E-16  0.1233E-08  0.3084E-17
    -10.617  0.7899E+01  0.1896E+01  0.4809E+00  0.1154E+00
    -10.556  0.3127E+00  0.6317E+01  0.5000E+00  0.5000E+00
    -10.495  0.9671E+01  0.2471E+00  0.1089E+01  0.5150E+00
    -10.434  0.1497E+02  0.2410E+02  0.2000E+01  0.1982E+01
    -10.373  0.3890E-05  0.2940E+00  0.2000E+01  0.2000E+01
    -10.312  0.1640E+02  0.1018E+02  0.2999E+01  0.2620E+01
    -10.252  0.1829E-01  0.6249E+01  0.3000E+01  0.3000E+01
    -10.191  0.0000E+00  0.0000E+00  0.3000E+01  0.3000E+01
    -10.130  0.1247E-01  0.8156E-07  0.3001E+01  0.3000E+01
    -10.069  0.1641E+02  0.1603E+02  0.4000E+01  0.3976E+01
    -10.008  0.0000E+00  0.3914E+00  0.4000E+01  0.4000E+01
     -9.947  0.5892E+01  0.1125E-01  0.4359E+01  0.4001E+01
     -9.886  0.1053E+02  0.1641E+02  0.5000E+01  0.5000E+01
     -9.825  0.0000E+00  0.0000E+00  0.5000E+01  0.5000E+01
     -9.765  0.0000E+00  0.0000E+00  0.5000E+01  0.5000E+01
     -9.704  0.0000E+00  0.0000E+00  0.5000E+01  0.5000E+01
     -9.643  0.0000E+00  0.0000E+00  0.5000E+01  0.5000E+01
     -9.582  0.0000E+00  0.0000E+00  0.5000E+01  0.5000E+01
     -9.521  0.8313E-01  0.3756E-05  0.5005E+01  0.5000E+01
     -9.460  0.1634E+02  0.1639E+02  0.6000E+01  0.5998E+01
     -9.399  0.1938E-09  0.1457E-01  0.6000E+01  0.6000E+01
     -9.338  0.1563E+02  0.2256E+01  0.6952E+01  0.6137E+01
     -9.277  0.7961E+00  0.1417E+02  0.7000E+01  0.7000E+01
     -9.217  0.0000E+00  0.0000E+00  0.7000E+01  0.7000E+01
     -9.156  0.0000E+00  0.0000E+00  0.7000E+01  0.7000E+01
     -9.095  0.1013E-15  0.0000E+00  0.7000E+01  0.7000E+01
     -9.034  0.4687E+01  0.8098E-01  0.7285E+01  0.7005E+01
     -8.973  0.3526E+01  0.8132E+01  0.7500E+01  0.7500E+01
     -8.912  0.8032E+01  0.1815E+01  0.7989E+01  0.7610E+01
     -8.851  0.1805E+00  0.6398E+01  0.8000E+01  0.8000E+01
     -8.790  0.0000E+00  0.0000E+00  0.8000E+01  0.8000E+01
     -8.730  0.3951E-14  0.0000E+00  0.8000E+01  0.8000E+01
     -8.669  0.1420E+01  0.3375E+00  0.8086E+01  0.8021E+01
     -8.608  0.4372E+01  0.4033E+01  0.8353E+01  0.8266E+01
     -8.547  0.3706E+01  0.2474E+01  0.8578E+01  0.8417E+01
     -8.486  0.7722E+01  0.9274E+01  0.9049E+01  0.8981E+01
     -8.425  0.8844E+01  0.7443E+01  0.9587E+01  0.9434E+01
     -8.364  0.4852E+01  0.6584E+01  0.9882E+01  0.9835E+01
     -8.303  0.4246E+01  0.3913E+01  0.1014E+02  0.1007E+02
     -8.242  0.4370E+00  0.1528E+01  0.1017E+02  0.1017E+02
     -8.182  0.9814E+01  0.8213E+01  0.1077E+02  0.1067E+02
     -8.121  0.1053E+02  0.9182E+01  0.1141E+02  0.1123E+02
     -8.060  0.8147E+01  0.9257E+01  0.1190E+02  0.1179E+02
     -7.999  0.8764E+01  0.9060E+01  0.1244E+02  0.1234E+02
     -7.938  0.3950E+01  0.4490E+01  0.1268E+02  0.1261E+02
     -7.877  0.1227E+02  0.9621E+01  0.1342E+02  0.1320E+02
     -7.816  0.4590E+01  0.7665E+01  0.1370E+02  0.1367E+02
     -7.755  0.9487E+01  0.6594E+01  0.1428E+02  0.1407E+02
     -7.695  0.6222E+01  0.8224E+01  0.1466E+02  0.1457E+02
     -7.634  0.1103E+02  0.1073E+02  0.1533E+02  0.1522E+02
     -7.573  0.2111E+02  0.1997E+02  0.1662E+02  0.1644E+02
     -7.512  0.1283E+02  0.1281E+02  0.1740E+02  0.1722E+02
     -7.451  0.1261E+02  0.1268E+02  0.1816E+02  0.1799E+02
     -7.390  0.1499E+02  0.1430E+02  0.1908E+02  0.1886E+02
     -7.329  0.1529E+02  0.1707E+02  0.2001E+02  0.1990E+02
     -7.268  0.8173E+01  0.6575E+01  0.2051E+02  0.2030E+02
     -7.207  0.1428E+02  0.1565E+02  0.2138E+02  0.2125E+02
     -7.147  0.2264E+02  0.1733E+02  0.2275E+02  0.2231E+02
     -7.086  0.2177E+02  0.2004E+02  0.2408E+02  0.2353E+02
     -7.025  0.1335E+02  0.2231E+02  0.2489E+02  0.2489E+02
     -6.964  0.1455E+02  0.1004E+02  0.2578E+02  0.2550E+02
     -6.903  0.3209E+02  0.3087E+02  0.2773E+02  0.2738E+02
     -6.842  0.2052E+02  0.2151E+02  0.2898E+02  0.2869E+02
     -6.781  0.1891E+02  0.2039E+02  0.3013E+02  0.2993E+02
     -6.720  0.1967E+02  0.2124E+02  0.3133E+02  0.3122E+02
     -6.660  0.1576E+02  0.1448E+02  0.3229E+02  0.3211E+02
     -6.599  0.9704E+01  0.9948E+01  0.3288E+02  0.3271E+02
     -6.538  0.2171E+02  0.2140E+02  0.3420E+02  0.3401E+02
     -6.477  0.1102E+02  0.9851E+01  0.3487E+02  0.3461E+02
     -6.416  0.1459E+02  0.1373E+02  0.3576E+02  0.3545E+02
     -6.355  0.7330E+01  0.9794E+01  0.3621E+02  0.3605E+02
     -6.294  0.1450E+02  0.9460E+01  0.3709E+02  0.3662E+02
     -6.233  0.1074E+02  0.1564E+02  0.3774E+02  0.3757E+02
     -6.173  0.7823E+01  0.6610E+01  0.3822E+02  0.3798E+02
     -6.112  0.1684E+02  0.1763E+02  0.3925E+02  0.3905E+02
     -6.051  0.2000E+02  0.1933E+02  0.4046E+02  0.4023E+02
     -5.990  0.5199E+01  0.5645E+01  0.4078E+02  0.4057E+02
     -5.929  0.6394E+01  0.9013E+01  0.4117E+02  0.4112E+02
     -5.868  0.7151E+01  0.4042E+01  0.4161E+02  0.4136E+02
     -5.807  0.4583E+01  0.7050E+01  0.4188E+02  0.4179E+02
     -5.746  0.1160E+02  0.1129E+02  0.4259E+02  0.4248E+02
     -5.685  0.5949E+01  0.5816E+01  0.4295E+02  0.4284E+02
     -5.625  0.2147E+02  0.1763E+02  0.4426E+02  0.4391E+02
     -5.564  0.1444E+02  0.1677E+02  0.4514E+02  0.4493E+02
     -5.503  0.6470E+01  0.7427E+01  0.4553E+02  0.4538E+02
     -5.442  0.1226E+02  0.1343E+02  0.4628E+02  0.4620E+02
     -5.381  0.3348E+01  0.3207E+01  0.4648E+02  0.4640E+02
     -5.320  0.1300E+02  0.1053E+02  0.4728E+02  0.4704E+02
     -5.259  0.1232E+02  0.1099E+02  0.4803E+02  0.4771E+02
     -5.198  0.1170E+02  0.1342E+02  0.4874E+02  0.4852E+02
     -5.138  0.9630E+01  0.1004E+02  0.4932E+02  0.4913E+02
     -5.077  0.8376E+01  0.8497E+01  0.4983E+02  0.4965E+02
     -5.016  0.2047E+02  0.1476E+02  0.5108E+02  0.5055E+02
     -4.955  0.6974E+01  0.1346E+02  0.5151E+02  0.5137E+02
     -4.894  0.3865E+01  0.4962E+01  0.5174E+02  0.5167E+02
     -4.833  0.4594E+01  0.3666E+01  0.5202E+02  0.5189E+02
     -4.772  0.1214E+02  0.7694E+01  0.5276E+02  0.5236E+02
     -4.711  0.2077E+02  0.2030E+02  0.5402E+02  0.5360E+02
     -4.650  0.1730E+02  0.2271E+02  0.5508E+02  0.5498E+02
     -4.590  0.1217E+02  0.9819E+01  0.5582E+02  0.5558E+02
     -4.529  0.1119E+02  0.1384E+02  0.5650E+02  0.5642E+02
     -4.468  0.4490E+01  0.3407E+01  0.5677E+02  0.5663E+02
     -4.407  0.8672E+01  0.6052E+01  0.5730E+02  0.5700E+02
     -4.346  0.1188E+02  0.1399E+02  0.5803E+02  0.5785E+02
     -4.285  0.1291E+02  0.1194E+02  0.5881E+02  0.5858E+02
     -4.224  0.1605E+02  0.1560E+02  0.5979E+02  0.5953E+02
     -4.163  0.7453E+01  0.9046E+01  0.6024E+02  0.6008E+02
     -4.103  0.2251E+02  0.1767E+02  0.6161E+02  0.6115E+02
     -4.042  0.1919E+02  0.2271E+02  0.6278E+02  0.6254E+02
     -3.981  0.1457E+02  0.1512E+02  0.6367E+02  0.6346E+02
     -3.920  0.1863E+02  0.1772E+02  0.6480E+02  0.6454E+02
     -3.859  0.2402E+02  0.2115E+02  0.6627E+02  0.6582E+02
     -3.798  0.8017E+01  0.1273E+02  0.6675E+02  0.6660E+02
     -3.737  0.2392E+02  0.2401E+02  0.6821E+02  0.6806E+02
     -3.676  0.1538E+02  0.1154E+02  0.6915E+02  0.6876E+02
     -3.615  0.8441E+01  0.1080E+02  0.6966E+02  0.6942E+02
     -3.555  0.1167E+02  0.1408E+02  0.7037E+02  0.7028E+02
     -3.494  0.1682E+02  0.1185E+02  0.7140E+02  0.7100E+02
     -3.433  0.1544E+02  0.1849E+02  0.7234E+02  0.7213E+02
     -3.372  0.1175E+02  0.1055E+02  0.7305E+02  0.7277E+02
     -3.311  0.2094E+02  0.1928E+02  0.7433E+02  0.7394E+02
     -3.250  0.1624E+02  0.1968E+02  0.7531E+02  0.7514E+02
     -3.189  0.1515E+02  0.1389E+02  0.7624E+02  0.7599E+02
     -3.128  0.1246E+02  0.1266E+02  0.7700E+02  0.7676E+02
     -3.068  0.1232E+02  0.1157E+02  0.7775E+02  0.7746E+02
     -3.007  0.9946E+01  0.1077E+02  0.7835E+02  0.7812E+02
     -2.946  0.7890E+01  0.1064E+02  0.7883E+02  0.7876E+02
     -2.885  0.3763E+01  0.3845E+01  0.7906E+02  0.7900E+02
     -2.824  0.9546E+01  0.6600E+01  0.7964E+02  0.7940E+02
     -2.763  0.1188E+02  0.9703E+01  0.8037E+02  0.7999E+02
     -2.702  0.1125E+02  0.1555E+02  0.8105E+02  0.8094E+02
     -2.641  0.4136E+01  0.5571E+01  0.8130E+02  0.8128E+02
     -2.580  0.6502E+01  0.3546E+01  0.8170E+02  0.8149E+02
     -2.520  0.8862E+01  0.9142E+01  0.8224E+02  0.8205E+02
     -2.459  0.4634E+01  0.7384E+01  0.8252E+02  0.8250E+02
     -2.398  0.1667E+02  0.1271E+02  0.8354E+02  0.8327E+02
     -2.337  0.1093E+02  0.1260E+02  0.8420E+02  0.8404E+02
     -2.276  0.1177E+02  0.1142E+02  0.8492E+02  0.8474E+02
     -2.215  0.6364E+01  0.7795E+01  0.8531E+02  0.8521E+02
     -2.154  0.5082E+01  0.4409E+01  0.8561E+02  0.8548E+02
     -2.093  0.5844E+01  0.4980E+01  0.8597E+02  0.8578E+02
     -2.033  0.1264E+02  0.1290E+02  0.8674E+02  0.8657E+02
     -1.972  0.1938E+02  0.1820E+02  0.8792E+02  0.8768E+02
     -1.911  0.5350E+01  0.7169E+01  0.8825E+02  0.8811E+02
     -1.850  0.3790E+01  0.5143E+01  0.8848E+02  0.8843E+02
     -1.789  0.6992E+01  0.6821E+01  0.8890E+02  0.8884E+02
     -1.728  0.8768E+01  0.5512E+01  0.8944E+02  0.8918E+02
     -1.667  0.3833E+01  0.8050E+01  0.8967E+02  0.8967E+02
     -1.606  0.9079E+01  0.8264E+01  0.9022E+02  0.9017E+02
     -1.545  0.9102E+01  0.7191E+01  0.9078E+02  0.9061E+02
     -1.485  0.3467E+01  0.4648E+01  0.9099E+02  0.9089E+02
     -1.424  0.6582E+01  0.5846E+01  0.9139E+02  0.9125E+02
     -1.363  0.1830E+01  0.4160E+01  0.9150E+02  0.9150E+02
     -1.302  0.1847E-10  0.0000E+00  0.9150E+02  0.9150E+02
     -1.241  0.1916E+01  0.4122E+00  0.9162E+02  0.9153E+02
     -1.180  0.1810E+02  0.1187E+02  0.9272E+02  0.9225E+02
     -1.119  0.9110E+01  0.1245E+02  0.9327E+02  0.9301E+02
     -1.058  0.1328E+02  0.1514E+02  0.9408E+02  0.9393E+02
     -0.998  0.1503E+02  0.1308E+02  0.9500E+02  0.9472E+02
     -0.937  0.2814E+02  0.2321E+02  0.9671E+02  0.9614E+02
     -0.876  0.1258E+02  0.1834E+02  0.9748E+02  0.9725E+02
     -0.815  0.4032E+01  0.5943E+01  0.9772E+02  0.9762E+02
     -0.754  0.2651E+02  0.1864E+02  0.9934E+02  0.9875E+02
     -0.693  0.2562E+02  0.2701E+02  0.1009E+03  0.1004E+03
     -0.632  0.8515E+01  0.1515E+02  0.1014E+03  0.1013E+03
     -0.571  0.1754E+02  0.1433E+02  0.1025E+03  0.1022E+03
     -0.510  0.2077E+02  0.2061E+02  0.1037E+03  0.1034E+03
     -0.450  0.1898E+02  0.1610E+02  0.1049E+03  0.1044E+03
     -0.389  0.2401E+02  0.2500E+02  0.1064E+03  0.1059E+03
     -0.328  0.2567E+02  0.2531E+02  0.1079E+03  0.1075E+03
     -0.267  0.2497E+02  0.2535E+02  0.1094E+03  0.1090E+03
     -0.206  0.3375E+02  0.3414E+02  0.1115E+03  0.1111E+03
     -0.145  0.2656E+02  0.2665E+02  0.1131E+03  0.1127E+03
     -0.084  0.2712E+02  0.2717E+02  0.1148E+03  0.1144E+03
     -0.023  0.1471E+02  0.1603E+02  0.1157E+03  0.1154E+03
      0.037  0.3108E+02  0.2785E+02  0.1176E+03  0.1171E+03
      0.098  0.2567E+02  0.2596E+02  0.1191E+03  0.1186E+03
      0.159  0.1510E+02  0.1867E+02  0.1200E+03  0.1198E+03
      0.220  0.3095E+02  0.2844E+02  0.1219E+03  0.1215E+03
      0.281  0.1513E+02  0.1551E+02  0.1228E+03  0.1225E+03
      0.342  0.2074E+02  0.1984E+02  0.1241E+03  0.1237E+03
      0.403  0.2450E+02  0.2513E+02  0.1256E+03  0.1252E+03
      0.464  0.3069E+02  0.3193E+02  0.1275E+03  0.1271E+03
      0.525  0.1643E+02  0.1573E+02  0.1285E+03  0.1281E+03
      0.585  0.2150E+02  0.2030E+02  0.1298E+03  0.1293E+03
      0.646  0.2955E+02  0.3073E+02  0.1316E+03  0.1312E+03
      0.707  0.2920E+02  0.2790E+02  0.1334E+03  0.1329E+03
      0.768  0.2685E+02  0.2618E+02  0.1350E+03  0.1345E+03
      0.829  0.3166E+02  0.3357E+02  0.1369E+03  0.1365E+03
      0.890  0.2691E+02  0.2787E+02  0.1386E+03  0.1382E+03
      0.951  0.2674E+02  0.2021E+02  0.1402E+03  0.1395E+03
      1.012  0.3262E+02  0.3489E+02  0.1422E+03  0.1416E+03
      1.072  0.2467E+02  0.2819E+02  0.1437E+03  0.1433E+03
      1.133  0.2952E+02  0.2955E+02  0.1455E+03  0.1451E+03
      1.194  0.3115E+02  0.3171E+02  0.1474E+03  0.1470E+03
      1.255  0.3266E+02  0.2794E+02  0.1494E+03  0.1487E+03
      1.316  0.3001E+02  0.3376E+02  0.1512E+03  0.1508E+03
      1.377  0.1571E+02  0.1756E+02  0.1521E+03  0.1519E+03
      1.438  0.1651E+02  0.1354E+02  0.1531E+03  0.1527E+03
      1.499  0.1629E+02  0.2061E+02  0.1541E+03  0.1539E+03
      1.560  0.2411E+02  0.2048E+02  0.1556E+03  0.1552E+03
      1.620  0.2017E+02  0.2395E+02  0.1568E+03  0.1566E+03
      1.681  0.2042E+02  0.1973E+02  0.1581E+03  0.1578E+03
      1.742  0.2098E+02  0.2144E+02  0.1594E+03  0.1592E+03
      1.803  0.1538E+02  0.1642E+02  0.1603E+03  0.1602E+03
      1.864  0.3060E+02  0.2186E+02  0.1622E+03  0.1615E+03
      1.925  0.1363E+02  0.1854E+02  0.1630E+03  0.1626E+03
      1.986  0.1371E+02  0.1479E+02  0.1638E+03  0.1635E+03
      2.047  0.2535E+02  0.2093E+02  0.1654E+03  0.1648E+03
      2.107  0.1822E+02  0.1966E+02  0.1665E+03  0.1660E+03
      2.168  0.3366E+02  0.3634E+02  0.1685E+03  0.1682E+03
      2.229  0.1281E+02  0.1093E+02  0.1693E+03  0.1689E+03
      2.290  0.2866E+02  0.2278E+02  0.1710E+03  0.1703E+03
      2.351  0.2084E+02  0.2689E+02  0.1723E+03  0.1719E+03
      2.412  0.2041E+02  0.2378E+02  0.1736E+03  0.1733E+03
      2.473  0.2359E+02  0.1840E+02  0.1750E+03  0.1745E+03
      2.534  0.1426E+02  0.1710E+02  0.1759E+03  0.1755E+03
      2.595  0.1345E+02  0.1191E+02  0.1767E+03  0.1762E+03
      2.655  0.1487E+02  0.1499E+02  0.1776E+03  0.1771E+03
      2.716  0.2143E+02  0.1759E+02  0.1789E+03  0.1782E+03
      2.777  0.3727E+02  0.3062E+02  0.1812E+03  0.1801E+03
      2.838  0.1662E+02  0.2572E+02  0.1822E+03  0.1816E+03
      2.899  0.1311E+02  0.1547E+02  0.1830E+03  0.1826E+03
      2.960  0.3604E+01  0.7792E+01  0.1832E+03  0.1831E+03
      3.021  0.2809E+02  0.1197E+02  0.1849E+03  0.1838E+03
      3.082  0.1230E+02  0.2566E+02  0.1857E+03  0.1853E+03
      3.142  0.1066E+02  0.1115E+02  0.1863E+03  0.1860E+03
      3.203  0.8044E+01  0.6789E+01  0.1868E+03  0.1864E+03
      3.264  0.1608E+02  0.1077E+02  0.1878E+03  0.1871E+03
      3.325  0.2026E+02  0.2234E+02  0.1890E+03  0.1885E+03
      3.386  0.1087E+02  0.1509E+02  0.1897E+03  0.1894E+03
      3.447  0.1342E+02  0.8439E+01  0.1905E+03  0.1899E+03
      3.508  0.2379E+02  0.1363E+02  0.1919E+03  0.1907E+03
      3.569  0.1611E+02  0.2960E+02  0.1929E+03  0.1925E+03
      3.630  0.1213E+02  0.1160E+02  0.1937E+03  0.1932E+03
      3.690  0.1013E+02  0.1002E+02  0.1943E+03  0.1938E+03
      3.751  0.2584E+02  0.1485E+02  0.1958E+03  0.1947E+03
      3.812  0.2518E+02  0.2902E+02  0.1974E+03  0.1965E+03
      3.873  0.9461E+01  0.1881E+02  0.1980E+03  0.1977E+03
      3.934  0.1360E+02  0.1193E+02  0.1988E+03  0.1984E+03
      3.995  0.9465E+01  0.1235E+02  0.1994E+03  0.1991E+03
      4.056  0.5132E+01  0.8755E+01  0.1997E+03  0.1997E+03
      4.117  0.6069E+01  0.2390E+01  0.2000E+03  0.1998E+03
      4.177  0.2750E+02  0.1661E+02  0.2017E+03  0.2008E+03
      4.238  0.1866E+02  0.2497E+02  0.2028E+03  0.2023E+03
      4.299  0.1206E+02  0.1573E+02  0.2036E+03  0.2033E+03
      4.360  0.1422E+02  0.8723E+01  0.2044E+03  0.2038E+03
      4.421  0.1109E+02  0.1801E+02  0.2051E+03  0.2049E+03
      4.482  0.1045E+02  0.9494E+01  0.2058E+03  0.2055E+03
      4.543  0.1821E+02  0.1131E+02  0.2069E+03  0.2062E+03
      4.604  0.1601E+02  0.2516E+02  0.2078E+03  0.2077E+03
      4.665  0.1223E+02  0.9427E+01  0.2086E+03  0.2083E+03
      4.725  0.1213E+02  0.1249E+02  0.2093E+03  0.2091E+03
      4.786  0.2000E+02  0.1761E+02  0.2105E+03  0.2101E+03
      4.847  0.1578E+02  0.1557E+02  0.2115E+03  0.2111E+03
      4.908  0.2362E+02  0.2609E+02  0.2129E+03  0.2127E+03
      4.969  0.1224E+02  0.1303E+02  0.2137E+03  0.2135E+03
      5.030  0.2691E+02  0.2537E+02  0.2153E+03  0.2150E+03
      5.091  0.2425E+02  0.2365E+02  0.2168E+03  0.2164E+03
      5.152  0.1634E+02  0.1810E+02  0.2178E+03  0.2175E+03
      5.212  0.2178E+02  0.1959E+02  0.2191E+03  0.2187E+03
      5.273  0.2622E+02  0.2529E+02  0.2207E+03  0.2203E+03
      5.334  0.2361E+02  0.2354E+02  0.2222E+03  0.2217E+03
      5.395  0.2188E+02  0.2238E+02  0.2235E+03  0.2231E+03
      5.456  0.2211E+02  0.2271E+02  0.2248E+03  0.2245E+03
      5.517  0.1962E+02  0.2003E+02  0.2260E+03  0.2257E+03
      5.578  0.2052E+02  0.2119E+02  0.2273E+03  0.2270E+03
      5.639  0.2205E+02  0.1425E+02  0.2286E+03  0.2278E+03
      5.699  0.1842E+02  0.2626E+02  0.2297E+03  0.2294E+03
      5.760  0.1924E+02  0.1640E+02  0.2309E+03  0.2304E+03
      5.821  0.9653E+01  0.1575E+02  0.2315E+03  0.2314E+03
      5.882  0.5445E+01  0.6295E+01  0.2318E+03  0.2318E+03
      5.943  0.1415E+01  0.1819E+01  0.2319E+03  0.2319E+03
      6.004  0.1286E+01  0.1823E+01  0.2320E+03  0.2320E+03
      6.065  0.0000E+00  0.0000E+00  0.2320E+03  0.2320E+03
      6.126  0.0000E+00  0.0000E+00  0.2320E+03  0.2320E+03
      6.187  0.0000E+00  0.0000E+00  0.2320E+03  0.2320E+03
      6.247  0.0000E+00  0.0000E+00  0.2320E+03  0.2320E+03
      6.308  0.0000E+00  0.0000E+00  0.2320E+03  0.2320E+03
      6.369  0.0000E+00  0.0000E+00  0.2320E+03  0.2320E+03
      6.430  0.0000E+00  0.0000E+00  0.2320E+03  0.2320E+03
      6.491  0.0000E+00  0.0000E+00  0.2320E+03  0.2320E+03
      6.552  0.0000E+00  0.0000E+00  0.2320E+03  0.2320E+03
      6.613  0.0000E+00  0.0000E+00  0.2320E+03  0.2320E+03
      6.674  0.0000E+00  0.0000E+00  0.2320E+03  0.2320E+03
      6.734  0.0000E+00  0.0000E+00  0.2320E+03  0.2320E+03
      6.795  0.0000E+00  0.0000E+00  0.2320E+03  0.2320E+03
