       N       E                     dE             d eps       ncg     rms          rms(c)
DAV:   1     0.248598760778E+04    0.24860E+04   -0.27509E+05 12032   0.171E+03
DAV:   2    -0.446809437839E+03   -0.29328E+04   -0.28303E+04 14072   0.213E+02
DAV:   3    -0.721537708699E+03   -0.27473E+03   -0.26426E+03 15144   0.568E+01
DAV:   4    -0.732474353174E+03   -0.10937E+02   -0.10693E+02 14352   0.119E+01
DAV:   5    -0.732910192449E+03   -0.43584E+00   -0.43229E+00 16312   0.240E+00    0.361E+01
DAV:   6    -0.718946933902E+03    0.13963E+02   -0.37133E+01 14224   0.880E+00    0.163E+01
DAV:   7    -0.720501528719E+03   -0.15546E+01   -0.27765E+01 15144   0.897E+00    0.929E+00
DAV:   8    -0.717823184790E+03    0.26783E+01   -0.10393E+01 15592   0.611E+00    0.357E+00
DAV:   9    -0.717741904043E+03    0.81281E-01   -0.20879E+00 14104   0.219E+00    0.188E+00
DAV:  10    -0.717722701535E+03    0.19203E-01   -0.43219E-01 13808   0.948E-01    0.103E+00
DAV:  11    -0.717716212891E+03    0.64886E-02   -0.11117E-01 14000   0.523E-01    0.518E-01
DAV:  12    -0.717714305984E+03    0.19069E-02   -0.27233E-02 14360   0.295E-01    0.313E-01
DAV:  13    -0.717713888377E+03    0.41761E-03   -0.70913E-03 14288   0.153E-01    0.189E-01
DAV:  14    -0.717713812707E+03    0.75671E-04   -0.25007E-03 14368   0.923E-02    0.990E-02
DAV:  15    -0.717713824562E+03   -0.11856E-04   -0.87808E-04 14280   0.513E-02    0.397E-02
DAV:  16    -0.717713807379E+03    0.17183E-04   -0.21276E-04 14104   0.245E-02    0.239E-02
DAV:  17    -0.717713807345E+03    0.33633E-07   -0.73892E-05 13800   0.117E-02    0.143E-02
DAV:  18    -0.717713809640E+03   -0.22945E-05   -0.15968E-05 14024   0.576E-03    0.611E-03
DAV:  19    -0.717713809996E+03   -0.35649E-06   -0.36333E-06 14072   0.302E-03    0.364E-03
DAV:  20    -0.717713810161E+03   -0.16443E-06   -0.91491E-07 13776   0.152E-03    0.232E-03
DAV:  21    -0.717713810438E+03   -0.27729E-06   -0.27793E-07  9040   0.778E-04    0.125E-03
DAV:  22    -0.717713810585E+03   -0.14737E-06   -0.11176E-07  7264   0.516E-04    0.822E-04
DAV:  23    -0.717713810630E+03   -0.45191E-07   -0.53085E-08  6976   0.340E-04
   1 F= -.71771381E+03 E0= -.71771236E+03  d E =-.290970E-02  mag=     1.0000
