 vasp.6.4.3 19Mar24 (build Oct 22 2024 11:23:12) complex                        
  
 executed on             LinuxIFC date 2025.06.12  04:46:46
 running   64 mpi-ranks, on    4 nodes
 distrk:  each k-point on   64 cores,    1 groups
 distr:  one band on NCORE=  16 cores,    4 groups


--------------------------------------------------------------------------------------------------------


 INCAR:
   SYSTEM = Si and Ge interface calculation
   ISTART = 0
   ICHARG = 2
   LWAVE = .FALSE.
   LREAL = AUTO
   ENCUT = 700
   ENAUG = 900
   ADDGRID = .TRUE.
   LMAXMIX = 6
   LASPH = .TRUE.
   LMIXTAU = .TRUE.
   NCORE = 16
   NELM = 100
   NBANDS = 634
   EDIFF = 1d-7
   AMIX = 0.6
   ISMEAR = 0
   SIGMA = 0.01
   NELECT = 1056
   ISPIN = 2
   NUPDOWN = 1
   LVTOT = .FALSE.
   LVHAR = .TRUE.

 POTCAR:    PAW_PBE Sn 08Apr2002                  
 POTCAR:    PAW_PBE Si 05Jan2001                  
 -----------------------------------------------------------------------------
|                                                                             |
|           W    W    AA    RRRRR   N    N  II  N    N   GGGG   !!!           |
|           W    W   A  A   R    R  NN   N  II  NN   N  G    G  !!!           |
|           W    W  A    A  R    R  N N  N  II  N N  N  G       !!!           |
|           W WW W  AAAAAA  RRRRR   N  N N  II  N  N N  G  GGG   !            |
|           WW  WW  A    A  R   R   N   NN  II  N   NN  G    G                |
|           W    W  A    A  R    R  N    N  II  N    N   GGGG   !!!           |
|                                                                             |
|     You use a magnetic or noncollinear calculation, but did not specify     |
|     the initial magnetic moment with the MAGMOM tag. Note that a            |
|     default of 3.788e-3 will be used for all atoms. This ferromagnetic      |
|     setup may break the symmetry of the crystal, in particular it may       |
|     rule out finding an antiferromagnetic solution. Thence, we              |
|     recommend setting the initial magnetic moment manually or verifying     |
|     carefully that this magnetic setup is desired.                          |
|                                                                             |
 -----------------------------------------------------------------------------

 POTCAR:    PAW_PBE Sn 08Apr2002                  
   VRHFIN =Sn: s2p2                                                                                 
   LEXCH  = PE                                                                                      
   EATOM  =    94.0860 eV,    6.9151 Ry                                                             
                                                                                                    
   TITEL  = PAW_PBE Sn 08Apr2002                                                                    
   LULTRA =        F    use ultrasoft PP ?                                                          
   IUNSCR =        1    unscreen: 0-lin 1-nonlin 2-no                                               
   RPACOR =    2.000    partial core radius                                                         
   POMASS =  118.710; ZVAL   =    4.000    mass and valenz                                          
   RCORE  =    3.000    outmost cutoff radius                                                       
   RWIGS  =    2.960; RWIGS  =    1.566    wigner-seitz radius (au A)                               
   ENMAX  =  103.236; ENMIN  =   77.427 eV                                                          
   ICORE  =        3    local potential                                                             
   LCOR   =        T    correct aug charges                                                         
   LPAW   =        T    paw PP                                                                      
   EAUG   =  263.585                                                                                
   DEXC   =    0.000                                                                                
   RMAX   =    3.078    core radius for proj-oper                                                   
   RAUG   =    1.300    factor for augmentation sphere                                              
   RDEP   =    3.022    radius for radial grids                                                     
   RDEPT  =    2.655    core radius for aug-charge                                                  
                                                                                                    
   Atomic configuration                                                                             
   13 entries                                                                                       
     n  l   j            E        occ.                                                              
     1  0  0.50    -29007.2859   2.0000                                                             
     2  0  0.50     -4378.8056   2.0000                                                             
     2  1  1.50     -3930.4293   6.0000                                                             
     3  0  0.50      -845.0264   2.0000                                                             
     3  1  1.50      -698.5725   6.0000                                                             
     3  2  2.50      -473.2839  10.0000                                                             
     4  0  0.50      -133.9036   2.0000                                                             
     4  1  1.50       -89.6752   6.0000                                                             
     4  2  2.50       -25.8375  10.0000                                                             
     5  0  0.50       -10.5484   2.0000                                                             
     5  1  0.50        -3.6940   2.0000                                                             
     5  2  1.50        -1.3606   0.0000                                                             
     4  3  2.50        -4.0817   0.0000                                                             
   Description                                                                                      
     l       E           TYP  RCUT    TYP  RCUT                                                     
     0    -10.5483727     23  3.000                                                                 
     0     27.2116520     23  3.000                                                                 
     1     -3.6939829     23  3.000                                                                 
     1      1.9821976     23  3.000                                                                 
     2     -1.3605826     23  3.000                                                                 
     3     -2.7211652     23  3.000                                                                 
  local pseudopotential read in
  partial core-charges read in
  partial kinetic energy density read in
  atomic valenz-charges read in
  non local Contribution for L=           0  read in
    real space projection operators read in
  non local Contribution for L=           0  read in
    real space projection operators read in
  non local Contribution for L=           1  read in
    real space projection operators read in
  non local Contribution for L=           1  read in
    real space projection operators read in
  non local Contribution for L=           2  read in
    real space projection operators read in
    PAW grid and wavefunctions read in
 
   number of l-projection  operators is LMAX  =           5
   number of lm-projection operators is LMMAX =          13
 
 POTCAR:    PAW_PBE Si 05Jan2001                  
   VRHFIN =Si: s2p2                                                                                 
   LEXCH  = PE                                                                                      
   EATOM  =   103.0669 eV,    7.5752 Ry                                                             
                                                                                                    
   TITEL  = PAW_PBE Si 05Jan2001                                                                    
   LULTRA =        F    use ultrasoft PP ?                                                          
   IUNSCR =        1    unscreen: 0-lin 1-nonlin 2-no                                               
   RPACOR =    1.500    partial core radius                                                         
   POMASS =   28.085; ZVAL   =    4.000    mass and valenz                                          
   RCORE  =    1.900    outmost cutoff radius                                                       
   RWIGS  =    2.480; RWIGS  =    1.312    wigner-seitz radius (au A)                               
   ENMAX  =  245.345; ENMIN  =  184.009 eV                                                          
   ICORE  =        2    local potential                                                             
   LCOR   =        T    correct aug charges                                                         
   LPAW   =        T    paw PP                                                                      
   EAUG   =  322.069                                                                                
   DEXC   =    0.000                                                                                
   RMAX   =    1.950    core radius for proj-oper                                                   
   RAUG   =    1.300    factor for augmentation sphere                                              
   RDEP   =    1.993    radius for radial grids                                                     
   RDEPT  =    1.837    core radius for aug-charge                                                  
                                                                                                    
   Atomic configuration                                                                             
    6 entries                                                                                       
     n  l   j            E        occ.                                                              
     1  0  0.50     -1785.8828   2.0000                                                             
     2  0  0.50      -139.4969   2.0000                                                             
     2  1  1.50       -95.5546   6.0000                                                             
     3  0  0.50       -10.8127   2.0000                                                             
     3  1  0.50        -4.0811   2.0000                                                             
     3  2  1.50        -4.0817   0.0000                                                             
   Description                                                                                      
     l       E           TYP  RCUT    TYP  RCUT                                                     
     0    -10.8127223     23  1.900                                                                 
     0     -7.6451159     23  1.900                                                                 
     1     -4.0811372     23  1.900                                                                 
     1      2.4879257     23  1.900                                                                 
     2     -4.0817478      7  1.900                                                                 
  local pseudopotential read in
  partial core-charges read in
  partial kinetic energy density read in
  atomic valenz-charges read in
  non local Contribution for L=           0  read in
    real space projection operators read in
  non local Contribution for L=           0  read in
    real space projection operators read in
  non local Contribution for L=           1  read in
    real space projection operators read in
  non local Contribution for L=           1  read in
    real space projection operators read in
    PAW grid and wavefunctions read in
 
   number of l-projection  operators is LMAX  =           4
   number of lm-projection operators is LMMAX =           8
 
 Optimization of the real space projectors (new method)

 maximal supplied QI-value         = 12.47
 optimisation between [QCUT,QGAM] = [ 12.47, 27.06] = [ 43.56,205.12] Ry 
 Optimized for a Real-space Cutoff    1.58 Angstroem

   l    n(q)    QCUT    max X(q) W(low)/X(q) W(high)/X(q)  e(spline) 
   0     13    12.472    14.688    0.45E-04    0.45E-04    0.25E-05
   0     13    12.472     7.308    0.94E-04    0.11E-03    0.61E-05
   1     12    12.472    45.102    0.34E-03    0.14E-03    0.21E-05
   1     12    12.472    30.691    0.31E-03    0.13E-03    0.20E-05
   2     12    12.472     7.156    0.86E-04    0.11E-03    0.17E-05
 WARNING: PSMAXN for non-local potential too small
          PSMAXN should be >   13.5545592237991       NTYP=           1
 Optimization of the real space projectors (new method)

 maximal supplied QI-value         = 19.84
 optimisation between [QCUT,QGAM] = [ 13.49, 26.99] = [ 50.98,203.92] Ry 
 Optimized for a Real-space Cutoff    1.07 Angstroem

   l    n(q)    QCUT    max X(q) W(low)/X(q) W(high)/X(q)  e(spline) 
   0      9    13.493   159.560    0.22E-03    0.15E-03    0.72E-07
   0      9    13.493   115.863    0.21E-03    0.15E-03    0.71E-07
   1      8    13.493    88.339    0.15E-03    0.11E-03    0.13E-06
   1      8    13.493    48.592    0.15E-03    0.10E-03    0.13E-06
  PAW_PBE Sn 08Apr2002                  :
 energy of atom  1       EATOM=  -94.0860
 kinetic energy error for atom=    0.0000 (will be added to EATOM!!)
  PAW_PBE Si 05Jan2001                  :
 energy of atom  2       EATOM= -103.0669
 kinetic energy error for atom=    0.0003 (will be added to EATOM!!)
 
 
 POSCAR: Sn+Si
  positions in direct lattice
  No initial velocities read in


 exchange-correlation table for PE
   RHO(1)=    0.500       N(1)  =     2000
   RHO(2)=  100.500       N(2)  =     4000
 


--------------------------------------------------------------------------------------------------------


 ion  position               nearest neighbor table
   1  0.995  0.667  0.000-  31 2.81 100 2.81 174 2.97 255 3.04
   2  0.828  0.667  0.168-  49 2.81  32 2.81 101 2.81 100 2.81
   3  0.662  0.667  0.336-  50 2.81  33 2.81 101 2.81 102 2.81
   4  0.995  0.333  0.000- 243 2.37  34 2.81 103 2.81
   5  0.828  0.333  0.168-  52 2.81  35 2.81 104 2.81 103 2.81
   6  0.662  0.333  0.336-  53 2.81  36 2.81 104 2.81 105 2.81
   7  0.995  0.000  0.000-  28 2.81 106 2.81 258 2.91 183 3.03
   8  0.828  0.000  0.168-  46 2.81  29 2.81 107 2.81 106 2.81
   9  0.662  0.000  0.336-  47 2.81  30 2.81 107 2.81 108 2.81
  10  0.328  0.667  0.000- 165 2.34  40 2.81  82 2.81
  11  0.162  0.667  0.168-  41 2.81  31 2.81  83 2.81  82 2.81
  12  0.995  0.667  0.336-  42 2.81  32 2.81  83 2.81  84 2.81
  13  0.328  0.333  0.000-  43 2.81  85 2.81 153 3.40
  14  0.162  0.333  0.168-  86 2.81  44 2.81  34 2.81  85 2.81
  15  0.995  0.333  0.336-  45 2.81  35 2.81  86 2.81  87 2.81
  16  0.328  0.000  0.000- 180 2.42  37 2.81  88 2.81
  17  0.162  0.000  0.168-  38 2.81  28 2.81  89 2.81  88 2.81
  18  0.995  0.000  0.336-  39 2.81  29 2.81  89 2.81  90 2.81
  19  0.662  0.667  0.000-  49 2.81  91 2.81 159 2.94 237 3.05
  20  0.495  0.667  0.168-  92 2.81  40 2.81  50 2.81  91 2.81
  21  0.328  0.667  0.336-  51 2.81  41 2.81  93 2.81  92 2.81
  22  0.662  0.333  0.000- 228 2.39  94 2.81  52 2.81
  23  0.495  0.333  0.168-  95 2.81  43 2.81  53 2.81  94 2.81
  24  0.328  0.333  0.336-  54 2.81  96 2.81  44 2.81  95 2.81
  25  0.662  0.000  0.000-  46 2.81  97 2.81 240 2.93 171 3.00
  26  0.495  0.000  0.168-  98 2.81  37 2.81  47 2.81  97 2.81
  27  0.328  0.000  0.336-  48 2.81  38 2.81  99 2.81  98 2.81
  28  0.078  0.917  0.084-  17 2.81   7 2.81  55 2.81  56 2.81
  29  0.912  0.917  0.252-   8 2.81  18 2.81  56 2.81  57 2.81
  30  0.745  0.917  0.420-   9 2.81  57 2.81 208 2.97 139 3.04
  31  0.078  0.583  0.084-  11 2.81   1 2.81  58 2.81  59 2.81
  32  0.912  0.583  0.252-   2 2.81  12 2.81  59 2.81  60 2.81
  33  0.745  0.583  0.420- 121 2.37   3 2.81  60 2.81
  34  0.078  0.250  0.084-  14 2.81  61 2.81   4 2.81  62 2.81
  35  0.912  0.250  0.252-  62 2.81   5 2.81  15 2.81  63 2.81
  36  0.745  0.250  0.420-   6 2.81  63 2.81 109 2.91 190 3.03
  37  0.412  0.917  0.084-  16 2.81  26 2.81  64 2.81  65 2.81
  38  0.245  0.917  0.252-  17 2.81  27 2.81  65 2.81  66 2.81
  39  0.078  0.917  0.420- 223 2.34  18 2.81  66 2.81
  40  0.412  0.583  0.084-  10 2.81  20 2.81  67 2.81  68 2.81
  41  0.245  0.583  0.252-  11 2.81  21 2.81  68 2.81  69 2.81
  42  0.078  0.583  0.420-  12 2.81  69 2.81 214 3.40
  43  0.412  0.250  0.084-  13 2.81  70 2.81  71 2.81  23 2.81
  44  0.245  0.250  0.252-  71 2.81  14 2.81  72 2.81  24 2.81
  45  0.078  0.250  0.420- 187 2.42  15 2.81  72 2.81
  46  0.745  0.917  0.084-   8 2.81  25 2.81  74 2.81  73 2.81
  47  0.578  0.917  0.252-   9 2.81  26 2.81  74 2.81  75 2.81
  48  0.412  0.917  0.420-  27 2.81  75 2.81 220 2.94 145 3.05
  49  0.745  0.583  0.084-   2 2.81  19 2.81  77 2.81  76 2.81
  50  0.578  0.583  0.252-   3 2.81  20 2.81  77 2.81  78 2.81
  51  0.412  0.583  0.420- 133 2.39  21 2.81  78 2.81
  52  0.745  0.250  0.084-   5 2.81  80 2.81  79 2.81  22 2.81
  53  0.578  0.250  0.252-  80 2.81   6 2.81  23 2.81  81 2.81
  54  0.412  0.250  0.420-  24 2.81  81 2.81 115 2.93 202 3.00
  55  0.162  0.833  0.000- 177 2.39  82 2.81  28 2.81
  56  0.995  0.833  0.168- 100 2.81  83 2.81  29 2.81  28 2.81
  57  0.828  0.833  0.336-  84 2.81 101 2.81  30 2.81  29 2.81
  58  0.162  0.500  0.000-  85 2.81  31 2.81 162 2.93 246 3.00
  59  0.995  0.500  0.168- 103 2.81  86 2.81  32 2.81  31 2.81
  60  0.828  0.500  0.336-  87 2.81 104 2.81  33 2.81  32 2.81
  61  0.162  0.167  0.000-  88 2.81  34 2.81 261 2.94 186 3.05
  62  0.995  0.167  0.168-  35 2.81 106 2.81  89 2.81  34 2.81
  63  0.828  0.167  0.336-  90 2.81  36 2.81  35 2.81 107 2.81
  64  0.495  0.833  0.000- 168 2.37  91 2.81  37 2.81
  65  0.328  0.833  0.168-  82 2.81  92 2.81  38 2.81  37 2.81
  66  0.162  0.833  0.336-  83 2.81  93 2.81  39 2.81  38 2.81
  67  0.495  0.500  0.000-  94 2.81  40 2.81 156 2.91 234 3.03
  68  0.328  0.500  0.168-  85 2.81  95 2.81  41 2.81  40 2.81
  69  0.162  0.500  0.336-  86 2.81  96 2.81  42 2.81  41 2.81
  70  0.495  0.167  0.000-  43 2.81  97 2.81 252 2.97 153 3.04
  71  0.328  0.167  0.168-  44 2.81  88 2.81  43 2.81  98 2.81
  72  0.162  0.167  0.336-  89 2.81  45 2.81  44 2.81  99 2.81
  73  0.828  0.833  0.000- 100 2.81  46 2.81 255 3.40
  74  0.662  0.833  0.168- 101 2.81  91 2.81  47 2.81  46 2.81
  75  0.495  0.833  0.336- 102 2.81  92 2.81  47 2.81  48 2.81
  76  0.828  0.500  0.000- 231 2.42 103 2.81  49 2.81
  77  0.662  0.500  0.168- 104 2.81  94 2.81  50 2.81  49 2.81
  78  0.495  0.500  0.336- 105 2.81  95 2.81  50 2.81  51 2.81
  79  0.828  0.167  0.000- 264 2.34 106 2.81  52 2.81
  80  0.662  0.167  0.168- 107 2.81  53 2.81  52 2.81  97 2.81
  81  0.495  0.167  0.336- 108 2.81  98 2.81  53 2.81  54 2.81
  82  0.245  0.750  0.084-  55 2.81  65 2.81  11 2.81  10 2.81
  83  0.078  0.750  0.252-  56 2.81  66 2.81  11 2.81  12 2.81
  84  0.912  0.750  0.420-  57 2.81  12 2.81 196 2.93 124 3.00
  85  0.245  0.417  0.084-  58 2.81  68 2.81  14 2.81  13 2.81
  86  0.078  0.417  0.252-  59 2.81  14 2.81  69 2.81  15 2.81
  87  0.912  0.417  0.420-  60 2.81  15 2.81 112 2.94 193 3.05
  88  0.245  0.083  0.084-  61 2.81  71 2.81  17 2.81  16 2.81
  89  0.078  0.083  0.252-  17 2.81  62 2.81  72 2.81  18 2.81
  90  0.912  0.083  0.420- 211 2.39  63 2.81  18 2.81
  91  0.578  0.750  0.084-  64 2.81  74 2.81  19 2.81  20 2.81
  92  0.412  0.750  0.252-  20 2.81  65 2.81  75 2.81  21 2.81
  93  0.245  0.750  0.420-  66 2.81  21 2.81 217 2.91 142 3.03
  94  0.578  0.417  0.084-  67 2.81  77 2.81  22 2.81  23 2.81
  95  0.412  0.417  0.252-  23 2.81  68 2.81  78 2.81  24 2.81
  96  0.245  0.417  0.420-  69 2.81  24 2.81 130 2.97 214 3.04
  97  0.578  0.083  0.084-  25 2.81  70 2.81  80 2.81  26 2.81
  98  0.412  0.083  0.252-  26 2.81  71 2.81  81 2.81  27 2.81
  99  0.245  0.083  0.420- 199 2.37  27 2.81  72 2.81
 100  0.912  0.750  0.084-  73 2.81  56 2.81   2 2.81   1 2.81
 101  0.745  0.750  0.252-  74 2.81  57 2.81   2 2.81   3 2.81
 102  0.578  0.750  0.420- 136 2.42  75 2.81   3 2.81
 103  0.912  0.417  0.084-  76 2.81  59 2.81   5 2.81   4 2.81
 104  0.745  0.417  0.252-  77 2.81   5 2.81  60 2.81   6 2.81
 105  0.578  0.417  0.420- 118 2.34  78 2.81   6 2.81
 106  0.912  0.083  0.084-  79 2.81  62 2.81   8 2.81   7 2.81
 107  0.745  0.083  0.252-  80 2.81   8 2.81   9 2.81  63 2.81
 108  0.578  0.083  0.420-  81 2.81   9 2.81 139 3.40
 109  0.842  0.239  0.534- 226 2.34 154 2.34  36 2.91
 110  0.727  0.316  0.675- 232 2.34 227 2.34 154 2.34 155 2.34
 111  0.612  0.393  0.816- 233 2.34 228 2.34 156 2.34 155 2.34
 112  0.996  0.470  0.534- 229 2.34 157 2.34  87 2.94
 113  0.881  0.547  0.675- 235 2.34 230 2.34 157 2.34 158 2.34
 114  0.766  0.624  0.816- 236 2.34 231 2.34 158 2.34 159 2.34
 115  0.458  0.162  0.534- 259 2.34 160 2.34  54 2.93
 116  0.342  0.239  0.675- 260 2.34 241 2.34 161 2.34 160 2.34
 117  0.227  0.316  0.816- 261 2.34 242 2.34 162 2.34 161 2.34
 118  0.612  0.393  0.534- 105 2.34 232 2.34 163 2.34
 119  0.496  0.470  0.675- 244 2.34 163 2.34 164 2.34 233 2.34
 120  0.381  0.547  0.816- 245 2.34 234 2.34 164 2.34 165 2.34
 121  0.766  0.624  0.534- 166 2.34 235 2.34  33 2.37
 122  0.650  0.701  0.675- 247 2.34 167 2.34 166 2.34 236 2.34
 123  0.535  0.778  0.816- 248 2.34 168 2.34 237 2.34 167 2.34
 124  0.919  0.854  0.534- 169 2.34 238 2.34  84 3.00
 125  0.804  0.931  0.675- 250 2.34 170 2.34 169 2.34 239 2.34
 126  0.689  0.008  0.816- 251 2.34 171 2.34 240 2.34 170 2.34
 127  0.073  0.085  0.534- 262 2.34 148 2.34
 128  0.958  0.162  0.675- 226 2.34 263 2.34 148 2.34 149 2.34
 129  0.842  0.239  0.816- 227 2.34 264 2.34 149 2.34 150 2.34
 130  0.227  0.316  0.534- 172 2.34 241 2.34  96 2.97
 131  0.112  0.393  0.675- 229 2.34 173 2.34 172 2.34 242 2.34
 132  0.996  0.470  0.816- 230 2.34 174 2.34 243 2.34 173 2.34
 133  0.381  0.547  0.534- 244 2.34 175 2.34  51 2.39
 134  0.266  0.624  0.675- 253 2.34 176 2.34 245 2.34 175 2.34
 135  0.150  0.701  0.816- 254 2.34 246 2.34 176 2.34 177 2.34
 136  0.535  0.778  0.534- 247 2.34 178 2.34 102 2.42
 137  0.419  0.854  0.675- 256 2.34 248 2.34 178 2.34 179 2.34
 138  0.304  0.931  0.816- 249 2.34 257 2.34 179 2.34 180 2.34
 139  0.689  0.008  0.534- 250 2.34 151 2.34  30 3.04 108 3.40
 140  0.573  0.085  0.675- 259 2.34 251 2.34 152 2.34 151 2.34
 141  0.458  0.162  0.816- 260 2.34 252 2.34 153 2.34 152 2.34
 142  0.150  0.701  0.534- 253 2.34 181 2.34  93 3.03
 143  0.035  0.778  0.675- 238 2.34 254 2.34 182 2.34 181 2.34
 144  0.919  0.854  0.816- 239 2.34 183 2.34 255 2.34 182 2.34
 145  0.304  0.931  0.534- 256 2.34 184 2.34  48 3.05
 146  0.189  0.008  0.675- 257 2.34 262 2.34 184 2.34 185 2.34
 147  0.073  0.085  0.816- 258 2.34 263 2.34 186 2.34 185 2.34
 148  0.054  0.181  0.605- 200 2.34 128 2.34 187 2.34 127 2.34
 149  0.939  0.258  0.745- 201 2.34 188 2.34 128 2.34 129 2.34
 150  0.823  0.335  0.886- 189 2.34 129 2.34
 151  0.669  0.104  0.605- 212 2.34 190 2.34 139 2.34 140 2.34
 152  0.554  0.181  0.745- 213 2.34 191 2.34 140 2.34 141 2.34
 153  0.439  0.258  0.886- 192 2.34 141 2.34  70 3.04  13 3.40
 154  0.823  0.335  0.605- 188 2.34 109 2.34 110 2.34 193 2.34
 155  0.708  0.412  0.745- 189 2.34 110 2.34 194 2.34 111 2.34
 156  0.592  0.489  0.886- 111 2.34 195 2.34  67 2.91
 157  0.977  0.566  0.605- 215 2.34 113 2.34 112 2.34 196 2.34
 158  0.862  0.643  0.745- 216 2.34 114 2.34 197 2.34 113 2.34
 159  0.746  0.720  0.886- 198 2.34 114 2.34  19 2.94
 160  0.439  0.258  0.605- 191 2.34 115 2.34 116 2.34 202 2.34
 161  0.323  0.335  0.745- 192 2.34 116 2.34 203 2.34 117 2.34
 162  0.208  0.412  0.886- 204 2.34 117 2.34  58 2.93
 163  0.592  0.489  0.605- 194 2.34 119 2.34 205 2.34 118 2.34
 164  0.477  0.566  0.745- 195 2.34 119 2.34 120 2.34 206 2.34
 165  0.362  0.643  0.886-  10 2.34 207 2.34 120 2.34
 166  0.746  0.720  0.605- 197 2.34 121 2.34 208 2.34 122 2.34
 167  0.631  0.797  0.745- 198 2.34 122 2.34 209 2.34 123 2.34
 168  0.516  0.874  0.886- 210 2.34 123 2.34  64 2.37
 169  0.900  0.951  0.605- 224 2.34 124 2.34 211 2.34 125 2.34
 170  0.785  0.028  0.745- 225 2.34 125 2.34 212 2.34 126 2.34
 171  0.669  0.104  0.886- 126 2.34 213 2.34  25 3.00
 172  0.208  0.412  0.605- 203 2.34 130 2.34 131 2.34 214 2.34
 173  0.092  0.489  0.745- 204 2.34 131 2.34 215 2.34 132 2.34
 174  0.977  0.566  0.886- 132 2.34 216 2.34   1 2.97
 175  0.362  0.643  0.605- 206 2.34 217 2.34 134 2.34 133 2.34
 176  0.246  0.720  0.745- 207 2.34 134 2.34 135 2.34 218 2.34
 177  0.131  0.797  0.886- 219 2.34 135 2.34  55 2.39
 178  0.516  0.874  0.605- 209 2.34 137 2.34 220 2.34 136 2.34
 179  0.400  0.951  0.745- 210 2.34 221 2.34 138 2.34 137 2.34
 180  0.285  0.028  0.886- 222 2.34 138 2.34  16 2.42
 181  0.131  0.797  0.605- 218 2.34 142 2.34 223 2.34 143 2.34
 182  0.016  0.874  0.745- 224 2.34 219 2.34 143 2.34 144 2.34
 183  0.900  0.951  0.886- 225 2.34 144 2.34   7 3.03
 184  0.285  0.028  0.605- 221 2.34 199 2.34 146 2.34 145 2.34
 185  0.169  0.104  0.745- 200 2.34 222 2.34 147 2.34 146 2.34
 186  0.054  0.181  0.886- 201 2.34 147 2.34  61 3.05
 187  0.035  0.278  0.534- 229 2.34 148 2.34  45 2.42
 188  0.919  0.354  0.675- 154 2.34 229 2.34 230 2.34 149 2.34
 189  0.804  0.431  0.816- 155 2.34 231 2.34 230 2.34 150 2.34
 190  0.650  0.201  0.534- 232 2.34 151 2.34  36 3.03
 191  0.535  0.278  0.675- 160 2.34 233 2.34 152 2.34 232 2.34
 192  0.419  0.354  0.816- 161 2.34 153 2.34 234 2.34 233 2.34
 193  0.804  0.431  0.534- 235 2.34 154 2.34  87 3.05
 194  0.689  0.508  0.675- 163 2.34 236 2.34 155 2.34 235 2.34
 195  0.573  0.585  0.816- 237 2.34 164 2.34 236 2.34 156 2.34
 196  0.958  0.662  0.534- 238 2.34 157 2.34  84 2.93
 197  0.842  0.739  0.675- 239 2.34 166 2.34 158 2.34 238 2.34
 198  0.727  0.816  0.816- 240 2.34 167 2.34 159 2.34 239 2.34
 199  0.266  0.124  0.534- 241 2.34 184 2.34  99 2.37
 200  0.150  0.201  0.675- 242 2.34 185 2.34 148 2.34 241 2.34
 201  0.035  0.278  0.816- 186 2.34 243 2.34 149 2.34 242 2.34
 202  0.419  0.354  0.534- 244 2.34 160 2.34  54 3.00
 203  0.304  0.431  0.675- 172 2.34 245 2.34 244 2.34 161 2.34
 204  0.189  0.508  0.816- 173 2.34 162 2.34 246 2.34 245 2.34
 205  0.573  0.585  0.534- 247 2.34 163 2.34
 206  0.458  0.662  0.675- 248 2.34 175 2.34 247 2.34 164 2.34
 207  0.342  0.739  0.816- 249 2.34 176 2.34 165 2.34 248 2.34
 208  0.727  0.816  0.534- 166 2.34 250 2.34  30 2.97
 209  0.612  0.893  0.675- 178 2.34 167 2.34 251 2.34 250 2.34
 210  0.496  0.970  0.816- 179 2.34 252 2.34 168 2.34 251 2.34
 211  0.881  0.047  0.534- 226 2.34 169 2.34  90 2.39
 212  0.766  0.124  0.675- 227 2.34 151 2.34 170 2.34 226 2.34
 213  0.650  0.201  0.816- 152 2.34 228 2.34 171 2.34 227 2.34
 214  0.189  0.508  0.534- 253 2.34 172 2.34  96 3.04  42 3.40
 215  0.073  0.585  0.675- 157 2.34 254 2.34 253 2.34 173 2.34
 216  0.958  0.662  0.816- 158 2.34 255 2.34 174 2.34 254 2.34
 217  0.342  0.739  0.534- 256 2.34 175 2.34  93 2.91
 218  0.227  0.816  0.675- 257 2.34 181 2.34 256 2.34 176 2.34
 219  0.112  0.893  0.816- 182 2.34 258 2.34 177 2.34 257 2.34
 220  0.496  0.970  0.534- 259 2.34 178 2.34  48 2.94
 221  0.381  0.047  0.675- 184 2.34 179 2.34 259 2.34 260 2.34
 222  0.266  0.124  0.816- 180 2.34 185 2.34 261 2.34 260 2.34
 223  0.112  0.893  0.534-  39 2.34 262 2.34 181 2.34
 224  0.996  0.970  0.675- 169 2.34 182 2.34 263 2.34 262 2.34
 225  0.881  0.047  0.816- 170 2.34 183 2.34 264 2.34 263 2.34
 226  0.862  0.143  0.605- 128 2.34 211 2.34 109 2.34 212 2.34
 227  0.746  0.220  0.745- 129 2.34 212 2.34 110 2.34 213 2.34
 228  0.631  0.297  0.886- 213 2.34 111 2.34  22 2.39
 229  0.016  0.374  0.605- 188 2.34 112 2.34 187 2.34 131 2.34
 230  0.900  0.451  0.745- 113 2.34 132 2.34 189 2.34 188 2.34
 231  0.785  0.528  0.886- 114 2.34 189 2.34  76 2.42
 232  0.631  0.297  0.605- 110 2.34 190 2.34 118 2.34 191 2.34
 233  0.516  0.374  0.745- 191 2.34 111 2.34 119 2.34 192 2.34
 234  0.400  0.451  0.886- 192 2.34 120 2.34  67 3.03
 235  0.785  0.528  0.605- 113 2.34 193 2.34 121 2.34 194 2.34
 236  0.669  0.604  0.745- 114 2.34 194 2.34 122 2.34 195 2.34
 237  0.554  0.681  0.886- 195 2.34 123 2.34  19 3.05
 238  0.939  0.758  0.605- 143 2.34 196 2.34 124 2.34 197 2.34
 239  0.823  0.835  0.745- 144 2.34 197 2.34 125 2.34 198 2.34
 240  0.708  0.912  0.886- 198 2.34 126 2.34  25 2.93
 241  0.246  0.220  0.605- 116 2.34 199 2.34 200 2.34 130 2.34
 242  0.131  0.297  0.745- 200 2.34 117 2.34 201 2.34 131 2.34
 243  0.016  0.374  0.886- 201 2.34 132 2.34   4 2.37
 244  0.400  0.451  0.605- 119 2.34 202 2.34 203 2.34 133 2.34
 245  0.285  0.528  0.745- 120 2.34 203 2.34 134 2.34 204 2.34
 246  0.169  0.604  0.886- 204 2.34 135 2.34  58 3.00
 247  0.554  0.681  0.605- 122 2.34 205 2.34 136 2.34 206 2.34
 248  0.439  0.758  0.745- 123 2.34 206 2.34 137 2.34 207 2.34
 249  0.323  0.835  0.886- 207 2.34 138 2.34
 250  0.708  0.912  0.605- 125 2.34 139 2.34 208 2.34 209 2.34
 251  0.592  0.989  0.745- 126 2.34 140 2.34 209 2.34 210 2.34
 252  0.477  0.066  0.886- 210 2.34 141 2.34  70 2.97
 253  0.169  0.604  0.605- 134 2.34 214 2.34 215 2.34 142 2.34
 254  0.054  0.681  0.745- 135 2.34 215 2.34 143 2.34 216 2.34
 255  0.939  0.758  0.886- 216 2.34 144 2.34   1 3.04  73 3.40
 256  0.323  0.835  0.605- 217 2.34 137 2.34 218 2.34 145 2.34
 257  0.208  0.912  0.745- 146 2.34 218 2.34 138 2.34 219 2.34
 258  0.092  0.989  0.886- 147 2.34 219 2.34   7 2.91
 259  0.477  0.066  0.605- 140 2.34 220 2.34 115 2.34 221 2.34
 260  0.362  0.143  0.745- 116 2.34 141 2.34 221 2.34 222 2.34
 261  0.246  0.220  0.886- 117 2.34 222 2.34  61 2.94
 262  0.092  0.989  0.605- 146 2.34 223 2.34 127 2.34 224 2.34
 263  0.977  0.066  0.745- 147 2.34 224 2.34 128 2.34 225 2.34
 264  0.862  0.143  0.886-  79 2.34 129 2.34 225 2.34
 
  LATTYP: Found a simple tetragonal cell.
 ALAT       =    19.4675998690
 C/A-ratio  =     0.9914038219
  
  Lattice vectors:
  
 A1 = (  19.4675998690,   0.0000000000,   0.0000000000)
 A2 = (   0.0000000000,  19.4675998690,   0.0000000000)
 A3 = (   0.0000000000,   0.0000000000,  19.3002529140)


Analysis of symmetry for initial positions (statically):
=====================================================================
 Subroutine PRICEL returns following result:
 
  LATTYP: Found a simple tetragonal cell.
 ALAT       =    13.7656718808
 C/A-ratio  =     1.4020567308
  
  Lattice vectors:
  
 A1 = (   9.7337999345,  -9.7337999345,   0.0000000000)
 A2 = (   9.7337999345,   9.7337999345,   0.0000000000)
 A3 = (   0.0000000000,   0.0000000000,  19.3002529140)
 
   2 primitive cells build up your supercell.
 

 Routine SETGRP: Setting up the symmetry group for a 
 simple tetragonal supercell.


 Subroutine GETGRP returns: Found  2 space group operations
 (whereof  1 operations were pure point group operations)
 out of a pool of 16 trial point group operations.


The static configuration has the point symmetry C_1 .
 The point group associated with its full space group is C_1h.


Analysis of symmetry for dynamics (positions and initial velocities):
=====================================================================
 Subroutine PRICEL returns following result:
 
  LATTYP: Found a simple tetragonal cell.
 ALAT       =    13.7656718808
 C/A-ratio  =     1.4020567308
  
  Lattice vectors:
  
 A1 = (   9.7337999345,  -9.7337999345,   0.0000000000)
 A2 = (   9.7337999345,   9.7337999345,   0.0000000000)
 A3 = (   0.0000000000,   0.0000000000,  19.3002529140)
 
   2 primitive cells build up your supercell.
 

 Routine SETGRP: Setting up the symmetry group for a 
 simple tetragonal supercell.


 Subroutine GETGRP returns: Found  2 space group operations
 (whereof  1 operations were pure point group operations)
 out of a pool of 16 trial point group operations.


The dynamic configuration has the point symmetry C_1 .
 The point group associated with its full space group is C_1h.


Analysis of structural, dynamic, and magnetic symmetry:
=====================================================================
 Subroutine PRICEL returns following result:
 
  LATTYP: Found a simple tetragonal cell.
 ALAT       =    13.7656718808
 C/A-ratio  =     1.4020567308
  
  Lattice vectors:
  
 A1 = (   9.7337999345,  -9.7337999345,   0.0000000000)
 A2 = (   9.7337999345,   9.7337999345,   0.0000000000)
 A3 = (   0.0000000000,   0.0000000000,  19.3002529140)
 
   2 primitive cells build up your supercell.
 

 Routine SETGRP: Setting up the symmetry group for a 
 simple tetragonal supercell.


 Subroutine GETGRP returns: Found  2 space group operations
 (whereof  1 operations were pure point group operations)
 out of a pool of 16 trial point group operations.


The overall configuration has the point symmetry C_1 .
 The point group associated with its full space group is C_1h.


 Subroutine INISYM returns: Found  2 space group operations
 (whereof  1 operations are pure point group operations),
 and found     2 'primitive' translations


----------------------------------------------------------------------------------------

                                     Primitive cell                                     

  volume of cell :    3657.2768

  direct lattice vectors                    reciprocal lattice vectors
     9.733799935 -9.733799935  0.000000000     0.051367401 -0.051367401  0.000000000
     9.733799935  9.733799934  0.000000000     0.051367401  0.051367401  0.000000000
     0.000000000  0.000000000 19.300252914     0.000000000  0.000000000  0.051812793

  length of vectors
    13.765671881 13.765671881 19.300252914     0.072644475  0.072644475  0.051812793

  position of ions in fractional coordinates (direct lattice)
     0.328368425  0.661701799  0.000000000
     0.161701738  0.495035112  0.168111786
     0.995035052  0.328368426  0.336223543
     0.661701769  0.328368455  0.000000000
     0.495035112  0.161701738  0.168111786
     0.328368441  0.995035067  0.336223543
     0.995035112  0.995035112  0.000000000
     0.828368425  0.828368425  0.168111786
     0.661701754  0.661701754  0.336223543
     0.661701768  0.995035142  0.000000000
     0.495035052  0.828368426  0.168111786
     0.328368425  0.661701799  0.336223543
     0.995035232  0.661701858  0.000000000
     0.828368545  0.495035171  0.168111786
     0.661701769  0.328368455  0.336223543
     0.328368545  0.328368545  0.000000000
     0.161701858  0.161701858  0.168111786
     0.995035112  0.995035112  0.336223543
     0.995035111  0.328368485  0.000000000
     0.828368380  0.161701724  0.168111786
     0.661701768  0.995035142  0.336223543
     0.328368456  0.995035082  0.000000000
     0.161701739  0.828368365  0.168111786
     0.995035112  0.661701738  0.336223543
     0.661701769  0.661701769  0.000000000
     0.495035052  0.495035052  0.168111786
     0.328368425  0.328368425  0.336223543
     0.161701687  0.995035179  0.084055893
     0.995035052  0.828368544  0.252167612
     0.828368411  0.661701843  0.420279443
     0.495035000  0.661701866  0.084055893
     0.328368365  0.495035231  0.252167612
     0.161701619  0.328368485  0.420279443
     0.828368425  0.328368545  0.084055893
     0.661701798  0.161701798  0.252167612
     0.495035067  0.995035187  0.420279443
     0.495035023  0.328368455  0.084055893
     0.328368336  0.161701768  0.252167612
     0.161701635  0.995035127  0.420279443
     0.828368336  0.995035202  0.084055893
     0.661701664  0.828368530  0.252167612
     0.495034948  0.661701814  0.420279443
     0.161701679  0.661701799  0.084055893
     0.995034992  0.495035112  0.252167612
     0.828368381  0.328368381  0.420279443
     0.828368381  0.661701813  0.084055893
     0.661701717  0.495035149  0.252167612
     0.495035023  0.328368455  0.420279443
     0.161701739  0.328368605  0.084055893
     0.995035112  0.161701978  0.252167612
     0.828368396  0.995035082  0.420279443
     0.495035037  0.995035157  0.084055893
     0.328368373  0.828368493  0.252167612
     0.161701679  0.661701799  0.420279443
     0.603384912  0.081501902  0.534267545
     0.411077082  0.043040336  0.674965203
     0.218769245  0.004578761  0.815662920
     0.526462019  0.466117203  0.534267545
     0.334154248  0.427655578  0.674965203
     0.141846359  0.389194071  0.815662920
     0.295692623  0.619963467  0.534267545
     0.103384733  0.581501841  0.674965203
     0.911076903  0.543040275  0.815662920
     0.218769550  0.004578710  0.534267545
     0.026461720  0.966117144  0.674965203
     0.834153891  0.927655459  0.815662920
     0.141846478  0.389194072  0.534267545
     0.949538648  0.350732506  0.674965203
     0.757230907  0.312270969  0.815662920
     0.064923286  0.773809552  0.534267545
     0.872615456  0.735347986  0.674965203
     0.680307805  0.696886361  0.815662920
     0.988000416  0.158424832  0.534267545
     0.795692444  0.119963408  0.674965203
     0.603384614  0.081501842  0.815662920
     0.911077202  0.543040216  0.534267545
     0.718769461  0.504578679  0.674965203
     0.526461572  0.466117054  0.815662920
     0.834154129  0.927655697  0.534267545
     0.641846359  0.889194071  0.674965203
     0.449538529  0.850732505  0.815662920
     0.757231087  0.312271029  0.534267545
     0.564923257  0.273809463  0.674965203
     0.372615397  0.235347927  0.815662920
     0.680308014  0.696886450  0.534267545
     0.488000154  0.658424854  0.674965203
     0.295692324  0.619963288  0.815662920
     0.449538797  0.850732535  0.534267545
     0.257230937  0.812270939  0.674965203
     0.064923049  0.773809433  0.815662920
     0.372615725  0.235348075  0.534267545
     0.180307865  0.196886421  0.674965203
     0.988000043  0.158424727  0.815662920
     0.872615755  0.235347927  0.604616404
     0.680307865  0.196886301  0.745314062
     0.488000065  0.158424765  0.886011779
     0.564923405  0.773809433  0.604616404
     0.372615635  0.735347927  0.745314062
     0.180307686  0.696886242  0.886011779
     0.488000363  0.158424825  0.604616404
     0.295692533  0.119963259  0.745314062
     0.103384607  0.081501715  0.886011779
     0.411077320  0.543040216  0.604616404
     0.218769431  0.504578709  0.745314062
     0.026461542  0.466117084  0.886011779
     0.180308163  0.696886599  0.604616404
     0.988000333  0.658425033  0.745314062
     0.795692414  0.619963258  0.886011779
     0.103384987  0.081501737  0.604616404
     0.911077082  0.043040096  0.745314062
     0.718769193  0.004578709  0.886011779
     0.026461840  0.466117144  0.604616404
     0.834154010  0.427655578  0.745314062
     0.641846240  0.389193952  0.886011779
     0.949538707  0.850732565  0.604616404
     0.757231027  0.812271029  0.745314062
     0.564923167  0.773809433  0.886011779
     0.795692652  0.619963318  0.604616404
     0.603384860  0.581501730  0.745314062
     0.411076963  0.543040097  0.886011779
     0.718769491  0.004578769  0.604616404
     0.526461720  0.966117144  0.745314062
     0.334153801  0.927655607  0.886011779
     0.641846448  0.389193982  0.604616404
     0.449538588  0.350732446  0.745314062
     0.257230699  0.312270821  0.886011779
     0.334154174  0.927655622  0.604616404
     0.141846299  0.889194131  0.745314062
     0.949538470  0.850732446  0.886011779
     0.257231236  0.312271118  0.604616404
     0.064923406  0.273809552  0.745314062
     0.872615576  0.235347986  0.886011779

  ion indices of the primitive-cell ions
   primitive index   ion index
                 1           1
                 2           2
                 3           3
                 4           4
                 5          65
                 6          66
                 7           7
                 8           8
                 9          69
                10          10
                11          11
                12          12
                13          73
                14          74
                15          15
                16          76
                17          77
                18          18
                19          19
                20          62
                21          21
                22          55
                23          56
                24          57
                25          58
                26          59
                27          60
                28          28
                29          29
                30          96
                31          31
                32          32
                33          33
                34          91
                35          35
                36          93
                37         103
                38         104
                39          39
                40          40
                41          41
                42          42
                43         100
                44         101
                45          45
                46          85
                47          86
                48          87
                49          49
                50          50
                51          90
                52          82
                53          83
                54          84
                55         217
                56         218
                57         219
                58         112
                59         113
                60         114
                61         196
                62         197
                63         198
                64         223
                65         224
                66         225
                67         121
                68         122
                69         201
                70         124
                71         125
                72         204
                73         127
                74         206
                75         207
                76         208
                77         131
                78         132
                79         211
                80         134
                81         135
                82         187
                83         188
                84         189
                85         214
                86         215
                87         216
                88         142
                89         143
                90         144
                91         193
                92         194
                93         147
                94         247
                95         149
                96         249
                97         253
                98         254
                99         255
               100         256
               101         257
               102         258
               103         157
               104         158
               105         159
               106         238
               107         239
               108         162
               109         262
               110         263
               111         165
               112         166
               113         167
               114         243
               115         169
               116         245
               117         246
               118         172
               119         173
               120         174
               121         175
               122         176
               123         177
               124         229
               125         230
               126         231
               127         181
               128         182
               129         183
               130         235
               131         236
               132         237

----------------------------------------------------------------------------------------

 
 
 KPOINTS: Automatic KPOINTS generated             

Automatic generation of k-mesh.
 Grid dimensions read from file:
 generate k-points for:    2    2    2

 Generating k-lattice:

  Cartesian coordinates                     Fractional coordinates (reciprocal lattice)
     0.025683700  0.000000000  0.000000000     0.500000000  0.000000000  0.000000000
     0.000000000  0.025683700  0.000000000     0.000000000  0.500000000  0.000000000
     0.000000000  0.000000000  0.025906396     0.000000000  0.000000000  0.500000000

  Length of vectors
     0.025683700  0.025683700  0.025906396

  Shift w.r.t. Gamma in fractional coordinates (k-lattice)
     0.000000000  0.000000000  0.000000000

 
 Subroutine IBZKPT returns following result:
 ===========================================
 
 Found      8 irreducible k-points:
 
 Following reciprocal coordinates:
            Coordinates               Weight
  0.000000  0.000000  0.000000      1.000000
  0.500000  0.000000  0.000000      1.000000
  0.000000  0.500000  0.000000      1.000000
  0.500000  0.500000  0.000000      1.000000
  0.000000  0.000000  0.500000      1.000000
  0.500000  0.000000  0.500000      1.000000
  0.000000  0.500000  0.500000      1.000000
  0.500000  0.500000  0.500000      1.000000
 
 Following cartesian coordinates:
            Coordinates               Weight
  0.000000  0.000000  0.000000      1.000000
  0.025684  0.000000  0.000000      1.000000
  0.000000  0.025684  0.000000      1.000000
  0.025684  0.025684  0.000000      1.000000
  0.000000  0.000000  0.025906      1.000000
  0.025684  0.000000  0.025906      1.000000
  0.000000  0.025684  0.025906      1.000000
  0.025684  0.025684  0.025906      1.000000
 
 -----------------------------------------------------------------------------
|                                                                             |
|           W    W    AA    RRRRR   N    N  II  N    N   GGGG   !!!           |
|           W    W   A  A   R    R  NN   N  II  NN   N  G    G  !!!           |
|           W    W  A    A  R    R  N N  N  II  N N  N  G       !!!           |
|           W WW W  AAAAAA  RRRRR   N  N N  II  N  N N  G  GGG   !            |
|           WW  WW  A    A  R   R   N   NN  II  N   NN  G    G                |
|           W    W  A    A  R    R  N    N  II  N    N   GGGG   !!!           |
|                                                                             |
|     The number of bands has been changed from the values supplied in        |
|     the INCAR file. This is a result of running the parallel version.       |
|     The orbitals not found in the WAVECAR file will be initialized with     |
|     random numbers, which is usually adequate. For correlated               |
|     calculations, however, you should redo the groundstate calculation.     |
|     I found NBANDS = 634. Now, NBANDS = 636.                                |
|                                                                             |
 -----------------------------------------------------------------------------



--------------------------------------------------------------------------------------------------------




 Dimension of arrays:
   k-points           NKPTS =      8   k-points in BZ     NKDIM =      8   number of bands    NBANDS=    636
   number of dos      NEDOS =    301   number of ions     NIONS =    264
   non local maximal  LDIM  =      5   non local SUM 2l+1 LMDIM =     13
   total plane-waves  NPLWV = ******
   max r-space proj   IRMAX =   4555   max aug-charges    IRDMAX= 210771
   dimension x,y,z NGX =   126 NGY =  126 NGZ =  126
   dimension x,y,z NGXF=   252 NGYF=  252 NGZF=  252
   support grid    NGXF=   504 NGYF=  504 NGZF=  504
   ions per type =             108 156
   NGX,Y,Z   is equivalent  to a cutoff of  10.76, 10.76, 10.85 a.u.
   NGXF,Y,Z  is equivalent  to a cutoff of  21.52, 21.52, 21.71 a.u.

 SYSTEM =  Si and Ge interface calculation         
 POSCAR =  Sn+Si                                   

 Startparameter for this run:
   NWRITE =      2    write-flag & timer
   PREC   = normal    normal or accurate (medium, high low for compatibility)
   ISTART =      0    job   : 0-new  1-cont  2-samecut
   ICHARG =      2    charge: 1-file 2-atom 10-const
   ISPIN  =      2    spin polarized calculation?
   LNONCOLLINEAR =      F non collinear calculations
   LSORBIT =      F    spin-orbit coupling
   INIWAV =      1    electr: 0-lowe 1-rand  2-diag
   LASPH  =      T    aspherical Exc in radial PAW
 Electronic Relaxation 1
   ENCUT  =  700.0 eV  51.45 Ry    7.17 a.u.  42.00 42.00 41.64*2*pi/ulx,y,z
   ENINI  =  700.0     initial cutoff
   ENAUG  =  900.0 eV  augmentation charge cutoff
   NELM   =    100;   NELMIN=  2; NELMDL= -5     # of ELM steps 
   EDIFF  = 0.1E-06   stopping-criterion for ELM
   LREAL  =      T    real-space projection
   NLSPLINE    = F    spline interpolate recip. space projectors
   LCOMPAT=      F    compatible to vasp.4.4
   GGA_COMPAT  = T    GGA compatible to vasp.4.4-vasp.4.6
   LMAXPAW     = -100 max onsite density
   LMAXMIX     =    6 max onsite mixed and CHGCAR
   VOSKOWN=      0    Vosko Wilk Nusair interpolation
   ROPT   =   -0.00050  -0.00050
 Ionic relaxation
   EDIFFG = 0.1E-05   stopping-criterion for IOM
   NSW    =      0    number of steps for IOM
   NBLOCK =      1;   KBLOCK =      1    inner block; outer block 
   IBRION =     -1    ionic relax: 0-MD 1-quasi-New 2-CG
   NFREE  =      0    steps in history (QN), initial steepest desc. (CG)
   ISIF   =      2    stress and relaxation
   IWAVPR =     10    prediction:  0-non 1-charg 2-wave 3-comb
   ISYM   =      2    0-nonsym 1-usesym 2-fastsym
   LCORR  =      T    Harris-Foulkes like correction to forces

   POTIM  = 0.5000    time-step for ionic-motion
   TEIN   =    0.0    initial temperature
   TEBEG  =    0.0;   TEEND  =   0.0 temperature during run
   SMASS  =  -3.00    Nose mass-parameter (am)
   estimated Nose-frequenzy (Omega)   =  0.10E-29 period in steps = 0.13E+47 mass=  -0.866E-26a.u.
   SCALEE = 1.0000    scale energy and forces
   NPACO  =    256;   APACO  = 10.0  distance and # of slots for P.C.
   PSTRESS=    0.0 pullay stress

  Mass of Ions in am
   POMASS = 118.71 28.09
  Ionic Valenz
   ZVAL   =   4.00  4.00
  Atomic Wigner-Seitz radii
   RWIGS  =  -1.00 -1.00
  virtual crystal weights 
   VCA    =   1.00  1.00
   NELECT =    1056.0000    total number of electrons
   NUPDOWN=       1.0000    fix difference up-down

 DOS related values:
   EMIN   =  10.00;   EMAX   =-10.00  energy-range for DOS
   EFERMI =   0.00;   METHOD = LEGACY      
   ISMEAR =     0;   SIGMA  =   0.01  broadening in eV -4-tet -1-fermi 0-gaus

 Electronic relaxation 2 (details)
   IALGO  =     38    algorithm
   LDIAG  =      T    sub-space diagonalisation (order eigenvalues)
   LSUBROT=      F    optimize rotation matrix (better conditioning)
   TURBO    =      0    0=normal 1=particle mesh
   IRESTART =      0    0=no restart 2=restart with 2 vectors
   NREBOOT  =      0    no. of reboots
   NMIN     =      0    reboot dimension
   EREF     =   0.00    reference energy to select bands
   IMIX   =      4    mixing-type and parameters
     AMIX     =   0.60;   BMIX     =  1.00
     AMIX_MAG =   2.40;   BMIX_MAG =  1.00
     AMIN     =   0.10
     WC   =   100.;   INIMIX=   1;  MIXPRE=   1;  MAXMIX= -45

 Intra band minimization:
   WEIMIN = 0.0000     energy-eigenvalue tresh-hold
   EBREAK =  0.39E-10  absolut break condition
   DEPER  =   0.30     relativ break condition  

   TIME   =   0.40     timestep for ELM

  volume/ion in A,a.u.               =      27.71       186.97
  Fermi-wavevector in a.u.,A,eV,Ry     =   0.858816  1.622927 10.035183  0.737565
  Thomas-Fermi vector in A             =   1.976078
 
 Write flags
   LWAVE        =      F    write WAVECAR
   LDOWNSAMPLE  =      F    k-point downsampling of WAVECAR
   LCHARG       =      T    write CHGCAR
   LVTOT        =      F    write LOCPOT, total local potential
   LVHAR        =      T    write LOCPOT, Hartree potential only
   WRT_POTENTIAL=  hartree ionic  ! write potential to hdf5 file
   LELF         =      F    write electronic localiz. function (ELF)
   LORBIT       =      0    0 simple, 1 ext, 2 COOP (PROOUT), +10 PAW based schemes


 Dipole corrections
   LMONO      =      F    monopole corrections only (constant potential shift)
   LDIPOL     =      F    correct potential (dipole corrections)
   IDIPOL     =      0    1-x, 2-y, 3-z, 4-all directions 
   EPSILON    =  1.0000000 bulk dielectric constant
   LVACPOTAV  =      F  vacuum potentials using an averaging scheme for the charge density
   VACPOTFLAT =  0.1000000 required flatness to determine vacuum potential
 Exchange correlation treatment:
   GGA     = PE    functional components
   XC_C    = 1    coefficients multiplying the functional components
   LIBXC   =     F    Libxc                    
   VOSKOWN =     0    Vosko Wilk Nusair interpolation
   LHFCALC =     F    Hartree Fock is set to
   LHFONE  =     F    Hartree Fock one center treatment
   AEXX    =    0.0000 exact exchange contribution

 Parameters of functionals:
   PE:
     No parameter
 
 Van der Waals corrections
   IVDW    =     0    specifies the selected vdW correction

 Linear response parameters
   LEPSILON=     F    determine dielectric tensor
   LRPA    =     F    only Hartree local field effects (RPA)
   LNABLA  =     F    use nabla operator in PAW spheres
   LVEL    =     F    velocity operator in full k-point grid
   CSHIFT  =0.1000    complex shift for real part using Kramers Kronig
   OMEGAMAX=  -1.0    maximum frequency
   DEG_THRESHOLD= 0.2000000E-02 threshold for treating states as degnerate
   RTIME   =   -0.100 relaxation time in fs
  (WPLASMAI=    0.000 imaginary part of plasma frequency in eV, 0.658/RTIME)
   DFIELD  = 0.0000000 0.0000000 0.0000000 field for delta impulse in time
 
  Optional k-point grid parameters
   LKPOINTS_OPT  =     F    use optional k-point grid
   KPOINTS_OPT_MODE=     1    mode for optional k-point grid
 
 Orbital magnetization related:
   ORBITALMAG=     F  switch on orbital magnetization
   LCHIMAG   =     F  perturbation theory with respect to B field
   DQ        =  0.001000  dq finite difference perturbation B field
   LLRAUG    =     F  two centre corrections for induced B field
   LBONE     =     F  B-component reconstruction in AE one-centre
   LVGVCALC  =     T  calculate vGv susceptibility
   LVGVAPPL  =     F  apply vGv susceptibility instead of pGv for G=0

 Random number generation:
   RANDOM_GENERATOR = DEFAULT
   PCG_SEED         = not used


--------------------------------------------------------------------------------------------------------


 Static calculation
 charge density and potential will be updated during run
 spin polarized calculation
 Variant of blocked Davidson
 Davidson routine will perform the subspace rotation
 perform sub-space diagonalisation
    after iterative eigenvector-optimisation
 modified Broyden-mixing scheme, WC =      100.0
 initial mixing is a Kerker type mixing with AMIX =  0.6000 and BMIX =      1.0000
 Hartree-type preconditioning will be used
 using additional bands          108
 real space projection scheme for non local part
 use partial core corrections
 calculate Harris-corrections to forces 
   (improved forces if not selfconsistent)
 use gradient corrections 
 use of overlap-Matrix (Vanderbilt PP)
 Gauss-broadening in eV      SIGMA  =   0.01


--------------------------------------------------------------------------------------------------------


  energy-cutoff  :      700.00
  volume of cell :     7314.55
      direct lattice vectors                 reciprocal lattice vectors
    19.467599869  0.000000000  0.000000000     0.051367401  0.000000000  0.000000000
     0.000000000 19.467599869  0.000000000     0.000000000  0.051367401  0.000000000
     0.000000000  0.000000000 19.300252914     0.000000000  0.000000000  0.051812793

  length of vectors
    19.467599869 19.467599869 19.300252914     0.051367401  0.051367401  0.051812793


 
 k-points in units of 2pi/SCALE and weight: Automatic KPOINTS generated             
   0.00000000  0.00000000  0.00000000       0.125
   0.02568370  0.00000000  0.00000000       0.125
   0.00000000  0.02568370  0.00000000       0.125
   0.02568370  0.02568370  0.00000000       0.125
   0.00000000  0.00000000  0.02590640       0.125
   0.02568370  0.00000000  0.02590640       0.125
   0.00000000  0.02568370  0.02590640       0.125
   0.02568370  0.02568370  0.02590640       0.125
 
 k-points in reciprocal lattice and weights: Automatic KPOINTS generated             
   0.00000000  0.00000000  0.00000000       0.125
   0.50000000  0.00000000  0.00000000       0.125
   0.00000000  0.50000000  0.00000000       0.125
   0.50000000  0.50000000  0.00000000       0.125
   0.00000000  0.00000000  0.50000000       0.125
   0.50000000  0.00000000  0.50000000       0.125
   0.00000000  0.50000000  0.50000000       0.125
   0.50000000  0.50000000  0.50000000       0.125
 
 position of ions in fractional coordinates (direct lattice) 
   0.99503511  0.66666669  0.00000000
   0.82836843  0.66666669  0.16811179
   0.66170174  0.66666669  0.33622354
   0.99503511  0.33333334  0.00000000
   0.82836843  0.33333334  0.16811179
   0.66170174  0.33333334  0.33622354
   0.99503511  0.00000000  0.00000000
   0.82836843  0.00000000  0.16811179
   0.66170174  0.00000000  0.33622354
   0.32836846  0.66666669  0.00000000
   0.16170174  0.66666669  0.16811179
   0.99503511  0.66666669  0.33622354
   0.32836846  0.33333334  0.00000000
   0.16170174  0.33333334  0.16811179
   0.99503511  0.33333334  0.33622354
   0.32836846  0.00000000  0.00000000
   0.16170174  0.00000000  0.16811179
   0.99503511  0.00000000  0.33622354
   0.66170180  0.66666669  0.00000000
   0.49503511  0.66666669  0.16811179
   0.32836846  0.66666669  0.33622354
   0.66170180  0.33333334  0.00000000
   0.49503511  0.33333334  0.16811179
   0.32836846  0.33333334  0.33622354
   0.66170180  0.00000000  0.00000000
   0.49503511  0.00000000  0.16811179
   0.32836846  0.00000000  0.33622354
   0.07836843  0.91666675  0.08405589
   0.91170180  0.91666675  0.25216761
   0.74503505  0.91666675  0.42027944
   0.07836843  0.58333343  0.08405589
   0.91170180  0.58333343  0.25216761
   0.74503505  0.58333343  0.42027944
   0.07836843  0.25000000  0.08405589
   0.91170180  0.25000000  0.25216761
   0.74503505  0.25000000  0.42027944
   0.41170177  0.91666675  0.08405589
   0.24503510  0.91666675  0.25216761
   0.07836838  0.91666675  0.42027944
   0.41170177  0.58333343  0.08405589
   0.24503510  0.58333343  0.25216761
   0.07836838  0.58333343  0.42027944
   0.41170177  0.25000000  0.08405589
   0.24503510  0.25000000  0.25216761
   0.07836838  0.25000000  0.42027944
   0.74503517  0.91666675  0.08405589
   0.57836855  0.91666675  0.25216761
   0.41170180  0.91666675  0.42027944
   0.74503517  0.58333343  0.08405589
   0.57836855  0.58333343  0.25216761
   0.41170180  0.58333343  0.42027944
   0.74503517  0.25000000  0.08405589
   0.57836855  0.25000000  0.25216761
   0.41170180  0.25000000  0.42027944
   0.16170177  0.83333331  0.00000000
   0.99503505  0.83333331  0.16811179
   0.82836843  0.83333331  0.33622354
   0.16170177  0.50000000  0.00000000
   0.99503505  0.50000000  0.16811179
   0.82836843  0.50000000  0.33622354
   0.16170177  0.16666667  0.00000000
   0.99503505  0.16666667  0.16811179
   0.82836843  0.16666667  0.33622354
   0.49503511  0.83333331  0.00000000
   0.32836843  0.83333331  0.16811179
   0.16170175  0.83333331  0.33622354
   0.49503511  0.50000000  0.00000000
   0.32836843  0.50000000  0.16811179
   0.16170175  0.50000000  0.33622354
   0.49503511  0.16666667  0.00000000
   0.32836843  0.16666667  0.16811179
   0.16170175  0.16666667  0.33622354
   0.82836855  0.83333331  0.00000000
   0.66170186  0.83333331  0.16811179
   0.49503520  0.83333331  0.33622354
   0.82836855  0.50000000  0.00000000
   0.66170186  0.50000000  0.16811179
   0.49503520  0.50000000  0.33622354
   0.82836855  0.16666667  0.00000000
   0.66170186  0.16666667  0.16811179
   0.49503520  0.16666667  0.33622354
   0.24503510  0.75000006  0.08405589
   0.07836843  0.75000006  0.25216761
   0.91170174  0.75000006  0.42027944
   0.24503510  0.41666672  0.08405589
   0.07836843  0.41666672  0.25216761
   0.91170174  0.41666672  0.42027944
   0.24503510  0.08333334  0.08405589
   0.07836843  0.08333334  0.25216761
   0.91170174  0.08333334  0.42027944
   0.57836848  0.75000006  0.08405589
   0.41170186  0.75000006  0.25216761
   0.24503513  0.75000006  0.42027944
   0.57836848  0.41666672  0.08405589
   0.41170186  0.41666672  0.25216761
   0.24503513  0.41666672  0.42027944
   0.57836848  0.08333334  0.08405589
   0.41170186  0.08333334  0.25216761
   0.24503513  0.08333334  0.42027944
   0.91170174  0.75000006  0.08405589
   0.74503505  0.75000006  0.25216761
   0.57836837  0.75000006  0.42027944
   0.91170174  0.41666672  0.08405589
   0.74503505  0.41666672  0.25216761
   0.57836837  0.41666672  0.42027944
   0.91170174  0.08333334  0.08405589
   0.74503505  0.08333334  0.25216761
   0.57836837  0.08333334  0.42027944
   0.84244347  0.23905837  0.53426754
   0.72705877  0.31598151  0.67496520
   0.61167407  0.39290467  0.81566292
   0.99628961  0.46982759  0.53426754
   0.88090491  0.54675066  0.67496520
   0.76552022  0.62367386  0.81566292
   0.45782804  0.16213530  0.53426754
   0.34244335  0.23905843  0.67496520
   0.22705865  0.31598157  0.81566292
   0.61167419  0.39290458  0.53426754
   0.49628949  0.46982771  0.67496520
   0.38090479  0.54675084  0.81566292
   0.76552028  0.62367380  0.53426754
   0.65013558  0.70059693  0.67496520
   0.53475088  0.77752006  0.81566292
   0.91936642  0.85444313  0.53426754
   0.80398172  0.93136627  0.67496520
   0.68859702  0.00828934  0.81566292
   0.07321262  0.08521221  0.53426754
   0.95782787  0.16213533  0.67496520
   0.84244317  0.23905846  0.81566292
   0.22705877  0.31598148  0.53426754
   0.11167407  0.39290461  0.67496520
   0.99628931  0.46982774  0.81566292
   0.38090494  0.54675072  0.53426754
   0.26552022  0.62367386  0.67496520
   0.15013552  0.70059699  0.81566292
   0.53475112  0.77751988  0.53426754
   0.41936642  0.85444301  0.67496520
   0.30398169  0.93136615  0.81566292
   0.68859720  0.00828922  0.53426754
   0.57321250  0.08521234  0.67496520
   0.45782784  0.16213548  0.81566292
   0.15013567  0.70059687  0.53426754
   0.03475094  0.77752000  0.67496520
   0.91936624  0.85444319  0.81566292
   0.30398187  0.93136609  0.53426754
   0.18859717  0.00828910  0.67496520
   0.07321238  0.08521234  0.81566292
   0.05398178  0.18136609  0.60461640
   0.93859708  0.25828922  0.74531406
   0.82321233  0.33521238  0.88601178
   0.66936642  0.10444307  0.60461640
   0.55398178  0.18136621  0.74531406
   0.43859702  0.25828934  0.88601178
   0.82321268  0.33521223  0.60461640
   0.70782799  0.41213539  0.74531406
   0.59244329  0.48905852  0.88601178
   0.97705877  0.56598145  0.60461640
   0.86167407  0.64290464  0.74531406
   0.74628931  0.71982777  0.88601178
   0.43859726  0.25828916  0.60461640
   0.32321256  0.33521229  0.74531406
   0.20782784  0.41213542  0.88601178
   0.59244335  0.48905846  0.60461640
   0.47705868  0.56598157  0.74531406
   0.36167395  0.64290476  0.88601178
   0.74628949  0.71982765  0.60461640
   0.63090479  0.79675078  0.74531406
   0.51552010  0.87367392  0.88601178
   0.90013564  0.95059693  0.60461640
   0.78475094  0.02752006  0.74531406
   0.66936624  0.10444319  0.88601178
   0.20782799  0.41213533  0.60461640
   0.09244330  0.48905843  0.74531406
   0.97705853  0.56598157  0.88601178
   0.36167413  0.64290464  0.60461640
   0.24628943  0.71982771  0.74531406
   0.13090470  0.79675090  0.88601178
   0.51552028  0.87367380  0.60461640
   0.40013558  0.95059693  0.74531406
   0.28475085  0.02752006  0.88601178
   0.13090490  0.79675072  0.60461640
   0.01552022  0.87367392  0.74531406
   0.90013546  0.95059699  0.88601178
   0.28475106  0.02751994  0.60461640
   0.16936633  0.10444307  0.74531406
   0.05398166  0.18136621  0.88601178
   0.03475106  0.27751997  0.53426754
   0.91936636  0.35444310  0.67496520
   0.80398166  0.43136627  0.81566292
   0.65013564  0.20059687  0.53426754
   0.53475094  0.27752000  0.67496520
   0.41936627  0.35444313  0.81566292
   0.80398190  0.43136618  0.53426754
   0.68859714  0.50828928  0.67496520
   0.57321250  0.58521247  0.81566292
   0.95782804  0.66213542  0.53426754
   0.84244329  0.73905855  0.67496520
   0.72705859  0.81598169  0.81566292
   0.26552033  0.12367377  0.53426754
   0.15013564  0.20059690  0.67496520
   0.03475094  0.27752003  0.81566292
   0.41936651  0.35444304  0.53426754
   0.30398181  0.43136618  0.67496520
   0.18859708  0.50828928  0.81566292
   0.57321262  0.58521235  0.53426754
   0.45782793  0.66213548  0.67496520
   0.34244323  0.73905861  0.81566292
   0.72705871  0.81598151  0.53426754
   0.61167401  0.89290464  0.67496520
   0.49628934  0.96982777  0.81566292
   0.88090491  0.04675078  0.53426754
   0.76552022  0.12367391  0.67496520
   0.65013552  0.20059705  0.81566292
   0.18859723  0.50828922  0.53426754
   0.07321250  0.58521235  0.67496520
   0.95782781  0.66213548  0.81566292
   0.34244341  0.73905850  0.53426754
   0.22705871  0.81598163  0.67496520
   0.11167400  0.89290476  0.81566292
   0.49628958  0.96982771  0.53426754
   0.38090485  0.04675078  0.67496520
   0.26552015  0.12367391  0.81566292
   0.11167413  0.89290458  0.53426754
   0.99628943  0.96982771  0.67496520
   0.88090467  0.04675078  0.81566292
   0.86167425  0.14290453  0.60461640
   0.74628949  0.21982768  0.74531406
   0.63090479  0.29675081  0.88601178
   0.01552022  0.37367377  0.60461640
   0.90013552  0.45059693  0.74531406
   0.78475076  0.52752006  0.88601178
   0.63090497  0.29675070  0.60461640
   0.51552028  0.37367383  0.74531406
   0.40013558  0.45059699  0.88601178
   0.78475118  0.52751994  0.60461640
   0.66936648  0.60444307  0.74531406
   0.55398178  0.68136621  0.88601178
   0.93859738  0.75828922  0.60461640
   0.82321268  0.83521235  0.74531406
   0.70782793  0.91213548  0.88601178
   0.24628955  0.21982756  0.60461640
   0.13090484  0.29675070  0.74531406
   0.01552010  0.37367386  0.88601178
   0.40013573  0.45059687  0.60461640
   0.28475103  0.52752000  0.74531406
   0.16936630  0.60444313  0.88601178
   0.55398184  0.68136609  0.60461640
   0.43859717  0.75828922  0.74531406
   0.32321242  0.83521235  0.88601178
   0.70782804  0.91213542  0.60461640
   0.59244335  0.98905855  0.74531406
   0.47705862  0.06598163  0.88601178
   0.16936642  0.60444301  0.60461640
   0.05398178  0.68136615  0.74531406
   0.93859696  0.75828928  0.88601178
   0.32321259  0.83521223  0.60461640
   0.20782790  0.91213536  0.74531406
   0.09244316  0.98905855  0.88601178
   0.47705883  0.06598151  0.60461640
   0.36167413  0.14290476  0.74531406
   0.24628940  0.21982789  0.88601178
   0.09244336  0.98905837  0.60461640
   0.97705859  0.06598151  0.74531406
   0.86167389  0.14290464  0.88601178
 
 position of ions in cartesian coordinates  (Angst):
  19.37094542 12.97840031  0.00000000
  16.12634504 12.97840031  3.24459999
  12.88174469 12.97840031  6.48919942
  19.37094542  6.48920014  0.00000000
  16.12634504  6.48920014  3.24459999
  12.88174469  6.48920014  6.48919942
  19.37094542  0.00000000  0.00000000
  16.12634504  0.00000000  3.24459999
  12.88174469  0.00000000  6.48919942
   6.39254569 12.97840031  0.00000000
   3.14794475 12.97840031  3.24459999
  19.37094542 12.97840031  6.48919942
   6.39254569  6.48920014  0.00000000
   3.14794475  6.48920014  3.24459999
  19.37094542  6.48920014  6.48919942
   6.39254569  0.00000000  0.00000000
   3.14794475  0.00000000  3.24459999
  19.37094542  0.00000000  6.48919942
  12.88174584 12.97840031  0.00000000
   9.63714548 12.97840031  3.24459999
   6.39254569 12.97840031  6.48919942
  12.88174584  6.48920014  0.00000000
   9.63714548  6.48920014  3.24459999
   6.39254569  6.48920014  6.48919942
  12.88174584  0.00000000  0.00000000
   9.63714548  0.00000000  3.24459999
   6.39254569  0.00000000  6.48919942
   1.52564530 17.84530142  1.62229999
  17.74864580 17.84530142  4.86689869
  14.50404428 17.84530142  8.11149954
   1.52564530 11.35610186  1.62229999
  17.74864580 11.35610186  4.86689869
  14.50404428 11.35610186  8.11149954
   1.52564530  4.86689997  1.62229999
  17.74864580  4.86689997  4.86689869
  14.50404428  4.86689997  8.11149954
   8.01484530 17.84530142  1.62229999
   4.77024522 17.84530142  4.86689869
   1.52564428 17.84530142  8.11149954
   8.01484530 11.35610186  1.62229999
   4.77024522 11.35610186  4.86689869
   1.52564428 11.35610186  8.11149954
   8.01484530  4.86689997  1.62229999
   4.77024522  4.86689997  4.86689869
   1.52564428  4.86689997  8.11149954
  14.50404662 17.84530142  1.62229999
  11.25944741 17.84530142  4.86689869
   8.01484587 17.84530142  8.11149954
  14.50404662 11.35610186  1.62229999
  11.25944741 11.35610186  4.86689869
   8.01484587 11.35610186  8.11149954
  14.50404662  4.86689997  1.62229999
  11.25944741  4.86689997  4.86689869
   8.01484587  4.86689997  8.11149954
   3.14794534 16.22299949  0.00000000
  19.37094425 16.22299949  3.24459999
  16.12634504 16.22299949  6.48919942
   3.14794534  9.73379993  0.00000000
  19.37094425  9.73379993  3.24459999
  16.12634504  9.73379993  6.48919942
   3.14794534  3.24460008  0.00000000
  19.37094425  3.24460008  3.24459999
  16.12634504  3.24460008  6.48919942
   9.63714548 16.22299949  0.00000000
   6.39254511 16.22299949  3.24459999
   3.14794504 16.22299949  6.48919942
   9.63714548  9.73379993  0.00000000
   6.39254511  9.73379993  3.24459999
   3.14794504  9.73379993  6.48919942
   9.63714548  3.24460008  0.00000000
   6.39254511  3.24460008  3.24459999
   3.14794504  3.24460008  6.48919942
  16.12634738 16.22299949  0.00000000
  12.88174700 16.22299949  3.24459999
   9.63714721 16.22299949  6.48919942
  16.12634738  9.73379993  0.00000000
  12.88174700  9.73379993  3.24459999
   9.63714721  9.73379993  6.48919942
  16.12634738  3.24460008  0.00000000
  12.88174700  3.24460008  3.24459999
   9.63714721  3.24460008  6.48919942
   4.77024522 14.60070107  1.62229999
   1.52564530 14.60070107  4.86689869
  17.74864465 14.60070107  8.11149954
   4.77024522  8.11150091  1.62229999
   1.52564530  8.11150091  4.86689869
  17.74864465  8.11150091  8.11149954
   4.77024522  1.62230018  1.62229999
   1.52564530  1.62230018  4.86689869
  17.74864465  1.62230018  8.11149954
  11.25944624 14.60070107  1.62229999
   8.01484704 14.60070107  4.86689869
   4.77024581 14.60070107  8.11149954
  11.25944624  8.11150091  1.62229999
   8.01484704  8.11150091  4.86689869
   4.77024581  8.11150091  8.11149954
  11.25944624  1.62230018  1.62229999
   8.01484704  1.62230018  4.86689869
   4.77024581  1.62230018  8.11149954
  17.74864465 14.60070107  1.62229999
  14.50404428 14.60070107  4.86689869
  11.25944393 14.60070107  8.11149954
  17.74864465  8.11150091  1.62229999
  14.50404428  8.11150091  4.86689869
  11.25944393  8.11150091  8.11149954
  17.74864465  1.62230018  1.62229999
  14.50404428  1.62230018  4.86689869
  11.25944393  1.62230018  8.11149954
  16.40035231  4.65389279 10.31149874
  14.15408918  6.15140154 13.02699913
  11.90782605  7.64891088 15.74250065
  19.39536750  9.14641557 10.31149874
  17.14910437 10.64392317 13.02699913
  14.90284124 12.14143308 15.74250065
   8.91281319  3.15638520 10.31149874
   6.66655006  4.65389396 13.02699913
   4.42028693  6.15140271 15.74250065
  11.90782838  7.64890915 10.31149874
   9.66156525  9.14641790 13.02699913
   7.41530212 10.64392666 15.74250065
  14.90284241 12.14143193 10.31149874
  12.65657927 13.63894068 13.02699913
  10.41031614 15.13644944 15.74250065
  17.89785758 16.63395702 10.31149874
  15.65159445 18.13146578 13.02699913
  13.40533131  0.16137350 15.74250065
   1.42527407  1.65887717 10.31149874
  18.64660964  3.15638579 13.02699913
  16.40034651  4.65389454 15.74250065
   4.42028924  6.15140096 10.31149874
   2.17402611  7.64890971 13.02699913
  19.39536170  9.14641847 15.74250065
   7.41530502 10.64392432 10.31149874
   5.16904130 12.14143308 13.02699913
   2.92277817 13.63894183 15.74250065
  10.41032078 15.13644595 10.31149874
   8.16405764 16.63395471 13.02699913
   5.91779395 18.13146346 15.74250065
  13.40533480  0.16137118 10.31149874
  11.15907167  1.65887978 13.02699913
   8.91280912  3.15638869 15.74250065
   2.92278107 13.63893952 10.31149874
   0.67651736 15.13644827 13.02699913
  17.89785411 16.63395817 15.74250065
   5.91779741 18.13146229 10.31149874
   3.67153428  0.16136886 13.02699913
   1.42526942  1.65887978 15.74250065
   1.05089571  3.53076239 11.66924951
  18.27223245  5.02827115 14.38474990
  16.02596817  6.52578048 17.10025142
  13.03095761  2.03325582 11.66924951
  10.78469565  3.53076471 14.38474990
   8.53843135  5.02827346 17.10025142
  16.02597512  6.52577758 11.66924951
  13.77971199  8.02328690 14.38474990
  11.53344886  9.52079566 17.10025142
  19.02098914 11.01830036 11.66924951
  16.77472601 12.51581027 14.38474990
  14.52846173 14.01331902 17.10025142
   8.53843600  5.02826998 11.66924951
   6.29217287  6.52577873 14.38474990
   4.04590915  8.02328749 17.10025142
  11.53345002  9.52079451 11.66924951
   9.28718748 11.01830268 14.38474990
   7.04092376 12.51581258 17.10025142
  14.52846522 14.01331670 11.66924951
  12.28220209 15.51082546 14.38474990
  10.03593895 17.00833421 17.10025142
  17.52348039 18.50584065 11.66924951
  15.27721726  0.53574954 14.38474990
  13.03095415  2.03325813 17.10025142
   4.04591205  8.02328575 11.66924951
   1.79964908  9.52079393 14.38474990
  19.02098451 11.01830268 17.10025142
   7.04092725 12.51581027 11.66924951
   4.79466411 14.01331787 14.38474990
   2.54840040 15.51082777 17.10025142
  10.03594244 17.00833190 11.66924951
   7.78967931 18.50584065 14.38474990
   5.54341559  0.53574954 17.10025142
   2.54840418 15.51082429 11.66924951
   0.30214134 17.00833421 14.38474990
  17.52347692 18.50584180 17.10025142
   5.54341966  0.53574720 11.66924951
   3.29715594  2.03325582 14.38474990
   1.05089340  3.53076471 17.10025142
   0.67651969  5.40264775 10.31149874
  17.89785643  6.90015651 13.02699913
  15.65159330  8.39766584 15.74250065
  12.65658042  3.90513958 10.31149874
  10.41031729  5.40264834 13.02699913
   8.16405474  6.90015709 15.74250065
  15.65159793  8.39766409 10.31149874
  13.40533365  9.89517228 13.02699913
  11.15907167 11.39268218 15.74250065
  18.64661312 12.89018745 10.31149874
  16.40034882 14.38769621 13.02699913
  14.15408569 15.88520496 15.74250065
   5.16904362  2.40763141 10.31149874
   2.92278049  3.90514016 13.02699913
   0.67651736  5.40264892 15.74250065
   8.16405940  6.90015534 10.31149874
   5.91779626  8.39766409 13.02699913
   3.67153255  9.89517228 15.74250065
  11.15907400 11.39267987 10.31149874
   8.91281087 12.89018862 13.02699913
   6.66654774 14.38769738 15.74250065
  14.15408803 15.88520148 10.31149874
  11.90782490 17.38271023 13.02699913
   9.66156235 18.88021899 15.74250065
  17.14910437  0.91012556 10.31149874
  14.90284124  2.40763416 13.02699913
  12.65657811  3.90514307 15.74250065
   3.67153545  9.89517111 10.31149874
   1.42527173 11.39267987 13.02699913
  18.64660847 12.89018862 15.74250065
   6.66655123 14.38769506 10.31149874
   4.42028809 15.88520381 13.02699913
   2.17402481 17.38271255 15.74250065
   9.66156698 18.88021784 10.31149874
   7.41530327  0.91012556 13.02699913
   5.16904013  2.40763416 15.74250065
   2.17402728 17.38270908 10.31149874
  19.39536402 18.88021784 13.02699913
  17.14909974  0.91012556 15.74250065
  16.77472950  2.78200831 11.66924951
  14.52846522  4.27951735 14.38474990
  12.28220209  5.77702611 17.10025142
   0.30214134  7.27453138 11.66924951
  17.52347807  8.77204072 14.38474990
  15.27721379 10.26954947 17.10025142
  12.28220557  5.77702379 11.66924951
  10.03594244  7.27453253 14.38474990
   7.78967931  8.77204186 17.10025142
  15.27722191 10.26954713 11.66924951
  13.03095878 11.76705589 14.38474990
  10.78469565 13.26456464 17.10025142
  18.27223825 14.76207108 11.66924951
  16.02597512 16.25957984 14.38474990
  13.77971084 17.75708859 17.10025142
   4.79466643  4.27951504 11.66924951
   2.54840301  5.77702379 14.38474990
   0.30213902  7.27453311 17.10025142
   7.78968221  8.77203955 11.66924951
   5.54341908 10.26954830 14.38474990
   3.29715536 11.76705706 17.10025142
  10.78469682 13.26456233 11.66924951
   8.53843425 14.76207108 14.38474990
   6.29216997 16.25957984 17.10025142
  13.77971316 17.75708742 11.66924951
  11.53345002 19.25459618 14.38474990
   9.28718631  1.28450391 17.10025142
   3.29715768 11.76705474 11.66924951
   1.05089571 13.26456349 14.38474990
  18.27223013 14.76207225 17.10025142
   6.29217345 16.25957752 11.66924951
   4.04591032 17.75708627 14.38474990
   1.79964647 19.25459618 17.10025142
   9.28719038  1.28450158 11.66924951
   7.04092725  2.78201265 14.38474990
   4.79466353  4.27952140 17.10025142
   1.79965038 19.25459269 11.66924951
  19.02098566  1.28450158 14.38474990
  16.77472255  2.78201033 17.10025142
 


--------------------------------------------------------------------------------------------------------


 k-point     1 :   0.0000 0.0000 0.0000  plane waves:  307587
 k-point     2 :   0.5000 0.0000 0.0000  plane waves:  307620
 k-point     3 :   0.0000 0.5000 0.0000  plane waves:  307620
 k-point     4 :   0.5000 0.5000 0.0000  plane waves:  307752
 k-point     5 :   0.0000 0.0000 0.5000  plane waves:  307436
 k-point     6 :   0.5000 0.0000 0.5000  plane waves:  307628
 k-point     7 :   0.0000 0.5000 0.5000  plane waves:  307628
 k-point     8 :   0.5000 0.5000 0.5000  plane waves:  307624

 maximum and minimum number of plane-waves per node :     19312    19154

 maximum number of plane-waves:    307752
 maximum index in each direction: 
   IXMAX=   41   IYMAX=   41   IZMAX=   41
   IXMIN=  -42   IYMIN=  -42   IZMIN=  -42


 real space projection operators:
  total allocation   :      61369.31 KBytes
  max/ min on nodes  :       4000.65       3382.42


 parallel 3D FFT for wavefunctions:
    minimum data exchange during FFTs selected (reduces bandwidth)
 parallel 3D FFT for charge:
    minimum data exchange during FFTs selected (reduces bandwidth)


 total amount of memory used by VASP MPI-rank0   916450. kBytes
=======================================================================

   base      :      30000. kBytes
   nonlr-proj:      25146. kBytes
   fftplans  :      40892. kBytes
   grid      :      30643. kBytes
   one-center:        275. kBytes
   wavefun   :     789494. kBytes
 
     INWAV:  cpu time      0.0001: real time      0.0003
 Broyden mixing: mesh for mixing (old mesh)
   NGX = 83   NGY = 83   NGZ = 83
  (NGX  =252   NGY  =252   NGZ  =252)
  gives a total of 571787 points

 initial charge density was supplied:
 charge density of overlapping atoms calculated
 number of electron    1056.0000000 magnetization       1.0000000
 keeping initial charge density in first step


--------------------------------------------------------------------------------------------------------


 Maximum index for non-local projection operator          327
 Maximum index for augmentation-charges         4188 (set IRDMAX)


--------------------------------------------------------------------------------------------------------


 First call to EWALD:  gamma=   0.091
 Maximum number of real-space cells 3x 3x 3
 Maximum number of reciprocal cells 3x 3x 3

    FEWALD:  cpu time      0.0093: real time      0.0093


[...]
     11.25945      4.86690      4.86690         0.068441     -0.114517     -0.104539
      8.01485      4.86690      8.11150         0.018013      0.098165      1.323362
      3.14795     16.22300      0.00000         0.869165      0.371173      0.904501
     19.37094     16.22300      3.24460         0.102760     -0.081950      0.077622
     16.12635     16.22300      6.48920        -0.063967     -0.012879     -0.155132
      3.14795      9.73380      0.00000         0.018013      0.098165     -1.323362
     19.37094      9.73380      3.24460        -0.014299      0.082072      0.085010
     16.12635      9.73380      6.48920         0.218183      0.123291      0.131065
      3.14795      3.24460      0.00000        -0.259439      0.578622     -1.875938
     19.37094      3.24460      3.24460        -0.040725     -0.025858     -0.013771
     16.12635      3.24460      6.48920        -0.212347     -0.118404      0.119200
      9.63715     16.22300      0.00000        -0.752299     -0.470614      1.199579
      6.39255     16.22300      3.24460         0.004081      0.018833     -0.017460
      3.14795     16.22300      6.48920        -0.194572      0.150353      0.085015
      9.63715      9.73380      0.00000         0.126526     -0.554221     -1.868463
      6.39255      9.73380      3.24460         0.068441     -0.114517      0.104539
      3.14795      9.73380      6.48920        -0.147229     -0.093448     -0.262415
      9.63715      3.24460      0.00000         0.042705     -0.137337     -1.396395
      6.39255      3.24460      3.24460        -0.048396      0.099469      0.119602
      3.14795      3.24460      6.48920         0.171254     -0.071357      0.258067
     16.12635     16.22300      0.00000         0.060286     -0.049955     -1.723513
     12.88175     16.22300      3.24460        -0.086515      0.078836      0.085587
      9.63715     16.22300      6.48920         0.209798     -0.115995      0.037567
     16.12635      9.73380      0.00000         0.412089      0.002047      0.656137
     12.88175      9.73380      3.24460         0.045334      0.036244     -0.011053
      9.63715      9.73380      6.48920        -0.146241      0.021631      0.300963
     16.12635      3.24460      0.00000        -0.519920      0.200833      1.669838
     12.88175      3.24460      3.24460         0.040908     -0.082576      0.070477
      9.63715      3.24460      6.48920         0.083899      0.098919     -0.240757
      4.77025     14.60070      1.62230        -0.146241      0.021631     -0.300963
      1.52565     14.60070      4.86690         0.068441     -0.114517     -0.104539
     17.74864     14.60070      8.11150         0.018013      0.098165      1.323362
      4.77025      8.11150      1.62230         0.083899      0.098919      0.240757
      1.52565      8.11150      4.86690        -0.048396      0.099469     -0.119602
     17.74864      8.11150      8.11150        -0.259439      0.578622      1.875938
      4.77025      1.62230      1.62230         0.209798     -0.115995     -0.037567
      1.52565      1.62230      4.86690         0.004081      0.018833      0.017460
     17.74864      1.62230      8.11150         0.869165      0.371173     -0.904501
     11.25945     14.60070      1.62230         0.218183      0.123291     -0.131065
      8.01485     14.60070      4.86690         0.045334      0.036244      0.011053
      4.77025     14.60070      8.11150         0.126526     -0.554221      1.868463
     11.25945      8.11150      1.62230        -0.212347     -0.118404     -0.119200
      8.01485      8.11150      4.86690         0.040908     -0.082576     -0.070477
      4.77025      8.11150      8.11150         0.042705     -0.137337      1.396395
     11.25945      1.62230      1.62230        -0.063967     -0.012879      0.155132
      8.01485      1.62230      4.86690        -0.086515      0.078836     -0.085587
      4.77025      1.62230      8.11150        -0.752299     -0.470614     -1.199579
     17.74864     14.60070      1.62230        -0.147229     -0.093448      0.262415
     14.50404     14.60070      4.86690        -0.014299      0.082072     -0.085010
     11.25944     14.60070      8.11150         0.412089      0.002047     -0.656137
     17.74864      8.11150      1.62230         0.171254     -0.071357     -0.258067
     14.50404      8.11150      4.86690        -0.040725     -0.025858      0.013771
     11.25944      8.11150      8.11150        -0.519920      0.200833     -1.669838
     17.74864      1.62230      1.62230        -0.194572      0.150353     -0.085015
     14.50404      1.62230      4.86690         0.102760     -0.081950     -0.077622
     11.25944      1.62230      8.11150         0.060286     -0.049955      1.723513
     16.40035      4.65389     10.31150         0.015290      0.701541     -0.660811
     14.15409      6.15140     13.02700         0.029048      0.057417      0.046000
     11.90783      7.64891     15.74250        -0.319294     -0.107392      0.393941
     19.39537      9.14642     10.31150        -0.032668      0.166399     -1.094745
     17.14910     10.64392     13.02700        -0.020629      0.030606      0.101838
     14.90284     12.14143     15.74250         0.142857      0.185147      0.490496
      8.91281      3.15639     10.31150         0.019172      0.555000     -0.428025
      6.66655      4.65389     13.02700         0.092537     -0.087609      0.044944
      4.42029      6.15140     15.74250        -0.482985     -0.121851      0.276158
     11.90783      7.64891     10.31150         0.744906      0.145875      2.365024
      9.66157      9.14642     13.02700         0.048603     -0.050640      0.086782
      7.41530     10.64393     15.74250        -0.043212     -0.151820      0.512873
     14.90284     12.14143     10.31150         0.585115      0.307230      1.854924
     12.65658     13.63894     13.02700        -0.046404      0.041931      0.078278
     10.41032     15.13645     15.74250         0.354923      0.095124      0.318173
     17.89786     16.63396     10.31150        -0.059099     -0.892462     -0.663230
     15.65159     18.13147     13.02700        -0.081711      0.083655      0.021132
     13.40533      0.16137     15.74250         0.176596      0.038159     -0.043180
      1.42527      1.65888     10.31150        -0.010978      0.091101     -0.827354
     18.64661      3.15639     13.02700         0.036549      0.100525     -0.011972
     16.40035      4.65389     15.74250        -0.182621      0.047030      0.170164
      4.42029      6.15140     10.31150         0.034751      0.878535     -0.734209
      2.17403      7.64891     13.02700         0.096767     -0.055479      0.052118
     19.39536      9.14642     15.74250        -0.194894      0.016678      0.549502
      7.41531     10.64392     10.31150        -0.694699     -0.319529      1.615571
      5.16904     12.14143     13.02700        -0.014606     -0.022791      0.092771
      2.92278     13.63894     15.74250         0.261463      0.007642      0.508419
     10.41032     15.13645     10.31150        -0.680290     -0.392403      1.432613
      8.16406     16.63395     13.02700        -0.038426     -0.089841      0.032432
      5.91779     18.13146     15.74250         0.090056     -0.052257      0.135900
     13.40533      0.16137     10.31150         0.003410     -0.318924     -0.517401
     11.15907      1.65888     13.02700         0.011858      0.007850     -0.045583
      8.91281      3.15639     15.74250        -0.263361     -0.058071     -0.026280
      2.92278     13.63894     10.31150         0.057415     -0.325453     -1.128107
      0.67652     15.13645     13.02700        -0.101633      0.065180      0.052754
     17.89785     16.63396     15.74250         0.456143      0.094805      0.193644
      5.91780     18.13146     10.31150         0.061912     -0.627756     -0.741491
      3.67153      0.16137     13.02700        -0.023182     -0.089586     -0.038642
      1.42527      1.65888     15.74250        -0.016170      0.015058      0.187437
      1.05090      3.53076     11.66925         0.090056     -0.052257     -0.135900
     18.27223      5.02827     14.38475        -0.023182     -0.089586      0.038642
     16.02597      6.52578     17.10025        -0.010978      0.091101      0.827354
     13.03096      2.03326     11.66925         0.456143      0.094805     -0.193644
     10.78470      3.53076     14.38475        -0.081711      0.083655     -0.021132
      8.53843      5.02827     17.10025         0.003410     -0.318924      0.517401
     16.02598      6.52578     11.66925        -0.016170      0.015058     -0.187437
     13.77971      8.02329     14.38475         0.036549      0.100525      0.011972
     11.53345      9.52080     17.10025         0.015290      0.701541      0.660811
     19.02099     11.01830     11.66925        -0.482985     -0.121851     -0.276158
     16.77473     12.51581     14.38475         0.096767     -0.055479     -0.052118
     14.52846     14.01332     17.10025        -0.032668      0.166399      1.094745
      8.53844      5.02827     11.66925         0.176596      0.038159      0.043180
      6.29217      6.52578     14.38475         0.011858      0.007850      0.045583
      4.04591      8.02329     17.10025         0.019172      0.555000      0.428025
     11.53345      9.52079     11.66925        -0.182621      0.047030     -0.170164
      9.28719     11.01830     14.38475         0.029048      0.057417     -0.046000
      7.04092     12.51581     17.10025         0.744906      0.145875     -2.365024
     14.52847     14.01332     11.66925        -0.194894      0.016678     -0.549502
     12.28220     15.51083     14.38475        -0.020629      0.030606     -0.101838
     10.03594     17.00833     17.10025         0.585115      0.307230     -1.854924
     17.52348     18.50584     11.66925         0.261463      0.007642     -0.508419
     15.27722      0.53575     14.38475        -0.101633      0.065180     -0.052754
     13.03095      2.03326     17.10025        -0.059099     -0.892462      0.663230
      4.04591      8.02329     11.66925        -0.263361     -0.058071      0.026280
      1.79965      9.52079     14.38475         0.092537     -0.087609     -0.044944
     19.02098     11.01830     17.10025         0.034751      0.878535      0.734209
      7.04093     12.51581     11.66925        -0.319294     -0.107392     -0.393941
      4.79466     14.01332     14.38475         0.048603     -0.050640     -0.086782
      2.54840     15.51083     17.10025        -0.694699     -0.319529     -1.615571
     10.03594     17.00833     11.66925         0.142857      0.185147     -0.490496
      7.78968     18.50584     14.38475        -0.046404      0.041931     -0.078278
      5.54342      0.53575     17.10025        -0.680290     -0.392403     -1.432613
      2.54840     15.51082     11.66925        -0.043212     -0.151820     -0.512873
      0.30214     17.00833     14.38475        -0.014606     -0.022791     -0.092771
     17.52348     18.50584     17.10025         0.057415     -0.325453      1.128107
      5.54342      0.53575     11.66925         0.354923      0.095124     -0.318173
      3.29716      2.03326     14.38475        -0.038426     -0.089841     -0.032432
      1.05089      3.53076     17.10025         0.061912     -0.627756      0.741491
      0.67652      5.40265     10.31150        -0.680290     -0.392403      1.432613
     17.89786      6.90016     13.02700        -0.038426     -0.089841      0.032432
     15.65159      8.39767     15.74250         0.090056     -0.052257      0.135900
     12.65658      3.90514     10.31150         0.057415     -0.325453     -1.128107
     10.41032      5.40265     13.02700        -0.101633      0.065180      0.052754
      8.16405      6.90016     15.74250         0.456143      0.094805      0.193644
     15.65160      8.39766     10.31150         0.061912     -0.627756     -0.741491
     13.40533      9.89517     13.02700        -0.023182     -0.089586     -0.038642
     11.15907     11.39268     15.74250        -0.016170      0.015058      0.187437
     18.64661     12.89019     10.31150         0.019172      0.555000     -0.428025
     16.40035     14.38770     13.02700         0.092537     -0.087609      0.044944
     14.15409     15.88520     15.74250        -0.482985     -0.121851      0.276158
      5.16904      2.40763     10.31150         0.585115      0.307230      1.854924
      2.92278      3.90514     13.02700        -0.046404      0.041931      0.078278
      0.67652      5.40265     15.74250         0.354923      0.095124      0.318173
      8.16406      6.90016     10.31150        -0.059099     -0.892462     -0.663230
      5.91780      8.39766     13.02700        -0.081711      0.083655      0.021132
      3.67153      9.89517     15.74250         0.176596      0.038159     -0.043180
     11.15907     11.39268     10.31150        -0.010978      0.091101     -0.827354
      8.91281     12.89019     13.02700         0.036549      0.100525     -0.011972
      6.66655     14.38770     15.74250        -0.182621      0.047030      0.170164
     14.15409     15.88520     10.31150         0.034751      0.878535     -0.734209
     11.90782     17.38271     13.02700         0.096767     -0.055479      0.052118
      9.66156     18.88022     15.74250        -0.194894      0.016678      0.549502
     17.14910      0.91013     10.31150        -0.694699     -0.319529      1.615571
     14.90284      2.40763     13.02700        -0.014606     -0.022791      0.092771
     12.65658      3.90514     15.74250         0.261463      0.007642      0.508419
      3.67154      9.89517     10.31150         0.003410     -0.318924     -0.517401
      1.42527     11.39268     13.02700         0.011858      0.007850     -0.045583
     18.64661     12.89019     15.74250        -0.263361     -0.058071     -0.026280
      6.66655     14.38770     10.31150         0.015290      0.701541     -0.660811
      4.42029     15.88520     13.02700         0.029048      0.057417      0.046000
      2.17402     17.38271     15.74250        -0.319294     -0.107392      0.393941
      9.66157     18.88022     10.31150        -0.032668      0.166399     -1.094745
      7.41530      0.91013     13.02700        -0.020629      0.030606      0.101838
      5.16904      2.40763     15.74250         0.142857      0.185147      0.490496
      2.17403     17.38271     10.31150         0.744906      0.145875      2.365024
     19.39536     18.88022     13.02700         0.048603     -0.050640      0.086782
     17.14910      0.91013     15.74250        -0.043212     -0.151820      0.512873
     16.77473      2.78201     11.66925        -0.319294     -0.107392     -0.393941
     14.52847      4.27952     14.38475         0.048603     -0.050640     -0.086782
     12.28220      5.77703     17.10025        -0.694699     -0.319529     -1.615571
      0.30214      7.27453     11.66925         0.142857      0.185147     -0.490496
     17.52348      8.77204     14.38475        -0.046404      0.041931     -0.078278
     15.27721     10.26955     17.10025        -0.680290     -0.392403     -1.432613
     12.28221      5.77702     11.66925        -0.043212     -0.151820     -0.512873
     10.03594      7.27453     14.38475        -0.014606     -0.022791     -0.092771
      7.78968      8.77204     17.10025         0.057415     -0.325453      1.128107
     15.27722     10.26955     11.66925         0.354923      0.095124     -0.318173
     13.03096     11.76706     14.38475        -0.038426     -0.089841     -0.032432
     10.78470     13.26456     17.10025         0.061912     -0.627756      0.741491
     18.27224     14.76207     11.66925         0.176596      0.038159      0.043180
     16.02598     16.25958     14.38475         0.011858      0.007850      0.045583
     13.77971     17.75709     17.10025         0.019172      0.555000      0.428025
      4.79467      4.27952     11.66925        -0.194894      0.016678     -0.549502
      2.54840      5.77702     14.38475        -0.020629      0.030606     -0.101838
      0.30214      7.27453     17.10025         0.585115      0.307230     -1.854924
      7.78968      8.77204     11.66925         0.261463      0.007642     -0.508419
      5.54342     10.26955     14.38475        -0.101633      0.065180     -0.052754
      3.29716     11.76706     17.10025        -0.059099     -0.892462      0.663230
     10.78470     13.26456     11.66925         0.090056     -0.052257     -0.135900
      8.53843     14.76207     14.38475        -0.023182     -0.089586      0.038642
      6.29217     16.25958     17.10025        -0.010978      0.091101      0.827354
     13.77971     17.75709     11.66925        -0.263361     -0.058071      0.026280
     11.53345     19.25460     14.38475         0.092537     -0.087609     -0.044944
      9.28719      1.28450     17.10025         0.034751      0.878535      0.734209
      3.29716     11.76705     11.66925         0.456143      0.094805     -0.193644
      1.05090     13.26456     14.38475        -0.081711      0.083655     -0.021132
     18.27223     14.76207     17.10025         0.003410     -0.318924      0.517401
      6.29217     16.25958     11.66925        -0.016170      0.015058     -0.187437
      4.04591     17.75709     14.38475         0.036549      0.100525      0.011972
      1.79965     19.25460     17.10025         0.015290      0.701541      0.660811
      9.28719      1.28450     11.66925        -0.482985     -0.121851     -0.276158
      7.04093      2.78201     14.38475         0.096767     -0.055479     -0.052118
      4.79466      4.27952     17.10025        -0.032668      0.166399      1.094745
      1.79965     19.25459     11.66925        -0.182621      0.047030     -0.170164
     19.02099      1.28450     14.38475         0.029048      0.057417     -0.046000
     16.77472      2.78201     17.10025         0.744906      0.145875     -2.365024
 -----------------------------------------------------------------------------------
    total drift:                                0.367487     -0.006766      0.017941


--------------------------------------------------------------------------------------------------------



  FREE ENERGIE OF THE ION-ELECTRON SYSTEM (eV)
  ---------------------------------------------------
  free  energy   TOTEN  =     -1173.58464895 eV

  energy  without entropy=    -1173.57749799  energy(sigma->0) =    -1173.58107347
 


--------------------------------------------------------------------------------------------------------


    POTLOK:  cpu time      3.2151: real time      3.2355


--------------------------------------------------------------------------------------------------------


     LOOP+:  cpu time   5444.8053: real time   5496.2147
    4ORBIT:  cpu time      0.0000: real time      0.0000

 total amount of memory used by VASP MPI-rank0   916450. kBytes
=======================================================================

   base      :      30000. kBytes
   nonlr-proj:      25146. kBytes
   fftplans  :      40892. kBytes
   grid      :      30643. kBytes
   one-center:        275. kBytes
   wavefun   :     789494. kBytes
 
  
  
 General timing and accounting informations for this job:
 ========================================================
  
                  Total CPU time used (sec):     5771.449
                            User time (sec):     5508.354
                          System time (sec):      263.095
                         Elapsed time (sec):     5829.490
  
                   Maximum memory used (kb):     1239920.
                   Average memory used (kb):          N/A
  
                          Minor page faults:      1013493
                          Major page faults:         1114
                 Voluntary context switches:         3666
