Si and Ge interface calculation         
           1
    13.303180    0.000000    0.000000
    -6.651589   14.873406    0.000000
     0.000000    0.000000    8.390059
   Si   C 
    36    84
Direct configuration=     1
   0.99715096  0.98005658  0.00000000
   0.96381754  0.74672317  0.14474383
   0.93048412  0.51338983  0.28948766
   0.33048421  0.31338987  0.00000000
   0.29715079  0.08005647  0.14474383
   0.26381737  0.84672308  0.28948766
   0.66381747  0.64672315  0.00000000
   0.63048405  0.41338971  0.14474383
   0.59715062  0.18005633  0.28948766
   0.31381753  0.94672334  0.07237176
   0.28048411  0.71338999  0.21711558
   0.24715069  0.48005658  0.36185935
   0.64715082  0.28005657  0.07237176
   0.61381739  0.04672319  0.21711555
   0.58048397  0.81338978  0.36185938
   0.98048443  0.61338985  0.07237179
   0.94715101  0.38005647  0.21711555
   0.91381758  0.14672309  0.36185935
   0.16381757  0.64672309  0.00000000
   0.13048416  0.41338971  0.14474383
   0.09715075  0.18005632  0.28948766
   0.49715090  0.98005664  0.00000000
   0.46381742  0.74672317  0.14474377
   0.43048406  0.51338983  0.28948760
   0.83048415  0.31338987  0.00000000
   0.79715073  0.08005653  0.14474377
   0.76381731  0.84672308  0.28948760
   0.14715090  0.28005657  0.07237177
   0.11381748  0.04672317  0.21711558
   0.08048407  0.81338978  0.36185938
   0.48048422  0.61338991  0.07237177
   0.44715083  0.38005653  0.21711555
   0.41381741  0.14672317  0.36185938
   0.81381750  0.94672328  0.07237176
   0.78048414  0.71338987  0.21711555
   0.74715072  0.48005646  0.36185938
   0.60358953  0.95775014  0.75222486
   0.40358943  0.55775022  0.56210440
   0.50358951  0.25775018  0.65716469
   0.88930386  0.10060728  0.75222486
   0.68930364  0.70060736  0.56210440
   0.78930378  0.40060732  0.65716469
   0.17501807  0.24346435  0.75222486
   0.97501796  0.84346443  0.56210440
   0.07501805  0.54346442  0.65716469
   0.46073243  0.38632160  0.75222486
   0.26073226  0.98632169  0.56210440
   0.36073235  0.68632168  0.65716469
   0.74644673  0.52917874  0.75222486
   0.54644656  0.12917885  0.56210440
   0.64644659  0.82917881  0.65716469
   0.03216100  0.67203587  0.75222486
   0.83216077  0.27203599  0.56210440
   0.93216085  0.97203594  0.65716469
   0.31787515  0.81489295  0.75222486
   0.11787510  0.41489312  0.56210440
   0.21787512  0.11489308  0.65716469
   0.58216101  0.27203596  0.79975486
   0.38216084  0.87203610  0.60963446
   0.48216093  0.57203609  0.70469463
   0.72501808  0.84346449  0.79975486
   0.52501798  0.44346458  0.60963446
   0.62501800  0.14346453  0.70469463
   0.01073241  0.98632181  0.79975486
   0.81073213  0.58632189  0.60963446
   0.91073221  0.28632182  0.70469469
   0.29644668  0.12917891  0.79975480
   0.09644651  0.72917897  0.60963446
   0.19644666  0.42917892  0.70469469
   0.86787528  0.41489303  0.79975486
   0.66787517  0.01489317  0.60963446
   0.76787520  0.71489304  0.70469463
   0.15358949  0.55775034  0.79975486
   0.95358932  0.15775044  0.60963446
   0.05358934  0.85775036  0.70469463
   0.43930364  0.70060736  0.79975486
   0.23930359  0.30060750  0.60963446
   0.33930361  0.00060749  0.70469463
   0.67501819  0.24346434  0.75222486
   0.47501793  0.84346449  0.56210440
   0.57501805  0.54346442  0.65716469
   0.53216100  0.67203587  0.75222486
   0.33216083  0.27203596  0.56210440
   0.43216091  0.97203588  0.65716469
   0.81787521  0.81489295  0.75222486
   0.61787510  0.41489309  0.56210440
   0.71787512  0.11489305  0.65716469
   0.10358953  0.95775008  0.75222486
   0.90358931  0.55775017  0.56210440
   0.00358951  0.25775015  0.65716469
   0.38930380  0.10060722  0.75222486
   0.18930364  0.70060736  0.56210440
   0.28930366  0.40060726  0.65716469
   0.96073234  0.38632160  0.75222486
   0.76073217  0.98632169  0.56210440
   0.86073232  0.68632162  0.65716469
   0.24644661  0.52917868  0.75222486
   0.04644644  0.12917882  0.56210440
   0.14644659  0.82917875  0.65716469
   0.51073241  0.98632181  0.79975486
   0.31073222  0.58632189  0.60963446
   0.41073227  0.28632182  0.70469469
   0.79644668  0.12917890  0.79975486
   0.59644651  0.72917897  0.60963446
   0.69644666  0.42917892  0.70469469
   0.08216095  0.27203602  0.79975486
   0.88216078  0.87203610  0.60963446
   0.98216087  0.57203597  0.70469469
   0.65358955  0.55775040  0.79975486
   0.45358941  0.15775049  0.60963446
   0.55358946  0.85775042  0.70469463
   0.93930382  0.70060748  0.79975480
   0.73930365  0.30060756  0.60963446
   0.83930367  0.00060749  0.70469469
   0.22501802  0.84346443  0.79975480
   0.02501774  0.44346452  0.60963446
   0.12501788  0.14346451  0.70469463
   0.36787522  0.41489303  0.79975492
   0.16787505  0.01489317  0.60963446
   0.26787507  0.71489304  0.70469469
