<?xml version="1.0" encoding="ISO-8859-1"?>
<modeling>
 <generator>
  <i name="program" type="string">vasp </i>
  <i name="version" type="string">6.4.3  </i>
  <i name="subversion" type="string">19Mar24 (build Oct 22 2024 11:23:12) complex                          parallel </i>
  <i name="platform" type="string">LinuxIFC </i>
  <i name="date" type="string">2025 06 04 </i>
  <i name="time" type="string">03:36:08 </i>
 </generator>
 <incar>
  <i type="string" name="SYSTEM">Si and Ge interface calculation</i>
  <i type="int" name="ISTART">     0</i>
  <i type="logical" name="ADDGRID"> T  </i>
  <i type="int" name="ISPIN">     2</i>
  <i name="AMIX">      0.60000000</i>
  <i type="int" name="ICHARG">     2</i>
  <i type="int" name="NELM">   100</i>
  <i name="EDIFF">      0.00000010</i>
  <i name="ENCUT">    700.00000000</i>
  <i name="ENAUG">    900.00000000</i>
  <i type="int" name="NBANDS">   173</i>
  <i name="NUPDOWN">      1.00000000</i>
  <i name="NELECT">    288.00000000</i>
  <i type="string" name="LREAL">AUTO</i>
  <i type="int" name="ISMEAR">     0</i>
  <i name="SIGMA">      0.01000000</i>
  <i type="int" name="LMAXMIX">     6</i>
  <i type="logical" name="LWAVE"> F  </i>
  <i type="logical" name="LVTOT"> F  </i>
  <i type="logical" name="LVHAR"> T  </i>
  <i type="logical" name="LASPH"> T  </i>
  <i type="logical" name="LMIXTAU"> T  </i>
 </incar>
 <primitive_cell>
  <structure name="primitive_cell" >
   <crystal>
    <varray name="basis" >
     <v>      -3.84029745       0.00000000       0.00000000 </v>
     <v>       0.00000000       0.00000000      13.46377850 </v>
     <v>       0.00000000      16.29299927       0.00000000 </v>
    </varray>
    <i name="volume">    842.42813016 </i>
    <varray name="rec_basis" >
     <v>      -0.26039650       0.00000000       0.00000000 </v>
     <v>       0.00000000       0.00000000       0.07427336 </v>
     <v>       0.00000000       0.06137605       0.00000000 </v>
    </varray>
   </crystal>
   <varray name="positions" >
    <v>       0.11297202       0.00000001       0.91213298 </v>
    <v>       0.61297205       0.04753868       0.52324402 </v>
    <v>       0.11297214       0.09507734       0.13435513 </v>
    <v>       0.61297216       0.14261596       0.74546611 </v>
    <v>       0.11297237       0.19015467       0.35657716 </v>
    <v>       0.61297264       0.23769335       0.96768808 </v>
    <v>       0.61297175       0.00000000       0.66213304 </v>
    <v>       0.11297202       0.04753866       0.27324402 </v>
    <v>       0.61297196       0.09507731       0.88435507 </v>
    <v>       0.11297214       0.14261597       0.49546605 </v>
    <v>       0.61297240       0.19015463       0.10657704 </v>
    <v>       0.11297261       0.23769335       0.71768796 </v>
    <v>       0.85918856       0.35620677       0.56980324 </v>
    <v>       0.35918877       0.56631863       0.44480324 </v>
    <v>       0.85918856       0.77643055       0.31980324 </v>
    <v>       0.85918880       0.35620677       0.06980324 </v>
    <v>       0.35918877       0.56631863       0.94480324 </v>
    <v>       0.85918856       0.77643055       0.81980324 </v>
    <v>       0.85918856       0.35620677       0.81980324 </v>
    <v>       0.35918877       0.56631863       0.69480324 </v>
    <v>       0.85918856       0.77643055       0.56980324 </v>
    <v>       0.85918880       0.35620677       0.31980324 </v>
    <v>       0.35918877       0.56631863       0.19480324 </v>
    <v>       0.85918880       0.77643055       0.06980324 </v>
    <v>       0.35918889       0.46126270       0.56980324 </v>
    <v>       0.85918856       0.67137456       0.44480324 </v>
    <v>       0.35918877       0.88148654       0.31980324 </v>
    <v>       0.35918889       0.46126270       0.06980324 </v>
    <v>       0.85918880       0.67137456       0.94480318 </v>
    <v>       0.35918889       0.88148654       0.81980318 </v>
    <v>       0.35918877       0.46126270       0.81980324 </v>
    <v>       0.85918856       0.67137456       0.69480324 </v>
    <v>       0.35918877       0.88148654       0.56980324 </v>
    <v>       0.35918877       0.46126270       0.31980324 </v>
    <v>       0.85918856       0.67137456       0.19480324 </v>
    <v>       0.35918877       0.88148654       0.06980324 </v>
   </varray>
  </structure>
  <varray name="primitive_index" >
   <v type="int" >        1 </v>
   <v type="int" >       20 </v>
   <v type="int" >       21 </v>
   <v type="int" >        4 </v>
   <v type="int" >        5 </v>
   <v type="int" >       24 </v>
   <v type="int" >       13 </v>
   <v type="int" >        8 </v>
   <v type="int" >       15 </v>
   <v type="int" >       16 </v>
   <v type="int" >       11 </v>
   <v type="int" >       12 </v>
   <v type="int" >       25 </v>
   <v type="int" >       26 </v>
   <v type="int" >       54 </v>
   <v type="int" >       28 </v>
   <v type="int" >       29 </v>
   <v type="int" >       60 </v>
   <v type="int" >       49 </v>
   <v type="int" >       50 </v>
   <v type="int" >       33 </v>
   <v type="int" >       55 </v>
   <v type="int" >       56 </v>
   <v type="int" >       36 </v>
   <v type="int" >       64 </v>
   <v type="int" >       38 </v>
   <v type="int" >       39 </v>
   <v type="int" >       70 </v>
   <v type="int" >       41 </v>
   <v type="int" >       42 </v>
   <v type="int" >       43 </v>
   <v type="int" >       62 </v>
   <v type="int" >       63 </v>
   <v type="int" >       46 </v>
   <v type="int" >       68 </v>
   <v type="int" >       69 </v>
  </varray>
 </primitive_cell>
 <kpoints>
  <generation param="Gamma">
   <v type="int" name="divisions">       4        2        2 </v>
   <v name="usershift">      0.00000000       0.00000000       0.00000000 </v>
   <v name="genvec1">      0.25000000       0.00000000       0.00000000 </v>
   <v name="genvec2">      0.00000000       0.50000000       0.00000000 </v>
   <v name="genvec3">      0.00000000       0.00000000       0.50000000 </v>
   <v name="shift">      0.00000000       0.00000000       0.00000000 </v>
  </generation>
  <varray name="kpointlist" >
   <v>       0.00000000       0.00000000       0.00000000 </v>
   <v>       0.25000000       0.00000000       0.00000000 </v>
   <v>       0.50000000       0.00000000       0.00000000 </v>
   <v>       0.00000000       0.50000000       0.00000000 </v>
   <v>       0.25000000       0.50000000       0.00000000 </v>
   <v>       0.50000000       0.50000000       0.00000000 </v>
   <v>       0.00000000       0.00000000       0.50000000 </v>
   <v>       0.25000000       0.00000000       0.50000000 </v>
   <v>       0.50000000       0.00000000       0.50000000 </v>
   <v>       0.00000000       0.50000000       0.50000000 </v>
   <v>       0.25000000       0.50000000       0.50000000 </v>
   <v>       0.50000000       0.50000000       0.50000000 </v>
  </varray>
  <varray name="weights" >
   <v>       0.06250000 </v>
   <v>       0.12500000 </v>
   <v>       0.06250000 </v>
   <v>       0.06250000 </v>
   <v>       0.12500000 </v>
   <v>       0.06250000 </v>
   <v>       0.06250000 </v>
   <v>       0.12500000 </v>
   <v>       0.06250000 </v>
   <v>       0.06250000 </v>
   <v>       0.12500000 </v>
   <v>       0.06250000 </v>
  </varray>
 </kpoints>
 <parameters>
  <separator name="general" >
   <i type="string" name="SYSTEM">Si and Ge interface calculation</i>
   <i type="logical" name="LCOMPAT"> F  </i>
  </separator>
  <separator name="electronic" >
   <i type="string" name="PREC">normal</i>
   <i name="ENMAX">    700.00000000</i>
   <i name="ENAUG">    900.00000000</i>
   <i name="EDIFF">      0.00000010</i>
   <i type="int" name="IALGO">    38</i>
   <i type="int" name="IWAVPR">    10</i>
   <i type="int" name="NBANDS">   176</i>
   <i type="int" name="NBANDSLOW">    -1</i>
   <i type="int" name="NBANDSHIGH">    -1</i>
   <i name="NELECT">    288.00000000</i>
   <i type="int" name="TURBO">     0</i>
   <i type="int" name="IRESTART">     0</i>
   <i type="int" name="NREBOOT">     0</i>
   <i type="int" name="NMIN">     0</i>
   <i name="EREF">      0.00000000</i>
   <separator name="electronic smearing" >
    <i type="int" name="ISMEAR">     0</i>
    <i name="SIGMA">      0.01000000</i>
    <i name="KSPACING">      0.50000000</i>
    <i type="logical" name="KGAMMA"> T  </i>
    <i type="logical" name="KBLOWUP"> T  </i>
   </separator>
   <separator name="electronic projectors" >
    <i type="logical" name="LREAL"> T  </i>
    <v name="ROPT">     -0.00050000     -0.00050000</v>
    <i type="int" name="LMAXPAW">  -100</i>
    <i type="int" name="LMAXMIX">     6</i>
    <i type="logical" name="NLSPLINE"> F  </i>
   </separator>
   <separator name="electronic startup" >
    <i type="int" name="ISTART">     0</i>
    <i type="int" name="ICHARG">     2</i>
    <i type="int" name="INIWAV">     1</i>
   </separator>
   <separator name="electronic spin" >
    <i type="int" name="ISPIN">     2</i>
    <i type="logical" name="LNONCOLLINEAR"> F  </i>
    <v name="MAGMOM">      0.01388889      0.01388889      0.01388889      0.01388889      0.01388889      0.01388889      0.01388889      0.01388889      0.01388889      0.01388889      0.01388889      0.01388889      0.01388889      0.01388889      0.01388889      0.01388889      0.01388889      0.01388889      0.01388889      0.01388889
      0.01388889      0.01388889      0.01388889      0.01388889      0.01388889      0.01388889      0.01388889      0.01388889      0.01388889      0.01388889      0.01388889      0.01388889      0.01388889      0.01388889      0.01388889      0.01388889      0.01388889      0.01388889      0.01388889      0.01388889
      0.01388889      0.01388889      0.01388889      0.01388889      0.01388889      0.01388889      0.01388889      0.01388889      0.01388889      0.01388889      0.01388889      0.01388889      0.01388889      0.01388889      0.01388889      0.01388889      0.01388889      0.01388889      0.01388889      0.01388889
      0.01388889      0.01388889      0.01388889      0.01388889      0.01388889      0.01388889      0.01388889      0.01388889      0.01388889      0.01388889      0.01388889      0.01388889</v>
    <i name="NUPDOWN">      1.00000000</i>
    <i type="logical" name="LSORBIT"> F  </i>
    <v name="SAXIS">      0.00000000      0.00000000      1.00000000</v>
    <i type="logical" name="LSPIRAL"> F  </i>
    <v name="QSPIRAL">      0.00000000      0.00000000      0.00000000</v>
    <i type="logical" name="LZEROZ"> F  </i>
   </separator>
   <separator name="electronic exchange-correlation" >
    <i type="logical" name="LASPH"> T  </i>
   </separator>
   <separator name="electronic convergence" >
    <i type="int" name="NELM">   100</i>
    <i type="int" name="NELMDL">    -5</i>
    <i type="int" name="NELMIN">     2</i>
    <i name="ENINI">    700.00000000</i>
    <separator name="electronic convergence detail" >
     <i type="logical" name="LDIAG"> T  </i>
     <i type="logical" name="LSUBROT"> F  </i>
     <i name="WEIMIN">      0.00000000</i>
     <i name="EBREAK">      0.00000000</i>
     <i name="DEPER">      0.30000000</i>
     <i type="int" name="NRMM">     4</i>
     <i name="TIME">      0.40000000</i>
    </separator>
   </separator>
   <separator name="electronic mixer" >
    <i name="AMIX">      0.60000000</i>
    <i name="BMIX">      1.00000000</i>
    <i name="AMIN">      0.10000000</i>
    <i name="AMIX_MAG">      2.40000000</i>
    <i name="BMIX_MAG">      1.00000000</i>
    <separator name="electronic mixer details" >
     <i type="int" name="IMIX">     4</i>
     <i type="logical" name="MIXFIRST"> F  </i>
     <i type="int" name="MAXMIX">   -45</i>
     <i name="WC">    100.00000000</i>
     <i type="int" name="INIMIX">     1</i>
     <i type="int" name="MIXPRE">     1</i>
     <i type="int" name="MREMOVE">     5</i>
    </separator>
   </separator>
   <separator name="electronic dipolcorrection" >
    <i type="logical" name="LDIPOL"> F  </i>
    <i type="logical" name="LMONO"> F  </i>
    <i type="int" name="IDIPOL">     0</i>
    <i name="EPSILON">      1.00000000</i>
    <v name="DIPOL">   -100.00000000   -100.00000000   -100.00000000</v>
    <i name="EFIELD">      0.00000000</i>
    <i type="logical" name="LVACPOTAV"> F  </i>
   </separator>
  </separator>
  <separator name="grids" >
   <i type="int" name="NGX">    50</i>
   <i type="int" name="NGY">   108</i>
   <i type="int" name="NGZ">    90</i>
   <i type="int" name="NGXF">   100</i>
   <i type="int" name="NGYF">   216</i>
   <i type="int" name="NGZF">   180</i>
   <i type="logical" name="ADDGRID"> T  </i>
  </separator>
  <separator name="ionic" >
   <i type="int" name="NSW">     0</i>
   <i type="int" name="IBRION">    -1</i>
   <i type="int" name="MDALGO">     0</i>
   <i type="int" name="ISIF">     2</i>
   <i name="PSTRESS">      0.00000000</i>
   <i name="EDIFFG">      0.00000100</i>
   <i type="int" name="NFREE">     0</i>
   <i name="POTIM">      0.50000000</i>
   <i name="SMASS">     -3.00000000</i>
   <i name="SCALEE">      1.00000000</i>
  </separator>
  <separator name="ionic md" >
   <i name="TEBEG">      0.00010000</i>
   <i name="TEEND">      0.00010000</i>
   <i type="int" name="NBLOCK">     1</i>
   <i type="int" name="KBLOCK">     1</i>
   <i type="int" name="NPACO">   256</i>
   <i name="APACO">     10.00000000</i>
  </separator>
  <separator name="symmetry" >
   <i type="int" name="ISYM">     2</i>
   <i name="SYMPREC">      0.00001000</i>
  </separator>
  <separator name="dos" >
   <i type="int" name="LORBIT">     0</i>
   <v name="RWIGS">     -1.00000000     -1.00000000</v>
   <i type="int" name="NEDOS">   301</i>
   <i name="EMIN">     10.00000000</i>
   <i name="EMAX">    -10.00000000</i>
   <i name="EFERMI">      0.00000000</i>
  </separator>
  <separator name="writing" >
   <i type="int" name="NWRITE">     2</i>
   <i type="logical" name="LWAVE"> F  </i>
   <i type="logical" name="LDOWNSAMPLE"> F  </i>
   <i type="logical" name="LCHARG"> T  </i>
   <i type="logical" name="LPARD"> F  </i>
   <i type="logical" name="LVTOT"> F  </i>
   <i type="logical" name="LVHAR"> T  </i>
   <i type="logical" name="LELF"> F  </i>
   <i type="logical" name="LOPTICS"> F  </i>
   <v name="STM">      0.00000000      0.00000000      0.00000000      0.00000000      0.00000000      0.00000000      0.00000000</v>
  </separator>
  <separator name="performance" >
   <i type="int" name="NPAR">     4</i>
   <i type="int" name="NSIM">     4</i>
   <i type="int" name="NBLK">    -1</i>
   <i type="logical" name="LPLANE"> T  </i>
   <i type="logical" name="LSCALAPACK"> T  </i>
   <i type="logical" name="LSCAAWARE"> F  </i>
   <i type="logical" name="LSCALU"> F  </i>
   <i type="logical" name="LASYNC"> F  </i>
   <i type="logical" name="LORBITALREAL"> F  </i>
  </separator>
  <separator name="miscellaneous" >
   <i type="int" name="IDIOT">     3</i>
   <i type="int" name="PHON_NSTRUCT">    -1</i>
   <i type="logical" name="LMUSIC"> F  </i>
   <v name="POMASS">     28.08500000     72.61000000</v>
   <v name="DARWINR">      0.00000000      0.00000000</v>
   <v name="DARWINV">      1.00000000      1.00000000</v>
   <i type="logical" name="LCORR"> T  </i>
  </separator>
  <i type="logical" name="GGA_COMPAT"> T  </i>
  <i type="logical" name="LBERRY"> F  </i>
  <i type="int" name="ICORELEVEL">     0</i>
  <i type="logical" name="LDAU"> F  </i>
  <i type="int" name="I_CONSTRAINED_M">     0</i>
  <separator name="electronic exchange-correlation" >
   <i type="string" name="GGA    ">PE</i>
   <i type="string" name="XC_C">1</i>
   <i type="int" name="VOSKOWN">     0</i>
   <i type="logical" name="LHFCALC"> F  </i>
   <i type="string" name="PRECFOCK"></i>
   <i type="logical" name="LSYMGRAD"> F  </i>
   <i type="logical" name="LHFONE"> F  </i>
   <i type="logical" name="LRHFCALC"> F  </i>
   <i type="logical" name="LTHOMAS"> F  </i>
   <i type="logical" name="LMODELHF"> F  </i>
   <i type="logical" name="LFOCKACE"> F  </i>
   <i name="ENCUT4O">     -1.00000000</i>
   <i type="int" name="EXXOEP">     0</i>
   <i type="int" name="FOURORBIT">     0</i>
   <i name="AEXX">      0.00000000</i>
   <i name="HFALPHA">      0.00000000</i>
   <i name="MCALPHA">      0.00000000</i>
   <i name="ALDAX">      1.00000000</i>
   <i name="AGGAX">      1.00000000</i>
   <i name="AMGGAX">      1.00000000</i>
   <i name="ALDAC">      1.00000000</i>
   <i name="AGGAC">      1.00000000</i>
   <i name="AMGGAC">      1.00000000</i>
   <i type="int" name="NKREDX">     1</i>
   <i type="int" name="NKREDY">     1</i>
   <i type="int" name="NKREDZ">     1</i>
   <i type="logical" name="SHIFTRED"> F  </i>
   <i type="logical" name="ODDONLY"> F  </i>
   <i type="logical" name="EVENONLY"> F  </i>
   <i type="int" name="LMAXFOCK">     0</i>
   <i type="int" name="NMAXFOCKAE">     0</i>
   <i type="logical" name="LFOCKAEDFT"> F  </i>
   <i name="HFSCREEN">      0.00000000</i>
   <i name="HFSCREENC">      0.00000000</i>
   <i type="int" name="NBANDSGWLOW">     0</i>
  </separator>
  <separator name="vdW DFT" >
   <i type="logical" name="LUSE_VDW"> F  </i>
   <i type="int" name="IVDW_NL">    -1</i>
   <i type="logical" name="LSPIN_VDW"> F  </i>
   <i name="ZAB_VDW">     -0.84910000</i>
   <i name="GAMMA_VDW">      1.39626340</i>
   <i name="ALPHA_VDW">      0.00000000</i>
   <i name="PARAM1">      0.12340000</i>
   <i name="PARAM2">      1.00000000</i>
   <i name="BPARAM">      6.30000000</i>
   <i name="CPARAM">      0.00930000</i>
  </separator>
  <separator name="model GW" >
   <i type="int" name="MODEL_GW">     0</i>
   <i name="MODEL_EPS0">     14.04046799</i>
   <i name="MODEL_ALPHA">      1.00000000</i>
  </separator>
  <separator name="linear response parameters" >
   <i type="logical" name="LEPSILON"> F  </i>
   <i type="logical" name="LRPA"> F  </i>
   <i type="logical" name="LNABLA"> F  </i>
   <i type="logical" name="LVEL"> F  </i>
   <i name="CSHIFT">      0.10000000</i>
   <i name="OMEGAMAX">     -1.00000000</i>
   <i name="DEG_THRESHOLD">      0.00200000</i>
   <i name="RTIME">     -0.10000000</i>
   <i name="WPLASMAI">      0.00000000</i>
   <v name="DFIELD">      0.00000000      0.00000000      0.00000000</v>
   <v name="WPLASMA">      0.00000000      0.00000000      0.00000000      0.00000000      0.00000000      0.00000000      0.00000000      0.00000000      0.00000000</v>
  </separator>
  <separator name="orbital magnetization" >
   <i type="logical" name="NUCIND"> F  </i>
   <v name="MAGPOS">      0.00000000      0.00000000      0.00000000</v>
   <i type="logical" name="LNICSALL"> T  </i>
   <i type="logical" name="ORBITALMAG"> F  </i>
   <i type="logical" name="LMAGBLOCH"> F  </i>
   <i type="logical" name="LCHIMAG"> F  </i>
   <i type="logical" name="LGAUGE"> T  </i>
   <i type="int" name="MAGATOM">     0</i>
   <v name="MAGDIPOL">      0.00000000      0.00000000      0.00000000</v>
   <v name="AVECCONST">      0.00000000      0.00000000      0.00000000</v>
  </separator>
  <separator name="response functions" >
   <i type="logical" name="LALL_IN_ONE"> F  </i>
   <i type="int" name="IALL_IN_ONE">    -1</i>
   <i type="int" name="NBANDS_WAVE">    -1</i>
   <i type="logical" name="LFINITE_TEMPERATURE"> F  </i>
   <i type="logical" name="LADDER"> F  </i>
   <i type="logical" name="LRPAFORCE"> F  </i>
   <i type="logical" name="LFXC"> F  </i>
   <i type="logical" name="LHARTREE"> T  </i>
   <i type="int" name="IBSE">     0</i>
   <v type="int" name="KPOINT">    -1     0     0     0</v>
   <i type="logical" name="LTCTC"> F  </i>
   <i type="logical" name="LTCTE"> F  </i>
   <i type="logical" name="LTETE"> F  </i>
   <i type="logical" name="LTRIPLET"> F  </i>
   <i type="logical" name="LFXCEPS"> F  </i>
   <i type="logical" name="LFXHEG"> F  </i>
   <i type="int" name="NATURALO">     2</i>
   <i type="logical" name="LHOLEGF"> F  </i>
   <i type="logical" name="L2ORDER"> F  </i>
   <i type="logical" name="LDMP1"> F  </i>
   <i type="logical" name="LMP2LT"> F  </i>
   <i type="logical" name="LSMP2LT"> F  </i>
   <i type="logical" name="LGWLF"> F  </i>
   <i name="ENCUTGW">     -1.60000002</i>
   <i name="ENCUTGWSOFT">     -1.60000002</i>
   <i name="ENCUTLF">     -1.00000000</i>
   <i type="logical" name="ESF_SPLINES"> F  </i>
   <i name="ESF_CONV">      0.01000000</i>
   <i type="int" name="ESF_NINTER">    15</i>
   <i type="int" name="LMAXMP2">    -1</i>
   <i name="SCISSOR">      0.00000000</i>
   <i type="int" name="NOMEGA">     0</i>
   <i type="int" name="NOMEGAR">     0</i>
   <i type="int" name="NBANDSGW">    -1</i>
   <i type="int" name="NBANDSO">    -1</i>
   <i type="int" name="NBANDSV">    -1</i>
   <i type="int" name="NELMGW">     1</i>
   <i type="int" name="NELMHF">     1</i>
   <i type="int" name="DIM">     3</i>
   <i type="int" name="IESPILON">     4</i>
   <i type="int" name="ANTIRES">     0</i>
   <i name="OMEGAMAX">    -30.00000000</i>
   <i name="OMEGAMIN">    -30.00000000</i>
   <i name="OMEGATL">   -200.00000000</i>
   <i type="int" name="OMEGAGRID">     0</i>
   <i name="CSHIFT">     -0.10000000</i>
   <i type="logical" name="LSELFENERGY"> F  </i>
   <i type="logical" name="LSPECTRAL"> F  </i>
   <i type="logical" name="LSPECTRALGW"> F  </i>
   <i type="logical" name="LSINGLES"> F  </i>
   <i type="logical" name="LFERMIGW"> F  </i>
   <i type="logical" name="ODDONLYGW"> F  </i>
   <i type="logical" name="EVENONLYGW"> F  </i>
   <i type="int" name="NKREDLFX">     1</i>
   <i type="int" name="NKREDLFY">     1</i>
   <i type="int" name="NKREDLFZ">     1</i>
   <i type="int" name="MAXMEM">  2800</i>
   <i type="int" name="TELESCOPE">     0</i>
   <i type="int" name="NTAUPAR">    -1</i>
   <i type="int" name="NOMEGAPAR">    -1</i>
   <i name="DAMP_NEWTON">      0.80000001</i>
   <i name="LAMBDA">      1.00000000</i>
  </separator>
  <separator name="External order field" >
   <i name="OFIELD_KAPPA">      0.00000000</i>
   <v name="OFIELD_K">      0.00000000      0.00000000      0.00000000</v>
   <i name="OFIELD_Q6_NEAR">      0.00000000</i>
   <i name="OFIELD_Q6_FAR">      0.00000000</i>
   <i name="OFIELD_A">      0.00000000</i>
  </separator>
  <separator name="optional k-points parameters" >
   <i type="int" name="KPOINTS_OPT_MODE">     1</i>
   <i type="logical" name="LKPOINTS_OPT"> F  </i>
  </separator>
 </parameters>
 <atominfo>
  <atoms>      72 </atoms>
  <types>       2 </types>
  <array name="atoms" >
   <dimension dim="1">ion</dimension>
   <field type="string">element</field>
   <field type="int">atomtype</field>
   <set>
    <rc><c>Si</c><c>   1</c></rc>
    <rc><c>Si</c><c>   1</c></rc>
    <rc><c>Si</c><c>   1</c></rc>
    <rc><c>Si</c><c>   1</c></rc>
    <rc><c>Si</c><c>   1</c></rc>
    <rc><c>Si</c><c>   1</c></rc>
    <rc><c>Si</c><c>   1</c></rc>
    <rc><c>Si</c><c>   1</c></rc>
    <rc><c>Si</c><c>   1</c></rc>
    <rc><c>Si</c><c>   1</c></rc>
    <rc><c>Si</c><c>   1</c></rc>
    <rc><c>Si</c><c>   1</c></rc>
    <rc><c>Si</c><c>   1</c></rc>
    <rc><c>Si</c><c>   1</c></rc>
    <rc><c>Si</c><c>   1</c></rc>
    <rc><c>Si</c><c>   1</c></rc>
    <rc><c>Si</c><c>   1</c></rc>
    <rc><c>Si</c><c>   1</c></rc>
    <rc><c>Si</c><c>   1</c></rc>
    <rc><c>Si</c><c>   1</c></rc>
    <rc><c>Si</c><c>   1</c></rc>
    <rc><c>Si</c><c>   1</c></rc>
    <rc><c>Si</c><c>   1</c></rc>
    <rc><c>Si</c><c>   1</c></rc>
    <rc><c>Ge</c><c>   2</c></rc>
    <rc><c>Ge</c><c>   2</c></rc>
    <rc><c>Ge</c><c>   2</c></rc>
    <rc><c>Ge</c><c>   2</c></rc>
    <rc><c>Ge</c><c>   2</c></rc>
    <rc><c>Ge</c><c>   2</c></rc>
    <rc><c>Ge</c><c>   2</c></rc>
    <rc><c>Ge</c><c>   2</c></rc>
    <rc><c>Ge</c><c>   2</c></rc>
    <rc><c>Ge</c><c>   2</c></rc>
    <rc><c>Ge</c><c>   2</c></rc>
    <rc><c>Ge</c><c>   2</c></rc>
    <rc><c>Ge</c><c>   2</c></rc>
    <rc><c>Ge</c><c>   2</c></rc>
    <rc><c>Ge</c><c>   2</c></rc>
    <rc><c>Ge</c><c>   2</c></rc>
    <rc><c>Ge</c><c>   2</c></rc>
    <rc><c>Ge</c><c>   2</c></rc>
    <rc><c>Ge</c><c>   2</c></rc>
    <rc><c>Ge</c><c>   2</c></rc>
    <rc><c>Ge</c><c>   2</c></rc>
    <rc><c>Ge</c><c>   2</c></rc>
    <rc><c>Ge</c><c>   2</c></rc>
    <rc><c>Ge</c><c>   2</c></rc>
    <rc><c>Ge</c><c>   2</c></rc>
    <rc><c>Ge</c><c>   2</c></rc>
    <rc><c>Ge</c><c>   2</c></rc>
    <rc><c>Ge</c><c>   2</c></rc>
    <rc><c>Ge</c><c>   2</c></rc>
    <rc><c>Ge</c><c>   2</c></rc>
    <rc><c>Ge</c><c>   2</c></rc>
    <rc><c>Ge</c><c>   2</c></rc>
    <rc><c>Ge</c><c>   2</c></rc>
    <rc><c>Ge</c><c>   2</c></rc>
    <rc><c>Ge</c><c>   2</c></rc>
    <rc><c>Ge</c><c>   2</c></rc>
    <rc><c>Ge</c><c>   2</c></rc>
    <rc><c>Ge</c><c>   2</c></rc>
    <rc><c>Ge</c><c>   2</c></rc>
    <rc><c>Ge</c><c>   2</c></rc>
    <rc><c>Ge</c><c>   2</c></rc>
    <rc><c>Ge</c><c>   2</c></rc>
    <rc><c>Ge</c><c>   2</c></rc>
    <rc><c>Ge</c><c>   2</c></rc>
    <rc><c>Ge</c><c>   2</c></rc>
    <rc><c>Ge</c><c>   2</c></rc>
    <rc><c>Ge</c><c>   2</c></rc>
    <rc><c>Ge</c><c>   2</c></rc>
   </set>
  </array>
  <array name="atomtypes" >
   <dimension dim="1">type</dimension>
   <field type="int">atomspertype</field>
   <field type="string">element</field>
   <field>mass</field>
   <field>valence</field>
   <field type="string">pseudopotential</field>
   <set>
    <rc><c>  24</c><c>Si</c><c>     28.08500000</c><c>      4.00000000</c><c>  PAW_PBE Si 05Jan2001                  </c></rc>
    <rc><c>  48</c><c>Ge</c><c>     72.61000000</c><c>      4.00000000</c><c>  PAW_PBE Ge 05Jan2001                  </c></rc>
   </set>
  </array>
 </atominfo>
 <structure name="initialpos" >
  <crystal>
   <varray name="basis" >
    <v>       7.68059444       0.00000000       0.00000000 </v>
    <v>       0.00000000      16.29299927       0.00000000 </v>
    <v>       0.00000000       0.00000000      13.46377850 </v>
   </varray>
   <i name="volume">   1684.85615923 </i>
   <varray name="rec_basis" >
    <v>       0.13019826       0.00000000       0.00000000 </v>
    <v>       0.00000000       0.06137605       0.00000000 </v>
    <v>       0.00000000       0.00000000       0.07427336 </v>
   </varray>
  </crystal>
  <varray name="positions" >
   <v>       0.94351405       0.91213298       0.00000001 </v>
   <v>       0.69351399       0.52324402       0.04753866 </v>
   <v>       0.44351399       0.13435513       0.09507734 </v>
   <v>       0.19351393       0.74546611       0.14261596 </v>
   <v>       0.94351387       0.35657716       0.19015467 </v>
   <v>       0.69351375       0.96768785       0.23769326 </v>
   <v>       0.19351408       0.66213304       0.00000000 </v>
   <v>       0.94351405       0.27324402       0.04753866 </v>
   <v>       0.69351405       0.88435513       0.09507731 </v>
   <v>       0.44351387       0.49546605       0.14261597 </v>
   <v>       0.19351381       0.10657704       0.19015463 </v>
   <v>       0.94351375       0.71768796       0.23769335 </v>
   <v>       0.69351417       0.66213304       0.00000000 </v>
   <v>       0.44351405       0.27324399       0.04753865 </v>
   <v>       0.19351403       0.88435507       0.09507731 </v>
   <v>       0.94351399       0.49546605       0.14261597 </v>
   <v>       0.69351387       0.10657704       0.19015463 </v>
   <v>       0.44351381       0.71768796       0.23769331 </v>
   <v>       0.44351408       0.91213298       0.00000000 </v>
   <v>       0.19351399       0.52324402       0.04753868 </v>
   <v>       0.94351399       0.13435513       0.09507734 </v>
   <v>       0.69351399       0.74546611       0.14261596 </v>
   <v>       0.44351393       0.35657704       0.19015467 </v>
   <v>       0.19351369       0.96768808       0.23769335 </v>
   <v>       0.07040572       0.56980324       0.35620677 </v>
   <v>       0.82040566       0.44480324       0.56631863 </v>
   <v>       0.57040566       0.31980324       0.77643055 </v>
   <v>       0.07040560       0.06980324       0.35620677 </v>
   <v>       0.82040566       0.94480324       0.56631863 </v>
   <v>       0.57040566       0.81980324       0.77643055 </v>
   <v>       0.57040560       0.81980324       0.35620677 </v>
   <v>       0.32040563       0.69480324       0.56631863 </v>
   <v>       0.07040572       0.56980324       0.77643055 </v>
   <v>       0.57040560       0.31980324       0.35620677 </v>
   <v>       0.32040566       0.19480324       0.56631863 </v>
   <v>       0.07040560       0.06980324       0.77643055 </v>
   <v>       0.32040566       0.56980324       0.46126270 </v>
   <v>       0.07040572       0.44480324       0.67137456 </v>
   <v>       0.82040566       0.31980324       0.88148654 </v>
   <v>       0.32040560       0.06980324       0.46126270 </v>
   <v>       0.07040560       0.94480318       0.67137456 </v>
   <v>       0.82040560       0.81980318       0.88148654 </v>
   <v>       0.82040566       0.81980324       0.46126270 </v>
   <v>       0.57040566       0.69480324       0.67137456 </v>
   <v>       0.32040566       0.56980324       0.88148654 </v>
   <v>       0.82040566       0.31980324       0.46126270 </v>
   <v>       0.57040560       0.19480324       0.67137456 </v>
   <v>       0.32040563       0.06980324       0.88148654 </v>
   <v>       0.07040572       0.81980324       0.35620677 </v>
   <v>       0.82040566       0.69480324       0.56631863 </v>
   <v>       0.57040566       0.56980324       0.77643055 </v>
   <v>       0.57040560       0.56980324       0.35620677 </v>
   <v>       0.32040563       0.44480324       0.56631863 </v>
   <v>       0.07040572       0.31980324       0.77643055 </v>
   <v>       0.07040560       0.31980324       0.35620677 </v>
   <v>       0.82040566       0.19480324       0.56631863 </v>
   <v>       0.57040566       0.06980324       0.77643055 </v>
   <v>       0.57040560       0.06980324       0.35620677 </v>
   <v>       0.32040566       0.94480324       0.56631863 </v>
   <v>       0.07040572       0.81980324       0.77643055 </v>
   <v>       0.32040566       0.81980324       0.46126270 </v>
   <v>       0.07040572       0.69480324       0.67137456 </v>
   <v>       0.82040566       0.56980324       0.88148654 </v>
   <v>       0.82040560       0.56980324       0.46126270 </v>
   <v>       0.57040560       0.44480324       0.67137456 </v>
   <v>       0.32040560       0.31980324       0.88148654 </v>
   <v>       0.32040566       0.31980324       0.46126270 </v>
   <v>       0.07040572       0.19480324       0.67137456 </v>
   <v>       0.82040566       0.06980324       0.88148654 </v>
   <v>       0.82040560       0.06980324       0.46126270 </v>
   <v>       0.57040560       0.94480324       0.67137456 </v>
   <v>       0.32040560       0.81980318       0.88148654 </v>
  </varray>
 </structure>
 <calculation>
  <scstep>
   <time name="dav">   13.12   13.23</time>
   <time name="total">   14.21   14.33</time>
   <energy>
    <i name="alphaZ">    426.57835815 </i>
    <i name="ewald">  -7584.83523899 </i>
    <i name="hartreedc">   -664.18806674 </i>
    <i name="XCdc">   -591.49601692 </i>
    <i name="pawpsdc">   6345.93939393 </i>
    <i name="pawaedc">  -5228.29706555 </i>
    <i name="eentropy">     -0.00046173 </i>
    <i name="bandstr">   1046.13157380 </i>
    <i name="atom">   7513.40264132 </i>
    <i name="e_fr_energy">   1263.23511727 </i>
    <i name="e_wo_entrp">   1263.23557900 </i>
    <i name="e_0_energy">   1263.23534814 </i>
   </energy>
  </scstep>
  <scstep>
   <time name="dav">   14.70   14.83</time>
   <time name="total">   14.71   14.83</time>
   <energy>
    <i name="e_fr_energy">   -175.36437580 </i>
    <i name="e_wo_entrp">   -175.36348549 </i>
    <i name="e_0_energy">   -175.36393064 </i>
   </energy>
  </scstep>
  <scstep>
   <time name="dav">   15.38   15.51</time>
   <time name="total">   15.38   15.51</time>
   <energy>
    <i name="e_fr_energy">   -315.00778004 </i>
    <i name="e_wo_entrp">   -315.00618168 </i>
    <i name="e_0_energy">   -315.00698086 </i>
   </energy>
  </scstep>
  <scstep>
   <time name="dav">   15.02   15.14</time>
   <time name="total">   15.02   15.15</time>
   <energy>
    <i name="e_fr_energy">   -320.25266543 </i>
    <i name="e_wo_entrp">   -320.25067499 </i>
    <i name="e_0_energy">   -320.25167021 </i>
   </energy>
  </scstep>
  <scstep>
   <time name="dav">   16.43   16.57</time>
   <time name="total">   18.97   19.13</time>
   <energy>
    <i name="e_fr_energy">   -320.44811364 </i>
    <i name="e_wo_entrp">   -320.44610364 </i>
    <i name="e_0_energy">   -320.44710864 </i>
   </energy>
  </scstep>
  <scstep>
   <time name="dav">   14.81   14.93</time>
   <time name="total">   16.63   16.77</time>
   <energy>
    <i name="e_fr_energy">   -315.86394549 </i>
    <i name="e_wo_entrp">   -315.86257322 </i>
    <i name="e_0_energy">   -315.86325935 </i>
   </energy>
  </scstep>
  <scstep>
   <time name="dav">   15.64   15.78</time>
   <time name="total">   17.47   17.61</time>
   <energy>
    <i name="e_fr_energy">   -316.37338294 </i>
    <i name="e_wo_entrp">   -316.37089417 </i>
    <i name="e_0_energy">   -316.37213856 </i>
   </energy>
  </scstep>
  <scstep>
   <time name="dav">   15.79   15.93</time>
   <time name="total">   17.62   17.76</time>
   <energy>
    <i name="e_fr_energy">   -315.28936405 </i>
    <i name="e_wo_entrp">   -315.28815822 </i>
    <i name="e_0_energy">   -315.28876113 </i>
   </energy>
  </scstep>
  <scstep>
   <time name="dav">   14.92   15.05</time>
   <time name="total">   16.74   16.89</time>
   <energy>
    <i name="e_fr_energy">   -315.28318746 </i>
    <i name="e_wo_entrp">   -315.28115571 </i>
    <i name="e_0_energy">   -315.28217159 </i>
   </energy>
  </scstep>
  <scstep>
   <time name="dav">   14.54   14.67</time>
   <time name="total">   16.37   16.50</time>
   <energy>
    <i name="e_fr_energy">   -315.27013229 </i>
    <i name="e_wo_entrp">   -315.26764078 </i>
    <i name="e_0_energy">   -315.26888654 </i>
   </energy>
  </scstep>
  <scstep>
   <time name="dav">   14.72   14.85</time>
   <time name="total">   17.99   18.13</time>
   <energy>
    <i name="e_fr_energy">   -315.27021704 </i>
    <i name="e_wo_entrp">   -315.26778828 </i>
    <i name="e_0_energy">   -315.26900266 </i>
   </energy>
  </scstep>
  <scstep>
   <time name="dav">   14.96   15.09</time>
   <time name="total">   18.79   18.93</time>
   <energy>
    <i name="e_fr_energy">   -315.27034440 </i>
    <i name="e_wo_entrp">   -315.26786248 </i>
    <i name="e_0_energy">   -315.26910344 </i>
   </energy>
  </scstep>
  <scstep>
   <time name="dav">   14.95   15.07</time>
   <time name="total">   18.79   18.93</time>
   <energy>
    <i name="e_fr_energy">   -315.26970671 </i>
    <i name="e_wo_entrp">   -315.26720966 </i>
    <i name="e_0_energy">   -315.26845819 </i>
   </energy>
  </scstep>
  <scstep>
   <time name="dav">   14.48   14.60</time>
   <time name="total">   19.64   19.78</time>
   <energy>
    <i name="e_fr_energy">   -315.26979282 </i>
    <i name="e_wo_entrp">   -315.26729940 </i>
    <i name="e_0_energy">   -315.26854611 </i>
   </energy>
  </scstep>
  <scstep>
   <time name="dav">   14.62   14.74</time>
   <time name="total">   16.44   16.58</time>
   <energy>
    <i name="e_fr_energy">   -315.26983462 </i>
    <i name="e_wo_entrp">   -315.26733707 </i>
    <i name="e_0_energy">   -315.26858585 </i>
   </energy>
  </scstep>
  <scstep>
   <time name="dav">   14.78   14.90</time>
   <time name="total">   17.69   17.84</time>
   <energy>
    <i name="e_fr_energy">   -315.26985005 </i>
    <i name="e_wo_entrp">   -315.26734851 </i>
    <i name="e_0_energy">   -315.26859928 </i>
   </energy>
  </scstep>
  <scstep>
   <time name="dav">   14.26   14.39</time>
   <time name="total">   16.08   16.22</time>
   <energy>
    <i name="e_fr_energy">   -315.26985550 </i>
    <i name="e_wo_entrp">   -315.26735169 </i>
    <i name="e_0_energy">   -315.26860360 </i>
   </energy>
  </scstep>
  <scstep>
   <time name="dav">   14.69   14.82</time>
   <time name="total">   16.51   16.65</time>
   <energy>
    <i name="e_fr_energy">   -315.26986053 </i>
    <i name="e_wo_entrp">   -315.26735577 </i>
    <i name="e_0_energy">   -315.26860815 </i>
   </energy>
  </scstep>
  <scstep>
   <time name="dav">   14.87   15.00</time>
   <time name="total">   16.69   16.83</time>
   <energy>
    <i name="e_fr_energy">   -315.26986435 </i>
    <i name="e_wo_entrp">   -315.26735766 </i>
    <i name="e_0_energy">   -315.26861100 </i>
   </energy>
  </scstep>
  <scstep>
   <time name="dav">   14.82   14.95</time>
   <time name="total">   18.41   18.56</time>
   <energy>
    <i name="e_fr_energy">   -315.26986532 </i>
    <i name="e_wo_entrp">   -315.26735713 </i>
    <i name="e_0_energy">   -315.26861122 </i>
   </energy>
  </scstep>
  <scstep>
   <time name="dav">   14.38   14.50</time>
   <time name="total">   16.20   16.34</time>
   <energy>
    <i name="e_fr_energy">   -315.26986564 </i>
    <i name="e_wo_entrp">   -315.26735676 </i>
    <i name="e_0_energy">   -315.26861120 </i>
   </energy>
  </scstep>
  <scstep>
   <time name="dav">   11.19   11.29</time>
   <time name="total">   12.24   12.35</time>
   <energy>
    <i name="alphaZ">    426.57835815 </i>
    <i name="ewald">  -7584.83523899 </i>
    <i name="hartreedc">   -761.04224374 </i>
    <i name="XCdc">   -574.21616941 </i>
    <i name="pawpsdc">  18305.17683511 </i>
    <i name="pawaedc"> -17196.80170755 </i>
    <i name="eentropy">     -0.00250926 </i>
    <i name="bandstr">   -443.52983127 </i>
    <i name="atom">   7513.40264132 </i>
    <i name="e_fr_energy">   -315.26986564 </i>
    <i name="e_wo_entrp">   -315.26735638 </i>
    <i name="e_0_energy">   -315.26861101 </i>
   </energy>
  </scstep>
  <structure>
   <crystal>
    <varray name="basis" >
     <v>       7.68059444       0.00000000       0.00000000 </v>
     <v>       0.00000000      16.29299927       0.00000000 </v>
     <v>       0.00000000       0.00000000      13.46377850 </v>
    </varray>
    <i name="volume">   1684.85615923 </i>
    <varray name="rec_basis" >
     <v>       0.13019826       0.00000000       0.00000000 </v>
     <v>       0.00000000       0.06137605       0.00000000 </v>
     <v>       0.00000000       0.00000000       0.07427336 </v>
    </varray>
   </crystal>
   <varray name="positions" >
    <v>       0.94351405       0.91213298       0.00000001 </v>
    <v>       0.69351399       0.52324402       0.04753866 </v>
    <v>       0.44351399       0.13435513       0.09507734 </v>
    <v>       0.19351393       0.74546611       0.14261596 </v>
    <v>       0.94351387       0.35657716       0.19015467 </v>
    <v>       0.69351375       0.96768785       0.23769326 </v>
    <v>       0.19351408       0.66213304       0.00000000 </v>
    <v>       0.94351405       0.27324402       0.04753866 </v>
    <v>       0.69351405       0.88435513       0.09507731 </v>
    <v>       0.44351387       0.49546605       0.14261597 </v>
    <v>       0.19351381       0.10657704       0.19015463 </v>
    <v>       0.94351375       0.71768796       0.23769335 </v>
    <v>       0.69351417       0.66213304       0.00000000 </v>
    <v>       0.44351405       0.27324399       0.04753865 </v>
    <v>       0.19351403       0.88435507       0.09507731 </v>
    <v>       0.94351399       0.49546605       0.14261597 </v>
    <v>       0.69351387       0.10657704       0.19015463 </v>
    <v>       0.44351381       0.71768796       0.23769331 </v>
    <v>       0.44351408       0.91213298       0.00000000 </v>
    <v>       0.19351399       0.52324402       0.04753868 </v>
    <v>       0.94351399       0.13435513       0.09507734 </v>
    <v>       0.69351399       0.74546611       0.14261596 </v>
    <v>       0.44351393       0.35657704       0.19015467 </v>
    <v>       0.19351369       0.96768808       0.23769335 </v>
    <v>       0.07040572       0.56980324       0.35620677 </v>
    <v>       0.82040566       0.44480324       0.56631863 </v>
    <v>       0.57040566       0.31980324       0.77643055 </v>
    <v>       0.07040560       0.06980324       0.35620677 </v>
    <v>       0.82040566       0.94480324       0.56631863 </v>
    <v>       0.57040566       0.81980324       0.77643055 </v>
    <v>       0.57040560       0.81980324       0.35620677 </v>
    <v>       0.32040563       0.69480324       0.56631863 </v>
    <v>       0.07040572       0.56980324       0.77643055 </v>
    <v>       0.57040560       0.31980324       0.35620677 </v>
    <v>       0.32040566       0.19480324       0.56631863 </v>
    <v>       0.07040560       0.06980324       0.77643055 </v>
    <v>       0.32040566       0.56980324       0.46126270 </v>
    <v>       0.07040572       0.44480324       0.67137456 </v>
    <v>       0.82040566       0.31980324       0.88148654 </v>
    <v>       0.32040560       0.06980324       0.46126270 </v>
    <v>       0.07040560       0.94480318       0.67137456 </v>
    <v>       0.82040560       0.81980318       0.88148654 </v>
    <v>       0.82040566       0.81980324       0.46126270 </v>
    <v>       0.57040566       0.69480324       0.67137456 </v>
    <v>       0.32040566       0.56980324       0.88148654 </v>
    <v>       0.82040566       0.31980324       0.46126270 </v>
    <v>       0.57040560       0.19480324       0.67137456 </v>
    <v>       0.32040563       0.06980324       0.88148654 </v>
    <v>       0.07040572       0.81980324       0.35620677 </v>
    <v>       0.82040566       0.69480324       0.56631863 </v>
    <v>       0.57040566       0.56980324       0.77643055 </v>
    <v>       0.57040560       0.56980324       0.35620677 </v>
    <v>       0.32040563       0.44480324       0.56631863 </v>
    <v>       0.07040572       0.31980324       0.77643055 </v>
    <v>       0.07040560       0.31980324       0.35620677 </v>
    <v>       0.82040566       0.19480324       0.56631863 </v>
    <v>       0.57040566       0.06980324       0.77643055 </v>
    <v>       0.57040560       0.06980324       0.35620677 </v>
    <v>       0.32040566       0.94480324       0.56631863 </v>
    <v>       0.07040572       0.81980324       0.77643055 </v>
    <v>       0.32040566       0.81980324       0.46126270 </v>
    <v>       0.07040572       0.69480324       0.67137456 </v>
    <v>       0.82040566       0.56980324       0.88148654 </v>
    <v>       0.82040560       0.56980324       0.46126270 </v>
    <v>       0.57040560       0.44480324       0.67137456 </v>
    <v>       0.32040560       0.31980324       0.88148654 </v>
    <v>       0.32040566       0.31980324       0.46126270 </v>
    <v>       0.07040572       0.19480324       0.67137456 </v>
    <v>       0.82040566       0.06980324       0.88148654 </v>
    <v>       0.82040560       0.06980324       0.46126270 </v>
    <v>       0.57040560       0.94480324       0.67137456 </v>
    <v>       0.32040560       0.81980318       0.88148654 </v>
   </varray>
  </structure>
  <varray name="forces" >
   <v>      -0.91224114       0.74353645      -0.24714435 </v>
   <v>       0.26387051      -0.06696664       0.13756077 </v>
   <v>      -0.30140415       0.17641401      -0.61401250 </v>
   <v>      -0.13714074      -0.17363415      -0.01253852 </v>
   <v>      -0.00469505       0.04153700       0.08955197 </v>
   <v>      -0.09463947      -0.79709178       0.35152944 </v>
   <v>      -0.08336274       0.88479245       0.03582155 </v>
   <v>      -0.01383702       0.01981178      -0.17552484 </v>
   <v>       0.13332731       0.21974963       0.01787311 </v>
   <v>       0.26949444      -0.14776222       0.51276055 </v>
   <v>      -0.26959292       0.05192717      -0.21303654 </v>
   <v>       1.17173720      -0.44665320       0.69297592 </v>
   <v>      -0.08336274       0.88479245       0.03582155 </v>
   <v>      -0.01383702       0.01981178      -0.17552484 </v>
   <v>       0.13332731       0.21974963       0.01787311 </v>
   <v>       0.26949444      -0.14776222       0.51276055 </v>
   <v>      -0.26959292       0.05192717      -0.21303654 </v>
   <v>       1.17173720      -0.44665320       0.69297592 </v>
   <v>      -0.91224114       0.74353645      -0.24714435 </v>
   <v>       0.26387051      -0.06696664       0.13756077 </v>
   <v>      -0.30140415       0.17641401      -0.61401250 </v>
   <v>      -0.13714074      -0.17363415      -0.01253852 </v>
   <v>      -0.00469505       0.04153700       0.08955197 </v>
   <v>      -0.09463947      -0.79709178       0.35152944 </v>
   <v>      -0.75819662       0.17798536      -2.07972563 </v>
   <v>      -0.14010179       0.07078948      -0.54177389 </v>
   <v>      -0.18512013      -0.10849368      -0.10543748 </v>
   <v>       0.20644505       0.07156245      -0.99821258 </v>
   <v>      -0.06698448      -0.06450943      -0.54158963 </v>
   <v>      -0.13271050      -0.17034046      -0.61906392 </v>
   <v>      -0.43214409       0.24392084      -1.35292594 </v>
   <v>      -0.02001896      -0.12549555      -0.45707600 </v>
   <v>       0.14802460      -0.17618790      -0.73673030 </v>
   <v>      -0.37626385       0.06878351      -1.30471749 </v>
   <v>      -0.02938171      -0.04001021      -0.58233943 </v>
   <v>      -0.19507304      -0.08049842      -0.45323892 </v>
   <v>       0.21255945       0.05677587       0.49079905 </v>
   <v>       0.03660725       0.01755870       0.59512313 </v>
   <v>       0.39541534      -0.04174447       1.42747813 </v>
   <v>      -0.16824955       0.12414463       0.67575994 </v>
   <v>       0.04975325       0.13078940       0.45169460 </v>
   <v>       0.33433959      -0.44699807       0.85521881 </v>
   <v>       0.12282752       0.14522042       0.63272767 </v>
   <v>       0.08011782       0.05995913       0.56082021 </v>
   <v>      -0.06525193      -0.26500505       0.85178892 </v>
   <v>       0.18615768       0.05159738       0.08313342 </v>
   <v>       0.11175942      -0.06012553       0.55449690 </v>
   <v>       0.66397344      -0.14533888       2.01797388 </v>
   <v>      -0.43214409       0.24392084      -1.35292594 </v>
   <v>      -0.02001896      -0.12549555      -0.45707600 </v>
   <v>       0.14802460      -0.17618790      -0.73673030 </v>
   <v>      -0.75819662       0.17798536      -2.07972563 </v>
   <v>      -0.14010179       0.07078948      -0.54177389 </v>
   <v>      -0.18512013      -0.10849368      -0.10543748 </v>
   <v>      -0.37626385       0.06878351      -1.30471749 </v>
   <v>      -0.02938171      -0.04001021      -0.58233943 </v>
   <v>      -0.19507304      -0.08049842      -0.45323892 </v>
   <v>       0.20644505       0.07156245      -0.99821258 </v>
   <v>      -0.06698448      -0.06450943      -0.54158963 </v>
   <v>      -0.13271050      -0.17034046      -0.61906392 </v>
   <v>       0.12282752       0.14522042       0.63272767 </v>
   <v>       0.08011782       0.05995913       0.56082021 </v>
   <v>      -0.06525193      -0.26500505       0.85178892 </v>
   <v>       0.21255945       0.05677587       0.49079905 </v>
   <v>       0.03660725       0.01755870       0.59512313 </v>
   <v>       0.39541534      -0.04174447       1.42747813 </v>
   <v>       0.18615768       0.05159738       0.08313342 </v>
   <v>       0.11175942      -0.06012553       0.55449690 </v>
   <v>       0.66397344      -0.14533888       2.01797388 </v>
   <v>      -0.16824955       0.12414463       0.67575994 </v>
   <v>       0.04975325       0.13078940       0.45169460 </v>
   <v>       0.33433959      -0.44699807       0.85521881 </v>
  </varray>
  <varray name="stress" >
   <v>      62.95748587      -2.04820411     -11.17650055 </v>
   <v>      -2.04820571      -5.98788768       7.62479440 </v>
   <v>     -11.17650022       7.62478946      24.43040755 </v>
  </varray>
  <energy>
   <i name="e_fr_energy">   -315.26986564 </i>
   <i name="e_wo_entrp">   -315.26735638 </i>
   <i name="e_0_energy">   -315.26861101 </i>
  </energy>
  <time name="totalsc">  397.02  400.52</time>
  <eigenvalues>
   <array>
    <dimension dim="1">band</dimension>
    <dimension dim="2">kpoint</dimension>
    <dimension dim="3">spin</dimension>
    <field>eigene</field>
    <field>occ</field>
    <set>
     <set comment="spin 1">
      <set comment="kpoint 1">
       <r>   -8.8616    1.0000 </r>
       <r>   -8.4651    1.0000 </r>
       <r>   -8.4096    1.0000 </r>
       <r>   -7.9824    1.0000 </r>
       <r>   -7.9145    1.0000 </r>
       <r>   -7.6279    1.0000 </r>
       <r>   -7.5583    1.0000 </r>
       <r>   -7.4549    1.0000 </r>
       <r>   -7.2988    1.0000 </r>
       <r>   -7.1869    1.0000 </r>
       <r>   -6.9576    1.0000 </r>
       <r>   -6.9545    1.0000 </r>
       <r>   -6.9289    1.0000 </r>
       <r>   -6.8544    1.0000 </r>
       <r>   -6.6164    1.0000 </r>
       <r>   -6.5847    1.0000 </r>
       <r>   -6.4418    1.0000 </r>
       <r>   -6.4278    1.0000 </r>
       <r>   -6.3867    1.0000 </r>
       <r>   -6.2894    1.0000 </r>
       <r>   -6.1819    1.0000 </r>
       <r>   -6.0808    1.0000 </r>
       <r>   -6.0434    1.0000 </r>
       <r>   -5.8775    1.0000 </r>
       <r>   -5.8148    1.0000 </r>
       <r>   -5.7602    1.0000 </r>
       <r>   -5.5576    1.0000 </r>
       <r>   -5.4589    1.0000 </r>
       <r>   -5.2531    1.0000 </r>
       <r>   -5.1414    1.0000 </r>
       <r>   -5.1018    1.0000 </r>
       <r>   -5.0958    1.0000 </r>
       <r>   -5.0946    1.0000 </r>
       <r>   -5.0817    1.0000 </r>
       <r>   -5.0448    1.0000 </r>
       <r>   -4.6133    1.0000 </r>
       <r>   -4.5903    1.0000 </r>
       <r>   -4.5371    1.0000 </r>
       <r>   -4.3724    1.0000 </r>
       <r>   -4.3592    1.0000 </r>
       <r>   -4.2098    1.0000 </r>
       <r>   -4.1448    1.0000 </r>
       <r>   -4.0619    1.0000 </r>
       <r>   -3.9611    1.0000 </r>
       <r>   -3.7376    1.0000 </r>
       <r>   -3.7021    1.0000 </r>
       <r>   -3.6926    1.0000 </r>
       <r>   -3.5803    1.0000 </r>
       <r>   -3.4459    1.0000 </r>
       <r>   -3.4093    1.0000 </r>
       <r>   -3.3737    1.0000 </r>
       <r>   -3.2102    1.0000 </r>
       <r>   -3.2069    1.0000 </r>
       <r>   -3.1743    1.0000 </r>
       <r>   -3.1175    1.0000 </r>
       <r>   -2.9742    1.0000 </r>
       <r>   -2.7815    1.0000 </r>
       <r>   -2.7396    1.0000 </r>
       <r>   -2.6110    1.0000 </r>
       <r>   -2.5353    1.0000 </r>
       <r>   -2.2378    1.0000 </r>
       <r>   -2.1957    1.0000 </r>
       <r>   -2.1298    1.0000 </r>
       <r>   -2.1213    1.0000 </r>
       <r>   -1.7839    1.0000 </r>
       <r>   -1.4088    1.0000 </r>
       <r>   -1.0615    1.0000 </r>
       <r>   -0.7481    1.0000 </r>
       <r>   -0.6131    1.0000 </r>
       <r>   -0.5150    1.0000 </r>
       <r>   -0.3752    1.0000 </r>
       <r>   -0.2323    1.0000 </r>
       <r>   -0.1720    1.0000 </r>
       <r>   -0.1217    1.0000 </r>
       <r>   -0.1185    1.0000 </r>
       <r>    0.0894    1.0000 </r>
       <r>    0.1463    1.0000 </r>
       <r>    0.1747    1.0000 </r>
       <r>    0.1882    1.0000 </r>
       <r>    0.2099    1.0000 </r>
       <r>    0.2584    1.0000 </r>
       <r>    0.2600    1.0000 </r>
       <r>    0.3111    1.0000 </r>
       <r>    0.3382    1.0000 </r>
       <r>    0.4089    1.0000 </r>
       <r>    0.4162    1.0000 </r>
       <r>    0.4243    1.0000 </r>
       <r>    0.5114    1.0000 </r>
       <r>    0.5609    1.0000 </r>
       <r>    0.6566    1.0000 </r>
       <r>    0.6747    1.0000 </r>
       <r>    0.7117    1.0000 </r>
       <r>    0.7636    1.0000 </r>
       <r>    0.8124    1.0000 </r>
       <r>    0.8863    1.0000 </r>
       <r>    1.0024    1.0000 </r>
       <r>    1.0395    1.0000 </r>
       <r>    1.0656    1.0000 </r>
       <r>    1.1669    1.0000 </r>
       <r>    1.1688    1.0000 </r>
       <r>    1.2227    1.0000 </r>
       <r>    1.2382    1.0000 </r>
       <r>    1.3564    1.0000 </r>
       <r>    1.3744    1.0000 </r>
       <r>    1.4032    1.0000 </r>
       <r>    1.5373    1.0000 </r>
       <r>    1.6457    1.0000 </r>
       <r>    1.6976    1.0000 </r>
       <r>    1.7034    1.0000 </r>
       <r>    1.7542    1.0000 </r>
       <r>    1.9108    1.0000 </r>
       <r>    1.9215    1.0000 </r>
       <r>    1.9641    1.0000 </r>
       <r>    1.9904    1.0000 </r>
       <r>    1.9969    1.0000 </r>
       <r>    2.0346    1.0000 </r>
       <r>    2.0704    1.0000 </r>
       <r>    2.1178    1.0000 </r>
       <r>    2.2344    1.0000 </r>
       <r>    2.2674    1.0000 </r>
       <r>    2.2689    1.0000 </r>
       <r>    2.3171    1.0000 </r>
       <r>    2.3378    1.0000 </r>
       <r>    2.3601    1.0000 </r>
       <r>    2.5242    1.0000 </r>
       <r>    2.5341    1.0000 </r>
       <r>    2.5517    1.0000 </r>
       <r>    2.5525    1.0000 </r>
       <r>    2.6202    1.0000 </r>
       <r>    2.6249    1.0000 </r>
       <r>    2.6461    1.0000 </r>
       <r>    2.6722    1.0000 </r>
       <r>    2.7304    1.0000 </r>
       <r>    2.8336    1.0000 </r>
       <r>    2.8603    1.0000 </r>
       <r>    3.1009    1.0000 </r>
       <r>    3.1968    1.0000 </r>
       <r>    3.2221    1.0000 </r>
       <r>    3.3338    1.0000 </r>
       <r>    3.3817    1.0000 </r>
       <r>    3.4486    1.0000 </r>
       <r>    3.4897    1.0000 </r>
       <r>    3.6503    1.0000 </r>
       <r>    3.6766    1.0000 </r>
       <r>    3.7254    0.3472 </r>
       <r>    3.7319    0.0948 </r>
       <r>    3.8389    0.0000 </r>
       <r>    3.8925    0.0000 </r>
       <r>    3.9122    0.0000 </r>
       <r>    3.9946    0.0000 </r>
       <r>    4.1101    0.0000 </r>
       <r>    4.1439    0.0000 </r>
       <r>    4.2345    0.0000 </r>
       <r>    4.2386    0.0000 </r>
       <r>    4.3138    0.0000 </r>
       <r>    4.5246    0.0000 </r>
       <r>    4.5319    0.0000 </r>
       <r>    4.5554    0.0000 </r>
       <r>    4.6496    0.0000 </r>
       <r>    4.7576    0.0000 </r>
       <r>    4.7990    0.0000 </r>
       <r>    4.8594    0.0000 </r>
       <r>    4.8949    0.0000 </r>
       <r>    4.9533    0.0000 </r>
       <r>    4.9867    0.0000 </r>
       <r>    5.1257    0.0000 </r>
       <r>    5.1986    0.0000 </r>
       <r>    5.2415    0.0000 </r>
       <r>    5.2544    0.0000 </r>
       <r>    5.2751    0.0000 </r>
       <r>    5.3071    0.0000 </r>
       <r>    5.3796    0.0000 </r>
       <r>    5.4223    0.0000 </r>
       <r>    5.5289    0.0000 </r>
       <r>    5.5628    0.0000 </r>
       <r>    5.5976    0.0000 </r>
      </set>
      <set comment="kpoint 2">
       <r>   -8.7217    1.0000 </r>
       <r>   -8.3249    1.0000 </r>
       <r>   -8.2679    1.0000 </r>
       <r>   -7.8472    1.0000 </r>
       <r>   -7.7837    1.0000 </r>
       <r>   -7.6635    1.0000 </r>
       <r>   -7.4895    1.0000 </r>
       <r>   -7.4213    1.0000 </r>
       <r>   -7.3219    1.0000 </r>
       <r>   -7.2710    1.0000 </r>
       <r>   -7.1918    1.0000 </r>
       <r>   -7.1522    1.0000 </r>
       <r>   -7.0446    1.0000 </r>
       <r>   -6.9197    1.0000 </r>
       <r>   -6.8867    1.0000 </r>
       <r>   -6.8299    1.0000 </r>
       <r>   -6.7140    1.0000 </r>
       <r>   -6.5050    1.0000 </r>
       <r>   -6.4748    1.0000 </r>
       <r>   -6.4283    1.0000 </r>
       <r>   -6.0788    1.0000 </r>
       <r>   -6.0397    1.0000 </r>
       <r>   -6.0133    1.0000 </r>
       <r>   -5.9712    1.0000 </r>
       <r>   -5.9332    1.0000 </r>
       <r>   -5.8968    1.0000 </r>
       <r>   -5.7517    1.0000 </r>
       <r>   -5.7314    1.0000 </r>
       <r>   -5.3927    1.0000 </r>
       <r>   -5.3914    1.0000 </r>
       <r>   -5.3148    1.0000 </r>
       <r>   -5.0837    1.0000 </r>
       <r>   -5.0555    1.0000 </r>
       <r>   -5.0448    1.0000 </r>
       <r>   -4.8233    1.0000 </r>
       <r>   -4.7582    1.0000 </r>
       <r>   -4.5010    1.0000 </r>
       <r>   -4.3240    1.0000 </r>
       <r>   -4.1767    1.0000 </r>
       <r>   -4.1283    1.0000 </r>
       <r>   -4.1222    1.0000 </r>
       <r>   -4.0500    1.0000 </r>
       <r>   -3.8472    1.0000 </r>
       <r>   -3.7425    1.0000 </r>
       <r>   -3.5825    1.0000 </r>
       <r>   -3.4825    1.0000 </r>
       <r>   -3.4434    1.0000 </r>
       <r>   -3.4081    1.0000 </r>
       <r>   -3.3950    1.0000 </r>
       <r>   -3.2310    1.0000 </r>
       <r>   -3.1442    1.0000 </r>
       <r>   -2.8327    1.0000 </r>
       <r>   -2.8316    1.0000 </r>
       <r>   -2.7351    1.0000 </r>
       <r>   -2.6956    1.0000 </r>
       <r>   -2.6266    1.0000 </r>
       <r>   -2.5391    1.0000 </r>
       <r>   -2.4947    1.0000 </r>
       <r>   -2.4248    1.0000 </r>
       <r>   -2.2236    1.0000 </r>
       <r>   -2.1723    1.0000 </r>
       <r>   -2.1545    1.0000 </r>
       <r>   -2.0108    1.0000 </r>
       <r>   -1.7203    1.0000 </r>
       <r>   -1.5903    1.0000 </r>
       <r>   -1.3873    1.0000 </r>
       <r>   -1.2265    1.0000 </r>
       <r>   -0.7798    1.0000 </r>
       <r>   -0.6585    1.0000 </r>
       <r>   -0.5623    1.0000 </r>
       <r>   -0.5597    1.0000 </r>
       <r>   -0.4541    1.0000 </r>
       <r>   -0.3381    1.0000 </r>
       <r>   -0.2621    1.0000 </r>
       <r>   -0.2394    1.0000 </r>
       <r>   -0.2342    1.0000 </r>
       <r>   -0.1630    1.0000 </r>
       <r>   -0.0513    1.0000 </r>
       <r>    0.0567    1.0000 </r>
       <r>    0.0860    1.0000 </r>
       <r>    0.0867    1.0000 </r>
       <r>    0.1140    1.0000 </r>
       <r>    0.1872    1.0000 </r>
       <r>    0.3276    1.0000 </r>
       <r>    0.3648    1.0000 </r>
       <r>    0.4252    1.0000 </r>
       <r>    0.4306    1.0000 </r>
       <r>    0.4803    1.0000 </r>
       <r>    0.5233    1.0000 </r>
       <r>    0.6045    1.0000 </r>
       <r>    0.6334    1.0000 </r>
       <r>    0.7109    1.0000 </r>
       <r>    0.7336    1.0000 </r>
       <r>    0.8337    1.0000 </r>
       <r>    0.9040    1.0000 </r>
       <r>    0.9129    1.0000 </r>
       <r>    0.9428    1.0000 </r>
       <r>    0.9754    1.0000 </r>
       <r>    1.0398    1.0000 </r>
       <r>    1.0701    1.0000 </r>
       <r>    1.1393    1.0000 </r>
       <r>    1.1492    1.0000 </r>
       <r>    1.2440    1.0000 </r>
       <r>    1.2576    1.0000 </r>
       <r>    1.2749    1.0000 </r>
       <r>    1.2929    1.0000 </r>
       <r>    1.3460    1.0000 </r>
       <r>    1.3539    1.0000 </r>
       <r>    1.4927    1.0000 </r>
       <r>    1.4928    1.0000 </r>
       <r>    1.5129    1.0000 </r>
       <r>    1.5722    1.0000 </r>
       <r>    1.6024    1.0000 </r>
       <r>    1.6683    1.0000 </r>
       <r>    1.7630    1.0000 </r>
       <r>    1.7648    1.0000 </r>
       <r>    1.7982    1.0000 </r>
       <r>    1.8041    1.0000 </r>
       <r>    1.8233    1.0000 </r>
       <r>    1.8889    1.0000 </r>
       <r>    1.9371    1.0000 </r>
       <r>    1.9851    1.0000 </r>
       <r>    2.0214    1.0000 </r>
       <r>    2.0477    1.0000 </r>
       <r>    2.1434    1.0000 </r>
       <r>    2.2144    1.0000 </r>
       <r>    2.2175    1.0000 </r>
       <r>    2.2857    1.0000 </r>
       <r>    2.3379    1.0000 </r>
       <r>    2.4993    1.0000 </r>
       <r>    2.6002    1.0000 </r>
       <r>    2.6304    1.0000 </r>
       <r>    2.6518    1.0000 </r>
       <r>    2.6982    1.0000 </r>
       <r>    2.7790    1.0000 </r>
       <r>    2.8521    1.0000 </r>
       <r>    2.9758    1.0000 </r>
       <r>    3.0038    1.0000 </r>
       <r>    3.3059    1.0000 </r>
       <r>    3.4199    1.0000 </r>
       <r>    3.5491    1.0000 </r>
       <r>    3.5947    1.0000 </r>
       <r>    3.6494    1.0000 </r>
       <r>    3.6966    0.9999 </r>
       <r>    3.7205    0.6171 </r>
       <r>    3.8169    0.0000 </r>
       <r>    3.8583    0.0000 </r>
       <r>    3.9758    0.0000 </r>
       <r>    4.1000    0.0000 </r>
       <r>    4.1342    0.0000 </r>
       <r>    4.2957    0.0000 </r>
       <r>    4.3346    0.0000 </r>
       <r>    4.3524    0.0000 </r>
       <r>    4.4503    0.0000 </r>
       <r>    4.4540    0.0000 </r>
       <r>    4.6021    0.0000 </r>
       <r>    4.6081    0.0000 </r>
       <r>    4.7035    0.0000 </r>
       <r>    4.7608    0.0000 </r>
       <r>    4.8036    0.0000 </r>
       <r>    4.8490    0.0000 </r>
       <r>    4.9466    0.0000 </r>
       <r>    4.9570    0.0000 </r>
       <r>    5.0263    0.0000 </r>
       <r>    5.1793    0.0000 </r>
       <r>    5.2508    0.0000 </r>
       <r>    5.3015    0.0000 </r>
       <r>    5.3916    0.0000 </r>
       <r>    5.4465    0.0000 </r>
       <r>    5.5355    0.0000 </r>
       <r>    5.6311    0.0000 </r>
       <r>    5.6976    0.0000 </r>
       <r>    5.7496    0.0000 </r>
       <r>    5.7537    0.0000 </r>
       <r>    5.8237    0.0000 </r>
       <r>    5.8390    0.0000 </r>
      </set>
      <set comment="kpoint 3">
       <r>   -8.3101    1.0000 </r>
       <r>   -8.3101    1.0000 </r>
       <r>   -7.9132    1.0000 </r>
       <r>   -7.9132    1.0000 </r>
       <r>   -7.8505    1.0000 </r>
       <r>   -7.8505    1.0000 </r>
       <r>   -7.4595    1.0000 </r>
       <r>   -7.4595    1.0000 </r>
       <r>   -7.4099    1.0000 </r>
       <r>   -7.4099    1.0000 </r>
       <r>   -7.0877    1.0000 </r>
       <r>   -7.0877    1.0000 </r>
       <r>   -7.0220    1.0000 </r>
       <r>   -7.0220    1.0000 </r>
       <r>   -6.9440    1.0000 </r>
       <r>   -6.9440    1.0000 </r>
       <r>   -6.7172    1.0000 </r>
       <r>   -6.7172    1.0000 </r>
       <r>   -6.6322    1.0000 </r>
       <r>   -6.6322    1.0000 </r>
       <r>   -6.4679    1.0000 </r>
       <r>   -6.4679    1.0000 </r>
       <r>   -6.3047    1.0000 </r>
       <r>   -6.3047    1.0000 </r>
       <r>   -5.6328    1.0000 </r>
       <r>   -5.6328    1.0000 </r>
       <r>   -5.5024    1.0000 </r>
       <r>   -5.5024    1.0000 </r>
       <r>   -5.4692    1.0000 </r>
       <r>   -5.4692    1.0000 </r>
       <r>   -5.4263    1.0000 </r>
       <r>   -5.4263    1.0000 </r>
       <r>   -5.2483    1.0000 </r>
       <r>   -5.2483    1.0000 </r>
       <r>   -4.9927    1.0000 </r>
       <r>   -4.9927    1.0000 </r>
       <r>   -4.2888    1.0000 </r>
       <r>   -4.2888    1.0000 </r>
       <r>   -4.1004    1.0000 </r>
       <r>   -4.1004    1.0000 </r>
       <r>   -3.5463    1.0000 </r>
       <r>   -3.5463    1.0000 </r>
       <r>   -3.4789    1.0000 </r>
       <r>   -3.4789    1.0000 </r>
       <r>   -3.3746    1.0000 </r>
       <r>   -3.3746    1.0000 </r>
       <r>   -3.1399    1.0000 </r>
       <r>   -3.1399    1.0000 </r>
       <r>   -2.8874    1.0000 </r>
       <r>   -2.8874    1.0000 </r>
       <r>   -2.8483    1.0000 </r>
       <r>   -2.8483    1.0000 </r>
       <r>   -2.7034    1.0000 </r>
       <r>   -2.7034    1.0000 </r>
       <r>   -2.5277    1.0000 </r>
       <r>   -2.5277    1.0000 </r>
       <r>   -2.4774    1.0000 </r>
       <r>   -2.4773    1.0000 </r>
       <r>   -1.9762    1.0000 </r>
       <r>   -1.9762    1.0000 </r>
       <r>   -1.5864    1.0000 </r>
       <r>   -1.5864    1.0000 </r>
       <r>   -1.3864    1.0000 </r>
       <r>   -1.3864    1.0000 </r>
       <r>   -1.2683    1.0000 </r>
       <r>   -1.2683    1.0000 </r>
       <r>   -0.9615    1.0000 </r>
       <r>   -0.9615    1.0000 </r>
       <r>   -0.8775    1.0000 </r>
       <r>   -0.8775    1.0000 </r>
       <r>   -0.5705    1.0000 </r>
       <r>   -0.5705    1.0000 </r>
       <r>   -0.3889    1.0000 </r>
       <r>   -0.3889    1.0000 </r>
       <r>   -0.3325    1.0000 </r>
       <r>   -0.3325    1.0000 </r>
       <r>   -0.1849    1.0000 </r>
       <r>   -0.1849    1.0000 </r>
       <r>   -0.1675    1.0000 </r>
       <r>   -0.1675    1.0000 </r>
       <r>   -0.1010    1.0000 </r>
       <r>   -0.1010    1.0000 </r>
       <r>   -0.0769    1.0000 </r>
       <r>   -0.0769    1.0000 </r>
       <r>    0.0102    1.0000 </r>
       <r>    0.0102    1.0000 </r>
       <r>    0.1608    1.0000 </r>
       <r>    0.1608    1.0000 </r>
       <r>    0.1835    1.0000 </r>
       <r>    0.1835    1.0000 </r>
       <r>    0.3036    1.0000 </r>
       <r>    0.3036    1.0000 </r>
       <r>    0.4385    1.0000 </r>
       <r>    0.4385    1.0000 </r>
       <r>    0.4611    1.0000 </r>
       <r>    0.4611    1.0000 </r>
       <r>    0.6980    1.0000 </r>
       <r>    0.6980    1.0000 </r>
       <r>    0.9093    1.0000 </r>
       <r>    0.9093    1.0000 </r>
       <r>    0.9524    1.0000 </r>
       <r>    0.9524    1.0000 </r>
       <r>    1.0588    1.0000 </r>
       <r>    1.0588    1.0000 </r>
       <r>    1.1477    1.0000 </r>
       <r>    1.1477    1.0000 </r>
       <r>    1.2544    1.0000 </r>
       <r>    1.2544    1.0000 </r>
       <r>    1.2804    1.0000 </r>
       <r>    1.2804    1.0000 </r>
       <r>    1.3438    1.0000 </r>
       <r>    1.3438    1.0000 </r>
       <r>    1.4825    1.0000 </r>
       <r>    1.4825    1.0000 </r>
       <r>    1.5786    1.0000 </r>
       <r>    1.5786    1.0000 </r>
       <r>    1.7821    1.0000 </r>
       <r>    1.7821    1.0000 </r>
       <r>    1.8983    1.0000 </r>
       <r>    1.8983    1.0000 </r>
       <r>    2.0249    1.0000 </r>
       <r>    2.0249    1.0000 </r>
       <r>    2.0792    1.0000 </r>
       <r>    2.0792    1.0000 </r>
       <r>    2.1734    1.0000 </r>
       <r>    2.1734    1.0000 </r>
       <r>    2.2925    1.0000 </r>
       <r>    2.2925    1.0000 </r>
       <r>    2.4034    1.0000 </r>
       <r>    2.4034    1.0000 </r>
       <r>    2.5380    1.0000 </r>
       <r>    2.5380    1.0000 </r>
       <r>    2.6277    1.0000 </r>
       <r>    2.6277    1.0000 </r>
       <r>    2.9034    1.0000 </r>
       <r>    2.9034    1.0000 </r>
       <r>    2.9282    1.0000 </r>
       <r>    2.9282    1.0000 </r>
       <r>    3.2070    1.0000 </r>
       <r>    3.2070    1.0000 </r>
       <r>    3.5460    1.0000 </r>
       <r>    3.5460    1.0000 </r>
       <r>    3.7255    0.3425 </r>
       <r>    3.7256    0.3389 </r>
       <r>    3.8603    0.0000 </r>
       <r>    3.8604    0.0000 </r>
       <r>    3.9657    0.0000 </r>
       <r>    3.9657    0.0000 </r>
       <r>    4.0319    0.0000 </r>
       <r>    4.0319    0.0000 </r>
       <r>    4.2971    0.0000 </r>
       <r>    4.2971    0.0000 </r>
       <r>    4.4810    0.0000 </r>
       <r>    4.4810    0.0000 </r>
       <r>    4.5715    0.0000 </r>
       <r>    4.5715    0.0000 </r>
       <r>    4.6005    0.0000 </r>
       <r>    4.6005    0.0000 </r>
       <r>    4.7633    0.0000 </r>
       <r>    4.7633    0.0000 </r>
       <r>    4.8879    0.0000 </r>
       <r>    4.8879    0.0000 </r>
       <r>    5.0511    0.0000 </r>
       <r>    5.0511    0.0000 </r>
       <r>    5.2278    0.0000 </r>
       <r>    5.2278    0.0000 </r>
       <r>    5.3098    0.0000 </r>
       <r>    5.3098    0.0000 </r>
       <r>    5.4279    0.0000 </r>
       <r>    5.4279    0.0000 </r>
       <r>    5.5669    0.0000 </r>
       <r>    5.5669    0.0000 </r>
       <r>    5.7463    0.0000 </r>
       <r>    5.7463    0.0000 </r>
       <r>    5.8607    0.0000 </r>
       <r>    5.8615    0.0000 </r>
      </set>
      <set comment="kpoint 4">
       <r>   -8.7695    1.0000 </r>
       <r>   -8.7334    1.0000 </r>
       <r>   -8.0657    1.0000 </r>
       <r>   -8.0232    1.0000 </r>
       <r>   -7.8530    1.0000 </r>
       <r>   -7.8274    1.0000 </r>
       <r>   -7.5973    1.0000 </r>
       <r>   -7.5338    1.0000 </r>
       <r>   -7.3552    1.0000 </r>
       <r>   -7.0421    1.0000 </r>
       <r>   -6.8864    1.0000 </r>
       <r>   -6.8764    1.0000 </r>
       <r>   -6.8499    1.0000 </r>
       <r>   -6.8032    1.0000 </r>
       <r>   -6.7801    1.0000 </r>
       <r>   -6.7724    1.0000 </r>
       <r>   -6.5434    1.0000 </r>
       <r>   -6.4622    1.0000 </r>
       <r>   -6.2711    1.0000 </r>
       <r>   -6.0665    1.0000 </r>
       <r>   -6.0305    1.0000 </r>
       <r>   -5.9406    1.0000 </r>
       <r>   -5.9153    1.0000 </r>
       <r>   -5.8625    1.0000 </r>
       <r>   -5.8311    1.0000 </r>
       <r>   -5.8096    1.0000 </r>
       <r>   -5.7993    1.0000 </r>
       <r>   -5.6870    1.0000 </r>
       <r>   -5.5510    1.0000 </r>
       <r>   -5.4876    1.0000 </r>
       <r>   -5.1861    1.0000 </r>
       <r>   -5.1598    1.0000 </r>
       <r>   -4.9613    1.0000 </r>
       <r>   -4.6337    1.0000 </r>
       <r>   -4.6034    1.0000 </r>
       <r>   -4.5415    1.0000 </r>
       <r>   -4.4889    1.0000 </r>
       <r>   -4.3927    1.0000 </r>
       <r>   -4.3896    1.0000 </r>
       <r>   -4.3273    1.0000 </r>
       <r>   -4.2905    1.0000 </r>
       <r>   -4.2854    1.0000 </r>
       <r>   -4.2218    1.0000 </r>
       <r>   -3.9058    1.0000 </r>
       <r>   -3.8892    1.0000 </r>
       <r>   -3.8775    1.0000 </r>
       <r>   -3.6075    1.0000 </r>
       <r>   -3.6008    1.0000 </r>
       <r>   -3.4701    1.0000 </r>
       <r>   -3.4486    1.0000 </r>
       <r>   -3.3545    1.0000 </r>
       <r>   -3.3385    1.0000 </r>
       <r>   -3.2359    1.0000 </r>
       <r>   -3.1674    1.0000 </r>
       <r>   -2.9630    1.0000 </r>
       <r>   -2.8423    1.0000 </r>
       <r>   -2.8115    1.0000 </r>
       <r>   -2.7251    1.0000 </r>
       <r>   -2.7121    1.0000 </r>
       <r>   -2.5090    1.0000 </r>
       <r>   -2.3961    1.0000 </r>
       <r>   -2.2097    1.0000 </r>
       <r>   -2.1451    1.0000 </r>
       <r>   -1.7812    1.0000 </r>
       <r>   -1.6858    1.0000 </r>
       <r>   -1.6353    1.0000 </r>
       <r>   -1.1921    1.0000 </r>
       <r>   -0.7064    1.0000 </r>
       <r>   -0.6676    1.0000 </r>
       <r>   -0.3617    1.0000 </r>
       <r>   -0.3561    1.0000 </r>
       <r>   -0.1650    1.0000 </r>
       <r>   -0.1529    1.0000 </r>
       <r>   -0.0663    1.0000 </r>
       <r>    0.0088    1.0000 </r>
       <r>    0.0557    1.0000 </r>
       <r>    0.0714    1.0000 </r>
       <r>    0.0881    1.0000 </r>
       <r>    0.1000    1.0000 </r>
       <r>    0.1177    1.0000 </r>
       <r>    0.2365    1.0000 </r>
       <r>    0.2812    1.0000 </r>
       <r>    0.3333    1.0000 </r>
       <r>    0.3917    1.0000 </r>
       <r>    0.4107    1.0000 </r>
       <r>    0.4459    1.0000 </r>
       <r>    0.4582    1.0000 </r>
       <r>    0.5015    1.0000 </r>
       <r>    0.5070    1.0000 </r>
       <r>    0.6733    1.0000 </r>
       <r>    0.7014    1.0000 </r>
       <r>    0.7594    1.0000 </r>
       <r>    0.8791    1.0000 </r>
       <r>    0.8936    1.0000 </r>
       <r>    0.9350    1.0000 </r>
       <r>    0.9660    1.0000 </r>
       <r>    1.0318    1.0000 </r>
       <r>    1.1154    1.0000 </r>
       <r>    1.2448    1.0000 </r>
       <r>    1.2912    1.0000 </r>
       <r>    1.2937    1.0000 </r>
       <r>    1.3700    1.0000 </r>
       <r>    1.3989    1.0000 </r>
       <r>    1.4150    1.0000 </r>
       <r>    1.4288    1.0000 </r>
       <r>    1.4412    1.0000 </r>
       <r>    1.4850    1.0000 </r>
       <r>    1.5056    1.0000 </r>
       <r>    1.6156    1.0000 </r>
       <r>    1.7222    1.0000 </r>
       <r>    1.7672    1.0000 </r>
       <r>    1.8434    1.0000 </r>
       <r>    1.8710    1.0000 </r>
       <r>    1.8908    1.0000 </r>
       <r>    1.9153    1.0000 </r>
       <r>    2.0265    1.0000 </r>
       <r>    2.0669    1.0000 </r>
       <r>    2.1100    1.0000 </r>
       <r>    2.1268    1.0000 </r>
       <r>    2.1327    1.0000 </r>
       <r>    2.1335    1.0000 </r>
       <r>    2.2583    1.0000 </r>
       <r>    2.3223    1.0000 </r>
       <r>    2.4114    1.0000 </r>
       <r>    2.4492    1.0000 </r>
       <r>    2.5291    1.0000 </r>
       <r>    2.5398    1.0000 </r>
       <r>    2.5796    1.0000 </r>
       <r>    2.5935    1.0000 </r>
       <r>    2.6248    1.0000 </r>
       <r>    2.7439    1.0000 </r>
       <r>    2.7557    1.0000 </r>
       <r>    2.9060    1.0000 </r>
       <r>    2.9080    1.0000 </r>
       <r>    2.9711    1.0000 </r>
       <r>    3.0591    1.0000 </r>
       <r>    3.1852    1.0000 </r>
       <r>    3.2975    1.0000 </r>
       <r>    3.3345    1.0000 </r>
       <r>    3.3448    1.0000 </r>
       <r>    3.3802    1.0000 </r>
       <r>    3.4942    1.0000 </r>
       <r>    3.4945    1.0000 </r>
       <r>    3.5865    1.0000 </r>
       <r>    3.7630    0.0000 </r>
       <r>    3.8461    0.0000 </r>
       <r>    3.8627    0.0000 </r>
       <r>    3.8833    0.0000 </r>
       <r>    3.9607    0.0000 </r>
       <r>    4.0259    0.0000 </r>
       <r>    4.1448    0.0000 </r>
       <r>    4.2127    0.0000 </r>
       <r>    4.2506    0.0000 </r>
       <r>    4.2811    0.0000 </r>
       <r>    4.3027    0.0000 </r>
       <r>    4.4032    0.0000 </r>
       <r>    4.4353    0.0000 </r>
       <r>    4.5100    0.0000 </r>
       <r>    4.6893    0.0000 </r>
       <r>    4.7869    0.0000 </r>
       <r>    4.8545    0.0000 </r>
       <r>    4.9082    0.0000 </r>
       <r>    5.0669    0.0000 </r>
       <r>    5.0976    0.0000 </r>
       <r>    5.1635    0.0000 </r>
       <r>    5.1935    0.0000 </r>
       <r>    5.2128    0.0000 </r>
       <r>    5.3553    0.0000 </r>
       <r>    5.3660    0.0000 </r>
       <r>    5.3891    0.0000 </r>
       <r>    5.4103    0.0000 </r>
       <r>    5.4520    0.0000 </r>
       <r>    5.5598    0.0000 </r>
       <r>    5.6081    0.0000 </r>
       <r>    5.6467    0.0000 </r>
       <r>    5.6583    0.0000 </r>
      </set>
      <set comment="kpoint 5">
       <r>   -8.6291    1.0000 </r>
       <r>   -8.5934    1.0000 </r>
       <r>   -7.9299    1.0000 </r>
       <r>   -7.8847    1.0000 </r>
       <r>   -7.7132    1.0000 </r>
       <r>   -7.6901    1.0000 </r>
       <r>   -7.5650    1.0000 </r>
       <r>   -7.5362    1.0000 </r>
       <r>   -7.4653    1.0000 </r>
       <r>   -7.3976    1.0000 </r>
       <r>   -7.2145    1.0000 </r>
       <r>   -6.9727    1.0000 </r>
       <r>   -6.9271    1.0000 </r>
       <r>   -6.9104    1.0000 </r>
       <r>   -6.7444    1.0000 </r>
       <r>   -6.6873    1.0000 </r>
       <r>   -6.6618    1.0000 </r>
       <r>   -6.6530    1.0000 </r>
       <r>   -6.5978    1.0000 </r>
       <r>   -6.4434    1.0000 </r>
       <r>   -6.1840    1.0000 </r>
       <r>   -6.1317    1.0000 </r>
       <r>   -6.0103    1.0000 </r>
       <r>   -5.9231    1.0000 </r>
       <r>   -5.8819    1.0000 </r>
       <r>   -5.8217    1.0000 </r>
       <r>   -5.8155    1.0000 </r>
       <r>   -5.7599    1.0000 </r>
       <r>   -5.4213    1.0000 </r>
       <r>   -5.3834    1.0000 </r>
       <r>   -5.2051    1.0000 </r>
       <r>   -5.1346    1.0000 </r>
       <r>   -4.9904    1.0000 </r>
       <r>   -4.9223    1.0000 </r>
       <r>   -4.9099    1.0000 </r>
       <r>   -4.7724    1.0000 </r>
       <r>   -4.5268    1.0000 </r>
       <r>   -4.4026    1.0000 </r>
       <r>   -4.3270    1.0000 </r>
       <r>   -4.1190    1.0000 </r>
       <r>   -4.0485    1.0000 </r>
       <r>   -3.8853    1.0000 </r>
       <r>   -3.7225    1.0000 </r>
       <r>   -3.6245    1.0000 </r>
       <r>   -3.6158    1.0000 </r>
       <r>   -3.5956    1.0000 </r>
       <r>   -3.5076    1.0000 </r>
       <r>   -3.4049    1.0000 </r>
       <r>   -3.3600    1.0000 </r>
       <r>   -3.3380    1.0000 </r>
       <r>   -3.0440    1.0000 </r>
       <r>   -2.9290    1.0000 </r>
       <r>   -2.8942    1.0000 </r>
       <r>   -2.8224    1.0000 </r>
       <r>   -2.7256    1.0000 </r>
       <r>   -2.7023    1.0000 </r>
       <r>   -2.5196    1.0000 </r>
       <r>   -2.4285    1.0000 </r>
       <r>   -2.4270    1.0000 </r>
       <r>   -2.2232    1.0000 </r>
       <r>   -2.1397    1.0000 </r>
       <r>   -2.0837    1.0000 </r>
       <r>   -1.7340    1.0000 </r>
       <r>   -1.7299    1.0000 </r>
       <r>   -1.7054    1.0000 </r>
       <r>   -1.5989    1.0000 </r>
       <r>   -1.2819    1.0000 </r>
       <r>   -0.7707    1.0000 </r>
       <r>   -0.7259    1.0000 </r>
       <r>   -0.5056    1.0000 </r>
       <r>   -0.4845    1.0000 </r>
       <r>   -0.3535    1.0000 </r>
       <r>   -0.3161    1.0000 </r>
       <r>   -0.2802    1.0000 </r>
       <r>   -0.2731    1.0000 </r>
       <r>   -0.2298    1.0000 </r>
       <r>   -0.0734    1.0000 </r>
       <r>   -0.0358    1.0000 </r>
       <r>    0.0230    1.0000 </r>
       <r>    0.0774    1.0000 </r>
       <r>    0.1403    1.0000 </r>
       <r>    0.1504    1.0000 </r>
       <r>    0.2839    1.0000 </r>
       <r>    0.3887    1.0000 </r>
       <r>    0.4033    1.0000 </r>
       <r>    0.4712    1.0000 </r>
       <r>    0.4778    1.0000 </r>
       <r>    0.5185    1.0000 </r>
       <r>    0.5265    1.0000 </r>
       <r>    0.6243    1.0000 </r>
       <r>    0.6282    1.0000 </r>
       <r>    0.6576    1.0000 </r>
       <r>    0.7754    1.0000 </r>
       <r>    0.7857    1.0000 </r>
       <r>    0.8668    1.0000 </r>
       <r>    0.8873    1.0000 </r>
       <r>    0.9223    1.0000 </r>
       <r>    1.0158    1.0000 </r>
       <r>    1.0423    1.0000 </r>
       <r>    1.1127    1.0000 </r>
       <r>    1.1181    1.0000 </r>
       <r>    1.1382    1.0000 </r>
       <r>    1.1988    1.0000 </r>
       <r>    1.2398    1.0000 </r>
       <r>    1.2611    1.0000 </r>
       <r>    1.3344    1.0000 </r>
       <r>    1.3623    1.0000 </r>
       <r>    1.3892    1.0000 </r>
       <r>    1.4198    1.0000 </r>
       <r>    1.4837    1.0000 </r>
       <r>    1.5231    1.0000 </r>
       <r>    1.5359    1.0000 </r>
       <r>    1.5826    1.0000 </r>
       <r>    1.5880    1.0000 </r>
       <r>    1.6104    1.0000 </r>
       <r>    1.6610    1.0000 </r>
       <r>    1.7771    1.0000 </r>
       <r>    1.7816    1.0000 </r>
       <r>    1.8241    1.0000 </r>
       <r>    1.8576    1.0000 </r>
       <r>    1.8619    1.0000 </r>
       <r>    1.8962    1.0000 </r>
       <r>    1.9730    1.0000 </r>
       <r>    1.9900    1.0000 </r>
       <r>    2.0358    1.0000 </r>
       <r>    2.0796    1.0000 </r>
       <r>    2.2430    1.0000 </r>
       <r>    2.3582    1.0000 </r>
       <r>    2.4106    1.0000 </r>
       <r>    2.4474    1.0000 </r>
       <r>    2.4591    1.0000 </r>
       <r>    2.5379    1.0000 </r>
       <r>    2.7632    1.0000 </r>
       <r>    2.7708    1.0000 </r>
       <r>    2.9108    1.0000 </r>
       <r>    2.9517    1.0000 </r>
       <r>    3.0855    1.0000 </r>
       <r>    3.1115    1.0000 </r>
       <r>    3.3053    1.0000 </r>
       <r>    3.3748    1.0000 </r>
       <r>    3.5547    1.0000 </r>
       <r>    3.5978    1.0000 </r>
       <r>    3.6350    1.0000 </r>
       <r>    3.6472    1.0000 </r>
       <r>    3.7151    0.8551 </r>
       <r>    3.8974    0.0000 </r>
       <r>    3.9273    0.0000 </r>
       <r>    3.9830    0.0000 </r>
       <r>    3.9854    0.0000 </r>
       <r>    4.1183    0.0000 </r>
       <r>    4.1891    0.0000 </r>
       <r>    4.2294    0.0000 </r>
       <r>    4.3204    0.0000 </r>
       <r>    4.4246    0.0000 </r>
       <r>    4.5222    0.0000 </r>
       <r>    4.5961    0.0000 </r>
       <r>    4.7185    0.0000 </r>
       <r>    4.7702    0.0000 </r>
       <r>    4.7957    0.0000 </r>
       <r>    4.8614    0.0000 </r>
       <r>    5.0185    0.0000 </r>
       <r>    5.0666    0.0000 </r>
       <r>    5.0969    0.0000 </r>
       <r>    5.2644    0.0000 </r>
       <r>    5.2889    0.0000 </r>
       <r>    5.3562    0.0000 </r>
       <r>    5.3666    0.0000 </r>
       <r>    5.5127    0.0000 </r>
       <r>    5.6091    0.0000 </r>
       <r>    5.6348    0.0000 </r>
       <r>    5.6419    0.0000 </r>
       <r>    5.6942    0.0000 </r>
       <r>    5.7022    0.0000 </r>
       <r>    5.9114    0.0000 </r>
       <r>    5.9169    0.0000 </r>
[...]
       <r>    -9.6061     0.0000     0.0000 </r>
       <r>    -9.5515     0.0000     0.0000 </r>
       <r>    -9.4969     0.0000     0.0000 </r>
       <r>    -9.4423     0.0000     0.0000 </r>
       <r>    -9.3877     0.0000     0.0000 </r>
       <r>    -9.3331     0.0000     0.0000 </r>
       <r>    -9.2785     0.0000     0.0000 </r>
       <r>    -9.2239     0.0000     0.0000 </r>
       <r>    -9.1693     0.0000     0.0000 </r>
       <r>    -9.1147     0.0000     0.0000 </r>
       <r>    -9.0601     0.0000     0.0000 </r>
       <r>    -9.0056     0.0000     0.0000 </r>
       <r>    -8.9510     0.0000     0.0000 </r>
       <r>    -8.8964     0.0000     0.0000 </r>
       <r>    -8.8418     2.6371     0.1440 </r>
       <r>    -8.7872     1.9444     0.2501 </r>
       <r>    -8.7326     4.4546     0.4933 </r>
       <r>    -8.6780    13.8280     1.2483 </r>
       <r>    -8.6234     2.7245     1.3970 </r>
       <r>    -8.5688    14.6683     2.1978 </r>
       <r>    -8.5142     0.9554     2.2500 </r>
       <r>    -8.4596     2.3151     2.3764 </r>
       <r>    -8.4050     2.9828     2.5392 </r>
       <r>    -8.3504     3.8605     2.7500 </r>
       <r>    -8.2958    13.4387     3.4837 </r>
       <r>    -8.2412    11.2276     4.0967 </r>
       <r>    -8.1866    11.5168     4.7254 </r>
       <r>    -8.1320    14.1024     5.4953 </r>
       <r>    -8.0774     0.4830     5.5217 </r>
       <r>    -8.0228     9.3071     6.0298 </r>
       <r>    -7.9682     8.2138     6.4783 </r>
       <r>    -7.9136    14.6234     7.2766 </r>
       <r>    -7.8591    15.6555     8.1314 </r>
       <r>    -7.8045    23.7808     9.4297 </r>
       <r>    -7.7499     7.0778     9.8161 </r>
       <r>    -7.6953     9.7323    10.3475 </r>
       <r>    -7.6407    20.9996    11.4939 </r>
       <r>    -7.5861    10.0363    12.0419 </r>
       <r>    -7.5315    24.9308    13.4030 </r>
       <r>    -7.4769    21.2376    14.5625 </r>
       <r>    -7.4223    20.7882    15.6974 </r>
       <r>    -7.3677    19.1864    16.7449 </r>
       <r>    -7.3131     9.7281    17.2760 </r>
       <r>    -7.2585    31.9251    19.0190 </r>
       <r>    -7.2039    10.4255    19.5881 </r>
       <r>    -7.1493    24.7776    20.9409 </r>
       <r>    -7.0947     7.1213    21.3297 </r>
       <r>    -7.0401    21.5598    22.5068 </r>
       <r>    -6.9855    20.2718    23.6135 </r>
       <r>    -6.9309    31.9798    25.3595 </r>
       <r>    -6.8763    35.1206    27.2769 </r>
       <r>    -6.8217    24.7197    28.6265 </r>
       <r>    -6.7671    17.0885    29.5594 </r>
       <r>    -6.7126    28.6978    31.1262 </r>
       <r>    -6.6580    19.0397    32.1656 </r>
       <r>    -6.6034    38.8777    34.2882 </r>
       <r>    -6.5488    21.0418    35.4370 </r>
       <r>    -6.4942    20.3235    36.5465 </r>
       <r>    -6.4396    21.0791    37.6974 </r>
       <r>    -6.3850    40.7057    39.9197 </r>
       <r>    -6.3304    23.1604    41.1842 </r>
       <r>    -6.2758    21.5144    42.3588 </r>
       <r>    -6.2212    14.0219    43.1243 </r>
       <r>    -6.1666     7.7392    43.5468 </r>
       <r>    -6.1120    19.1727    44.5936 </r>
       <r>    -6.0574    19.9013    45.6801 </r>
       <r>    -6.0028    26.4011    47.1215 </r>
       <r>    -5.9482    13.9579    47.8835 </r>
       <r>    -5.8936    25.5477    49.2783 </r>
       <r>    -5.8390    25.6884    50.6807 </r>
       <r>    -5.7844    24.4036    52.0131 </r>
       <r>    -5.7298    29.3336    53.6146 </r>
       <r>    -5.6752    16.7520    54.5292 </r>
       <r>    -5.6206     7.4155    54.9340 </r>
       <r>    -5.5661    10.4321    55.5036 </r>
       <r>    -5.5115    20.8557    56.6422 </r>
       <r>    -5.4569    13.6241    57.3860 </r>
       <r>    -5.4023    27.2921    58.8760 </r>
       <r>    -5.3477    20.3635    59.9878 </r>
       <r>    -5.2931     5.1016    60.2663 </r>
       <r>    -5.2385    14.2554    61.0446 </r>
       <r>    -5.1839     9.4767    61.5620 </r>
       <r>    -5.1293    16.0163    62.4364 </r>
       <r>    -5.0747    31.4572    64.1538 </r>
       <r>    -5.0201    25.4348    65.5424 </r>
       <r>    -4.9655    14.9509    66.3587 </r>
       <r>    -4.9109    12.9475    67.0655 </r>
       <r>    -4.8563    16.3069    67.9558 </r>
       <r>    -4.8017     2.5020    68.0924 </r>
       <r>    -4.7471     8.9335    68.5801 </r>
       <r>    -4.6925     3.1857    68.7541 </r>
       <r>    -4.6379    11.4128    69.3771 </r>
       <r>    -4.5833    16.4552    70.2755 </r>
       <r>    -4.5287    21.4723    71.4478 </r>
       <r>    -4.4741    20.7842    72.5825 </r>
       <r>    -4.4196    13.9838    73.3460 </r>
       <r>    -4.3650    16.8912    74.2682 </r>
       <r>    -4.3104    24.4738    75.6043 </r>
       <r>    -4.2558    27.9967    77.1328 </r>
       <r>    -4.2012    16.3645    78.0262 </r>
       <r>    -4.1466    25.3529    79.4104 </r>
       <r>    -4.0920    23.2837    80.6816 </r>
       <r>    -4.0374    15.6280    81.5348 </r>
       <r>    -3.9828    18.7141    82.5565 </r>
       <r>    -3.9282    15.5034    83.4029 </r>
       <r>    -3.8736    19.1298    84.4473 </r>
       <r>    -3.8190    27.4229    85.9445 </r>
       <r>    -3.7644     1.9624    86.0516 </r>
       <r>    -3.7098    21.1556    87.2066 </r>
       <r>    -3.6552     9.4621    87.7232 </r>
       <r>    -3.6006    21.8345    88.9153 </r>
       <r>    -3.5460    42.7369    91.2485 </r>
       <r>    -3.4914    25.3609    92.6332 </r>
       <r>    -3.4368    32.8564    94.4270 </r>
       <r>    -3.3822    33.7844    96.2715 </r>
       <r>    -3.3276    26.1504    97.6992 </r>
       <r>    -3.2731    24.5494    99.0395 </r>
       <r>    -3.2185    24.7580   100.3911 </r>
       <r>    -3.1639    24.4842   101.7279 </r>
       <r>    -3.1093    22.3936   102.9505 </r>
       <r>    -3.0547    22.2067   104.1629 </r>
       <r>    -3.0001     7.9397   104.5963 </r>
       <r>    -2.9455     5.4952   104.8964 </r>
       <r>    -2.8909     7.2219   105.2906 </r>
       <r>    -2.8363    29.1111   106.8800 </r>
       <r>    -2.7817    27.5844   108.3860 </r>
       <r>    -2.7271     8.1442   108.8306 </r>
       <r>    -2.6725    37.0241   110.8519 </r>
       <r>    -2.6179    11.8205   111.4973 </r>
       <r>    -2.5633    10.8243   112.0882 </r>
       <r>    -2.5087    17.9856   113.0702 </r>
       <r>    -2.4541    25.9430   114.4865 </r>
       <r>    -2.3995    16.1047   115.3658 </r>
       <r>    -2.3449     7.0372   115.7500 </r>
       <r>    -2.2903     9.5945   116.2738 </r>
       <r>    -2.2357    14.1116   117.0442 </r>
       <r>    -2.1811    29.5996   118.6602 </r>
       <r>    -2.1266    30.4248   120.3213 </r>
       <r>    -2.0720    10.3352   120.8856 </r>
       <r>    -2.0174    15.6368   121.7393 </r>
       <r>    -1.9628    15.3204   122.5757 </r>
       <r>    -1.9082    13.9146   123.3354 </r>
       <r>    -1.8536    11.2963   123.9521 </r>
       <r>    -1.7990     5.4507   124.2497 </r>
       <r>    -1.7444     9.1367   124.7485 </r>
       <r>    -1.6898    20.6518   125.8760 </r>
       <r>    -1.6352     9.1637   126.3763 </r>
       <r>    -1.5806    19.3024   127.4301 </r>
       <r>    -1.5260    21.8577   128.6234 </r>
       <r>    -1.4714     4.6074   128.8750 </r>
       <r>    -1.4168     7.2223   129.2693 </r>
       <r>    -1.3622    21.0311   130.4175 </r>
       <r>    -1.3076    12.6528   131.1083 </r>
       <r>    -1.2530    15.8329   131.9727 </r>
       <r>    -1.1984    14.4460   132.7614 </r>
       <r>    -1.1438    20.0353   133.8552 </r>
       <r>    -1.0892     9.4526   134.3713 </r>
       <r>    -1.0346     2.3131   134.4976 </r>
       <r>    -0.9801     4.4366   134.7398 </r>
       <r>    -0.9255     4.7577   134.9996 </r>
       <r>    -0.8709     6.5173   135.3554 </r>
       <r>    -0.8163     2.6488   135.5000 </r>
       <r>    -0.7617    10.4959   136.0730 </r>
       <r>    -0.7071    30.6887   137.7485 </r>
       <r>    -0.6525    16.7524   138.6631 </r>
       <r>    -0.5979    15.0082   139.4825 </r>
       <r>    -0.5433    12.1203   140.1442 </r>
       <r>    -0.4887    30.0420   141.7843 </r>
       <r>    -0.4341    19.1511   142.8299 </r>
       <r>    -0.3795    16.6923   143.7412 </r>
       <r>    -0.3249    28.7356   145.3100 </r>
       <r>    -0.2703    34.9940   147.2206 </r>
       <r>    -0.2157    44.6533   149.6584 </r>
       <r>    -0.1611    34.3180   151.5320 </r>
       <r>    -0.1065    43.7927   153.9229 </r>
       <r>    -0.0519    31.7503   155.6563 </r>
       <r>     0.0027    36.0936   157.6269 </r>
       <r>     0.0573    21.0623   158.7768 </r>
       <r>     0.1119    53.5870   161.7024 </r>
       <r>     0.1664    46.4004   164.2357 </r>
       <r>     0.2210    36.3201   166.2186 </r>
       <r>     0.2756    27.5582   167.7231 </r>
       <r>     0.3302    42.7351   170.0563 </r>
       <r>     0.3848    32.7534   171.8445 </r>
       <r>     0.4394    49.6517   174.5553 </r>
       <r>     0.4940    53.1139   177.4550 </r>
       <r>     0.5486    44.0819   179.8617 </r>
       <r>     0.6032    22.1603   181.0716 </r>
       <r>     0.6578    48.2481   183.7057 </r>
       <r>     0.7124    40.2434   185.9028 </r>
       <r>     0.7670    36.3497   187.8874 </r>
       <r>     0.8216    43.9828   190.2886 </r>
       <r>     0.8762    35.1781   192.2093 </r>
       <r>     0.9308    46.5372   194.7500 </r>
       <r>     0.9854    29.7266   196.3729 </r>
       <r>     1.0400    34.0302   198.2308 </r>
       <r>     1.0946    41.4573   200.4942 </r>
       <r>     1.1492    42.0748   202.7913 </r>
       <r>     1.2038    44.0087   205.1939 </r>
       <r>     1.2584    43.6363   207.5763 </r>
       <r>     1.3129    59.1097   210.8034 </r>
       <r>     1.3675    39.4129   212.9552 </r>
       <r>     1.4221    36.8904   214.9692 </r>
       <r>     1.4767    39.8343   217.1440 </r>
       <r>     1.5313    44.7296   219.5861 </r>
       <r>     1.5859    42.7882   221.9221 </r>
       <r>     1.6405    42.7600   224.2566 </r>
       <r>     1.6951    35.6396   226.2024 </r>
       <r>     1.7497    36.4436   228.1921 </r>
       <r>     1.8043    62.9419   231.6284 </r>
       <r>     1.8589    40.1738   233.8218 </r>
       <r>     1.9135    44.3424   236.2427 </r>
       <r>     1.9681    41.3845   238.5021 </r>
       <r>     2.0227    37.5873   240.5542 </r>
       <r>     2.0773    39.5391   242.7128 </r>
       <r>     2.1319    42.5451   245.0357 </r>
       <r>     2.1865    26.8522   246.5017 </r>
       <r>     2.2411    38.2493   248.5899 </r>
       <r>     2.2957    42.6949   250.9209 </r>
       <r>     2.3503    24.2075   252.2425 </r>
       <r>     2.4049    39.1772   254.3814 </r>
       <r>     2.4594    27.0179   255.8564 </r>
       <r>     2.5140    31.3644   257.5688 </r>
       <r>     2.5686    46.9275   260.1308 </r>
       <r>     2.6232    29.5780   261.7456 </r>
       <r>     2.6778    31.5120   263.4660 </r>
       <r>     2.7324    20.8012   264.6017 </r>
       <r>     2.7870    36.6406   266.6021 </r>
       <r>     2.8416    22.6943   267.8411 </r>
       <r>     2.8962    29.7896   269.4675 </r>
       <r>     2.9508    26.8721   270.9345 </r>
       <r>     3.0054    31.9136   272.6769 </r>
       <r>     3.0600    13.3398   273.4052 </r>
       <r>     3.1146    19.6514   274.4780 </r>
       <r>     3.1692    12.0657   275.1368 </r>
       <r>     3.2238    14.3849   275.9221 </r>
       <r>     3.2784    21.7494   277.1095 </r>
       <r>     3.3330     6.2379   277.4501 </r>
       <r>     3.3876    28.1326   278.9860 </r>
       <r>     3.4422    29.3209   280.5868 </r>
       <r>     3.4968    15.2360   281.4186 </r>
       <r>     3.5514     8.4302   281.8788 </r>
       <r>     3.6059    29.3864   283.4832 </r>
       <r>     3.6605    33.8019   285.3286 </r>
       <r>     3.7151    31.4887   287.0478 </r>
       <r>     3.7697    36.9428   289.0647 </r>
       <r>     3.8243    26.4651   290.5096 </r>
       <r>     3.8789    26.5661   291.9599 </r>
       <r>     3.9335    35.9444   293.9223 </r>
       <r>     3.9881    21.9554   295.1210 </r>
       <r>     4.0427    31.7357   296.8537 </r>
       <r>     4.0973    22.7169   298.0939 </r>
       <r>     4.1519    37.7290   300.1537 </r>
       <r>     4.2065    29.6056   301.7701 </r>
       <r>     4.2611    28.8349   303.3443 </r>
       <r>     4.3157    15.9880   304.2172 </r>
       <r>     4.3703    34.8858   306.1218 </r>
       <r>     4.4249    32.1709   307.8782 </r>
       <r>     4.4795    22.8743   309.1270 </r>
       <r>     4.5341    27.4678   310.6266 </r>
       <r>     4.5887    25.7900   312.0347 </r>
       <r>     4.6433    30.6462   313.7078 </r>
       <r>     4.6979    21.3956   314.8759 </r>
       <r>     4.7524    23.7059   316.1701 </r>
       <r>     4.8070    38.9626   318.2973 </r>
       <r>     4.8616    28.1585   319.8346 </r>
       <r>     4.9162    28.4759   321.3893 </r>
       <r>     4.9708    25.3875   322.7753 </r>
       <r>     5.0254    21.3813   323.9426 </r>
       <r>     5.0800    35.6874   325.8910 </r>
       <r>     5.1346    21.8384   327.0833 </r>
       <r>     5.1892    22.2943   328.3005 </r>
       <r>     5.2438    26.6534   329.7556 </r>
       <r>     5.2984    36.1358   331.7285 </r>
       <r>     5.3530    35.1444   333.6472 </r>
       <r>     5.4076    33.2826   335.4643 </r>
       <r>     5.4622    32.4585   337.2364 </r>
       <r>     5.5168    17.8101   338.2087 </r>
       <r>     5.5714    32.4423   339.9799 </r>
       <r>     5.6260    39.3511   342.1283 </r>
       <r>     5.6806    36.5199   344.1221 </r>
       <r>     5.7352    37.9005   346.1913 </r>
       <r>     5.7898    28.5482   347.7499 </r>
       <r>     5.8444    14.1745   348.5238 </r>
       <r>     5.8989    13.3308   349.2516 </r>
       <r>     5.9535    20.9832   350.3972 </r>
       <r>     6.0081    19.1080   351.4404 </r>
       <r>     6.0627    10.2491   352.0000 </r>
       <r>     6.1173     0.0000   352.0000 </r>
       <r>     6.1719     0.0000   352.0000 </r>
       <r>     6.2265     0.0000   352.0000 </r>
       <r>     6.2811     0.0000   352.0000 </r>
       <r>     6.3357     0.0000   352.0000 </r>
       <r>     6.3903     0.0000   352.0000 </r>
       <r>     6.4449     0.0000   352.0000 </r>
       <r>     6.4995     0.0000   352.0000 </r>
       <r>     6.5541     0.0000   352.0000 </r>
       <r>     6.6087     0.0000   352.0000 </r>
       <r>     6.6633     0.0000   352.0000 </r>
       <r>     6.7179     0.0000   352.0000 </r>
       <r>     6.7725     0.0000   352.0000 </r>
      </set>
     </set>
    </array>
   </total>
  </dos>
 </calculation>
 <structure name="finalpos" >
  <crystal>
   <varray name="basis" >
    <v>       7.68059444       0.00000000       0.00000000 </v>
    <v>       0.00000000      16.29299927       0.00000000 </v>
    <v>       0.00000000       0.00000000      13.46377850 </v>
   </varray>
   <i name="volume">   1684.85615923 </i>
   <varray name="rec_basis" >
    <v>       0.13019826       0.00000000       0.00000000 </v>
    <v>       0.00000000       0.06137605       0.00000000 </v>
    <v>       0.00000000       0.00000000       0.07427336 </v>
   </varray>
  </crystal>
  <varray name="positions" >
   <v>       0.94351405       0.91213298       0.00000001 </v>
   <v>       0.69351399       0.52324402       0.04753866 </v>
   <v>       0.44351399       0.13435513       0.09507734 </v>
   <v>       0.19351393       0.74546611       0.14261596 </v>
   <v>       0.94351387       0.35657716       0.19015467 </v>
   <v>       0.69351375       0.96768785       0.23769326 </v>
   <v>       0.19351408       0.66213304       0.00000000 </v>
   <v>       0.94351405       0.27324402       0.04753866 </v>
   <v>       0.69351405       0.88435513       0.09507731 </v>
   <v>       0.44351387       0.49546605       0.14261597 </v>
   <v>       0.19351381       0.10657704       0.19015463 </v>
   <v>       0.94351375       0.71768796       0.23769335 </v>
   <v>       0.69351417       0.66213304       0.00000000 </v>
   <v>       0.44351405       0.27324399       0.04753865 </v>
   <v>       0.19351403       0.88435507       0.09507731 </v>
   <v>       0.94351399       0.49546605       0.14261597 </v>
   <v>       0.69351387       0.10657704       0.19015463 </v>
   <v>       0.44351381       0.71768796       0.23769331 </v>
   <v>       0.44351408       0.91213298       0.00000000 </v>
   <v>       0.19351399       0.52324402       0.04753868 </v>
   <v>       0.94351399       0.13435513       0.09507734 </v>
   <v>       0.69351399       0.74546611       0.14261596 </v>
   <v>       0.44351393       0.35657704       0.19015467 </v>
   <v>       0.19351369       0.96768808       0.23769335 </v>
   <v>       0.07040572       0.56980324       0.35620677 </v>
   <v>       0.82040566       0.44480324       0.56631863 </v>
   <v>       0.57040566       0.31980324       0.77643055 </v>
   <v>       0.07040560       0.06980324       0.35620677 </v>
   <v>       0.82040566       0.94480324       0.56631863 </v>
   <v>       0.57040566       0.81980324       0.77643055 </v>
   <v>       0.57040560       0.81980324       0.35620677 </v>
   <v>       0.32040563       0.69480324       0.56631863 </v>
   <v>       0.07040572       0.56980324       0.77643055 </v>
   <v>       0.57040560       0.31980324       0.35620677 </v>
   <v>       0.32040566       0.19480324       0.56631863 </v>
   <v>       0.07040560       0.06980324       0.77643055 </v>
   <v>       0.32040566       0.56980324       0.46126270 </v>
   <v>       0.07040572       0.44480324       0.67137456 </v>
   <v>       0.82040566       0.31980324       0.88148654 </v>
   <v>       0.32040560       0.06980324       0.46126270 </v>
   <v>       0.07040560       0.94480318       0.67137456 </v>
   <v>       0.82040560       0.81980318       0.88148654 </v>
   <v>       0.82040566       0.81980324       0.46126270 </v>
   <v>       0.57040566       0.69480324       0.67137456 </v>
   <v>       0.32040566       0.56980324       0.88148654 </v>
   <v>       0.82040566       0.31980324       0.46126270 </v>
   <v>       0.57040560       0.19480324       0.67137456 </v>
   <v>       0.32040563       0.06980324       0.88148654 </v>
   <v>       0.07040572       0.81980324       0.35620677 </v>
   <v>       0.82040566       0.69480324       0.56631863 </v>
   <v>       0.57040566       0.56980324       0.77643055 </v>
   <v>       0.57040560       0.56980324       0.35620677 </v>
   <v>       0.32040563       0.44480324       0.56631863 </v>
   <v>       0.07040572       0.31980324       0.77643055 </v>
   <v>       0.07040560       0.31980324       0.35620677 </v>
   <v>       0.82040566       0.19480324       0.56631863 </v>
   <v>       0.57040566       0.06980324       0.77643055 </v>
   <v>       0.57040560       0.06980324       0.35620677 </v>
   <v>       0.32040566       0.94480324       0.56631863 </v>
   <v>       0.07040572       0.81980324       0.77643055 </v>
   <v>       0.32040566       0.81980324       0.46126270 </v>
   <v>       0.07040572       0.69480324       0.67137456 </v>
   <v>       0.82040566       0.56980324       0.88148654 </v>
   <v>       0.82040560       0.56980324       0.46126270 </v>
   <v>       0.57040560       0.44480324       0.67137456 </v>
   <v>       0.32040560       0.31980324       0.88148654 </v>
   <v>       0.32040566       0.31980324       0.46126270 </v>
   <v>       0.07040572       0.19480324       0.67137456 </v>
   <v>       0.82040566       0.06980324       0.88148654 </v>
   <v>       0.82040560       0.06980324       0.46126270 </v>
   <v>       0.57040560       0.94480324       0.67137456 </v>
   <v>       0.32040560       0.81980318       0.88148654 </v>
  </varray>
 </structure>
</modeling>
