  72  72   0   0
  0.1826833E+02  0.8001338E-09  0.1600268E-08  0.1027250E-08  0.5000000E-15
  1.000000000000000E-004
  CAR 
 Si and Ge interface calculation         
      9.09136789    -10.51096487  301      6.04069804      1.00000000
    -10.511  0.0000E+00  0.0000E+00  0.0000E+00  0.0000E+00
    -10.446  0.0000E+00  0.0000E+00  0.0000E+00  0.0000E+00
    -10.380  0.0000E+00  0.0000E+00  0.0000E+00  0.0000E+00
    -10.315  0.0000E+00  0.0000E+00  0.0000E+00  0.0000E+00
    -10.250  0.0000E+00  0.0000E+00  0.0000E+00  0.0000E+00
    -10.184  0.0000E+00  0.0000E+00  0.0000E+00  0.0000E+00
    -10.119  0.0000E+00  0.0000E+00  0.0000E+00  0.0000E+00
    -10.054  0.0000E+00  0.0000E+00  0.0000E+00  0.0000E+00
     -9.988  0.0000E+00  0.0000E+00  0.0000E+00  0.0000E+00
     -9.923  0.0000E+00  0.0000E+00  0.0000E+00  0.0000E+00
     -9.858  0.0000E+00  0.0000E+00  0.0000E+00  0.0000E+00
     -9.792  0.0000E+00  0.0000E+00  0.0000E+00  0.0000E+00
     -9.727  0.0000E+00  0.0000E+00  0.0000E+00  0.0000E+00
     -9.662  0.3529E-08  0.2832E-15  0.2306E-09  0.1850E-16
     -9.596  0.7489E+01  0.3826E+01  0.4893E+00  0.2500E+00
     -9.531  0.2153E+00  0.3826E+01  0.5035E+00  0.5000E+00
     -9.466  0.1525E+02  0.1530E+02  0.1500E+01  0.1500E+01
     -9.400  0.2414E-05  0.2138E-11  0.1500E+01  0.1500E+01
     -9.335  0.7652E+01  0.7407E+01  0.2000E+01  0.1984E+01
     -9.269  0.1385E+02  0.3104E+01  0.2905E+01  0.2189E+01
     -9.204  0.1651E+02  0.2073E+02  0.3984E+01  0.3544E+01
     -9.139  0.1964E+00  0.6979E+01  0.4000E+01  0.4000E+01
     -9.073  0.2287E-03  0.1552E-08  0.4000E+01  0.4000E+01
     -9.008  0.1530E+02  0.1525E+02  0.5000E+01  0.4996E+01
     -8.943  0.3710E-13  0.0000E+00  0.5000E+01  0.5000E+01
     -8.877  0.1316E+02  0.2447E+01  0.5860E+01  0.5160E+01
     -8.812  0.2146E+01  0.1286E+02  0.6000E+01  0.6000E+01
     -8.747  0.1018E+01  0.4882E-02  0.6067E+01  0.6000E+01
     -8.681  0.2194E+02  0.2287E+02  0.7500E+01  0.7495E+01
     -8.616  0.0000E+00  0.0000E+00  0.7500E+01  0.7500E+01
     -8.551  0.7884E-07  0.4857E-13  0.7500E+01  0.7500E+01
     -8.485  0.7651E+01  0.7169E+01  0.8000E+01  0.7968E+01
     -8.420  0.3930E+01  0.1988E+01  0.8257E+01  0.8098E+01
     -8.355  0.3702E+01  0.6147E+01  0.8500E+01  0.8500E+01
     -8.289  0.1512E+02  0.1312E+02  0.9488E+01  0.9357E+01
     -8.224  0.2428E+01  0.2811E+01  0.9647E+01  0.9544E+01
     -8.159  0.3067E+01  0.3320E+01  0.9847E+01  0.9761E+01
     -8.093  0.7981E+01  0.7697E+01  0.1037E+02  0.1026E+02
     -8.028  0.1990E+02  0.1282E+02  0.1167E+02  0.1110E+02
     -7.963  0.1269E+02  0.2140E+02  0.1250E+02  0.1250E+02
     -7.897  0.8311E+01  0.7669E+01  0.1304E+02  0.1300E+02
     -7.832  0.6985E+01  0.7635E+01  0.1350E+02  0.1350E+02
     -7.767  0.2004E+01  0.1228E+00  0.1363E+02  0.1351E+02
     -7.701  0.9787E+01  0.8551E+01  0.1427E+02  0.1407E+02
     -7.636  0.1929E+02  0.2191E+02  0.1553E+02  0.1550E+02
     -7.571  0.1269E+02  0.9251E+01  0.1636E+02  0.1611E+02
     -7.505  0.2147E+01  0.6044E+01  0.1650E+02  0.1650E+02
     -7.440  0.7643E+01  0.7652E+01  0.1700E+02  0.1700E+02
     -7.375  0.0000E+00  0.0000E+00  0.1700E+02  0.1700E+02
     -7.309  0.8424E-03  0.8513E-06  0.1700E+02  0.1700E+02
     -7.244  0.1527E+02  0.1448E+02  0.1800E+02  0.1795E+02
     -7.179  0.7306E-12  0.8231E+00  0.1800E+02  0.1800E+02
     -7.113  0.9466E+01  0.2459E+01  0.1862E+02  0.1816E+02
     -7.048  0.1094E+02  0.1795E+02  0.1933E+02  0.1933E+02
     -6.983  0.1786E+02  0.1748E+02  0.2050E+02  0.2048E+02
     -6.917  0.2544E+01  0.2901E+01  0.2067E+02  0.2067E+02
     -6.852  0.4510E+01  0.9794E+00  0.2096E+02  0.2073E+02
     -6.787  0.3099E+01  0.6123E+01  0.2117E+02  0.2113E+02
     -6.721  0.1531E+02  0.5844E+01  0.2217E+02  0.2151E+02
     -6.656  0.1351E+02  0.2160E+02  0.2305E+02  0.2292E+02
     -6.590  0.8275E+01  0.6461E+01  0.2359E+02  0.2335E+02
     -6.525  0.6267E+01  0.9969E+01  0.2400E+02  0.2400E+02
     -6.460  0.0000E+00  0.0000E+00  0.2400E+02  0.2400E+02
     -6.394  0.8242E-03  0.8721E-06  0.2400E+02  0.2400E+02
     -6.329  0.1618E+02  0.1093E+02  0.2506E+02  0.2471E+02
     -6.264  0.1653E+02  0.1962E+02  0.2614E+02  0.2600E+02
     -6.198  0.2078E+02  0.2170E+02  0.2750E+02  0.2741E+02
     -6.133  0.6152E-01  0.1317E+01  0.2750E+02  0.2750E+02
     -6.068  0.4722E+01  0.2582E+01  0.2781E+02  0.2767E+02
     -6.002  0.8619E+01  0.8199E+01  0.2837E+02  0.2820E+02
     -5.937  0.8891E+01  0.7804E+01  0.2895E+02  0.2871E+02
     -5.872  0.2026E+02  0.1970E+02  0.3028E+02  0.3000E+02
     -5.806  0.5735E+01  0.8968E+01  0.3065E+02  0.3059E+02
     -5.741  0.1263E+02  0.9785E+01  0.3148E+02  0.3123E+02
     -5.676  0.1019E+02  0.1190E+02  0.3215E+02  0.3201E+02
     -5.610  0.1356E+02  0.1397E+02  0.3303E+02  0.3292E+02
     -5.545  0.1583E+02  0.1579E+02  0.3407E+02  0.3396E+02
     -5.480  0.1510E+02  0.1377E+02  0.3506E+02  0.3486E+02
     -5.414  0.1595E+02  0.1517E+02  0.3610E+02  0.3586E+02
     -5.349  0.2079E+02  0.2104E+02  0.3746E+02  0.3723E+02
     -5.284  0.1277E+02  0.1466E+02  0.3829E+02  0.3819E+02
     -5.218  0.1918E+02  0.1620E+02  0.3954E+02  0.3925E+02
     -5.153  0.1207E+02  0.1452E+02  0.4033E+02  0.4020E+02
     -5.088  0.1333E+02  0.1386E+02  0.4121E+02  0.4111E+02
     -5.022  0.2156E+02  0.1605E+02  0.4261E+02  0.4216E+02
     -4.957  0.2125E+02  0.2441E+02  0.4400E+02  0.4376E+02
     -4.892  0.1024E+02  0.1326E+02  0.4468E+02  0.4462E+02
     -4.826  0.1098E+02  0.1043E+02  0.4540E+02  0.4531E+02
     -4.761  0.1463E+02  0.1321E+02  0.4635E+02  0.4617E+02
     -4.696  0.2672E+02  0.2767E+02  0.4810E+02  0.4798E+02
     -4.630  0.1553E+02  0.1422E+02  0.4912E+02  0.4891E+02
     -4.565  0.1648E+02  0.1505E+02  0.5019E+02  0.4989E+02
     -4.500  0.1243E+02  0.1327E+02  0.5101E+02  0.5076E+02
     -4.434  0.2164E+02  0.2408E+02  0.5242E+02  0.5233E+02
     -4.369  0.1209E+02  0.1067E+02  0.5321E+02  0.5303E+02
     -4.304  0.1454E+02  0.1434E+02  0.5416E+02  0.5397E+02
     -4.238  0.2587E+02  0.2593E+02  0.5585E+02  0.5566E+02
     -4.173  0.1496E+02  0.1600E+02  0.5683E+02  0.5671E+02
     -4.108  0.1567E+02  0.1169E+02  0.5786E+02  0.5748E+02
     -4.042  0.1764E+02  0.2323E+02  0.5901E+02  0.5900E+02
     -3.977  0.9797E+01  0.8276E+01  0.5965E+02  0.5954E+02
     -3.912  0.2317E+02  0.1953E+02  0.6117E+02  0.6081E+02
     -3.846  0.1543E+02  0.1939E+02  0.6217E+02  0.6208E+02
     -3.781  0.2418E+02  0.2535E+02  0.6375E+02  0.6374E+02
     -3.715  0.3767E+01  0.3959E+01  0.6400E+02  0.6400E+02
     -3.650  0.1169E+02  0.9779E+01  0.6476E+02  0.6464E+02
     -3.585  0.2118E+02  0.1807E+02  0.6615E+02  0.6582E+02
     -3.519  0.1868E+02  0.1886E+02  0.6737E+02  0.6705E+02
     -3.454  0.1998E+02  0.1922E+02  0.6868E+02  0.6831E+02
     -3.389  0.1476E+02  0.1829E+02  0.6965E+02  0.6950E+02
     -3.323  0.1839E+02  0.1329E+02  0.7085E+02  0.7037E+02
     -3.258  0.6194E+01  0.1315E+02  0.7125E+02  0.7123E+02
     -3.193  0.1479E+02  0.1066E+02  0.7222E+02  0.7193E+02
     -3.127  0.3536E+02  0.3635E+02  0.7453E+02  0.7431E+02
     -3.062  0.1539E+02  0.1317E+02  0.7554E+02  0.7517E+02
     -2.997  0.2892E+02  0.2761E+02  0.7743E+02  0.7698E+02
     -2.931  0.1253E+02  0.1809E+02  0.7825E+02  0.7816E+02
     -2.866  0.7088E+01  0.7671E+01  0.7871E+02  0.7866E+02
     -2.801  0.1482E+02  0.1315E+02  0.7968E+02  0.7952E+02
     -2.735  0.9916E+01  0.1010E+02  0.8033E+02  0.8018E+02
     -2.670  0.1055E+02  0.9139E+01  0.8102E+02  0.8078E+02
     -2.605  0.2764E+02  0.2781E+02  0.8283E+02  0.8260E+02
     -2.539  0.1731E+02  0.1360E+02  0.8396E+02  0.8349E+02
     -2.474  0.3223E+02  0.3344E+02  0.8607E+02  0.8568E+02
     -2.409  0.2064E+02  0.2638E+02  0.8742E+02  0.8740E+02
     -2.343  0.8420E+01  0.6776E+01  0.8797E+02  0.8785E+02
     -2.278  0.1159E+02  0.1048E+02  0.8872E+02  0.8853E+02
     -2.213  0.2066E+02  0.1820E+02  0.9008E+02  0.8972E+02
     -2.147  0.2020E+02  0.2278E+02  0.9140E+02  0.9121E+02
     -2.082  0.1670E+02  0.1454E+02  0.9250E+02  0.9216E+02
     -2.017  0.2165E+02  0.2213E+02  0.9391E+02  0.9361E+02
     -1.951  0.1479E+02  0.1721E+02  0.9488E+02  0.9474E+02
     -1.886  0.2030E+02  0.1997E+02  0.9621E+02  0.9604E+02
     -1.821  0.2288E+02  0.1836E+02  0.9770E+02  0.9724E+02
     -1.755  0.2479E+02  0.2663E+02  0.9932E+02  0.9899E+02
     -1.690  0.2793E+02  0.2619E+02  0.1011E+03  0.1007E+03
     -1.625  0.2042E+02  0.2456E+02  0.1025E+03  0.1023E+03
     -1.559  0.2050E+02  0.2113E+02  0.1038E+03  0.1037E+03
     -1.494  0.1900E+02  0.1536E+02  0.1051E+03  0.1047E+03
     -1.429  0.2389E+02  0.2194E+02  0.1066E+03  0.1061E+03
     -1.363  0.1494E+02  0.2017E+02  0.1076E+03  0.1074E+03
     -1.298  0.2817E+02  0.2423E+02  0.1095E+03  0.1090E+03
     -1.233  0.1000E+02  0.1330E+02  0.1101E+03  0.1099E+03
     -1.167  0.1873E+02  0.2027E+02  0.1113E+03  0.1112E+03
     -1.102  0.1925E+02  0.1756E+02  0.1126E+03  0.1124E+03
     -1.037  0.3417E+02  0.2722E+02  0.1148E+03  0.1142E+03
     -0.971  0.2173E+02  0.2533E+02  0.1162E+03  0.1158E+03
     -0.906  0.2425E+02  0.2229E+02  0.1178E+03  0.1173E+03
     -0.840  0.7704E+01  0.1624E+02  0.1183E+03  0.1183E+03
     -0.775  0.1999E+02  0.7481E+01  0.1196E+03  0.1188E+03
     -0.710  0.2847E+02  0.3881E+02  0.1215E+03  0.1214E+03
     -0.644  0.2171E+02  0.2030E+02  0.1229E+03  0.1227E+03
     -0.579  0.1301E+02  0.1160E+02  0.1238E+03  0.1234E+03
     -0.514  0.1626E+02  0.1534E+02  0.1248E+03  0.1245E+03
     -0.448  0.3062E+02  0.3109E+02  0.1268E+03  0.1265E+03
     -0.383  0.2138E+02  0.2307E+02  0.1282E+03  0.1280E+03
     -0.318  0.1707E+02  0.1730E+02  0.1294E+03  0.1291E+03
     -0.252  0.2002E+02  0.2199E+02  0.1307E+03  0.1306E+03
     -0.187  0.1634E+02  0.9888E+01  0.1317E+03  0.1312E+03
     -0.122  0.2444E+02  0.2697E+02  0.1333E+03  0.1330E+03
     -0.056  0.2609E+02  0.2547E+02  0.1350E+03  0.1346E+03
      0.009  0.1973E+02  0.2117E+02  0.1363E+03  0.1360E+03
      0.074  0.1143E+02  0.1298E+02  0.1371E+03  0.1369E+03
      0.140  0.9185E+01  0.1216E+02  0.1377E+03  0.1377E+03
      0.205  0.1554E+02  0.1244E+02  0.1387E+03  0.1385E+03
      0.270  0.1331E+02  0.1327E+02  0.1396E+03  0.1393E+03
      0.336  0.1700E+02  0.1853E+02  0.1407E+03  0.1406E+03
      0.401  0.2264E+02  0.2099E+02  0.1422E+03  0.1419E+03
      0.466  0.1413E+02  0.1149E+02  0.1431E+03  0.1427E+03
      0.532  0.1991E+02  0.2180E+02  0.1444E+03  0.1441E+03
      0.597  0.1382E+02  0.1041E+02  0.1453E+03  0.1448E+03
      0.662  0.1902E+02  0.2175E+02  0.1465E+03  0.1462E+03
      0.728  0.1726E+02  0.1813E+02  0.1477E+03  0.1474E+03
      0.793  0.3113E+02  0.2819E+02  0.1497E+03  0.1492E+03
      0.858  0.2051E+02  0.2543E+02  0.1510E+03  0.1509E+03
      0.924  0.1382E+02  0.1311E+02  0.1519E+03  0.1518E+03
      0.989  0.3406E+02  0.2816E+02  0.1542E+03  0.1536E+03
      1.054  0.3322E+02  0.3908E+02  0.1563E+03  0.1562E+03
      1.120  0.3302E+02  0.2236E+02  0.1585E+03  0.1576E+03
      1.185  0.2358E+02  0.3427E+02  0.1600E+03  0.1599E+03
      1.250  0.2125E+02  0.1834E+02  0.1614E+03  0.1611E+03
      1.316  0.3399E+02  0.3381E+02  0.1637E+03  0.1633E+03
      1.381  0.2805E+02  0.2711E+02  0.1655E+03  0.1650E+03
      1.446  0.2589E+02  0.2825E+02  0.1672E+03  0.1669E+03
      1.512  0.1725E+02  0.1627E+02  0.1683E+03  0.1680E+03
      1.577  0.2766E+02  0.2929E+02  0.1701E+03  0.1699E+03
      1.642  0.2089E+02  0.2230E+02  0.1715E+03  0.1713E+03
      1.708  0.1806E+02  0.1925E+02  0.1727E+03  0.1726E+03
      1.773  0.1989E+02  0.1345E+02  0.1740E+03  0.1735E+03
      1.839  0.4149E+02  0.4170E+02  0.1767E+03  0.1762E+03
      1.904  0.2706E+02  0.2888E+02  0.1784E+03  0.1781E+03
      1.969  0.2822E+02  0.3084E+02  0.1803E+03  0.1801E+03
      2.035  0.2373E+02  0.2389E+02  0.1818E+03  0.1817E+03
      2.100  0.2642E+02  0.2360E+02  0.1836E+03  0.1832E+03
      2.165  0.1656E+02  0.2065E+02  0.1847E+03  0.1846E+03
      2.231  0.2586E+02  0.1819E+02  0.1863E+03  0.1858E+03
      2.296  0.2252E+02  0.2979E+02  0.1878E+03  0.1877E+03
      2.361  0.3885E+02  0.3272E+02  0.1904E+03  0.1898E+03
      2.427  0.1928E+02  0.2515E+02  0.1916E+03  0.1915E+03
      2.492  0.3125E+02  0.3109E+02  0.1937E+03  0.1935E+03
      2.557  0.2208E+02  0.2150E+02  0.1951E+03  0.1949E+03
      2.623  0.3234E+02  0.2709E+02  0.1972E+03  0.1967E+03
      2.688  0.2648E+02  0.2748E+02  0.1990E+03  0.1985E+03
      2.753  0.2994E+02  0.3314E+02  0.2009E+03  0.2007E+03
      2.819  0.2635E+02  0.2545E+02  0.2026E+03  0.2023E+03
      2.884  0.3294E+02  0.3019E+02  0.2048E+03  0.2043E+03
      2.949  0.2519E+02  0.2918E+02  0.2064E+03  0.2062E+03
      3.015  0.3514E+02  0.2909E+02  0.2087E+03  0.2081E+03
      3.080  0.2367E+02  0.2963E+02  0.2103E+03  0.2101E+03
      3.145  0.2018E+02  0.1655E+02  0.2116E+03  0.2111E+03
      3.211  0.4117E+02  0.3829E+02  0.2143E+03  0.2136E+03
      3.276  0.2641E+02  0.2870E+02  0.2160E+03  0.2155E+03
      3.341  0.3113E+02  0.3659E+02  0.2181E+03  0.2179E+03
      3.407  0.3111E+02  0.2636E+02  0.2201E+03  0.2196E+03
      3.472  0.2753E+02  0.2668E+02  0.2219E+03  0.2214E+03
      3.537  0.3080E+02  0.3353E+02  0.2239E+03  0.2236E+03
      3.603  0.3087E+02  0.3115E+02  0.2259E+03  0.2256E+03
      3.668  0.2747E+02  0.2539E+02  0.2277E+03  0.2273E+03
      3.733  0.2212E+02  0.2217E+02  0.2292E+03  0.2287E+03
      3.799  0.2708E+02  0.3077E+02  0.2310E+03  0.2307E+03
      3.864  0.2940E+02  0.2534E+02  0.2329E+03  0.2324E+03
      3.929  0.3273E+02  0.3596E+02  0.2350E+03  0.2347E+03
      3.995  0.2387E+02  0.2233E+02  0.2366E+03  0.2362E+03
      4.060  0.2858E+02  0.2571E+02  0.2384E+03  0.2379E+03
      4.125  0.3116E+02  0.3630E+02  0.2405E+03  0.2403E+03
      4.191  0.2424E+02  0.2534E+02  0.2421E+03  0.2419E+03
      4.256  0.2457E+02  0.1891E+02  0.2437E+03  0.2432E+03
      4.321  0.1764E+02  0.2270E+02  0.2448E+03  0.2446E+03
      4.387  0.3124E+02  0.2636E+02  0.2469E+03  0.2464E+03
      4.452  0.2742E+02  0.2849E+02  0.2487E+03  0.2482E+03
      4.517  0.1885E+02  0.1629E+02  0.2499E+03  0.2493E+03
      4.583  0.3063E+02  0.3307E+02  0.2519E+03  0.2514E+03
      4.648  0.2377E+02  0.2320E+02  0.2535E+03  0.2530E+03
      4.714  0.1544E+02  0.1939E+02  0.2545E+03  0.2542E+03
      4.779  0.3014E+02  0.2771E+02  0.2564E+03  0.2560E+03
      4.844  0.2430E+02  0.2275E+02  0.2580E+03  0.2575E+03
      4.910  0.2641E+02  0.2612E+02  0.2598E+03  0.2592E+03
      4.975  0.2656E+02  0.3112E+02  0.2615E+03  0.2613E+03
      5.040  0.2070E+02  0.1863E+02  0.2628E+03  0.2625E+03
      5.106  0.1150E+02  0.1544E+02  0.2636E+03  0.2635E+03
      5.171  0.3662E+02  0.3243E+02  0.2660E+03  0.2656E+03
      5.236  0.2678E+02  0.2682E+02  0.2677E+03  0.2674E+03
      5.302  0.2479E+02  0.2124E+02  0.2694E+03  0.2688E+03
      5.367  0.2741E+02  0.3164E+02  0.2712E+03  0.2708E+03
      5.432  0.2478E+02  0.2153E+02  0.2728E+03  0.2722E+03
      5.498  0.2655E+02  0.2592E+02  0.2745E+03  0.2739E+03
      5.563  0.2707E+02  0.2677E+02  0.2763E+03  0.2757E+03
      5.628  0.2121E+02  0.2066E+02  0.2777E+03  0.2770E+03
      5.694  0.3116E+02  0.2998E+02  0.2797E+03  0.2790E+03
      5.759  0.2244E+02  0.2622E+02  0.2812E+03  0.2807E+03
      5.824  0.1819E+02  0.2084E+02  0.2824E+03  0.2821E+03
      5.890  0.1921E+02  0.1790E+02  0.2836E+03  0.2832E+03
      5.955  0.2448E+02  0.2507E+02  0.2852E+03  0.2849E+03
      6.020  0.2944E+02  0.2268E+02  0.2871E+03  0.2864E+03
      6.086  0.2979E+02  0.3335E+02  0.2891E+03  0.2886E+03
      6.151  0.3311E+02  0.2909E+02  0.2913E+03  0.2905E+03
      6.216  0.1538E+02  0.2328E+02  0.2923E+03  0.2920E+03
      6.282  0.1945E+02  0.1627E+02  0.2935E+03  0.2930E+03
      6.347  0.3671E+02  0.3551E+02  0.2959E+03  0.2954E+03
      6.412  0.2078E+02  0.2152E+02  0.2973E+03  0.2968E+03
      6.478  0.3667E+02  0.3318E+02  0.2997E+03  0.2989E+03
      6.543  0.2725E+02  0.3004E+02  0.3015E+03  0.3009E+03
      6.608  0.3076E+02  0.3104E+02  0.3035E+03  0.3029E+03
      6.674  0.1909E+02  0.1561E+02  0.3047E+03  0.3040E+03
      6.739  0.4092E+02  0.4104E+02  0.3074E+03  0.3066E+03
      6.804  0.3199E+02  0.3716E+02  0.3095E+03  0.3091E+03
      6.870  0.3214E+02  0.3332E+02  0.3116E+03  0.3112E+03
      6.935  0.2749E+02  0.2189E+02  0.3134E+03  0.3127E+03
      7.000  0.3685E+02  0.3790E+02  0.3158E+03  0.3152E+03
      7.066  0.3272E+02  0.3378E+02  0.3179E+03  0.3174E+03
      7.131  0.2734E+02  0.2618E+02  0.3197E+03  0.3191E+03
      7.196  0.3789E+02  0.3876E+02  0.3222E+03  0.3216E+03
      7.262  0.3214E+02  0.3226E+02  0.3243E+03  0.3237E+03
      7.327  0.3780E+02  0.3793E+02  0.3268E+03  0.3262E+03
      7.392  0.3931E+02  0.3639E+02  0.3294E+03  0.3286E+03
      7.458  0.3380E+02  0.3485E+02  0.3316E+03  0.3309E+03
      7.523  0.3063E+02  0.3055E+02  0.3336E+03  0.3329E+03
      7.589  0.3644E+02  0.3720E+02  0.3360E+03  0.3353E+03
      7.654  0.3874E+02  0.4107E+02  0.3385E+03  0.3380E+03
      7.719  0.2715E+02  0.2772E+02  0.3403E+03  0.3398E+03
      7.785  0.3697E+02  0.3568E+02  0.3427E+03  0.3421E+03
      7.850  0.2487E+02  0.2506E+02  0.3443E+03  0.3438E+03
      7.915  0.4020E+02  0.4372E+02  0.3469E+03  0.3466E+03
      7.981  0.3507E+02  0.3039E+02  0.3492E+03  0.3486E+03
      8.046  0.3121E+02  0.3368E+02  0.3513E+03  0.3508E+03
      8.111  0.8608E+01  0.1573E+02  0.3518E+03  0.3518E+03
      8.177  0.2488E+01  0.1276E+01  0.3520E+03  0.3519E+03
      8.242  0.0000E+00  0.1275E+01  0.3520E+03  0.3520E+03
      8.307  0.0000E+00  0.0000E+00  0.3520E+03  0.3520E+03
      8.373  0.0000E+00  0.0000E+00  0.3520E+03  0.3520E+03
      8.438  0.0000E+00  0.0000E+00  0.3520E+03  0.3520E+03
      8.503  0.0000E+00  0.0000E+00  0.3520E+03  0.3520E+03
      8.569  0.0000E+00  0.0000E+00  0.3520E+03  0.3520E+03
      8.634  0.0000E+00  0.0000E+00  0.3520E+03  0.3520E+03
      8.699  0.0000E+00  0.0000E+00  0.3520E+03  0.3520E+03
      8.765  0.0000E+00  0.0000E+00  0.3520E+03  0.3520E+03
      8.830  0.0000E+00  0.0000E+00  0.3520E+03  0.3520E+03
      8.895  0.0000E+00  0.0000E+00  0.3520E+03  0.3520E+03
      8.961  0.0000E+00  0.0000E+00  0.3520E+03  0.3520E+03
      9.026  0.0000E+00  0.0000E+00  0.3520E+03  0.3520E+03
      9.091  0.0000E+00  0.0000E+00  0.3520E+03  0.3520E+03
