 120 120   0   0
  0.2190039E+02  0.7680595E-09  0.1629300E-08  0.2100086E-08  0.5000000E-15
  1.000000000000000E-004
  CAR 
 Si and Ge interface calculation         
      7.79397336     -8.60066315  301      4.75333416      1.00000000
     -8.601  0.0000E+00  0.0000E+00  0.0000E+00  0.0000E+00
     -8.546  0.0000E+00  0.0000E+00  0.0000E+00  0.0000E+00
     -8.491  0.0000E+00  0.0000E+00  0.0000E+00  0.0000E+00
     -8.437  0.0000E+00  0.0000E+00  0.0000E+00  0.0000E+00
     -8.382  0.0000E+00  0.0000E+00  0.0000E+00  0.0000E+00
     -8.327  0.0000E+00  0.0000E+00  0.0000E+00  0.0000E+00
     -8.273  0.0000E+00  0.0000E+00  0.0000E+00  0.0000E+00
     -8.218  0.0000E+00  0.0000E+00  0.0000E+00  0.0000E+00
     -8.163  0.0000E+00  0.0000E+00  0.0000E+00  0.0000E+00
     -8.109  0.0000E+00  0.0000E+00  0.0000E+00  0.0000E+00
     -8.054  0.0000E+00  0.0000E+00  0.0000E+00  0.0000E+00
     -8.000  0.0000E+00  0.0000E+00  0.0000E+00  0.0000E+00
     -7.945  0.0000E+00  0.0000E+00  0.0000E+00  0.0000E+00
     -7.890  0.1998E-05  0.1354E-07  0.1092E-06  0.7398E-09
     -7.836  0.4563E+01  0.4446E+01  0.2494E+00  0.2430E+00
     -7.781  0.1635E-01  0.1287E+00  0.2503E+00  0.2500E+00
     -7.726  0.1160E+02  0.9747E+01  0.8841E+00  0.7827E+00
     -7.672  0.6696E+01  0.8551E+01  0.1250E+01  0.1250E+01
     -7.617  0.1685E+02  0.1271E+02  0.2171E+01  0.1944E+01
     -7.562  0.1007E+02  0.1353E+02  0.2721E+01  0.2684E+01
     -7.508  0.1054E+01  0.1306E+01  0.2778E+01  0.2755E+01
     -7.453  0.1900E+02  0.1861E+02  0.3817E+01  0.3773E+01
     -7.398  0.1646E+02  0.1588E+02  0.4716E+01  0.4640E+01
     -7.344  0.2854E+02  0.2749E+02  0.6276E+01  0.6143E+01
     -7.289  0.1076E+02  0.8696E+01  0.6864E+01  0.6618E+01
     -7.234  0.1705E+02  0.2086E+02  0.7795E+01  0.7758E+01
     -7.180  0.8485E+01  0.9019E+01  0.8259E+01  0.8251E+01
     -7.125  0.4068E+02  0.3848E+02  0.1048E+02  0.1035E+02
     -7.070  0.1412E+02  0.1641E+02  0.1125E+02  0.1125E+02
     -7.016  0.9159E+01  0.9158E+01  0.1175E+02  0.1175E+02
     -6.961  0.1737E+02  0.1421E+02  0.1270E+02  0.1253E+02
     -6.907  0.1438E+02  0.1725E+02  0.1349E+02  0.1347E+02
     -6.852  0.2863E+02  0.2795E+02  0.1505E+02  0.1500E+02
     -6.797  0.3093E+02  0.3043E+02  0.1674E+02  0.1666E+02
     -6.743  0.1497E+02  0.1533E+02  0.1756E+02  0.1750E+02
     -6.688  0.1259E+02  0.1374E+02  0.1825E+02  0.1825E+02
     -6.633  0.1821E+02  0.1625E+02  0.1925E+02  0.1914E+02
     -6.579  0.3155E+02  0.3198E+02  0.2097E+02  0.2089E+02
     -6.524  0.3412E+02  0.3010E+02  0.2283E+02  0.2253E+02
     -6.469  0.2592E+02  0.3145E+02  0.2425E+02  0.2425E+02
     -6.415  0.3466E+02  0.2556E+02  0.2615E+02  0.2565E+02
     -6.360  0.3366E+02  0.4219E+02  0.2798E+02  0.2795E+02
     -6.305  0.2708E+02  0.2172E+02  0.2946E+02  0.2914E+02
     -6.251  0.3237E+02  0.3559E+02  0.3123E+02  0.3108E+02
     -6.196  0.5151E+02  0.4979E+02  0.3405E+02  0.3381E+02
     -6.141  0.2721E+02  0.2859E+02  0.3554E+02  0.3537E+02
     -6.087  0.3096E+02  0.3224E+02  0.3723E+02  0.3713E+02
     -6.032  0.2609E+02  0.2586E+02  0.3865E+02  0.3854E+02
     -5.978  0.4168E+02  0.3977E+02  0.4093E+02  0.4072E+02
     -5.923  0.2572E+02  0.2652E+02  0.4234E+02  0.4217E+02
     -5.868  0.2727E+02  0.2767E+02  0.4383E+02  0.4368E+02
     -5.814  0.4400E+02  0.4590E+02  0.4623E+02  0.4619E+02
     -5.759  0.4522E+02  0.4168E+02  0.4870E+02  0.4846E+02
     -5.704  0.4206E+02  0.4211E+02  0.5100E+02  0.5077E+02
     -5.650  0.2737E+02  0.3113E+02  0.5250E+02  0.5247E+02
     -5.595  0.4197E+02  0.3992E+02  0.5479E+02  0.5465E+02
     -5.540  0.3122E+02  0.3105E+02  0.5650E+02  0.5635E+02
     -5.486  0.5127E+02  0.4626E+02  0.5930E+02  0.5887E+02
     -5.431  0.3770E+02  0.4387E+02  0.6136E+02  0.6127E+02
     -5.376  0.4417E+02  0.3988E+02  0.6377E+02  0.6345E+02
     -5.322  0.3744E+02  0.4011E+02  0.6582E+02  0.6564E+02
     -5.267  0.3996E+02  0.4269E+02  0.6800E+02  0.6798E+02
     -5.212  0.4391E+02  0.3856E+02  0.7040E+02  0.7008E+02
     -5.158  0.4334E+02  0.4495E+02  0.7277E+02  0.7254E+02
     -5.103  0.3806E+02  0.3506E+02  0.7485E+02  0.7445E+02
     -5.048  0.6479E+02  0.6926E+02  0.7839E+02  0.7824E+02
     -4.994  0.3822E+02  0.3623E+02  0.8048E+02  0.8022E+02
     -4.939  0.4584E+02  0.4328E+02  0.8299E+02  0.8258E+02
     -4.885  0.3773E+02  0.4251E+02  0.8505E+02  0.8491E+02
     -4.830  0.2607E+02  0.2634E+02  0.8647E+02  0.8635E+02
     -4.775  0.3623E+02  0.3413E+02  0.8845E+02  0.8821E+02
     -4.721  0.3867E+02  0.4221E+02  0.9057E+02  0.9052E+02
     -4.666  0.3879E+02  0.3630E+02  0.9269E+02  0.9250E+02
     -4.611  0.3988E+02  0.3908E+02  0.9486E+02  0.9464E+02
     -4.557  0.2260E+02  0.2225E+02  0.9610E+02  0.9585E+02
     -4.502  0.3810E+02  0.3697E+02  0.9818E+02  0.9788E+02
     -4.447  0.2549E+02  0.2649E+02  0.9957E+02  0.9932E+02
     -4.393  0.4438E+02  0.4790E+02  0.1020E+03  0.1019E+03
     -4.338  0.4146E+02  0.3690E+02  0.1043E+03  0.1040E+03
     -4.283  0.4498E+02  0.4833E+02  0.1067E+03  0.1066E+03
     -4.229  0.1131E+02  0.1176E+02  0.1073E+03  0.1072E+03
     -4.174  0.2294E+02  0.1939E+02  0.1086E+03  0.1083E+03
     -4.119  0.2112E+02  0.2651E+02  0.1097E+03  0.1097E+03
     -4.065  0.1631E+02  0.1285E+02  0.1106E+03  0.1105E+03
     -4.010  0.7478E+01  0.1014E+02  0.1110E+03  0.1110E+03
     -3.956  0.3156E+02  0.2545E+02  0.1128E+03  0.1124E+03
     -3.901  0.1763E+02  0.2220E+02  0.1137E+03  0.1136E+03
     -3.846  0.1200E+02  0.1194E+02  0.1144E+03  0.1143E+03
     -3.792  0.1109E+02  0.1351E+02  0.1150E+03  0.1150E+03
     -3.737  0.3365E+02  0.2402E+02  0.1168E+03  0.1163E+03
     -3.682  0.1160E+02  0.2055E+02  0.1175E+03  0.1174E+03
     -3.628  0.1999E+02  0.1834E+02  0.1186E+03  0.1184E+03
     -3.573  0.1922E+02  0.1989E+02  0.1196E+03  0.1195E+03
     -3.518  0.2027E+02  0.1967E+02  0.1207E+03  0.1206E+03
     -3.464  0.1789E+02  0.1911E+02  0.1217E+03  0.1216E+03
     -3.409  0.2283E+02  0.2115E+02  0.1229E+03  0.1228E+03
     -3.354  0.1673E+02  0.1756E+02  0.1239E+03  0.1238E+03
     -3.300  0.1576E+02  0.1645E+02  0.1247E+03  0.1247E+03
     -3.245  0.9940E+01  0.1027E+02  0.1253E+03  0.1252E+03
     -3.190  0.3505E+02  0.2691E+02  0.1272E+03  0.1267E+03
     -3.136  0.2404E+02  0.3101E+02  0.1285E+03  0.1284E+03
     -3.081  0.2291E+02  0.2413E+02  0.1297E+03  0.1297E+03
     -3.026  0.1915E+02  0.1643E+02  0.1308E+03  0.1306E+03
     -2.972  0.2642E+02  0.2798E+02  0.1322E+03  0.1321E+03
     -2.917  0.2295E+02  0.2345E+02  0.1335E+03  0.1334E+03
     -2.863  0.2142E+02  0.1778E+02  0.1347E+03  0.1344E+03
     -2.808  0.3294E+02  0.3158E+02  0.1365E+03  0.1361E+03
     -2.753  0.4496E+02  0.4644E+02  0.1389E+03  0.1386E+03
     -2.699  0.3649E+02  0.3048E+02  0.1409E+03  0.1403E+03
     -2.644  0.4661E+02  0.5354E+02  0.1435E+03  0.1432E+03
     -2.589  0.4723E+02  0.4856E+02  0.1460E+03  0.1459E+03
     -2.535  0.6857E+02  0.5681E+02  0.1498E+03  0.1490E+03
     -2.480  0.4706E+02  0.5976E+02  0.1524E+03  0.1523E+03
     -2.425  0.5522E+02  0.5087E+02  0.1554E+03  0.1550E+03
     -2.371  0.9047E+02  0.8548E+02  0.1603E+03  0.1597E+03
     -2.316  0.4301E+02  0.4695E+02  0.1627E+03  0.1623E+03
     -2.261  0.4453E+02  0.4709E+02  0.1651E+03  0.1649E+03
     -2.207  0.5200E+02  0.5289E+02  0.1679E+03  0.1677E+03
     -2.152  0.3943E+02  0.3726E+02  0.1701E+03  0.1698E+03
     -2.097  0.4402E+02  0.4087E+02  0.1725E+03  0.1720E+03
     -2.043  0.4828E+02  0.5208E+02  0.1751E+03  0.1749E+03
     -1.988  0.5984E+02  0.5193E+02  0.1784E+03  0.1777E+03
     -1.934  0.2892E+02  0.4190E+02  0.1800E+03  0.1800E+03
     -1.879  0.4367E+01  0.3730E+01  0.1802E+03  0.1802E+03
     -1.824  0.2254E+02  0.1992E+02  0.1815E+03  0.1813E+03
     -1.770  0.3231E+02  0.3347E+02  0.1832E+03  0.1831E+03
     -1.715  0.4664E+02  0.4288E+02  0.1858E+03  0.1855E+03
     -1.660  0.4370E+02  0.4376E+02  0.1882E+03  0.1878E+03
     -1.606  0.6573E+02  0.6145E+02  0.1918E+03  0.1912E+03
     -1.551  0.1155E+02  0.1930E+02  0.1924E+03  0.1923E+03
     -1.496  0.2736E+02  0.2400E+02  0.1939E+03  0.1936E+03
     -1.442  0.3135E+02  0.3532E+02  0.1956E+03  0.1955E+03
     -1.387  0.2689E+02  0.2710E+02  0.1971E+03  0.1970E+03
     -1.332  0.1399E+02  0.1255E+02  0.1978E+03  0.1977E+03
     -1.278  0.1988E+02  0.2018E+02  0.1989E+03  0.1988E+03
     -1.223  0.1489E+02  0.1659E+02  0.1997E+03  0.1997E+03
     -1.168  0.8841E+01  0.7404E+01  0.2002E+03  0.2001E+03
     -1.114  0.6225E+01  0.4440E+01  0.2006E+03  0.2003E+03
     -1.059  0.3301E+02  0.3333E+02  0.2024E+03  0.2021E+03
     -1.004  0.3456E+02  0.3286E+02  0.2043E+03  0.2039E+03
     -0.950  0.1705E+02  0.2182E+02  0.2052E+03  0.2051E+03
     -0.895  0.8487E+01  0.7404E+01  0.2057E+03  0.2055E+03
     -0.841  0.1557E+02  0.1750E+02  0.2065E+03  0.2065E+03
     -0.786  0.1891E+02  0.1439E+02  0.2075E+03  0.2073E+03
     -0.731  0.1717E+02  0.1924E+02  0.2085E+03  0.2083E+03
     -0.677  0.2497E+02  0.2536E+02  0.2098E+03  0.2097E+03
     -0.622  0.3632E+02  0.3041E+02  0.2118E+03  0.2114E+03
     -0.567  0.3331E+02  0.3225E+02  0.2136E+03  0.2131E+03
     -0.513  0.4068E+02  0.4633E+02  0.2159E+03  0.2157E+03
     -0.458  0.2585E+02  0.2883E+02  0.2173E+03  0.2173E+03
     -0.403  0.3848E+02  0.3660E+02  0.2194E+03  0.2193E+03
     -0.349  0.1133E+02  0.1371E+02  0.2200E+03  0.2200E+03
     -0.294  0.9142E+01  0.8950E+01  0.2205E+03  0.2205E+03
     -0.239  0.1211E+02  0.8653E+01  0.2212E+03  0.2210E+03
     -0.185  0.2779E+02  0.2771E+02  0.2227E+03  0.2225E+03
     -0.130  0.5849E+01  0.9583E+01  0.2230E+03  0.2230E+03
     -0.075  0.1177E+02  0.9044E+01  0.2236E+03  0.2235E+03
     -0.021  0.2020E+02  0.2017E+02  0.2247E+03  0.2246E+03
      0.034  0.1347E+02  0.1459E+02  0.2255E+03  0.2254E+03
      0.088  0.3412E+01  0.3133E+01  0.2257E+03  0.2256E+03
      0.143  0.1909E+02  0.1609E+02  0.2267E+03  0.2264E+03
      0.198  0.4129E+02  0.3955E+02  0.2290E+03  0.2286E+03
      0.252  0.7500E+02  0.6927E+02  0.2331E+03  0.2324E+03
      0.307  0.5345E+02  0.6233E+02  0.2360E+03  0.2358E+03
      0.362  0.3703E+02  0.3760E+02  0.2380E+03  0.2379E+03
      0.416  0.3780E+02  0.3355E+02  0.2401E+03  0.2397E+03
      0.471  0.4900E+02  0.5334E+02  0.2428E+03  0.2426E+03
      0.526  0.4983E+02  0.4450E+02  0.2455E+03  0.2450E+03
      0.580  0.3052E+02  0.3421E+02  0.2471E+03  0.2469E+03
      0.635  0.7542E+02  0.7125E+02  0.2513E+03  0.2508E+03
      0.690  0.3165E+02  0.3605E+02  0.2530E+03  0.2528E+03
      0.744  0.9428E+02  0.8624E+02  0.2582E+03  0.2575E+03
      0.799  0.9212E+02  0.9390E+02  0.2632E+03  0.2626E+03
      0.854  0.6425E+02  0.6996E+02  0.2667E+03  0.2664E+03
      0.908  0.6055E+02  0.5696E+02  0.2700E+03  0.2695E+03
      0.963  0.4974E+02  0.5127E+02  0.2727E+03  0.2723E+03
      1.018  0.4714E+02  0.4841E+02  0.2753E+03  0.2750E+03
      1.072  0.8486E+02  0.7908E+02  0.2799E+03  0.2793E+03
      1.127  0.6685E+02  0.7133E+02  0.2836E+03  0.2832E+03
      1.181  0.7708E+02  0.6584E+02  0.2878E+03  0.2868E+03
      1.236  0.6629E+02  0.7994E+02  0.2914E+03  0.2912E+03
      1.291  0.6781E+02  0.6188E+02  0.2951E+03  0.2946E+03
      1.345  0.9428E+02  0.9678E+02  0.3003E+03  0.2999E+03
      1.400  0.6549E+02  0.6427E+02  0.3039E+03  0.3034E+03
      1.455  0.8764E+02  0.7969E+02  0.3087E+03  0.3077E+03
      1.509  0.4962E+02  0.6103E+02  0.3114E+03  0.3111E+03
      1.564  0.5328E+02  0.5057E+02  0.3143E+03  0.3138E+03
      1.619  0.8458E+02  0.8215E+02  0.3189E+03  0.3183E+03
      1.673  0.7995E+02  0.8227E+02  0.3233E+03  0.3228E+03
      1.728  0.7350E+02  0.7594E+02  0.3273E+03  0.3270E+03
      1.783  0.9197E+02  0.8796E+02  0.3323E+03  0.3318E+03
      1.837  0.9544E+02  0.8764E+02  0.3375E+03  0.3365E+03
      1.892  0.9097E+02  0.9878E+02  0.3425E+03  0.3419E+03
      1.947  0.8096E+02  0.8197E+02  0.3469E+03  0.3464E+03
      2.001  0.4564E+02  0.4939E+02  0.3494E+03  0.3491E+03
      2.056  0.6422E+02  0.6165E+02  0.3529E+03  0.3525E+03
      2.110  0.6419E+02  0.5645E+02  0.3564E+03  0.3556E+03
      2.165  0.5809E+02  0.6995E+02  0.3596E+03  0.3594E+03
      2.220  0.7955E+02  0.7315E+02  0.3640E+03  0.3634E+03
      2.274  0.6412E+02  0.6793E+02  0.3675E+03  0.3671E+03
      2.329  0.9723E+02  0.8797E+02  0.3728E+03  0.3719E+03
      2.384  0.5306E+02  0.5971E+02  0.3757E+03  0.3752E+03
      2.438  0.7551E+02  0.7626E+02  0.3798E+03  0.3793E+03
      2.493  0.7511E+02  0.7252E+02  0.3839E+03  0.3833E+03
      2.548  0.7618E+02  0.7971E+02  0.3881E+03  0.3877E+03
      2.602  0.6470E+02  0.6002E+02  0.3916E+03  0.3909E+03
      2.657  0.5304E+02  0.5361E+02  0.3945E+03  0.3939E+03
      2.712  0.7764E+02  0.8228E+02  0.3987E+03  0.3984E+03
      2.766  0.6437E+02  0.6479E+02  0.4023E+03  0.4019E+03
      2.821  0.4021E+02  0.4073E+02  0.4045E+03  0.4041E+03
      2.876  0.5314E+02  0.4830E+02  0.4074E+03  0.4068E+03
      2.930  0.8217E+02  0.8160E+02  0.4119E+03  0.4112E+03
      2.985  0.5555E+02  0.5882E+02  0.4149E+03  0.4145E+03
      3.040  0.5135E+02  0.4499E+02  0.4177E+03  0.4169E+03
      3.094  0.8617E+02  0.8895E+02  0.4224E+03  0.4218E+03
      3.149  0.4841E+02  0.4771E+02  0.4250E+03  0.4244E+03
      3.203  0.6934E+02  0.7070E+02  0.4288E+03  0.4282E+03
      3.258  0.9485E+02  0.9679E+02  0.4340E+03  0.4335E+03
      3.313  0.6375E+02  0.6399E+02  0.4375E+03  0.4370E+03
      3.367  0.6530E+02  0.6309E+02  0.4411E+03  0.4405E+03
      3.422  0.6115E+02  0.5914E+02  0.4444E+03  0.4437E+03
      3.477  0.6015E+02  0.6644E+02  0.4477E+03  0.4473E+03
      3.531  0.2116E+02  0.2551E+02  0.4489E+03  0.4487E+03
      3.586  0.5775E+02  0.4652E+02  0.4520E+03  0.4513E+03
      3.641  0.2741E+02  0.3517E+02  0.4535E+03  0.4532E+03
      3.695  0.3258E+02  0.3057E+02  0.4553E+03  0.4549E+03
      3.750  0.3281E+02  0.3609E+02  0.4571E+03  0.4568E+03
      3.805  0.3076E+02  0.2939E+02  0.4588E+03  0.4585E+03
      3.859  0.2674E+02  0.3104E+02  0.4602E+03  0.4601E+03
      3.914  0.3185E+02  0.2737E+02  0.4620E+03  0.4616E+03
      3.969  0.2480E+02  0.2436E+02  0.4633E+03  0.4630E+03
      4.023  0.3836E+02  0.4253E+02  0.4654E+03  0.4653E+03
      4.078  0.2888E+02  0.3000E+02  0.4670E+03  0.4669E+03
      4.133  0.2152E+02  0.1293E+02  0.4682E+03  0.4676E+03
      4.187  0.1120E+02  0.1361E+02  0.4688E+03  0.4684E+03
      4.242  0.3566E+02  0.2950E+02  0.4707E+03  0.4700E+03
      4.296  0.1400E+02  0.2691E+02  0.4715E+03  0.4715E+03
      4.351  0.1828E+02  0.1880E+02  0.4725E+03  0.4725E+03
      4.406  0.4869E+01  0.2583E+00  0.4728E+03  0.4725E+03
      4.460  0.2689E+02  0.1563E+02  0.4742E+03  0.4734E+03
      4.515  0.2709E+02  0.3101E+02  0.4757E+03  0.4751E+03
      4.570  0.1822E+02  0.1419E+02  0.4767E+03  0.4758E+03
      4.624  0.7005E+00  0.1232E+02  0.4768E+03  0.4765E+03
      4.679  0.1987E+02  0.4574E+01  0.4778E+03  0.4768E+03
      4.734  0.3351E+02  0.2297E+02  0.4797E+03  0.4780E+03
      4.788  0.4414E+02  0.3458E+02  0.4821E+03  0.4799E+03
      4.843  0.1612E+02  0.4649E+02  0.4830E+03  0.4824E+03
      4.898  0.3299E+02  0.1905E+02  0.4848E+03  0.4835E+03
      4.952  0.2711E+02  0.2815E+02  0.4862E+03  0.4850E+03
      5.007  0.2686E+02  0.2241E+02  0.4877E+03  0.4863E+03
      5.062  0.3724E+02  0.3360E+02  0.4897E+03  0.4881E+03
      5.116  0.3069E+02  0.4919E+02  0.4914E+03  0.4908E+03
      5.171  0.3592E+02  0.2088E+02  0.4934E+03  0.4919E+03
      5.225  0.2372E+02  0.3887E+02  0.4947E+03  0.4940E+03
      5.280  0.5468E+02  0.4506E+02  0.4977E+03  0.4965E+03
      5.335  0.3368E+02  0.4889E+02  0.4995E+03  0.4992E+03
      5.389  0.3946E+02  0.4162E+02  0.5017E+03  0.5014E+03
      5.444  0.3938E+02  0.2886E+02  0.5038E+03  0.5030E+03
      5.499  0.2519E+02  0.2920E+02  0.5052E+03  0.5046E+03
      5.553  0.5307E+02  0.5402E+02  0.5081E+03  0.5076E+03
      5.608  0.3240E+02  0.3477E+02  0.5099E+03  0.5095E+03
      5.663  0.7612E+02  0.5561E+02  0.5140E+03  0.5125E+03
      5.717  0.4765E+02  0.5869E+02  0.5166E+03  0.5157E+03
      5.772  0.4795E+02  0.4971E+02  0.5193E+03  0.5184E+03
      5.827  0.3775E+02  0.3700E+02  0.5213E+03  0.5205E+03
      5.881  0.6651E+02  0.6374E+02  0.5250E+03  0.5239E+03
      5.936  0.4799E+02  0.5593E+02  0.5276E+03  0.5270E+03
      5.991  0.4781E+02  0.4381E+02  0.5302E+03  0.5294E+03
      6.045  0.5137E+02  0.6044E+02  0.5330E+03  0.5327E+03
      6.100  0.5765E+02  0.4969E+02  0.5361E+03  0.5354E+03
      6.155  0.5546E+02  0.6389E+02  0.5392E+03  0.5389E+03
      6.209  0.5993E+02  0.5761E+02  0.5424E+03  0.5421E+03
      6.264  0.3239E+02  0.3600E+02  0.5442E+03  0.5440E+03
      6.318  0.1570E+02  0.1695E+02  0.5451E+03  0.5449E+03
      6.373  0.6633E+02  0.5859E+02  0.5487E+03  0.5481E+03
      6.428  0.6672E+02  0.6852E+02  0.5523E+03  0.5519E+03
      6.482  0.6539E+02  0.6389E+02  0.5559E+03  0.5554E+03
      6.537  0.6665E+02  0.6250E+02  0.5596E+03  0.5588E+03
      6.592  0.3306E+02  0.4133E+02  0.5614E+03  0.5611E+03
      6.646  0.2386E+02  0.2666E+02  0.5627E+03  0.5625E+03
      6.701  0.4622E+02  0.4088E+02  0.5652E+03  0.5647E+03
      6.756  0.5572E+02  0.5936E+02  0.5682E+03  0.5680E+03
      6.810  0.4103E+02  0.3822E+02  0.5705E+03  0.5701E+03
      6.865  0.4249E+02  0.4608E+02  0.5728E+03  0.5726E+03
      6.920  0.2926E+02  0.2799E+02  0.5744E+03  0.5741E+03
      6.974  0.2000E+01  0.6823E+01  0.5745E+03  0.5745E+03
      7.029  0.2142E+02  0.2012E+02  0.5757E+03  0.5756E+03
      7.084  0.5693E+01  0.7307E+01  0.5760E+03  0.5760E+03
      7.138  0.0000E+00  0.0000E+00  0.5760E+03  0.5760E+03
      7.193  0.0000E+00  0.0000E+00  0.5760E+03  0.5760E+03
      7.247  0.0000E+00  0.0000E+00  0.5760E+03  0.5760E+03
      7.302  0.0000E+00  0.0000E+00  0.5760E+03  0.5760E+03
      7.357  0.0000E+00  0.0000E+00  0.5760E+03  0.5760E+03
      7.411  0.0000E+00  0.0000E+00  0.5760E+03  0.5760E+03
      7.466  0.0000E+00  0.0000E+00  0.5760E+03  0.5760E+03
      7.521  0.0000E+00  0.0000E+00  0.5760E+03  0.5760E+03
      7.575  0.0000E+00  0.0000E+00  0.5760E+03  0.5760E+03
      7.630  0.0000E+00  0.0000E+00  0.5760E+03  0.5760E+03
      7.685  0.0000E+00  0.0000E+00  0.5760E+03  0.5760E+03
      7.739  0.0000E+00  0.0000E+00  0.5760E+03  0.5760E+03
      7.794  0.0000E+00  0.0000E+00  0.5760E+03  0.5760E+03
