  48  48   0   0
  0.2323126E+02  0.8001338E-09  0.1265123E-08  0.1161174E-08  0.5000000E-15
  1.000000000000000E-004
  CAR 
 Si and Ge interface calculation         
      6.64984531    -12.21899244  301      3.46127110      1.00000000
    -12.219  0.0000E+00  0.0000E+00  0.0000E+00  0.0000E+00
    -12.156  0.0000E+00  0.0000E+00  0.0000E+00  0.0000E+00
    -12.093  0.0000E+00  0.0000E+00  0.0000E+00  0.0000E+00
    -12.030  0.0000E+00  0.0000E+00  0.0000E+00  0.0000E+00
    -11.967  0.0000E+00  0.0000E+00  0.0000E+00  0.0000E+00
    -11.905  0.0000E+00  0.0000E+00  0.0000E+00  0.0000E+00
    -11.842  0.0000E+00  0.0000E+00  0.0000E+00  0.0000E+00
    -11.779  0.0000E+00  0.0000E+00  0.0000E+00  0.0000E+00
    -11.716  0.0000E+00  0.0000E+00  0.0000E+00  0.0000E+00
    -11.653  0.0000E+00  0.0000E+00  0.0000E+00  0.0000E+00
    -11.590  0.0000E+00  0.0000E+00  0.0000E+00  0.0000E+00
    -11.527  0.0000E+00  0.0000E+00  0.0000E+00  0.0000E+00
    -11.464  0.0000E+00  0.0000E+00  0.0000E+00  0.0000E+00
    -11.401  0.3654E-07  0.1181E-12  0.2298E-08  0.7426E-14
    -11.338  0.7943E+01  0.7162E+01  0.4996E+00  0.4504E+00
    -11.276  0.1469E+01  0.7994E+00  0.5924E+00  0.5007E+00
    -11.213  0.1443E+02  0.1589E+02  0.1500E+01  0.1500E+01
    -11.150  0.0000E+00  0.0000E+00  0.1500E+01  0.1500E+01
    -11.087  0.0000E+00  0.0000E+00  0.1500E+01  0.1500E+01
    -11.024  0.4735E+00  0.1285E-02  0.1530E+01  0.1500E+01
    -10.961  0.1543E+02  0.1590E+02  0.2500E+01  0.2500E+01
    -10.898  0.0000E+00  0.0000E+00  0.2500E+01  0.2500E+01
    -10.835  0.0000E+00  0.0000E+00  0.2500E+01  0.2500E+01
    -10.772  0.0000E+00  0.0000E+00  0.2500E+01  0.2500E+01
    -10.709  0.1331E+01  0.7438E-02  0.2584E+01  0.2500E+01
    -10.647  0.1457E+02  0.1589E+02  0.3500E+01  0.3500E+01
    -10.584  0.4273E-06  0.1458E-11  0.3500E+01  0.3500E+01
    -10.521  0.7948E+01  0.7537E+01  0.4000E+01  0.3974E+01
    -10.458  0.0000E+00  0.4130E+00  0.4000E+01  0.4000E+01
    -10.395  0.0000E+00  0.0000E+00  0.4000E+01  0.4000E+01
    -10.332  0.0000E+00  0.0000E+00  0.4000E+01  0.4000E+01
    -10.269  0.0000E+00  0.0000E+00  0.4000E+01  0.4000E+01
    -10.206  0.0000E+00  0.0000E+00  0.4000E+01  0.4000E+01
    -10.143  0.0000E+00  0.0000E+00  0.4000E+01  0.4000E+01
    -10.081  0.0000E+00  0.0000E+00  0.4000E+01  0.4000E+01
    -10.018  0.0000E+00  0.0000E+00  0.4000E+01  0.4000E+01
     -9.955  0.1380E-04  0.0000E+00  0.4000E+01  0.4000E+01
     -9.892  0.7949E+01  0.2410E-01  0.4500E+01  0.4002E+01
     -9.829  0.1914E-06  0.7926E+01  0.4500E+01  0.4500E+01
     -9.766  0.1587E+02  0.2486E-02  0.5498E+01  0.4500E+01
     -9.703  0.0000E+00  0.1590E+02  0.5500E+01  0.5500E+01
     -9.640  0.0000E+00  0.0000E+00  0.5500E+01  0.5500E+01
     -9.577  0.0000E+00  0.0000E+00  0.5500E+01  0.5500E+01
     -9.514  0.0000E+00  0.0000E+00  0.5500E+01  0.5500E+01
     -9.452  0.8518E-11  0.0000E+00  0.5500E+01  0.5500E+01
     -9.389  0.1452E+02  0.6952E-05  0.6413E+01  0.5500E+01
     -9.326  0.1378E+01  0.1589E+02  0.6500E+01  0.6500E+01
     -9.263  0.0000E+00  0.0000E+00  0.6500E+01  0.6500E+01
     -9.200  0.0000E+00  0.0000E+00  0.6500E+01  0.6500E+01
     -9.137  0.0000E+00  0.0000E+00  0.6500E+01  0.6500E+01
     -9.074  0.0000E+00  0.0000E+00  0.6500E+01  0.6500E+01
     -9.011  0.0000E+00  0.0000E+00  0.6500E+01  0.6500E+01
     -8.948  0.0000E+00  0.0000E+00  0.6500E+01  0.6500E+01
     -8.885  0.0000E+00  0.0000E+00  0.6500E+01  0.6500E+01
     -8.823  0.3455E+00  0.1180E-03  0.6522E+01  0.6500E+01
     -8.760  0.1970E+02  0.1397E+02  0.7761E+01  0.7378E+01
     -8.697  0.4839E+01  0.9920E+01  0.8065E+01  0.8002E+01
     -8.634  0.1196E+02  0.1032E+02  0.8817E+01  0.8651E+01
     -8.571  0.6824E+01  0.8265E+01  0.9247E+01  0.9171E+01
     -8.508  0.9300E+01  0.9560E+01  0.9832E+01  0.9772E+01
     -8.445  0.5322E+01  0.6195E+01  0.1017E+02  0.1016E+02
     -8.382  0.5256E+01  0.3765E+01  0.1050E+02  0.1040E+02
     -8.319  0.1455E+02  0.1015E+02  0.1141E+02  0.1104E+02
     -8.257  0.1384E+02  0.1842E+02  0.1228E+02  0.1220E+02
     -8.194  0.8019E+01  0.7891E+01  0.1279E+02  0.1269E+02
     -8.131  0.1199E+02  0.1016E+02  0.1354E+02  0.1333E+02
     -8.068  0.6595E+01  0.7141E+01  0.1396E+02  0.1378E+02
     -8.005  0.6264E+01  0.7438E+01  0.1435E+02  0.1425E+02
     -7.942  0.3973E+01  0.4559E+01  0.1460E+02  0.1454E+02
     -7.879  0.3404E+01  0.2600E+01  0.1482E+02  0.1470E+02
     -7.816  0.4855E+01  0.4995E+01  0.1512E+02  0.1501E+02
     -7.753  0.1822E+02  0.1643E+02  0.1627E+02  0.1605E+02
     -7.690  0.1354E+02  0.1523E+02  0.1712E+02  0.1700E+02
     -7.628  0.1481E+02  0.1116E+02  0.1805E+02  0.1771E+02
     -7.565  0.1648E+02  0.1971E+02  0.1909E+02  0.1895E+02
     -7.502  0.3611E+01  0.5287E+01  0.1932E+02  0.1928E+02
     -7.439  0.1150E+02  0.7556E+01  0.2004E+02  0.1975E+02
     -7.376  0.1771E+02  0.1936E+02  0.2115E+02  0.2097E+02
     -7.313  0.9221E+01  0.1177E+02  0.2173E+02  0.2171E+02
     -7.250  0.1746E+02  0.1717E+02  0.2283E+02  0.2279E+02
     -7.187  0.1580E+02  0.1205E+02  0.2383E+02  0.2355E+02
     -7.124  0.1579E+02  0.1688E+02  0.2482E+02  0.2461E+02
     -7.062  0.1708E+02  0.1687E+02  0.2590E+02  0.2568E+02
     -6.999  0.1591E+02  0.1236E+02  0.2690E+02  0.2645E+02
     -6.936  0.1878E+02  0.2140E+02  0.2808E+02  0.2780E+02
     -6.873  0.1501E+02  0.1772E+02  0.2902E+02  0.2891E+02
     -6.810  0.1777E+02  0.1678E+02  0.3014E+02  0.2997E+02
     -6.747  0.9967E+01  0.9942E+01  0.3077E+02  0.3059E+02
     -6.684  0.8134E+01  0.6600E+01  0.3128E+02  0.3101E+02
     -6.621  0.1579E+02  0.1759E+02  0.3227E+02  0.3212E+02
     -6.558  0.1117E+02  0.8634E+01  0.3298E+02  0.3266E+02
     -6.495  0.1486E+02  0.1602E+02  0.3391E+02  0.3367E+02
     -6.433  0.6694E+01  0.1053E+02  0.3433E+02  0.3433E+02
     -6.370  0.5193E+01  0.3654E+01  0.3466E+02  0.3456E+02
     -6.307  0.6412E+01  0.7668E+01  0.3506E+02  0.3504E+02
     -6.244  0.1304E+02  0.1202E+02  0.3588E+02  0.3580E+02
     -6.181  0.1549E+02  0.5397E+01  0.3686E+02  0.3614E+02
     -6.118  0.3459E+02  0.4314E+02  0.3903E+02  0.3885E+02
     -6.055  0.6899E+01  0.7950E+01  0.3947E+02  0.3935E+02
     -5.992  0.1824E+02  0.1605E+02  0.4062E+02  0.4036E+02
     -5.929  0.1736E+02  0.1719E+02  0.4171E+02  0.4145E+02
     -5.866  0.9451E+01  0.1151E+02  0.4230E+02  0.4217E+02
     -5.804  0.7735E+01  0.9514E+01  0.4279E+02  0.4277E+02
     -5.741  0.8097E+01  0.4983E+01  0.4330E+02  0.4308E+02
     -5.678  0.7092E+01  0.8255E+01  0.4375E+02  0.4360E+02
     -5.615  0.1239E+02  0.1428E+02  0.4453E+02  0.4450E+02
     -5.552  0.1029E+02  0.9444E+01  0.4517E+02  0.4509E+02
     -5.489  0.1045E+02  0.1069E+02  0.4583E+02  0.4577E+02
     -5.426  0.1316E+02  0.5903E+01  0.4666E+02  0.4614E+02
     -5.363  0.9655E+01  0.1514E+02  0.4727E+02  0.4709E+02
     -5.300  0.1754E+02  0.1270E+02  0.4837E+02  0.4789E+02
     -5.238  0.7688E+01  0.1333E+02  0.4885E+02  0.4873E+02
     -5.175  0.1265E+02  0.1364E+02  0.4965E+02  0.4959E+02
     -5.112  0.8853E+01  0.7367E+01  0.5020E+02  0.5005E+02
     -5.049  0.1211E+02  0.6949E+01  0.5097E+02  0.5049E+02
     -4.986  0.1630E+02  0.2046E+02  0.5199E+02  0.5177E+02
     -4.923  0.1180E+02  0.1117E+02  0.5273E+02  0.5248E+02
     -4.860  0.2425E+02  0.2087E+02  0.5426E+02  0.5379E+02
     -4.797  0.1853E+02  0.1925E+02  0.5543E+02  0.5500E+02
     -4.734  0.8634E+01  0.1276E+02  0.5597E+02  0.5580E+02
     -4.671  0.9824E+01  0.9601E+01  0.5659E+02  0.5641E+02
     -4.609  0.4090E+01  0.5396E+01  0.5684E+02  0.5675E+02
     -4.546  0.2140E+02  0.1564E+02  0.5819E+02  0.5773E+02
     -4.483  0.2246E+02  0.2311E+02  0.5960E+02  0.5918E+02
     -4.420  0.1367E+02  0.1525E+02  0.6046E+02  0.6014E+02
     -4.357  0.3865E+01  0.7459E+01  0.6071E+02  0.6061E+02
     -4.294  0.1187E+02  0.9469E+01  0.6145E+02  0.6121E+02
     -4.231  0.1162E+02  0.1280E+02  0.6219E+02  0.6201E+02
     -4.168  0.7806E+01  0.6987E+01  0.6268E+02  0.6245E+02
     -4.105  0.2139E+02  0.1825E+02  0.6402E+02  0.6360E+02
     -4.042  0.1314E+02  0.1585E+02  0.6485E+02  0.6460E+02
     -3.980  0.1516E+02  0.1702E+02  0.6580E+02  0.6567E+02
     -3.917  0.1125E+02  0.1037E+02  0.6651E+02  0.6632E+02
     -3.854  0.1911E+02  0.1699E+02  0.6771E+02  0.6739E+02
     -3.791  0.1528E+02  0.1863E+02  0.6867E+02  0.6856E+02
     -3.728  0.9892E+01  0.6537E+01  0.6930E+02  0.6897E+02
     -3.665  0.1318E+02  0.1664E+02  0.7012E+02  0.7002E+02
     -3.602  0.2493E+02  0.2120E+02  0.7169E+02  0.7136E+02
     -3.539  0.1376E+02  0.1785E+02  0.7256E+02  0.7248E+02
     -3.476  0.1402E+02  0.1040E+02  0.7344E+02  0.7314E+02
     -3.414  0.9685E+01  0.1208E+02  0.7405E+02  0.7390E+02
     -3.351  0.1239E+02  0.1279E+02  0.7483E+02  0.7470E+02
     -3.288  0.1083E+02  0.1024E+02  0.7551E+02  0.7534E+02
     -3.225  0.1047E+02  0.1273E+02  0.7617E+02  0.7615E+02
     -3.162  0.7588E+01  0.5469E+01  0.7665E+02  0.7649E+02
     -3.099  0.9936E+01  0.1041E+02  0.7727E+02  0.7714E+02
     -3.036  0.1414E+02  0.1451E+02  0.7816E+02  0.7806E+02
     -2.973  0.8410E+01  0.7556E+01  0.7869E+02  0.7853E+02
     -2.910  0.9175E+01  0.8752E+01  0.7927E+02  0.7908E+02
     -2.847  0.9161E+01  0.9428E+01  0.7984E+02  0.7968E+02
     -2.785  0.9556E+01  0.8331E+01  0.8045E+02  0.8020E+02
     -2.722  0.9378E+01  0.9506E+01  0.8104E+02  0.8080E+02
     -2.659  0.1511E+02  0.1389E+02  0.8199E+02  0.8167E+02
     -2.596  0.1464E+02  0.1626E+02  0.8291E+02  0.8269E+02
     -2.533  0.7517E+01  0.8573E+01  0.8338E+02  0.8323E+02
     -2.470  0.1107E+02  0.8904E+01  0.8408E+02  0.8379E+02
     -2.407  0.1194E+02  0.1233E+02  0.8483E+02  0.8457E+02
     -2.344  0.1323E+02  0.1522E+02  0.8566E+02  0.8553E+02
     -2.281  0.6382E+01  0.6637E+01  0.8606E+02  0.8595E+02
     -2.219  0.9392E+01  0.7382E+01  0.8665E+02  0.8641E+02
     -2.156  0.1169E+02  0.1216E+02  0.8739E+02  0.8717E+02
     -2.093  0.7059E+01  0.9183E+01  0.8783E+02  0.8775E+02
     -2.030  0.9058E+01  0.6337E+01  0.8840E+02  0.8815E+02
     -1.967  0.1117E+02  0.1178E+02  0.8910E+02  0.8889E+02
     -1.904  0.1330E+02  0.1474E+02  0.8994E+02  0.8982E+02
     -1.841  0.5395E+01  0.7107E+01  0.9028E+02  0.9027E+02
     -1.778  0.7209E+01  0.2618E+01  0.9073E+02  0.9043E+02
     -1.715  0.9545E+01  0.1318E+02  0.9133E+02  0.9126E+02
     -1.652  0.1491E+02  0.9932E+01  0.9227E+02  0.9188E+02
     -1.590  0.2026E+02  0.2036E+02  0.9355E+02  0.9317E+02
     -1.527  0.5389E+01  0.1075E+02  0.9389E+02  0.9384E+02
     -1.464  0.3125E+01  0.2461E+01  0.9408E+02  0.9400E+02
     -1.401  0.1455E+02  0.1275E+02  0.9500E+02  0.9480E+02
     -1.338  0.7910E+01  0.9194E+01  0.9550E+02  0.9538E+02
     -1.275  0.6570E+01  0.5637E+01  0.9591E+02  0.9573E+02
     -1.212  0.4079E+01  0.5138E+01  0.9617E+02  0.9605E+02
     -1.149  0.1077E+02  0.7211E+01  0.9684E+02  0.9651E+02
     -1.086  0.8228E+01  0.1229E+02  0.9736E+02  0.9728E+02
     -1.023  0.8838E+01  0.5034E+01  0.9792E+02  0.9760E+02
     -0.961  0.2512E+02  0.2530E+02  0.9950E+02  0.9919E+02
     -0.898  0.1006E+02  0.1091E+02  0.1001E+03  0.9987E+02
     -0.835  0.2140E+01  0.4690E+01  0.1003E+03  0.1002E+03
     -0.772  0.1172E+02  0.9705E+01  0.1010E+03  0.1008E+03
     -0.709  0.1323E+02  0.1373E+02  0.1018E+03  0.1016E+03
     -0.646  0.1336E+02  0.1466E+02  0.1027E+03  0.1026E+03
     -0.583  0.1935E+02  0.1821E+02  0.1039E+03  0.1037E+03
     -0.520  0.2057E+02  0.1789E+02  0.1052E+03  0.1048E+03
     -0.457  0.2750E+02  0.1660E+02  0.1069E+03  0.1059E+03
     -0.395  0.3489E+02  0.4299E+02  0.1091E+03  0.1086E+03
     -0.332  0.2072E+02  0.2318E+02  0.1104E+03  0.1100E+03
     -0.269  0.1719E+02  0.1869E+02  0.1115E+03  0.1112E+03
     -0.206  0.1586E+02  0.1385E+02  0.1125E+03  0.1121E+03
     -0.143  0.3274E+02  0.2788E+02  0.1146E+03  0.1138E+03
     -0.080  0.2910E+02  0.3677E+02  0.1164E+03  0.1162E+03
     -0.017  0.1873E+02  0.1568E+02  0.1176E+03  0.1171E+03
      0.046  0.2759E+02  0.2809E+02  0.1193E+03  0.1189E+03
      0.109  0.2520E+02  0.2545E+02  0.1209E+03  0.1205E+03
      0.172  0.2529E+02  0.2710E+02  0.1225E+03  0.1222E+03
      0.234  0.2277E+02  0.1968E+02  0.1239E+03  0.1235E+03
      0.297  0.2928E+02  0.2932E+02  0.1258E+03  0.1253E+03
      0.360  0.2677E+02  0.2413E+02  0.1274E+03  0.1268E+03
      0.423  0.2624E+02  0.2662E+02  0.1291E+03  0.1285E+03
      0.486  0.3134E+02  0.3334E+02  0.1311E+03  0.1306E+03
      0.549  0.2499E+02  0.2377E+02  0.1326E+03  0.1321E+03
      0.612  0.3201E+02  0.3290E+02  0.1346E+03  0.1342E+03
      0.675  0.1987E+02  0.2336E+02  0.1359E+03  0.1356E+03
      0.738  0.1694E+02  0.1234E+02  0.1370E+03  0.1364E+03
      0.801  0.1916E+02  0.2142E+02  0.1382E+03  0.1378E+03
      0.863  0.2095E+02  0.2320E+02  0.1395E+03  0.1392E+03
      0.926  0.3155E+02  0.2952E+02  0.1415E+03  0.1411E+03
      0.989  0.2828E+02  0.2688E+02  0.1433E+03  0.1428E+03
      1.052  0.2646E+02  0.2446E+02  0.1449E+03  0.1443E+03
      1.115  0.1786E+02  0.2490E+02  0.1460E+03  0.1459E+03
      1.178  0.3517E+02  0.2478E+02  0.1483E+03  0.1474E+03
      1.241  0.2130E+02  0.2598E+02  0.1496E+03  0.1491E+03
      1.304  0.3649E+02  0.3510E+02  0.1519E+03  0.1513E+03
      1.367  0.2379E+02  0.2435E+02  0.1534E+03  0.1528E+03
      1.429  0.2701E+02  0.3182E+02  0.1551E+03  0.1548E+03
      1.492  0.2242E+02  0.2444E+02  0.1565E+03  0.1563E+03
      1.555  0.2625E+02  0.2332E+02  0.1581E+03  0.1578E+03
      1.618  0.1854E+02  0.1975E+02  0.1593E+03  0.1590E+03
      1.681  0.2356E+02  0.2306E+02  0.1608E+03  0.1605E+03
      1.744  0.2514E+02  0.2534E+02  0.1624E+03  0.1621E+03
      1.807  0.2073E+02  0.1698E+02  0.1637E+03  0.1632E+03
      1.870  0.2785E+02  0.3132E+02  0.1654E+03  0.1651E+03
      1.933  0.1373E+02  0.1348E+02  0.1663E+03  0.1660E+03
      1.996  0.1556E+02  0.1707E+02  0.1673E+03  0.1671E+03
      2.058  0.1553E+02  0.1148E+02  0.1683E+03  0.1678E+03
      2.121  0.1724E+02  0.1898E+02  0.1693E+03  0.1690E+03
      2.184  0.1814E+02  0.1559E+02  0.1705E+03  0.1700E+03
      2.247  0.2895E+02  0.3133E+02  0.1723E+03  0.1719E+03
      2.310  0.1424E+02  0.1569E+02  0.1732E+03  0.1729E+03
      2.373  0.1452E+02  0.1676E+02  0.1741E+03  0.1740E+03
      2.436  0.1686E+02  0.1338E+02  0.1752E+03  0.1748E+03
      2.499  0.1927E+02  0.1403E+02  0.1764E+03  0.1757E+03
      2.562  0.1458E+02  0.2376E+02  0.1773E+03  0.1772E+03
      2.624  0.2090E+02  0.1610E+02  0.1786E+03  0.1782E+03
      2.687  0.2101E+02  0.1071E+02  0.1799E+03  0.1789E+03
      2.750  0.9814E+01  0.2395E+02  0.1806E+03  0.1804E+03
      2.813  0.1414E+02  0.1193E+02  0.1814E+03  0.1811E+03
      2.876  0.2274E+02  0.1265E+02  0.1829E+03  0.1819E+03
      2.939  0.1589E+02  0.2030E+02  0.1839E+03  0.1832E+03
      3.002  0.1478E+02  0.2103E+02  0.1848E+03  0.1845E+03
      3.065  0.1696E+02  0.8596E+01  0.1859E+03  0.1851E+03
      3.128  0.1509E+02  0.2217E+02  0.1868E+03  0.1865E+03
      3.191  0.1574E+02  0.1062E+02  0.1878E+03  0.1871E+03
      3.253  0.1671E+02  0.1925E+02  0.1889E+03  0.1883E+03
      3.316  0.1015E+02  0.1387E+02  0.1895E+03  0.1892E+03
      3.379  0.1395E+02  0.1134E+02  0.1904E+03  0.1899E+03
      3.442  0.1206E+02  0.1405E+02  0.1911E+03  0.1908E+03
      3.505  0.2518E+02  0.9164E+01  0.1927E+03  0.1914E+03
      3.568  0.1495E+02  0.2286E+02  0.1937E+03  0.1928E+03
      3.631  0.9158E+01  0.1591E+02  0.1942E+03  0.1938E+03
      3.694  0.2571E+02  0.1667E+02  0.1959E+03  0.1949E+03
      3.757  0.1667E+02  0.2181E+02  0.1969E+03  0.1962E+03
      3.820  0.6010E+01  0.1443E+02  0.1973E+03  0.1972E+03
      3.882  0.1668E+02  0.9579E+01  0.1983E+03  0.1978E+03
      3.945  0.1598E+02  0.2005E+02  0.1993E+03  0.1990E+03
      4.008  0.2470E+02  0.1893E+02  0.2009E+03  0.2002E+03
      4.071  0.2271E+02  0.2251E+02  0.2023E+03  0.2016E+03
      4.134  0.1603E+02  0.2007E+02  0.2033E+03  0.2029E+03
      4.197  0.9449E+01  0.1117E+02  0.2039E+03  0.2036E+03
      4.260  0.2232E+02  0.1384E+02  0.2053E+03  0.2045E+03
      4.323  0.1986E+02  0.2378E+02  0.2066E+03  0.2060E+03
      4.386  0.2560E+02  0.2563E+02  0.2082E+03  0.2076E+03
      4.448  0.1277E+02  0.1873E+02  0.2090E+03  0.2087E+03
      4.511  0.9576E+01  0.7278E+01  0.2096E+03  0.2092E+03
      4.574  0.3105E+02  0.1937E+02  0.2115E+03  0.2104E+03
      4.637  0.2504E+02  0.3570E+02  0.2131E+03  0.2127E+03
      4.700  0.1866E+02  0.1627E+02  0.2143E+03  0.2137E+03
      4.763  0.2360E+02  0.1947E+02  0.2158E+03  0.2149E+03
      4.826  0.3056E+02  0.3109E+02  0.2177E+03  0.2169E+03
      4.889  0.1775E+02  0.2793E+02  0.2188E+03  0.2186E+03
      4.952  0.1011E+02  0.6606E+01  0.2195E+03  0.2190E+03
      5.015  0.2150E+02  0.2064E+02  0.2208E+03  0.2203E+03
      5.077  0.2410E+02  0.2329E+02  0.2223E+03  0.2218E+03
      5.140  0.1883E+02  0.1995E+02  0.2235E+03  0.2231E+03
      5.203  0.3165E+02  0.2878E+02  0.2255E+03  0.2249E+03
      5.266  0.2026E+02  0.2533E+02  0.2268E+03  0.2265E+03
      5.329  0.2047E+02  0.2448E+02  0.2281E+03  0.2280E+03
      5.392  0.1108E+02  0.8238E+01  0.2288E+03  0.2285E+03
      5.455  0.1816E+02  0.1628E+02  0.2299E+03  0.2296E+03
      5.518  0.1398E+02  0.1557E+02  0.2308E+03  0.2305E+03
      5.581  0.9894E+01  0.1019E+02  0.2314E+03  0.2312E+03
      5.644  0.5911E+01  0.8333E+01  0.2318E+03  0.2317E+03
      5.706  0.1588E-01  0.1217E+01  0.2318E+03  0.2318E+03
      5.769  0.1765E+01  0.7614E+00  0.2319E+03  0.2318E+03
      5.832  0.1766E+01  0.2772E+01  0.2320E+03  0.2320E+03
      5.895  0.0000E+00  0.0000E+00  0.2320E+03  0.2320E+03
      5.958  0.0000E+00  0.0000E+00  0.2320E+03  0.2320E+03
      6.021  0.0000E+00  0.0000E+00  0.2320E+03  0.2320E+03
      6.084  0.0000E+00  0.0000E+00  0.2320E+03  0.2320E+03
      6.147  0.0000E+00  0.0000E+00  0.2320E+03  0.2320E+03
      6.210  0.0000E+00  0.0000E+00  0.2320E+03  0.2320E+03
      6.272  0.0000E+00  0.0000E+00  0.2320E+03  0.2320E+03
      6.335  0.0000E+00  0.0000E+00  0.2320E+03  0.2320E+03
      6.398  0.0000E+00  0.0000E+00  0.2320E+03  0.2320E+03
      6.461  0.0000E+00  0.0000E+00  0.2320E+03  0.2320E+03
      6.524  0.0000E+00  0.0000E+00  0.2320E+03  0.2320E+03
      6.587  0.0000E+00  0.0000E+00  0.2320E+03  0.2320E+03
      6.650  0.0000E+00  0.0000E+00  0.2320E+03  0.2320E+03
