 228 228   0   0
  0.2284757E+02  0.1717433E-08  0.1717433E-08  0.1766100E-08  0.5000000E-15
  1.000000000000000E-004
  CAR 
 Si and Ge interface calculation         
      7.03237139     -8.82008857  301      4.19919643      1.00000000
     -8.820  0.0000E+00  0.0000E+00  0.0000E+00  0.0000E+00
     -8.767  0.0000E+00  0.0000E+00  0.0000E+00  0.0000E+00
     -8.714  0.0000E+00  0.0000E+00  0.0000E+00  0.0000E+00
     -8.662  0.0000E+00  0.0000E+00  0.0000E+00  0.0000E+00
     -8.609  0.0000E+00  0.0000E+00  0.0000E+00  0.0000E+00
     -8.556  0.0000E+00  0.0000E+00  0.0000E+00  0.0000E+00
     -8.503  0.0000E+00  0.0000E+00  0.0000E+00  0.0000E+00
     -8.450  0.0000E+00  0.0000E+00  0.0000E+00  0.0000E+00
     -8.397  0.0000E+00  0.0000E+00  0.0000E+00  0.0000E+00
     -8.345  0.0000E+00  0.0000E+00  0.0000E+00  0.0000E+00
     -8.292  0.0000E+00  0.0000E+00  0.0000E+00  0.0000E+00
     -8.239  0.0000E+00  0.0000E+00  0.0000E+00  0.0000E+00
     -8.186  0.0000E+00  0.0000E+00  0.0000E+00  0.0000E+00
     -8.133  0.4683E-05  0.6240E-06  0.2475E-06  0.3297E-07
     -8.080  0.8135E+01  0.7440E+01  0.4299E+00  0.3931E+00
     -8.027  0.1327E+01  0.2022E+01  0.5000E+00  0.5000E+00
     -7.975  0.3474E+02  0.3264E+02  0.2336E+01  0.2225E+01
     -7.922  0.9276E+01  0.1081E+02  0.2826E+01  0.2796E+01
     -7.869  0.1390E+02  0.1389E+02  0.3561E+01  0.3530E+01
     -7.816  0.1777E+02  0.1836E+02  0.4500E+01  0.4500E+01
     -7.763  0.1070E+01  0.5144E+00  0.4557E+01  0.4527E+01
     -7.710  0.1315E+02  0.1360E+02  0.5252E+01  0.5246E+01
     -7.658  0.3225E+02  0.2766E+02  0.6956E+01  0.6707E+01
     -7.605  0.3679E+02  0.3786E+02  0.8900E+01  0.8708E+01
     -7.552  0.6611E+02  0.6817E+02  0.1239E+02  0.1231E+02
     -7.499  0.2598E+02  0.2610E+02  0.1377E+02  0.1369E+02
     -7.446  0.1771E+02  0.1794E+02  0.1470E+02  0.1464E+02
     -7.393  0.1039E+02  0.1159E+02  0.1525E+02  0.1525E+02
     -7.341  0.4257E+02  0.4254E+02  0.1750E+02  0.1750E+02
     -7.288  0.1742E+02  0.1322E+02  0.1842E+02  0.1820E+02
     -7.235  0.6215E+02  0.6420E+02  0.2170E+02  0.2159E+02
     -7.182  0.4712E+02  0.4762E+02  0.2419E+02  0.2411E+02
     -7.129  0.4539E+02  0.4369E+02  0.2659E+02  0.2641E+02
     -7.076  0.6727E+02  0.6785E+02  0.3015E+02  0.3000E+02
     -7.023  0.5591E+02  0.5227E+02  0.3310E+02  0.3276E+02
     -6.971  0.3878E+02  0.4346E+02  0.3515E+02  0.3506E+02
     -6.918  0.5939E+02  0.5649E+02  0.3829E+02  0.3804E+02
     -6.865  0.4674E+02  0.4932E+02  0.4076E+02  0.4065E+02
     -6.812  0.5972E+02  0.5555E+02  0.4391E+02  0.4358E+02
     -6.759  0.5693E+02  0.6069E+02  0.4692E+02  0.4679E+02
     -6.706  0.5928E+02  0.5869E+02  0.5006E+02  0.4989E+02
     -6.654  0.8373E+02  0.7618E+02  0.5448E+02  0.5392E+02
     -6.601  0.5513E+02  0.6302E+02  0.5739E+02  0.5725E+02
     -6.548  0.5875E+02  0.5365E+02  0.6050E+02  0.6008E+02
     -6.495  0.8419E+02  0.9100E+02  0.6495E+02  0.6489E+02
     -6.442  0.4883E+02  0.4621E+02  0.6753E+02  0.6733E+02
     -6.389  0.7992E+02  0.8305E+02  0.7175E+02  0.7172E+02
     -6.337  0.9325E+02  0.8382E+02  0.7668E+02  0.7615E+02
     -6.284  0.8642E+02  0.9287E+02  0.8124E+02  0.8106E+02
     -6.231  0.6001E+02  0.5886E+02  0.8441E+02  0.8417E+02
     -6.178  0.1254E+03  0.1236E+03  0.9104E+02  0.9070E+02
     -6.125  0.7577E+02  0.7809E+02  0.9505E+02  0.9483E+02
     -6.072  0.5090E+02  0.5003E+02  0.9774E+02  0.9747E+02
     -6.019  0.7034E+02  0.6925E+02  0.1015E+03  0.1011E+03
     -5.967  0.7069E+02  0.7460E+02  0.1052E+03  0.1051E+03
     -5.914  0.6085E+02  0.6040E+02  0.1084E+03  0.1083E+03
     -5.861  0.6884E+02  0.6658E+02  0.1120E+03  0.1118E+03
     -5.808  0.9585E+02  0.9547E+02  0.1171E+03  0.1168E+03
     -5.755  0.7279E+02  0.7293E+02  0.1210E+03  0.1207E+03
     -5.702  0.7415E+02  0.7453E+02  0.1249E+03  0.1246E+03
     -5.650  0.6001E+02  0.6101E+02  0.1280E+03  0.1278E+03
     -5.597  0.7660E+02  0.7568E+02  0.1321E+03  0.1318E+03
     -5.544  0.1409E+03  0.1376E+03  0.1395E+03  0.1391E+03
     -5.491  0.5672E+02  0.6246E+02  0.1425E+03  0.1424E+03
     -5.438  0.5402E+02  0.5254E+02  0.1454E+03  0.1452E+03
     -5.385  0.7798E+02  0.7649E+02  0.1495E+03  0.1492E+03
     -5.333  0.8191E+02  0.7975E+02  0.1538E+03  0.1534E+03
     -5.280  0.5783E+02  0.6042E+02  0.1569E+03  0.1566E+03
     -5.227  0.8070E+02  0.8178E+02  0.1612E+03  0.1610E+03
     -5.174  0.1041E+03  0.1028E+03  0.1667E+03  0.1664E+03
     -5.121  0.6904E+02  0.6727E+02  0.1703E+03  0.1699E+03
     -5.068  0.8161E+02  0.8487E+02  0.1746E+03  0.1744E+03
     -5.015  0.4269E+02  0.4222E+02  0.1769E+03  0.1767E+03
     -4.963  0.7768E+02  0.7619E+02  0.1810E+03  0.1807E+03
     -4.910  0.7990E+02  0.8133E+02  0.1852E+03  0.1850E+03
     -4.857  0.4979E+02  0.4841E+02  0.1878E+03  0.1875E+03
     -4.804  0.6397E+02  0.6213E+02  0.1912E+03  0.1908E+03
     -4.751  0.6559E+02  0.6974E+02  0.1947E+03  0.1945E+03
     -4.698  0.2946E+02  0.3170E+02  0.1962E+03  0.1962E+03
     -4.646  0.5626E+02  0.5404E+02  0.1992E+03  0.1990E+03
     -4.593  0.3583E+02  0.3590E+02  0.2011E+03  0.2009E+03
     -4.540  0.8212E+02  0.7841E+02  0.2054E+03  0.2051E+03
     -4.487  0.5339E+02  0.5877E+02  0.2083E+03  0.2082E+03
     -4.434  0.6009E+02  0.5976E+02  0.2114E+03  0.2113E+03
     -4.381  0.2146E+02  0.2117E+02  0.2126E+03  0.2125E+03
     -4.329  0.4788E+02  0.4425E+02  0.2151E+03  0.2148E+03
     -4.276  0.7277E+02  0.7644E+02  0.2189E+03  0.2188E+03
     -4.223  0.2040E+02  0.2198E+02  0.2200E+03  0.2200E+03
     -4.170  0.4014E+02  0.3673E+02  0.2221E+03  0.2219E+03
     -4.117  0.2867E+02  0.3053E+02  0.2237E+03  0.2236E+03
     -4.064  0.5629E+02  0.5020E+02  0.2266E+03  0.2262E+03
     -4.012  0.6128E+02  0.6406E+02  0.2299E+03  0.2296E+03
     -3.959  0.4010E+02  0.4472E+02  0.2320E+03  0.2320E+03
     -3.906  0.8660E+01  0.6379E+01  0.2324E+03  0.2323E+03
     -3.853  0.3564E+02  0.3727E+02  0.2343E+03  0.2343E+03
     -3.800  0.4100E+02  0.3854E+02  0.2365E+03  0.2363E+03
     -3.747  0.3764E+02  0.3835E+02  0.2385E+03  0.2383E+03
     -3.694  0.2956E+02  0.2774E+02  0.2400E+03  0.2398E+03
     -3.642  0.4646E+02  0.5119E+02  0.2425E+03  0.2425E+03
     -3.589  0.2511E+02  0.2176E+02  0.2438E+03  0.2437E+03
     -3.536  0.7095E+02  0.6402E+02  0.2476E+03  0.2470E+03
     -3.483  0.6361E+02  0.6887E+02  0.2509E+03  0.2507E+03
     -3.430  0.1321E+03  0.1328E+03  0.2579E+03  0.2577E+03
     -3.377  0.6601E+02  0.6764E+02  0.2614E+03  0.2613E+03
     -3.325  0.7042E+02  0.6933E+02  0.2651E+03  0.2649E+03
     -3.272  0.8705E+02  0.8508E+02  0.2697E+03  0.2694E+03
     -3.219  0.7229E+02  0.6969E+02  0.2735E+03  0.2731E+03
     -3.166  0.8168E+02  0.8225E+02  0.2779E+03  0.2774E+03
     -3.113  0.6862E+02  0.7036E+02  0.2815E+03  0.2812E+03
     -3.060  0.8363E+02  0.8304E+02  0.2859E+03  0.2856E+03
     -3.008  0.7970E+02  0.8099E+02  0.2901E+03  0.2898E+03
     -2.955  0.7447E+02  0.7568E+02  0.2941E+03  0.2938E+03
     -2.902  0.8760E+02  0.8412E+02  0.2987E+03  0.2983E+03
     -2.849  0.4823E+02  0.5290E+02  0.3012E+03  0.3011E+03
     -2.796  0.8262E+02  0.8047E+02  0.3056E+03  0.3053E+03
     -2.743  0.7103E+02  0.7328E+02  0.3093E+03  0.3092E+03
     -2.690  0.7215E+02  0.7202E+02  0.3132E+03  0.3130E+03
     -2.638  0.5892E+02  0.5841E+02  0.3163E+03  0.3161E+03
     -2.585  0.8384E+02  0.8116E+02  0.3207E+03  0.3204E+03
     -2.532  0.5201E+02  0.5500E+02  0.3235E+03  0.3233E+03
     -2.479  0.7388E+02  0.7130E+02  0.3274E+03  0.3271E+03
     -2.426  0.6980E+02  0.6961E+02  0.3310E+03  0.3307E+03
     -2.373  0.9729E+02  0.9458E+02  0.3362E+03  0.3357E+03
     -2.321  0.6129E+02  0.6402E+02  0.3394E+03  0.3391E+03
     -2.268  0.1139E+03  0.1125E+03  0.3454E+03  0.3451E+03
     -2.215  0.6295E+02  0.6682E+02  0.3488E+03  0.3486E+03
     -2.162  0.3672E+02  0.3655E+02  0.3507E+03  0.3505E+03
     -2.109  0.6514E+02  0.6486E+02  0.3542E+03  0.3539E+03
     -2.056  0.4835E+02  0.4944E+02  0.3567E+03  0.3566E+03
     -2.004  0.6637E+02  0.6281E+02  0.3602E+03  0.3599E+03
     -1.951  0.8853E+02  0.8832E+02  0.3649E+03  0.3645E+03
     -1.898  0.4424E+02  0.4929E+02  0.3672E+03  0.3671E+03
     -1.845  0.5911E+02  0.5350E+02  0.3704E+03  0.3700E+03
     -1.792  0.3927E+02  0.4103E+02  0.3724E+03  0.3721E+03
     -1.739  0.6771E+02  0.7022E+02  0.3760E+03  0.3759E+03
     -1.686  0.5635E+02  0.5309E+02  0.3790E+03  0.3787E+03
     -1.634  0.4766E+02  0.5116E+02  0.3815E+03  0.3814E+03
     -1.581  0.3775E+02  0.4011E+02  0.3835E+03  0.3835E+03
     -1.528  0.1794E+02  0.1614E+02  0.3844E+03  0.3843E+03
     -1.475  0.3173E+02  0.2994E+02  0.3861E+03  0.3859E+03
     -1.422  0.4603E+02  0.4901E+02  0.3886E+03  0.3885E+03
     -1.369  0.2880E+02  0.2658E+02  0.3901E+03  0.3899E+03
     -1.317  0.4363E+02  0.4319E+02  0.3924E+03  0.3922E+03
     -1.264  0.6139E+02  0.5821E+02  0.3956E+03  0.3953E+03
     -1.211  0.6529E+02  0.6677E+02  0.3991E+03  0.3988E+03
     -1.158  0.6820E+02  0.6847E+02  0.4027E+03  0.4024E+03
     -1.105  0.2983E+02  0.3473E+02  0.4043E+03  0.4043E+03
     -1.052  0.2113E+02  0.1974E+02  0.4054E+03  0.4053E+03
     -1.000  0.2818E+02  0.2635E+02  0.4069E+03  0.4067E+03
     -0.947  0.4845E+02  0.4599E+02  0.4094E+03  0.4091E+03
     -0.894  0.4549E+02  0.5005E+02  0.4118E+03  0.4118E+03
     -0.841  0.3968E+02  0.3904E+02  0.4139E+03  0.4138E+03
     -0.788  0.1808E+02  0.1723E+02  0.4149E+03  0.4147E+03
     -0.735  0.4199E+02  0.4179E+02  0.4171E+03  0.4169E+03
     -0.682  0.1067E+02  0.1160E+02  0.4177E+03  0.4176E+03
     -0.630  0.2214E+02  0.2109E+02  0.4188E+03  0.4187E+03
     -0.577  0.2352E+02  0.2550E+02  0.4201E+03  0.4200E+03
     -0.524  0.3321E+02  0.3161E+02  0.4218E+03  0.4217E+03
     -0.471  0.3400E+02  0.3521E+02  0.4236E+03  0.4235E+03
     -0.418  0.3433E+02  0.3006E+02  0.4254E+03  0.4251E+03
     -0.365  0.3012E+02  0.3118E+02  0.4270E+03  0.4268E+03
     -0.313  0.5912E+02  0.6169E+02  0.4302E+03  0.4300E+03
     -0.260  0.4409E+02  0.4557E+02  0.4325E+03  0.4325E+03
     -0.207  0.4542E+02  0.4343E+02  0.4349E+03  0.4347E+03
     -0.154  0.3452E+02  0.3437E+02  0.4367E+03  0.4366E+03
     -0.101  0.5242E+02  0.4958E+02  0.4395E+03  0.4392E+03
     -0.048  0.7293E+02  0.7476E+02  0.4433E+03  0.4431E+03
      0.004  0.8990E+02  0.8883E+02  0.4481E+03  0.4478E+03
      0.057  0.9108E+02  0.9028E+02  0.4529E+03  0.4526E+03
      0.110  0.7587E+02  0.7386E+02  0.4569E+03  0.4565E+03
      0.163  0.1135E+03  0.1084E+03  0.4629E+03  0.4622E+03
      0.216  0.1319E+03  0.1348E+03  0.4699E+03  0.4694E+03
      0.269  0.1306E+03  0.1269E+03  0.4768E+03  0.4761E+03
      0.321  0.9655E+02  0.1004E+03  0.4819E+03  0.4814E+03
      0.374  0.1494E+03  0.1560E+03  0.4898E+03  0.4896E+03
      0.427  0.5358E+02  0.4598E+02  0.4926E+03  0.4920E+03
      0.480  0.1621E+03  0.1607E+03  0.5012E+03  0.5005E+03
      0.533  0.1639E+03  0.1623E+03  0.5098E+03  0.5091E+03
      0.586  0.1451E+03  0.1458E+03  0.5175E+03  0.5168E+03
      0.639  0.1430E+03  0.1465E+03  0.5251E+03  0.5246E+03
      0.691  0.1324E+03  0.1341E+03  0.5320E+03  0.5316E+03
      0.744  0.1293E+03  0.1263E+03  0.5389E+03  0.5383E+03
      0.797  0.1372E+03  0.1422E+03  0.5461E+03  0.5458E+03
      0.850  0.1191E+03  0.1153E+03  0.5524E+03  0.5519E+03
      0.903  0.1264E+03  0.1305E+03  0.5591E+03  0.5588E+03
      0.956  0.1348E+03  0.1336E+03  0.5662E+03  0.5659E+03
      1.008  0.1266E+03  0.1243E+03  0.5729E+03  0.5724E+03
      1.061  0.1314E+03  0.1304E+03  0.5799E+03  0.5793E+03
      1.114  0.1249E+03  0.1258E+03  0.5865E+03  0.5860E+03
      1.167  0.1580E+03  0.1598E+03  0.5948E+03  0.5944E+03
      1.220  0.1847E+03  0.1820E+03  0.6046E+03  0.6040E+03
      1.273  0.1419E+03  0.1442E+03  0.6121E+03  0.6117E+03
      1.325  0.1437E+03  0.1466E+03  0.6197E+03  0.6194E+03
      1.378  0.1379E+03  0.1346E+03  0.6270E+03  0.6265E+03
      1.431  0.1442E+03  0.1442E+03  0.6346E+03  0.6341E+03
      1.484  0.1209E+03  0.1214E+03  0.6410E+03  0.6406E+03
      1.537  0.1729E+03  0.1668E+03  0.6501E+03  0.6494E+03
      1.590  0.1494E+03  0.1567E+03  0.6580E+03  0.6577E+03
      1.643  0.1150E+03  0.1106E+03  0.6641E+03  0.6635E+03
      1.695  0.1342E+03  0.1326E+03  0.6712E+03  0.6705E+03
      1.748  0.1379E+03  0.1432E+03  0.6784E+03  0.6781E+03
      1.801  0.1443E+03  0.1404E+03  0.6861E+03  0.6855E+03
      1.854  0.1396E+03  0.1403E+03  0.6934E+03  0.6929E+03
      1.907  0.1145E+03  0.1187E+03  0.6995E+03  0.6992E+03
      1.960  0.1276E+03  0.1267E+03  0.7062E+03  0.7059E+03
      2.012  0.1045E+03  0.1004E+03  0.7118E+03  0.7112E+03
      2.065  0.1582E+03  0.1577E+03  0.7201E+03  0.7195E+03
      2.118  0.1760E+03  0.1820E+03  0.7294E+03  0.7291E+03
      2.171  0.1103E+03  0.1061E+03  0.7353E+03  0.7347E+03
      2.224  0.1157E+03  0.1185E+03  0.7414E+03  0.7410E+03
      2.277  0.1494E+03  0.1429E+03  0.7493E+03  0.7485E+03
      2.329  0.1292E+03  0.1360E+03  0.7561E+03  0.7557E+03
      2.382  0.1443E+03  0.1392E+03  0.7637E+03  0.7631E+03
      2.435  0.9800E+02  0.1020E+03  0.7689E+03  0.7685E+03
      2.488  0.1236E+03  0.1198E+03  0.7754E+03  0.7748E+03
      2.541  0.1094E+03  0.1110E+03  0.7812E+03  0.7807E+03
      2.594  0.1066E+03  0.1096E+03  0.7868E+03  0.7865E+03
      2.647  0.1052E+03  0.1009E+03  0.7924E+03  0.7918E+03
      2.699  0.1333E+03  0.1333E+03  0.7994E+03  0.7988E+03
      2.752  0.1348E+03  0.1342E+03  0.8066E+03  0.8059E+03
      2.805  0.1335E+03  0.1398E+03  0.8136E+03  0.8133E+03
      2.858  0.1150E+03  0.1110E+03  0.8197E+03  0.8192E+03
      2.911  0.1119E+03  0.1091E+03  0.8256E+03  0.8249E+03
      2.964  0.7676E+02  0.8241E+02  0.8297E+03  0.8293E+03
      3.016  0.9013E+02  0.9391E+02  0.8344E+03  0.8343E+03
      3.069  0.6935E+02  0.6970E+02  0.8381E+03  0.8379E+03
      3.122  0.8175E+02  0.7644E+02  0.8424E+03  0.8420E+03
      3.175  0.6357E+02  0.6284E+02  0.8458E+03  0.8453E+03
      3.228  0.9455E+02  0.9130E+02  0.8508E+03  0.8501E+03
      3.281  0.8518E+02  0.8748E+02  0.8553E+03  0.8547E+03
      3.333  0.1067E+03  0.1063E+03  0.8609E+03  0.8604E+03
      3.386  0.8246E+02  0.7919E+02  0.8653E+03  0.8645E+03
      3.439  0.6381E+02  0.6848E+02  0.8686E+03  0.8682E+03
      3.492  0.8082E+02  0.7695E+02  0.8729E+03  0.8722E+03
      3.545  0.6852E+02  0.7300E+02  0.8765E+03  0.8761E+03
      3.598  0.6007E+02  0.5888E+02  0.8797E+03  0.8792E+03
      3.651  0.5849E+02  0.6306E+02  0.8828E+03  0.8825E+03
      3.703  0.7680E+02  0.6334E+02  0.8869E+03  0.8859E+03
      3.756  0.4439E+02  0.5916E+02  0.8892E+03  0.8890E+03
      3.809  0.4080E+02  0.3953E+02  0.8914E+03  0.8911E+03
      3.862  0.4727E+02  0.4450E+02  0.8939E+03  0.8934E+03
      3.915  0.4461E+02  0.3908E+02  0.8962E+03  0.8955E+03
      3.968  0.5780E+02  0.6202E+02  0.8993E+03  0.8988E+03
      4.020  0.4886E+02  0.4743E+02  0.9018E+03  0.9013E+03
      4.073  0.4295E+02  0.4698E+02  0.9041E+03  0.9038E+03
      4.126  0.2753E+02  0.2836E+02  0.9056E+03  0.9053E+03
      4.179  0.8928E+02  0.7907E+02  0.9103E+03  0.9094E+03
      4.232  0.5695E+02  0.6723E+02  0.9133E+03  0.9130E+03
      4.285  0.3946E+02  0.3242E+02  0.9154E+03  0.9147E+03
      4.337  0.6857E+02  0.7786E+02  0.9190E+03  0.9188E+03
      4.390  0.4838E+02  0.4516E+02  0.9216E+03  0.9212E+03
      4.443  0.5620E+02  0.5169E+02  0.9245E+03  0.9239E+03
      4.496  0.5330E+02  0.5609E+02  0.9273E+03  0.9269E+03
      4.549  0.9820E+02  0.9556E+02  0.9325E+03  0.9320E+03
      4.602  0.6507E+02  0.6771E+02  0.9360E+03  0.9355E+03
      4.655  0.7732E+02  0.6638E+02  0.9401E+03  0.9390E+03
      4.707  0.7489E+02  0.7878E+02  0.9440E+03  0.9432E+03
      4.760  0.7222E+02  0.7267E+02  0.9478E+03  0.9470E+03
      4.813  0.7745E+02  0.8722E+02  0.9519E+03  0.9517E+03
      4.866  0.6191E+02  0.5435E+02  0.9552E+03  0.9545E+03
      4.919  0.1005E+03  0.9382E+02  0.9605E+03  0.9595E+03
      4.972  0.1076E+03  0.1076E+03  0.9662E+03  0.9652E+03
      5.024  0.9438E+02  0.1025E+03  0.9712E+03  0.9706E+03
      5.077  0.1003E+03  0.9830E+02  0.9765E+03  0.9758E+03
      5.130  0.8313E+02  0.8668E+02  0.9809E+03  0.9804E+03
      5.183  0.8768E+02  0.8266E+02  0.9855E+03  0.9847E+03
      5.236  0.7527E+02  0.8266E+02  0.9895E+03  0.9891E+03
      5.289  0.9872E+02  0.8870E+02  0.9947E+03  0.9938E+03
      5.341  0.9737E+02  0.9769E+02  0.9998E+03  0.9989E+03
      5.394  0.1154E+03  0.1193E+03  0.1006E+04  0.1005E+04
      5.447  0.1103E+03  0.1120E+03  0.1012E+04  0.1011E+04
      5.500  0.1109E+03  0.1099E+03  0.1018E+04  0.1017E+04
      5.553  0.1055E+03  0.1128E+03  0.1023E+04  0.1023E+04
      5.606  0.9624E+02  0.9193E+02  0.1028E+04  0.1028E+04
      5.658  0.9992E+02  0.1019E+03  0.1034E+04  0.1033E+04
      5.711  0.1054E+03  0.1013E+03  0.1039E+04  0.1039E+04
      5.764  0.1090E+03  0.1121E+03  0.1045E+04  0.1044E+04
      5.817  0.1333E+03  0.1242E+03  0.1052E+04  0.1051E+04
      5.870  0.1329E+03  0.1400E+03  0.1059E+04  0.1058E+04
      5.923  0.9286E+02  0.9035E+02  0.1064E+04  0.1063E+04
      5.976  0.1110E+03  0.1169E+03  0.1070E+04  0.1069E+04
      6.028  0.9058E+02  0.9221E+02  0.1075E+04  0.1074E+04
      6.081  0.1038E+03  0.9738E+02  0.1080E+04  0.1079E+04
      6.134  0.1134E+03  0.1146E+03  0.1086E+04  0.1085E+04
      6.187  0.8621E+02  0.9069E+02  0.1091E+04  0.1090E+04
      6.240  0.5936E+02  0.6448E+02  0.1094E+04  0.1094E+04
      6.293  0.3855E+02  0.3710E+02  0.1096E+04  0.1096E+04
      6.345  0.5129E+01  0.7532E+01  0.1096E+04  0.1096E+04
      6.398  0.0000E+00  0.0000E+00  0.1096E+04  0.1096E+04
      6.451  0.0000E+00  0.0000E+00  0.1096E+04  0.1096E+04
      6.504  0.0000E+00  0.0000E+00  0.1096E+04  0.1096E+04
      6.557  0.0000E+00  0.0000E+00  0.1096E+04  0.1096E+04
      6.610  0.0000E+00  0.0000E+00  0.1096E+04  0.1096E+04
      6.662  0.0000E+00  0.0000E+00  0.1096E+04  0.1096E+04
      6.715  0.0000E+00  0.0000E+00  0.1096E+04  0.1096E+04
      6.768  0.0000E+00  0.0000E+00  0.1096E+04  0.1096E+04
      6.821  0.0000E+00  0.0000E+00  0.1096E+04  0.1096E+04
      6.874  0.0000E+00  0.0000E+00  0.1096E+04  0.1096E+04
      6.927  0.0000E+00  0.0000E+00  0.1096E+04  0.1096E+04
      6.980  0.0000E+00  0.0000E+00  0.1096E+04  0.1096E+04
      7.032  0.0000E+00  0.0000E+00  0.1096E+04  0.1096E+04
