 vasp.6.4.3 19Mar24 (build Oct 22 2024 11:23:12) complex                        
  
 executed on             LinuxIFC date 2025.06.09  17:41:22
 running   64 mpi-ranks, on    4 nodes
 distrk:  each k-point on   64 cores,    1 groups
 distr:  one band on NCORE=  16 cores,    4 groups


--------------------------------------------------------------------------------------------------------


 INCAR:
   SYSTEM = Si and Ge interface calculation
   ISTART = 0
   ICHARG = 2
   LWAVE = .FALSE.
   LREAL = AUTO
   ENCUT = 700
   ENAUG = 900
   ADDGRID = .TRUE.
   LMAXMIX = 6
   LASPH = .TRUE.
   LMIXTAU = .TRUE.
   NCORE = 16
   NELM = 100
   NBANDS = 548
   EDIFF = 1d-7
   AMIX = 0.6
   ISMEAR = 0
   SIGMA = 0.01
   NELECT = 912
   ISPIN = 2
   NUPDOWN = 1
   LVTOT = .FALSE.
   LVHAR = .TRUE.

 POTCAR:    PAW_PBE Si 05Jan2001                  
 POTCAR:    PAW_PBE Ge 05Jan2001                  
 -----------------------------------------------------------------------------
|                                                                             |
|           W    W    AA    RRRRR   N    N  II  N    N   GGGG   !!!           |
|           W    W   A  A   R    R  NN   N  II  NN   N  G    G  !!!           |
|           W    W  A    A  R    R  N N  N  II  N N  N  G       !!!           |
|           W WW W  AAAAAA  RRRRR   N  N N  II  N  N N  G  GGG   !            |
|           WW  WW  A    A  R   R   N   NN  II  N   NN  G    G                |
|           W    W  A    A  R    R  N    N  II  N    N   GGGG   !!!           |
|                                                                             |
|     You use a magnetic or noncollinear calculation, but did not specify     |
|     the initial magnetic moment with the MAGMOM tag. Note that a            |
|     default of 4.386e-3 will be used for all atoms. This ferromagnetic      |
|     setup may break the symmetry of the crystal, in particular it may       |
|     rule out finding an antiferromagnetic solution. Thence, we              |
|     recommend setting the initial magnetic moment manually or verifying     |
|     carefully that this magnetic setup is desired.                          |
|                                                                             |
 -----------------------------------------------------------------------------

 POTCAR:    PAW_PBE Si 05Jan2001                  
   VRHFIN =Si: s2p2                                                                                 
   LEXCH  = PE                                                                                      
   EATOM  =   103.0669 eV,    7.5752 Ry                                                             
                                                                                                    
   TITEL  = PAW_PBE Si 05Jan2001                                                                    
   LULTRA =        F    use ultrasoft PP ?                                                          
   IUNSCR =        1    unscreen: 0-lin 1-nonlin 2-no                                               
   RPACOR =    1.500    partial core radius                                                         
   POMASS =   28.085; ZVAL   =    4.000    mass and valenz                                          
   RCORE  =    1.900    outmost cutoff radius                                                       
   RWIGS  =    2.480; RWIGS  =    1.312    wigner-seitz radius (au A)                               
   ENMAX  =  245.345; ENMIN  =  184.009 eV                                                          
   ICORE  =        2    local potential                                                             
   LCOR   =        T    correct aug charges                                                         
   LPAW   =        T    paw PP                                                                      
   EAUG   =  322.069                                                                                
   DEXC   =    0.000                                                                                
   RMAX   =    1.950    core radius for proj-oper                                                   
   RAUG   =    1.300    factor for augmentation sphere                                              
   RDEP   =    1.993    radius for radial grids                                                     
   RDEPT  =    1.837    core radius for aug-charge                                                  
                                                                                                    
   Atomic configuration                                                                             
    6 entries                                                                                       
     n  l   j            E        occ.                                                              
     1  0  0.50     -1785.8828   2.0000                                                             
     2  0  0.50      -139.4969   2.0000                                                             
     2  1  1.50       -95.5546   6.0000                                                             
     3  0  0.50       -10.8127   2.0000                                                             
     3  1  0.50        -4.0811   2.0000                                                             
     3  2  1.50        -4.0817   0.0000                                                             
   Description                                                                                      
     l       E           TYP  RCUT    TYP  RCUT                                                     
     0    -10.8127223     23  1.900                                                                 
     0     -7.6451159     23  1.900                                                                 
     1     -4.0811372     23  1.900                                                                 
     1      2.4879257     23  1.900                                                                 
     2     -4.0817478      7  1.900                                                                 
  local pseudopotential read in
  partial core-charges read in
  partial kinetic energy density read in
  atomic valenz-charges read in
  non local Contribution for L=           0  read in
    real space projection operators read in
  non local Contribution for L=           0  read in
    real space projection operators read in
  non local Contribution for L=           1  read in
    real space projection operators read in
  non local Contribution for L=           1  read in
    real space projection operators read in
    PAW grid and wavefunctions read in
 
   number of l-projection  operators is LMAX  =           4
   number of lm-projection operators is LMMAX =           8
 
 POTCAR:    PAW_PBE Ge 05Jan2001                  
   VRHFIN =Ge: s2p2                                                                                 
   LEXCH  = PE                                                                                      
   EATOM  =   104.9960 eV,    7.7170 Ry                                                             
                                                                                                    
   TITEL  = PAW_PBE Ge 05Jan2001                                                                    
   LULTRA =        F    use ultrasoft PP ?                                                          
   IUNSCR =        1    unscreen: 0-lin 1-nonlin 2-no                                               
   RPACOR =    2.170    partial core radius                                                         
   POMASS =   72.610; ZVAL   =    4.000    mass and valenz                                          
   RCORE  =    2.300    outmost cutoff radius                                                       
   RWIGS  =    2.300; RWIGS  =    1.217    wigner-seitz radius (au A)                               
   ENMAX  =  173.807; ENMIN  =  130.355 eV                                                          
   ICORE  =        3    local potential                                                             
   LCOR   =        T    correct aug charges                                                         
   LPAW   =        T    paw PP                                                                      
   EAUG   =  385.843                                                                                
   DEXC   =    0.000                                                                                
   RMAX   =    2.342    core radius for proj-oper                                                   
   RAUG   =    1.300    factor for augmentation sphere                                              
   RDEP   =    2.318    radius for radial grids                                                     
   RDEPT  =    2.103    core radius for aug-charge                                                  
                                                                                                    
   Atomic configuration                                                                             
   10 entries                                                                                       
     n  l   j            E        occ.                                                              
     1  0  0.50    -10959.8463   2.0000                                                             
     2  0  0.50     -1371.6056   2.0000                                                             
     2  1  1.50     -1198.4791   6.0000                                                             
     3  0  0.50      -168.4733   2.0000                                                             
     3  1  1.50      -115.6019   6.0000                                                             
     3  2  2.50       -29.3106  10.0000                                                             
     4  0  0.50       -11.7309   2.0000                                                             
     4  1  0.50        -3.8952   2.0000                                                             
     4  2  1.50        -4.0817   0.0000                                                             
     4  3  2.50        -4.0817   0.0000                                                             
   Description                                                                                      
     l       E           TYP  RCUT    TYP  RCUT                                                     
     0    -11.7309493     23  2.300                                                                 
     0     -7.4578696     23  2.300                                                                 
     1     -3.8952261     23  2.300                                                                 
     1      6.1178114     23  2.300                                                                 
     2     -4.0817478     23  2.300                                                                 
     3     -1.3605826      7  2.300                                                                 
  local pseudopotential read in
  partial core-charges read in
  partial kinetic energy density read in
  atomic valenz-charges read in
  non local Contribution for L=           0  read in
    real space projection operators read in
  non local Contribution for L=           0  read in
    real space projection operators read in
  non local Contribution for L=           1  read in
    real space projection operators read in
  non local Contribution for L=           1  read in
    real space projection operators read in
  non local Contribution for L=           2  read in
    real space projection operators read in
    PAW grid and wavefunctions read in
 
   number of l-projection  operators is LMAX  =           5
   number of lm-projection operators is LMMAX =          13
 
 Optimization of the real space projectors (new method)

 maximal supplied QI-value         = 19.84
 optimisation between [QCUT,QGAM] = [ 13.49, 26.99] = [ 50.98,203.92] Ry 
 Optimized for a Real-space Cutoff    1.07 Angstroem

   l    n(q)    QCUT    max X(q) W(low)/X(q) W(high)/X(q)  e(spline) 
   0      9    13.493   159.560    0.22E-03    0.15E-03    0.72E-07
   0      9    13.493   115.863    0.21E-03    0.15E-03    0.71E-07
   1      8    13.493    88.339    0.15E-03    0.11E-03    0.13E-06
   1      8    13.493    48.592    0.15E-03    0.10E-03    0.13E-06
 Optimization of the real space projectors (new method)

 maximal supplied QI-value         = 16.25
 optimisation between [QCUT,QGAM] = [ 13.49, 26.98] = [ 50.95,203.80] Ry 
 Optimized for a Real-space Cutoff    1.25 Angstroem

   l    n(q)    QCUT    max X(q) W(low)/X(q) W(high)/X(q)  e(spline) 
   0     10    13.489    65.336    0.91E-04    0.11E-03    0.34E-06
   0     10    13.489    52.220    0.89E-04    0.11E-03    0.34E-06
   1     10    13.489    36.409    0.22E-03    0.27E-03    0.14E-06
   1     10    13.489    21.334    0.21E-03    0.27E-03    0.14E-06
   2      9    13.489     4.673    0.11E-03    0.12E-03    0.19E-06
  PAW_PBE Si 05Jan2001                  :
 energy of atom  1       EATOM= -103.0669
 kinetic energy error for atom=    0.0003 (will be added to EATOM!!)
  PAW_PBE Ge 05Jan2001                  :
 energy of atom  2       EATOM= -104.9960
 kinetic energy error for atom=    0.0001 (will be added to EATOM!!)
 
 
 POSCAR: Si+Ge
  positions in direct lattice
  No initial velocities read in


 exchange-correlation table for PE
   RHO(1)=    0.500       N(1)  =     2000
   RHO(2)=  100.500       N(2)  =     4000
 


--------------------------------------------------------------------------------------------------------


 ion  position               nearest neighbor table
   1  0.996  0.975  0.000- 118 2.35  34 2.35 204 2.95
   2  0.946  0.625  0.154-  58 2.35  35 2.35 119 2.35  91 2.35
   3  0.896  0.275  0.308-  59 2.35 120 2.35  36 2.35  92 2.35
   4  0.096  0.675  0.000- 162 2.29  37 2.35  91 2.35
   5  0.046  0.325  0.154-  31 2.35  94 2.35  92 2.35  38 2.35
   6  0.996  0.975  0.308-  93 2.35  32 2.35  39 2.35  95 2.35
   7  0.196  0.375  0.000- 165 2.02  94 2.35  40 2.35
   8  0.146  0.025  0.154-  34 2.35  95 2.35  97 2.35  41 2.35
   9  0.096  0.675  0.308-  42 2.35  35 2.35  96 2.35  98 2.35
  10  0.296  0.075  0.000-  97 2.35  43 2.35 219 2.68
  11  0.246  0.725  0.154-  37 2.35  98 2.35  44 2.35 100 2.35
  12  0.196  0.375  0.308-  38 2.35  45 2.35  99 2.35 101 2.35
  13  0.396  0.775  0.000- 100 2.35  46 2.35 213 2.45
  14  0.346  0.425  0.154-  40 2.35 101 2.35  47 2.35 103 2.35
  15  0.296  0.075  0.308-  48 2.35  41 2.35 102 2.35 104 2.35
  16  0.496  0.475  0.000- 103 2.35  49 2.35 174 2.95
  17  0.446  0.125  0.154-  43 2.35 104 2.35 106 2.35  50 2.35
  18  0.396  0.775  0.308-  44 2.35  51 2.35 105 2.35 107 2.35
  19  0.596  0.175  0.000- 228 2.29 106 2.35  52 2.35
  20  0.546  0.825  0.154-  46 2.35 107 2.35 109 2.35  53 2.35
  21  0.496  0.475  0.308-  47 2.35 108 2.35  54 2.35 110 2.35
  22  0.696  0.875  0.000- 222 2.02  55 2.35 109 2.35
  23  0.646  0.525  0.154-  56 2.35  49 2.35 112 2.35 110 2.35
  24  0.596  0.175  0.308-  57 2.35 111 2.35 113 2.35  50 2.35
  25  0.796  0.575  0.000- 112 2.35  58 2.35 153 2.68
  26  0.746  0.225  0.154-  52 2.35 113 2.35 115 2.35  59 2.35
  27  0.696  0.875  0.308-  53 2.35 114 2.35  60 2.35 116 2.35
  28  0.896  0.275  0.000-  31 2.35 115 2.35 156 2.45
  29  0.846  0.925  0.154-  55 2.35  32 2.35 118 2.35 116 2.35
  30  0.796  0.575  0.308-  33 2.35  56 2.35 119 2.35 117 2.35
  31  0.996  0.225  0.077-   5 2.35  28 2.35  64 2.35  62 2.35
  32  0.946  0.875  0.231-  29 2.35   6 2.35  65 2.35  63 2.35
  33  0.896  0.525  0.384- 196 2.28  30 2.35  66 2.35
  34  0.096  0.925  0.077-   8 2.35  65 2.35  67 2.35   1 2.35
  35  0.046  0.575  0.231-   9 2.35   2 2.35  68 2.35  66 2.35
  36  0.996  0.225  0.384-   3 2.35  69 2.35 199 2.38
  37  0.196  0.625  0.077-  11 2.35  70 2.35   4 2.35  68 2.35
  38  0.146  0.275  0.231-  12 2.35  71 2.35   5 2.35  69 2.35
  39  0.096  0.925  0.384-  72 2.35   6 2.35
  40  0.296  0.325  0.077-  14 2.35  73 2.35  71 2.35   7 2.35
  41  0.246  0.975  0.231-  15 2.35  74 2.35   8 2.35  72 2.35
  42  0.196  0.625  0.384- 178 2.21   9 2.35  75 2.35
  43  0.396  0.025  0.077-  17 2.35  74 2.35  76 2.35  10 2.35
  44  0.346  0.675  0.231-  18 2.35  77 2.35  11 2.35  75 2.35
  45  0.296  0.325  0.384- 181 2.31  12 2.35  78 2.35
  46  0.496  0.725  0.077-  20 2.35  79 2.35  13 2.35  77 2.35
  47  0.446  0.375  0.231-  21 2.35  80 2.35  14 2.35  78 2.35
  48  0.396  0.025  0.384- 136 2.28  81 2.35  15 2.35
  49  0.596  0.425  0.077-  80 2.35  82 2.35  23 2.35  16 2.35
  50  0.546  0.075  0.231-  83 2.35  17 2.35  81 2.35  24 2.35
  51  0.496  0.725  0.384-  84 2.35  18 2.35 130 2.38
  52  0.696  0.125  0.077-  26 2.35  85 2.35  83 2.35  19 2.35
  53  0.646  0.775  0.231-  27 2.35  86 2.35  20 2.35  84 2.35
  54  0.596  0.425  0.384-  87 2.35  21 2.35
  55  0.796  0.825  0.077-  29 2.35  22 2.35  88 2.35  86 2.35
  56  0.746  0.475  0.231-  30 2.35  23 2.35  89 2.35  87 2.35
  57  0.696  0.125  0.384- 145 2.21  24 2.35  90 2.35
  58  0.896  0.525  0.077-   2 2.35  61 2.35  89 2.35  25 2.35
  59  0.846  0.175  0.231-   3 2.35  62 2.35  26 2.35  90 2.35
  60  0.796  0.825  0.384- 139 2.31  63 2.35  27 2.35
  61  0.996  0.475  0.000- 207 2.00  58 2.35  94 2.35
  62  0.946  0.125  0.154- 118 2.35  59 2.35  95 2.35  31 2.35
  63  0.896  0.775  0.308-  96 2.35 119 2.35  60 2.35  32 2.35
  64  0.096  0.175  0.000-  31 2.35  97 2.35 210 2.47
  65  0.046  0.825  0.154-  91 2.35  34 2.35  32 2.35  98 2.35
  66  0.996  0.475  0.308-  92 2.35  33 2.35  99 2.35  35 2.35
  67  0.196  0.875  0.000- 100 2.35  34 2.35 159 3.03
  68  0.146  0.525  0.154-  94 2.35 101 2.35  35 2.35  37 2.35
  69  0.096  0.175  0.308-  95 2.35 102 2.35  36 2.35  38 2.35
  70  0.296  0.575  0.000- 216 2.31 103 2.35  37 2.35
  71  0.246  0.225  0.154-  97 2.35  38 2.35 104 2.35  40 2.35
  72  0.196  0.875  0.308-  98 2.35 105 2.35  39 2.35  41 2.35
  73  0.396  0.275  0.000- 106 2.35  40 2.35 219 2.73 174 2.91
  74  0.346  0.925  0.154- 100 2.35  43 2.35  41 2.35 107 2.35
  75  0.296  0.575  0.308- 108 2.35 101 2.35  42 2.35  44 2.35
  76  0.496  0.975  0.000- 168 2.00  43 2.35 109 2.35
  77  0.446  0.625  0.154- 103 2.35 110 2.35  44 2.35  46 2.35
  78  0.396  0.275  0.308- 104 2.35 111 2.35  45 2.35  47 2.35
  79  0.596  0.675  0.000-  46 2.35 112 2.35 171 2.47
  80  0.546  0.325  0.154- 106 2.35  47 2.35  49 2.35 113 2.35
  81  0.496  0.975  0.308-  48 2.35 107 2.35 114 2.35  50 2.35
  82  0.696  0.375  0.000- 115 2.35  49 2.35 225 3.03
  83  0.646  0.025  0.154- 109 2.35 116 2.35  50 2.35  52 2.35
  84  0.596  0.675  0.308- 110 2.35 117 2.35  51 2.35  53 2.35
  85  0.796  0.075  0.000- 150 2.31  52 2.35 118 2.35
  86  0.746  0.725  0.154- 112 2.35 119 2.35  53 2.35  55 2.35
  87  0.696  0.375  0.308- 113 2.35  54 2.35 120 2.35  56 2.35
  88  0.896  0.775  0.000-  91 2.35  55 2.35 153 2.73 204 2.91
  89  0.846  0.425  0.154-  92 2.35  58 2.35 115 2.35  56 2.35
  90  0.796  0.075  0.308-  93 2.35  57 2.35 116 2.35  59 2.35
  91  0.996  0.725  0.077-  65 2.35  88 2.35   4 2.35   2 2.35
  92  0.946  0.375  0.231-  66 2.35  89 2.35   5 2.35   3 2.35
  93  0.896  0.025  0.384-  90 2.35   6 2.35 193 2.57
  94  0.096  0.425  0.077-  68 2.35   5 2.35  61 2.35   7 2.35
  95  0.046  0.075  0.231-  69 2.35  62 2.35   8 2.35   6 2.35
  96  0.996  0.725  0.384-  63 2.35   9 2.35 121 2.54
  97  0.196  0.125  0.077-  71 2.35  10 2.35   8 2.35  64 2.35
  98  0.146  0.775  0.231-  72 2.35  11 2.35  65 2.35   9 2.35
  99  0.096  0.425  0.384- 124 1.91  12 2.35  66 2.35
 100  0.296  0.825  0.077-  74 2.35  67 2.35  11 2.35  13 2.35
 101  0.246  0.475  0.231-  75 2.35  68 2.35  14 2.35  12 2.35
 102  0.196  0.125  0.384-  69 2.35  15 2.35 127 2.72
 103  0.396  0.525  0.077-  77 2.35  70 2.35  16 2.35  14 2.35
 104  0.346  0.175  0.231-  78 2.35  17 2.35  71 2.35  15 2.35
 105  0.296  0.825  0.384-  72 2.35  18 2.35 175 2.68
 106  0.496  0.225  0.077-  80 2.35  19 2.35  73 2.35  17 2.35
 107  0.446  0.875  0.231-  81 2.35  20 2.35  74 2.35  18 2.35
 108  0.396  0.525  0.384-  75 2.35  21 2.35 133 2.57
 109  0.596  0.925  0.077-  83 2.35  76 2.35  22 2.35  20 2.35
 110  0.546  0.575  0.231-  84 2.35  77 2.35  23 2.35  21 2.35
 111  0.496  0.225  0.384-  78 2.35  24 2.35 190 2.54
 112  0.696  0.625  0.077-  86 2.35  25 2.35  23 2.35  79 2.35
 113  0.646  0.275  0.231-  87 2.35  26 2.35  24 2.35  80 2.35
 114  0.596  0.925  0.384- 184 1.91  27 2.35  81 2.35
 115  0.796  0.325  0.077-  26 2.35  89 2.35  82 2.35  28 2.35
 116  0.746  0.975  0.231-  83 2.35  90 2.35  27 2.35  29 2.35
 117  0.696  0.625  0.384-  84 2.35  30 2.35 187 2.72
 118  0.896  0.025  0.077-  62 2.35  29 2.35   1 2.35  85 2.35
 119  0.846  0.675  0.231-  63 2.35  86 2.35   2 2.35  30 2.35
 120  0.796  0.325  0.384-  87 2.35   3 2.35 142 2.68
 121  0.088  0.760  0.492- 220 2.47 151 2.47  96 2.54
 122  0.921  0.760  0.652- 152 2.47 221 2.47 169 2.47 220 2.47
 123  0.755  0.760  0.812- 153 2.47 170 2.47 222 2.47 221 2.47
 124  0.088  0.427  0.492-  99 1.91 223 2.47 154 2.47
 125  0.921  0.427  0.652- 155 2.47 224 2.47 172 2.47 223 2.47
 126  0.755  0.427  0.812- 156 2.47 225 2.47 224 2.47 173 2.47
 127  0.088  0.094  0.492- 226 2.47 148 2.47 102 2.72
 128  0.921  0.094  0.652- 149 2.47 227 2.47 226 2.47 166 2.47
 129  0.755  0.094  0.812- 228 2.47 227 2.47 150 2.47 167 2.47
 130  0.421  0.760  0.492-  51 2.38 160 2.47 202 2.47
 131  0.255  0.760  0.652- 161 2.47 151 2.47 203 2.47 202 2.47
 132  0.088  0.760  0.812- 162 2.47 203 2.47 152 2.47 204 2.47
 133  0.421  0.427  0.492- 163 2.47 205 2.47 108 2.57
 134  0.255  0.427  0.652- 164 2.47 206 2.47 154 2.47 205 2.47
 135  0.088  0.427  0.812- 165 2.47 206 2.47 207 2.47 155 2.47
 136  0.421  0.094  0.492-  48 2.28 208 2.47 157 2.47
 137  0.255  0.094  0.652- 158 2.47 209 2.47 208 2.47 148 2.47
 138  0.088  0.094  0.812- 159 2.47 209 2.47 210 2.47 149 2.47
 139  0.755  0.760  0.492-  60 2.31 211 2.47 169 2.47
 140  0.588  0.760  0.652- 170 2.47 212 2.47 160 2.47 211 2.47
 141  0.421  0.760  0.812- 171 2.47 161 2.47 213 2.47 212 2.47
 142  0.755  0.427  0.492- 214 2.47 172 2.47 120 2.68
 143  0.588  0.427  0.652- 215 2.47 173 2.47 163 2.47 214 2.47
 144  0.421  0.427  0.812- 216 2.47 174 2.47 164 2.47 215 2.47
 145  0.755  0.094  0.492-  57 2.21 217 2.47 166 2.47
 146  0.588  0.094  0.652- 218 2.47 167 2.47 157 2.47 217 2.47
 147  0.421  0.094  0.812- 219 2.47 168 2.47 158 2.47 218 2.47
 148  0.171  0.010  0.572- 127 2.47 175 2.47 137 2.47 176 2.47
 149  0.005  0.010  0.732- 128 2.47 176 2.47 138 2.47 177 2.47
 150  0.838  0.010  0.892-  85 2.31 129 2.47 177 2.47
 151  0.171  0.677  0.572- 121 2.47 131 2.47 178 2.47 179 2.47
 152  0.005  0.677  0.732- 122 2.47 132 2.47 179 2.47 180 2.47
 153  0.838  0.677  0.892- 123 2.47 180 2.47  25 2.68  88 2.73
 154  0.171  0.344  0.572- 181 2.47 124 2.47 134 2.47 182 2.47
 155  0.005  0.344  0.732- 125 2.47 182 2.47 183 2.47 135 2.47
 156  0.838  0.344  0.892-  28 2.45 183 2.47 126 2.47
 157  0.505  0.010  0.572- 136 2.47 184 2.47 146 2.47 185 2.47
 158  0.338  0.010  0.732- 137 2.47 185 2.47 147 2.47 186 2.47
 159  0.171  0.010  0.892- 138 2.47 186 2.47  67 3.03
 160  0.505  0.677  0.572- 130 2.47 140 2.47 187 2.47 188 2.47
 161  0.338  0.677  0.732- 131 2.47 141 2.47 188 2.47 189 2.47
 162  0.171  0.677  0.892-   4 2.29 132 2.47 189 2.47
 163  0.505  0.344  0.572- 190 2.47 133 2.47 143 2.47 191 2.47
 164  0.338  0.344  0.732- 134 2.47 191 2.47 144 2.47 192 2.47
 165  0.171  0.344  0.892-   7 2.02 135 2.47 192 2.47
 166  0.838  0.010  0.572- 145 2.47 193 2.47 128 2.47 194 2.47
 167  0.671  0.010  0.732- 146 2.47 195 2.47 194 2.47 129 2.47
 168  0.505  0.010  0.892-  76 2.00 147 2.47 195 2.47
 169  0.838  0.677  0.572- 139 2.47 196 2.47 122 2.47 197 2.47
 170  0.671  0.677  0.732- 140 2.47 123 2.47 198 2.47 197 2.47
 171  0.505  0.677  0.892- 141 2.47 198 2.47  79 2.47
 172  0.838  0.344  0.572- 199 2.47 142 2.47 200 2.47 125 2.47
 173  0.671  0.344  0.732- 143 2.47 201 2.47 200 2.47 126 2.47
 174  0.505  0.344  0.892- 144 2.47 201 2.47  73 2.91  16 2.95
 175  0.255  0.927  0.492- 202 2.47 148 2.47 105 2.68
 176  0.088  0.927  0.652- 203 2.47 220 2.47 149 2.47 148 2.47
 177  0.921  0.927  0.812- 204 2.47 221 2.47 150 2.47 149 2.47
 178  0.255  0.594  0.492-  42 2.21 205 2.47 151 2.47
 179  0.088  0.594  0.652- 206 2.47 223 2.47 152 2.47 151 2.47
 180  0.921  0.594  0.812- 207 2.47 224 2.47 153 2.47 152 2.47
 181  0.255  0.260  0.492-  45 2.31 208 2.47 154 2.47
 182  0.088  0.260  0.652- 209 2.47 226 2.47 155 2.47 154 2.47
 183  0.921  0.260  0.812- 210 2.47 227 2.47 156 2.47 155 2.47
 184  0.588  0.927  0.492- 114 1.91 157 2.47 211 2.47
 185  0.421  0.927  0.652- 212 2.47 202 2.47 158 2.47 157 2.47
 186  0.255  0.927  0.812- 203 2.47 213 2.47 159 2.47 158 2.47
 187  0.588  0.594  0.492- 214 2.47 160 2.47 117 2.72
 188  0.421  0.594  0.652- 215 2.47 205 2.47 161 2.47 160 2.47
 189  0.255  0.594  0.812- 206 2.47 216 2.47 162 2.47 161 2.47
 190  0.588  0.260  0.492- 163 2.47 217 2.47 111 2.54
 191  0.421  0.260  0.652- 164 2.47 218 2.47 208 2.47 163 2.47
 192  0.255  0.260  0.812- 209 2.47 165 2.47 219 2.47 164 2.47
 193  0.921  0.927  0.492- 166 2.47 220 2.47  93 2.57
 194  0.755  0.927  0.652- 221 2.47 211 2.47 167 2.47 166 2.47
 195  0.588  0.927  0.812- 222 2.47 212 2.47 167 2.47 168 2.47
 196  0.921  0.594  0.492-  33 2.28 223 2.47 169 2.47
 197  0.755  0.594  0.652- 224 2.47 214 2.47 170 2.47 169 2.47
 198  0.588  0.594  0.812- 225 2.47 215 2.47 170 2.47 171 2.47
 199  0.921  0.260  0.492-  36 2.38 172 2.47 226 2.47
 200  0.755  0.260  0.652- 227 2.47 217 2.47 173 2.47 172 2.47
 201  0.588  0.260  0.812- 228 2.47 218 2.47 173 2.47 174 2.47
 202  0.338  0.844  0.572- 175 2.47 130 2.47 185 2.47 131 2.47
 203  0.171  0.844  0.732- 176 2.47 132 2.47 186 2.47 131 2.47
 204  0.005  0.844  0.892- 177 2.47 132 2.47  88 2.91   1 2.95
 205  0.338  0.510  0.572- 178 2.47 188 2.47 133 2.47 134 2.47
 206  0.171  0.510  0.732- 179 2.47 189 2.47 135 2.47 134 2.47
 207  0.005  0.510  0.892-  61 2.00 180 2.47 135 2.47
 208  0.338  0.177  0.572- 181 2.47 136 2.47 191 2.47 137 2.47
 209  0.171  0.177  0.732- 182 2.47 192 2.47 138 2.47 137 2.47
 210  0.005  0.177  0.892- 183 2.47 138 2.47  64 2.47
 211  0.671  0.844  0.572- 139 2.47 194 2.47 184 2.47 140 2.47
 212  0.505  0.844  0.732- 140 2.47 195 2.47 185 2.47 141 2.47
 213  0.338  0.844  0.892-  13 2.45 141 2.47 186 2.47
 214  0.671  0.510  0.572- 142 2.47 197 2.47 187 2.47 143 2.47
 215  0.505  0.510  0.732- 198 2.47 188 2.47 143 2.47 144 2.47
 216  0.338  0.510  0.892-  70 2.31 189 2.47 144 2.47
 217  0.671  0.177  0.572- 145 2.47 200 2.47 190 2.47 146 2.47
 218  0.505  0.177  0.732- 146 2.47 201 2.47 191 2.47 147 2.47
 219  0.338  0.177  0.892- 147 2.47 192 2.47  10 2.68  73 2.73
 220  0.005  0.844  0.572- 121 2.47 176 2.47 193 2.47 122 2.47
 221  0.838  0.844  0.732- 194 2.47 177 2.47 122 2.47 123 2.47
 222  0.671  0.844  0.892-  22 2.02 195 2.47 123 2.47
 223  0.005  0.510  0.572- 124 2.47 179 2.47 196 2.47 125 2.47
 224  0.838  0.510  0.732- 197 2.47 180 2.47 125 2.47 126 2.47
 225  0.671  0.510  0.892- 198 2.47 126 2.47  82 3.03
 226  0.005  0.177  0.572- 127 2.47 182 2.47 199 2.47 128 2.47
 227  0.838  0.177  0.732- 200 2.47 183 2.47 128 2.47 129 2.47
 228  0.671  0.177  0.892-  19 2.29 201 2.47 129 2.47
 
  LATTYP: Found a simple tetragonal cell.
 ALAT       =    17.1743316650
 C/A-ratio  =     1.0283369183
  
  Lattice vectors:
  
 A1 = (  17.1743316650,   0.0000000000,   0.0000000000)
 A2 = (   0.0000000000,  17.1743297580,   0.0000000000)
 A3 = (   0.0000000000,   0.0000000000,  17.6609992980)


Analysis of symmetry for initial positions (statically):
=====================================================================
 Subroutine PRICEL returns following result:
 
  LATTYP: Found a simple tetragonal cell.
 ALAT       =    12.1440842512
 C/A-ratio  =     1.4542882718
  
  Lattice vectors:
  
 A1 = (   8.5871648020,  -8.5871638485,   0.0000000000)
 A2 = (   8.5871648020,   8.5871659095,   0.0000000000)
 A3 = (   0.0000000000,   0.0000000000,  17.6609992980)
 
   2 primitive cells build up your supercell.
 

 Routine SETGRP: Setting up the symmetry group for a 
 simple tetragonal supercell.


 Subroutine GETGRP returns: Found  1 space group operations
 (whereof  1 operations were pure point group operations)
 out of a pool of 16 trial point group operations.


The static configuration has the point symmetry C_1 .


Analysis of symmetry for dynamics (positions and initial velocities):
=====================================================================
 Subroutine PRICEL returns following result:
 
  LATTYP: Found a simple tetragonal cell.
 ALAT       =    12.1440842512
 C/A-ratio  =     1.4542882718
  
  Lattice vectors:
  
 A1 = (   8.5871648020,  -8.5871638485,   0.0000000000)
 A2 = (   8.5871648020,   8.5871659095,   0.0000000000)
 A3 = (   0.0000000000,   0.0000000000,  17.6609992980)
 
   2 primitive cells build up your supercell.
 

 Routine SETGRP: Setting up the symmetry group for a 
 simple tetragonal supercell.


 Subroutine GETGRP returns: Found  1 space group operations
 (whereof  1 operations were pure point group operations)
 out of a pool of 16 trial point group operations.


The dynamic configuration has the point symmetry C_1 .


Analysis of structural, dynamic, and magnetic symmetry:
=====================================================================
 Subroutine PRICEL returns following result:
 
  LATTYP: Found a simple tetragonal cell.
 ALAT       =    12.1440842512
 C/A-ratio  =     1.4542882718
  
  Lattice vectors:
  
 A1 = (   8.5871648020,  -8.5871638485,   0.0000000000)
 A2 = (   8.5871648020,   8.5871659095,   0.0000000000)
 A3 = (   0.0000000000,   0.0000000000,  17.6609992980)
 
   2 primitive cells build up your supercell.
 

 Routine SETGRP: Setting up the symmetry group for a 
 simple tetragonal supercell.


 Subroutine GETGRP returns: Found  1 space group operations
 (whereof  1 operations were pure point group operations)
 out of a pool of 16 trial point group operations.


The overall configuration has the point symmetry C_1 .


 Subroutine INISYM returns: Found  1 space group operations
 (whereof  1 operations are pure point group operations),
 and found     2 'primitive' translations


----------------------------------------------------------------------------------------

                                     Primitive cell                                     

  volume of cell :    2604.6230

  direct lattice vectors                    reciprocal lattice vectors
     8.587164802 -8.587163849  0.000000000     0.058226443 -0.058226435  0.000000000
     8.587164802  8.587165909  0.000000000     0.058226429  0.058226435  0.000000000
     0.000000000  0.000000000 17.660999298     0.000000000  0.000000000  0.056621938

  length of vectors
    12.144084251 12.144085708 17.660999298     0.082344620  0.082344610  0.056621938

  position of ions in fractional coordinates (direct lattice)
     0.021573902  0.971235037  0.000000000
     0.321573961  0.571234942  0.153756857
     0.621574020  0.171234727  0.307513803
     0.421573691  0.771235138  0.000000000
     0.721573696  0.371234987  0.153756857
     0.021573962  0.971234739  0.307513803
     0.821573902  0.571235299  0.000000000
     0.121573779  0.171234938  0.153756857
     0.421573848  0.771234699  0.307513803
     0.221573804  0.371235051  0.000000000
     0.521573916  0.971234963  0.153756857
     0.821573961  0.571234762  0.307513803
     0.621574021  0.171235204  0.000000000
     0.921574020  0.771235049  0.153756857
     0.221573915  0.371234760  0.307513803
     0.771573976  0.221235081  0.076878466
     0.071573961  0.821234822  0.230635315
     0.371573927  0.421234880  0.384392172
     0.171573773  0.021234982  0.076878466
     0.471573766  0.621234819  0.230635315
     0.771574081  0.221234620  0.384392172
     0.571574021  0.821235180  0.076878466
     0.871573826  0.421234891  0.230635315
     0.171573789  0.021234758  0.384392172
     0.971573961  0.621235192  0.076878466
     0.271573886  0.221234843  0.230635315
     0.571574021  0.821234822  0.384392172
     0.371573871  0.421235054  0.076878466
     0.671574036  0.021234915  0.230635315
     0.971574021  0.621234774  0.384392172
     0.521573901  0.471235036  0.000000000
     0.821573961  0.071234942  0.153756857
     0.121574020  0.671234727  0.307513803
     0.921573744  0.271235041  0.000000000
     0.221573732  0.871234905  0.153756857
     0.521574021  0.471234680  0.307513803
     0.321573796  0.071235075  0.000000000
     0.621573920  0.671234887  0.153756857
     0.921573848  0.271234699  0.307513803
     0.721573976  0.871235057  0.000000000
     0.021573781  0.471234918  0.153756857
     0.321573811  0.071234732  0.307513803
     0.121574021  0.671235204  0.000000000
     0.421573841  0.271234990  0.153756857
     0.721574073  0.871234842  0.307513803
     0.271573842  0.721235097  0.076878466
     0.571573901  0.321234882  0.230635315
     0.871573942  0.921234805  0.384392172
     0.671573901  0.521235108  0.076878466
     0.971573748  0.121234875  0.230635315
     0.271573962  0.721234739  0.384392172
     0.071573803  0.321235068  0.076878466
     0.371573796  0.921234921  0.230635315
     0.671573901  0.521234870  0.384392172
     0.471573752  0.121235103  0.076878466
     0.771573961  0.721234798  0.230635315
     0.071573811  0.321234732  0.384392172
     0.871573975  0.921235012  0.076878466
     0.171573961  0.521234870  0.230635315
     0.471573751  0.121234864  0.384392172
     0.327638946  0.848106563  0.491973817
     0.160972519  0.681439936  0.652151644
     0.994305733  0.514773190  0.812329412
     0.660972379  0.514773130  0.491973817
     0.494305652  0.348106443  0.652151644
     0.327638926  0.181439757  0.812329412
     0.994305513  0.181439996  0.491973817
     0.827639086  0.014773369  0.652151644
     0.660972300  0.848106623  0.812329412
     0.660972399  0.181439936  0.491973817
     0.494305642  0.014773219  0.652151644
     0.327638946  0.848106563  0.812329412
     0.994305832  0.848106503  0.491973817
     0.827639106  0.681439817  0.652151644
     0.660972379  0.514773130  0.812329412
     0.327639145  0.514773190  0.491973817
     0.160972209  0.348106652  0.652151644
     0.994305513  0.181439996  0.812329412
     0.994305733  0.514773190  0.491973817
     0.827638886  0.348106623  0.652151644
     0.660972399  0.181439936  0.812329412
     0.327639045  0.181439876  0.491973817
     0.160972319  0.014773190  0.652151644
     0.994305832  0.848106503  0.812329412
     0.660972300  0.848106623  0.491973817
     0.494305632  0.681439877  0.652151644
     0.327639145  0.514773190  0.812329412
     0.160972249  0.181439966  0.572062671
     0.994305493  0.014773250  0.732240498
     0.827639066  0.848106623  0.892418325
     0.494305562  0.848106653  0.572062671
     0.327638806  0.681439937  0.732240498
     0.160972379  0.514773310  0.892418325
     0.827639145  0.514773250  0.572062671
     0.660972179  0.348106564  0.732240498
     0.494305632  0.181439817  0.892418325
     0.494305612  0.514773369  0.572062671
     0.327638886  0.348106563  0.732240498
     0.160972130  0.181439847  0.892418325
     0.827638910  0.181440071  0.572062671
     0.660972364  0.014773325  0.732240498
     0.494305443  0.848106534  0.892418325
     0.160972358  0.848106623  0.572062671
     0.994305812  0.681439877  0.732240498
     0.827639025  0.514773130  0.892418325
     0.827639066  0.848106623  0.572062671
     0.660972279  0.681439876  0.732240498
     0.494305493  0.514773250  0.892418325
     0.160972379  0.514773310  0.572062671
     0.994305487  0.348106608  0.732240498
     0.827638791  0.181439952  0.892418325
     0.494305662  0.181439847  0.572062671
     0.327638935  0.014773160  0.732240498
     0.160972239  0.848106504  0.892418325

  ion indices of the primitive-cell ions
   primitive index   ion index
                 1           1
                 2           2
                 3           3
                 4           4
                 5           5
                 6           6
                 7          22
                 8           8
                 9           9
                10          10
                11          26
                12          27
                13          28
                14          29
                15          15
                16          31
                17          32
                18          48
                19          34
                20          35
                21          36
                22          52
                23          38
                24          39
                25          55
                26          41
                27          57
                28          43
                29          59
                30          60
                31          76
                32          62
                33          63
                34          64
                35          65
                36          66
                37          67
                38          83
                39          69
                40          85
                41          71
                42          72
                43          88
                44          74
                45          90
                46          91
                47          92
                48          93
                49         109
                50          95
                51          96
                52          97
                53          98
                54         114
                55         100
                56         116
                57         102
                58         118
                59         119
                60         105
                61         121
                62         122
                63         123
                64         184
                65         185
                66         186
                67         127
                68         128
                69         129
                70         199
                71         131
                72         132
                73         193
                74         194
                75         195
                76         196
                77         137
                78         138
                79         139
                80         182
                81         183
                82         175
                83         176
                84         177
                85         145
                86         179
                87         180
                88         148
                89         149
                90         150
                91         151
                92         152
                93         153
                94         211
                95         155
                96         213
                97         223
                98         158
                99         159
               100         226
               101         227
               102         162
               103         220
               104         221
               105         222
               106         166
               107         167
               108         207
               109         169
               110         209
               111         210
               112         202
               113         203
               114         204

----------------------------------------------------------------------------------------

 
 
 KPOINTS: Automatic KPOINTS generated             

Automatic generation of k-mesh.
 Grid dimensions read from file:
 generate k-points for:    2    2    2

 Generating k-lattice:

  Cartesian coordinates                     Fractional coordinates (reciprocal lattice)
     0.029113214  0.000000000  0.000000000     0.500000000  0.000000000  0.000000000
     0.000000000  0.029113218  0.000000000     0.000000000  0.500000000  0.000000000
     0.000000000  0.000000000  0.028310969     0.000000000  0.000000000  0.500000000

  Length of vectors
     0.029113214  0.029113218  0.028310969

  Shift w.r.t. Gamma in fractional coordinates (k-lattice)
     0.000000000  0.000000000  0.000000000

 
 Subroutine IBZKPT returns following result:
 ===========================================
 
 Found      8 irreducible k-points:
 
 Following reciprocal coordinates:
            Coordinates               Weight
  0.000000  0.000000  0.000000      1.000000
  0.500000  0.000000  0.000000      1.000000
  0.000000  0.500000  0.000000      1.000000
  0.500000  0.500000  0.000000      1.000000
  0.000000  0.000000  0.500000      1.000000
  0.500000  0.000000  0.500000      1.000000
  0.000000  0.500000  0.500000      1.000000
  0.500000  0.500000  0.500000      1.000000
 
 Following cartesian coordinates:
            Coordinates               Weight
  0.000000  0.000000  0.000000      1.000000
  0.029113  0.000000  0.000000      1.000000
  0.000000  0.029113  0.000000      1.000000
  0.029113  0.029113  0.000000      1.000000
  0.000000  0.000000  0.028311      1.000000
  0.029113  0.000000  0.028311      1.000000
  0.000000  0.029113  0.028311      1.000000
  0.029113  0.029113  0.028311      1.000000
 


--------------------------------------------------------------------------------------------------------




 Dimension of arrays:
   k-points           NKPTS =      8   k-points in BZ     NKDIM =      8   number of bands    NBANDS=    548
   number of dos      NEDOS =    301   number of ions     NIONS =    228
   non local maximal  LDIM  =      5   non local SUM 2l+1 LMDIM =     13
   total plane-waves  NPLWV = ******
   max r-space proj   IRMAX =   2391   max aug-charges    IRDMAX= 125827
   dimension x,y,z NGX =   112 NGY =  112 NGZ =  120
   dimension x,y,z NGXF=   224 NGYF=  224 NGZF=  240
   support grid    NGXF=   448 NGYF=  448 NGZF=  480
   ions per type =             120 108
   NGX,Y,Z   is equivalent  to a cutoff of  10.84, 10.84, 11.30 a.u.
   NGXF,Y,Z  is equivalent  to a cutoff of  21.68, 21.68, 22.59 a.u.

 SYSTEM =  Si and Ge interface calculation         
 POSCAR =  Si+Ge                                   

 Startparameter for this run:
   NWRITE =      2    write-flag & timer
   PREC   = normal    normal or accurate (medium, high low for compatibility)
   ISTART =      0    job   : 0-new  1-cont  2-samecut
   ICHARG =      2    charge: 1-file 2-atom 10-const
   ISPIN  =      2    spin polarized calculation?
   LNONCOLLINEAR =      F non collinear calculations
   LSORBIT =      F    spin-orbit coupling
   INIWAV =      1    electr: 0-lowe 1-rand  2-diag
   LASPH  =      T    aspherical Exc in radial PAW
 Electronic Relaxation 1
   ENCUT  =  700.0 eV  51.45 Ry    7.17 a.u.  37.05 37.05 38.10*2*pi/ulx,y,z
   ENINI  =  700.0     initial cutoff
   ENAUG  =  900.0 eV  augmentation charge cutoff
   NELM   =    100;   NELMIN=  2; NELMDL= -5     # of ELM steps 
   EDIFF  = 0.1E-06   stopping-criterion for ELM
   LREAL  =      T    real-space projection
   NLSPLINE    = F    spline interpolate recip. space projectors
   LCOMPAT=      F    compatible to vasp.4.4
   GGA_COMPAT  = T    GGA compatible to vasp.4.4-vasp.4.6
   LMAXPAW     = -100 max onsite density
   LMAXMIX     =    6 max onsite mixed and CHGCAR
   VOSKOWN=      0    Vosko Wilk Nusair interpolation
   ROPT   =   -0.00050  -0.00050
 Ionic relaxation
   EDIFFG = 0.1E-05   stopping-criterion for IOM
   NSW    =      0    number of steps for IOM
   NBLOCK =      1;   KBLOCK =      1    inner block; outer block 
   IBRION =     -1    ionic relax: 0-MD 1-quasi-New 2-CG
   NFREE  =      0    steps in history (QN), initial steepest desc. (CG)
   ISIF   =      2    stress and relaxation
   IWAVPR =     10    prediction:  0-non 1-charg 2-wave 3-comb
   ISYM   =      2    0-nonsym 1-usesym 2-fastsym
   LCORR  =      T    Harris-Foulkes like correction to forces

   POTIM  = 0.5000    time-step for ionic-motion
   TEIN   =    0.0    initial temperature
   TEBEG  =    0.0;   TEEND  =   0.0 temperature during run
   SMASS  =  -3.00    Nose mass-parameter (am)
   estimated Nose-frequenzy (Omega)   =  0.10E-29 period in steps = 0.13E+47 mass=  -0.674E-26a.u.
   SCALEE = 1.0000    scale energy and forces
   NPACO  =    256;   APACO  = 10.0  distance and # of slots for P.C.
   PSTRESS=    0.0 pullay stress

  Mass of Ions in am
   POMASS =  28.09 72.61
  Ionic Valenz
   ZVAL   =   4.00  4.00
  Atomic Wigner-Seitz radii
   RWIGS  =  -1.00 -1.00
  virtual crystal weights 
   VCA    =   1.00  1.00
   NELECT =     912.0000    total number of electrons
   NUPDOWN=       1.0000    fix difference up-down

 DOS related values:
   EMIN   =  10.00;   EMAX   =-10.00  energy-range for DOS
   EFERMI =   0.00;   METHOD = LEGACY      
   ISMEAR =     0;   SIGMA  =   0.01  broadening in eV -4-tet -1-fermi 0-gaus

 Electronic relaxation 2 (details)
   IALGO  =     38    algorithm
   LDIAG  =      T    sub-space diagonalisation (order eigenvalues)
   LSUBROT=      F    optimize rotation matrix (better conditioning)
   TURBO    =      0    0=normal 1=particle mesh
   IRESTART =      0    0=no restart 2=restart with 2 vectors
   NREBOOT  =      0    no. of reboots
   NMIN     =      0    reboot dimension
   EREF     =   0.00    reference energy to select bands
   IMIX   =      4    mixing-type and parameters
     AMIX     =   0.60;   BMIX     =  1.00
     AMIX_MAG =   2.40;   BMIX_MAG =  1.00
     AMIN     =   0.10
     WC   =   100.;   INIMIX=   1;  MIXPRE=   1;  MAXMIX= -45

 Intra band minimization:
   WEIMIN = 0.0000     energy-eigenvalue tresh-hold
   EBREAK =  0.46E-10  absolut break condition
   DEPER  =   0.30     relativ break condition  

   TIME   =   0.40     timestep for ELM

  volume/ion in A,a.u.               =      22.85       154.18
  Fermi-wavevector in a.u.,A,eV,Ry     =   0.915830  1.730668 11.411810  0.838744
  Thomas-Fermi vector in A             =   2.040616
 
 Write flags
   LWAVE        =      F    write WAVECAR
   LDOWNSAMPLE  =      F    k-point downsampling of WAVECAR
   LCHARG       =      T    write CHGCAR
   LVTOT        =      F    write LOCPOT, total local potential
   LVHAR        =      T    write LOCPOT, Hartree potential only
   WRT_POTENTIAL=  hartree ionic  ! write potential to hdf5 file
   LELF         =      F    write electronic localiz. function (ELF)
   LORBIT       =      0    0 simple, 1 ext, 2 COOP (PROOUT), +10 PAW based schemes


 Dipole corrections
   LMONO      =      F    monopole corrections only (constant potential shift)
   LDIPOL     =      F    correct potential (dipole corrections)
   IDIPOL     =      0    1-x, 2-y, 3-z, 4-all directions 
   EPSILON    =  1.0000000 bulk dielectric constant
   LVACPOTAV  =      F  vacuum potentials using an averaging scheme for the charge density
   VACPOTFLAT =  0.1000000 required flatness to determine vacuum potential
 Exchange correlation treatment:
   GGA     = PE    functional components
   XC_C    = 1    coefficients multiplying the functional components
   LIBXC   =     F    Libxc                    
   VOSKOWN =     0    Vosko Wilk Nusair interpolation
   LHFCALC =     F    Hartree Fock is set to
   LHFONE  =     F    Hartree Fock one center treatment
   AEXX    =    0.0000 exact exchange contribution

 Parameters of functionals:
   PE:
     No parameter
 
 Van der Waals corrections
   IVDW    =     0    specifies the selected vdW correction

 Linear response parameters
   LEPSILON=     F    determine dielectric tensor
   LRPA    =     F    only Hartree local field effects (RPA)
   LNABLA  =     F    use nabla operator in PAW spheres
   LVEL    =     F    velocity operator in full k-point grid
   CSHIFT  =0.1000    complex shift for real part using Kramers Kronig
   OMEGAMAX=  -1.0    maximum frequency
   DEG_THRESHOLD= 0.2000000E-02 threshold for treating states as degnerate
   RTIME   =   -0.100 relaxation time in fs
  (WPLASMAI=    0.000 imaginary part of plasma frequency in eV, 0.658/RTIME)
   DFIELD  = 0.0000000 0.0000000 0.0000000 field for delta impulse in time
 
  Optional k-point grid parameters
   LKPOINTS_OPT  =     F    use optional k-point grid
   KPOINTS_OPT_MODE=     1    mode for optional k-point grid
 
 Orbital magnetization related:
   ORBITALMAG=     F  switch on orbital magnetization
   LCHIMAG   =     F  perturbation theory with respect to B field
   DQ        =  0.001000  dq finite difference perturbation B field
   LLRAUG    =     F  two centre corrections for induced B field
   LBONE     =     F  B-component reconstruction in AE one-centre
   LVGVCALC  =     T  calculate vGv susceptibility
   LVGVAPPL  =     F  apply vGv susceptibility instead of pGv for G=0

 Random number generation:
   RANDOM_GENERATOR = DEFAULT
   PCG_SEED         = not used


--------------------------------------------------------------------------------------------------------


 Static calculation
 charge density and potential will be updated during run
 spin polarized calculation
 Variant of blocked Davidson
 Davidson routine will perform the subspace rotation
 perform sub-space diagonalisation
    after iterative eigenvector-optimisation
 modified Broyden-mixing scheme, WC =      100.0
 initial mixing is a Kerker type mixing with AMIX =  0.6000 and BMIX =      1.0000
 Hartree-type preconditioning will be used
 using additional bands           92
 real space projection scheme for non local part
 use partial core corrections
 calculate Harris-corrections to forces 
   (improved forces if not selfconsistent)
 use gradient corrections 
 use of overlap-Matrix (Vanderbilt PP)
 Gauss-broadening in eV      SIGMA  =   0.01


--------------------------------------------------------------------------------------------------------


  energy-cutoff  :      700.00
  volume of cell :     5209.25
      direct lattice vectors                 reciprocal lattice vectors
    17.174331665  0.000000000  0.000000000     0.058226429  0.000000000  0.000000000
     0.000000000 17.174329758  0.000000000     0.000000000  0.058226435  0.000000000
     0.000000000  0.000000000 17.660999298     0.000000000  0.000000000  0.056621938

  length of vectors
    17.174331665 17.174329758 17.660999298     0.058226429  0.058226435  0.056621938


 
 k-points in units of 2pi/SCALE and weight: Automatic KPOINTS generated             
   0.00000000  0.00000000  0.00000000       0.125
   0.02911321  0.00000000  0.00000000       0.125
   0.00000000  0.02911322  0.00000000       0.125
   0.02911321  0.02911322  0.00000000       0.125
   0.00000000  0.00000000  0.02831097       0.125
   0.02911321  0.00000000  0.02831097       0.125
   0.00000000  0.02911322  0.02831097       0.125
   0.02911321  0.02911322  0.02831097       0.125
 
 k-points in reciprocal lattice and weights: Automatic KPOINTS generated             
   0.00000000  0.00000000  0.00000000       0.125
   0.50000000  0.00000000  0.00000000       0.125
   0.00000000  0.50000000  0.00000000       0.125
   0.50000000  0.50000000  0.00000000       0.125
   0.00000000  0.00000000  0.50000000       0.125
   0.50000000  0.00000000  0.50000000       0.125
   0.00000000  0.50000000  0.50000000       0.125
   0.50000000  0.50000000  0.50000000       0.125
 
 position of ions in fractional coordinates (direct lattice) 
   0.99640435  0.97483069  0.00000000
   0.94640434  0.62483060  0.15375686
   0.89640427  0.27483046  0.30751380
   0.09640440  0.67483074  0.00000000
   0.04640434  0.32483065  0.15375686
   0.99640423  0.97483051  0.30751380
   0.19640441  0.37483066  0.00000000
   0.14640434  0.02483060  0.15375686
   0.09640426  0.67483044  0.30751380
   0.29640439  0.07483066  0.00000000
   0.24640430  0.72483063  0.15375686
   0.19640423  0.37483042  0.30751380
   0.39640445  0.77483070  0.00000000
   0.34640437  0.42483059  0.15375686
   0.29640430  0.07483046  0.30751380
   0.49640438  0.47483069  0.00000000
   0.44640431  0.12483060  0.15375686
   0.39640424  0.77483046  0.30751380
   0.59640437  0.17483065  0.00000000
   0.54640430  0.82483059  0.15375686
   0.49640426  0.47483045  0.30751380
   0.69640452  0.87483078  0.00000000
   0.64640445  0.52483064  0.15375686
   0.59640437  0.17483054  0.30751380
   0.79640442  0.57483071  0.00000000
   0.74640435  0.22483061  0.15375686
   0.69640428  0.87483048  0.30751380
   0.89640450  0.27483070  0.00000000
   0.84640443  0.92483062  0.15375686
   0.79640436  0.57483047  0.30751380
   0.99640441  0.22483067  0.07687847
   0.94640428  0.87483054  0.23063532
   0.89640427  0.52483046  0.38439217
   0.09640437  0.92483062  0.07687847
   0.04640429  0.57483053  0.23063532
   0.99640423  0.22483039  0.38439217
   0.19640441  0.62483066  0.07687847
   0.14640434  0.27483055  0.23063532
   0.09640426  0.92483050  0.38439217
   0.29640442  0.32483062  0.07687847
   0.24640434  0.97483051  0.23063532
   0.19640426  0.62483048  0.38439217
   0.39640441  0.02483064  0.07687847
   0.34640431  0.67483056  0.23063532
   0.29640424  0.32483047  0.38439217
   0.49640450  0.72483069  0.07687847
   0.44640443  0.37483057  0.23063532
   0.39640436  0.02483052  0.38439217
   0.59640437  0.42483059  0.07687847
   0.54640430  0.07483050  0.23063532
   0.49640426  0.72483045  0.38439217
   0.69640452  0.12483066  0.07687847
   0.64640439  0.77483058  0.23063532
   0.59640437  0.42483050  0.38439217
   0.79640448  0.82483071  0.07687847
   0.74640441  0.47483057  0.23063532
   0.69640434  0.12483048  0.38439217
   0.89640445  0.52483064  0.07687847
   0.84640437  0.17483054  0.23063532
   0.79640430  0.82483047  0.38439217
   0.99640441  0.47483069  0.00000000
   0.94640434  0.12483060  0.15375686
   0.89640427  0.77483046  0.30751380
   0.09640438  0.17483066  0.00000000
   0.04640431  0.82483059  0.15375686
   0.99640423  0.47483045  0.30751380
   0.19640441  0.87483066  0.00000000
   0.14640433  0.52483058  0.15375686
   0.09640426  0.17483044  0.30751380
   0.29640442  0.57483065  0.00000000
   0.24640432  0.22483060  0.15375686
   0.19640425  0.87483048  0.30751380
   0.39640445  0.27483067  0.00000000
   0.34640437  0.92483062  0.15375686
   0.29640430  0.57483047  0.30751380
   0.49640441  0.97483063  0.00000000
   0.44640434  0.62483054  0.15375686
   0.39640424  0.27483040  0.30751380
   0.59640437  0.67483068  0.00000000
   0.54640430  0.32483059  0.15375686
   0.49640423  0.97483045  0.30751380
   0.69640440  0.37483063  0.00000000
   0.64640433  0.02483056  0.15375686
   0.59640425  0.67483044  0.30751380
   0.79640442  0.07483064  0.00000000
   0.74640435  0.72483051  0.15375686
   0.69640428  0.37483042  0.30751380
   0.89640450  0.77483070  0.00000000
   0.84640443  0.42483062  0.15375686
   0.79640436  0.07483048  0.30751380
   0.99640435  0.72483075  0.07687847
   0.94640428  0.37483060  0.23063532
   0.89640427  0.02483054  0.38439217
   0.09640439  0.42483068  0.07687847
   0.04640431  0.07483057  0.23063532
   0.99640423  0.72483051  0.38439217
   0.19640441  0.12483066  0.07687847
   0.14640434  0.77483058  0.23063532
   0.09640427  0.42483050  0.38439217
   0.29640439  0.82483071  0.07687847
   0.24640432  0.47483057  0.23063532
   0.19640425  0.12483048  0.38439217
   0.39640441  0.52483076  0.07687847
   0.34640434  0.17483065  0.23063532
   0.29640427  0.82483059  0.38439217
   0.49640441  0.22483064  0.07687847
   0.44640434  0.87483054  0.23063532
   0.39640424  0.52483046  0.38439217
   0.59640443  0.92483068  0.07687847
   0.54640436  0.57483059  0.23063532
   0.49640429  0.22483051  0.38439217
   0.69640446  0.62483072  0.07687847
   0.64640439  0.27483058  0.23063532
   0.59640431  0.92483056  0.38439217
   0.79640436  0.32483062  0.07687847
   0.74640429  0.97483051  0.23063532
   0.69640422  0.62483048  0.38439217
   0.89640439  0.02483063  0.07687847
   0.84640431  0.67483056  0.23063532
   0.79640424  0.32483041  0.38439217
   0.08787274  0.76023382  0.49197382
   0.92120612  0.76023382  0.65215164
   0.75453937  0.76023382  0.81232941
   0.08787274  0.42690054  0.49197382
   0.92120612  0.42690054  0.65215164
   0.75453937  0.42690054  0.81232941
   0.08787274  0.09356725  0.49197382
   0.92120612  0.09356725  0.65215164
   0.75453937  0.09356725  0.81232941
   0.42120606  0.76023382  0.49197382
   0.25453940  0.76023382  0.65215164
   0.08787274  0.76023382  0.81232941
   0.42120606  0.42690054  0.49197382
   0.25453940  0.42690054  0.65215164
   0.08787274  0.42690054  0.81232941
   0.42120606  0.09356725  0.49197382
   0.25453940  0.09356725  0.65215164
   0.08787274  0.09356725  0.81232941
   0.75453937  0.76023382  0.49197382
   0.58787268  0.76023382  0.65215164
   0.42120600  0.76023382  0.81232941
   0.75453937  0.42690054  0.49197382
   0.58787268  0.42690054  0.65215164
   0.42120600  0.42690054  0.81232941
   0.75453937  0.09356725  0.49197382
   0.58787268  0.09356725  0.65215164
   0.42120600  0.09356725  0.81232941
   0.17120609  0.01023388  0.57206267
   0.00453937  0.01023388  0.73224050
   0.83787274  0.01023388  0.89241833
   0.17120609  0.67690057  0.57206267
   0.00453937  0.67690057  0.73224050
   0.83787274  0.67690057  0.89241833
   0.17120609  0.34356719  0.57206267
   0.00453937  0.34356719  0.73224050
   0.83787274  0.34356719  0.89241833
   0.50453937  0.01023388  0.57206267
   0.33787268  0.01023388  0.73224050
   0.17120597  0.01023388  0.89241833
   0.50453937  0.67690057  0.57206267
   0.33787268  0.67690057  0.73224050
   0.17120597  0.67690057  0.89241833
   0.50453937  0.34356719  0.57206267
   0.33787268  0.34356719  0.73224050
   0.17120597  0.34356719  0.89241833
   0.83787274  0.01023388  0.57206267
   0.67120600  0.01023388  0.73224050
   0.50453931  0.01023388  0.89241833
   0.83787274  0.67690057  0.57206267
   0.67120600  0.67690057  0.73224050
   0.50453931  0.67690057  0.89241833
   0.83787274  0.34356719  0.57206267
   0.67120600  0.34356719  0.73224050
   0.50453931  0.34356719  0.89241833
   0.25453943  0.92690045  0.49197382
   0.08787274  0.92690045  0.65215164
   0.92120606  0.92690045  0.81232941
   0.25453943  0.59356713  0.49197382
   0.08787274  0.59356713  0.65215164
   0.92120606  0.59356713  0.81232941
   0.25453943  0.26023388  0.49197382
   0.08787274  0.26023388  0.65215164
   0.92120606  0.26023388  0.81232941
   0.58787268  0.92690045  0.49197382
   0.42120600  0.92690045  0.65215164
   0.25453931  0.92690045  0.81232941
   0.58787268  0.59356713  0.49197382
   0.42120600  0.59356713  0.65215164
   0.25453931  0.59356713  0.81232941
   0.58787268  0.26023388  0.49197382
   0.42120600  0.26023388  0.65215164
   0.25453931  0.26023388  0.81232941
   0.92120606  0.92690045  0.49197382
   0.75453937  0.92690045  0.65215164
   0.58787268  0.92690045  0.81232941
   0.92120606  0.59356713  0.49197382
   0.75453937  0.59356713  0.65215164
   0.58787268  0.59356713  0.81232941
   0.92120606  0.26023388  0.49197382
   0.75453937  0.26023388  0.65215164
   0.58787268  0.26023388  0.81232941
   0.33787271  0.84356713  0.57206267
   0.17120603  0.84356713  0.73224050
   0.00453937  0.84356713  0.89241833
   0.33787271  0.51023388  0.57206267
   0.17120603  0.51023388  0.73224050
   0.00453937  0.51023388  0.89241833
   0.33787271  0.17690058  0.57206267
   0.17120603  0.17690058  0.73224050
   0.00453937  0.17690058  0.89241833
   0.67120612  0.84356713  0.57206267
   0.50453937  0.84356713  0.73224050
   0.33787268  0.84356713  0.89241833
   0.67120612  0.51023388  0.57206267
   0.50453937  0.51023388  0.73224050
   0.33787268  0.51023388  0.89241833
   0.67120612  0.17690058  0.57206267
   0.50453937  0.17690058  0.73224050
   0.33787268  0.17690058  0.89241833
   0.00453949  0.84356713  0.57206267
   0.83787274  0.84356713  0.73224050
   0.67120600  0.84356713  0.89241833
   0.00453949  0.51023388  0.57206267
   0.83787274  0.51023388  0.73224050
   0.67120600  0.51023388  0.89241833
   0.00453949  0.17690058  0.57206267
   0.83787274  0.17690058  0.73224050
   0.67120600  0.17690058  0.89241833
 
 position of ions in cartesian coordinates  (Angst):
  17.11257878 16.74206368  0.00000000
  16.25386199 10.73104684  2.71549974
  15.39514417  4.72002896  5.43100106
   1.65568119 11.58976557  0.00000000
   0.79696346  5.57874872  2.71549974
  17.11257674 16.74206060  5.43100106
   3.37311451  6.43746541  0.00000000
   2.51439671  0.42644886  2.71549974
   1.65567877 11.58976046  5.43100106
   5.09054734  1.28516641  0.00000000
   4.23182926 12.44848021  2.71549974
   3.37311146  6.43746132  5.43100106
   6.80798141 13.30719793  0.00000000
   5.94926361  7.29618058  2.71549974
   5.09054579  1.28516296  5.43100106
   8.52541346  8.15489880  0.00000000
   7.66669564  2.14388196  2.71549974
   6.80797784 13.30719384  5.43100106
  10.24284653  3.00259915  0.00000000
   9.38412871 14.16591258  2.71549974
   8.52541140  8.15489471  5.43100106
  11.96028215 15.02463233  0.00000000
  11.10156433  9.01361446  2.71549974
  10.24284653  3.00259736  5.43100106
  13.67771367  9.87233219  0.00000000
  12.81899586  3.86131509  2.71549974
  11.96027804 15.02462721  5.43100106
  15.39514827  4.72003305  0.00000000
  14.53643046 15.88334597  2.71549974
  13.67771265  9.87232808  5.43100106
  17.11257979  3.86131610  1.35775053
  16.25386096 15.02462825  4.07325014
  15.39514417  9.01361140  6.78874988
   1.65568056 15.88334597  1.35775053
   0.79696262  9.87232911  4.07325014
  17.11257674  3.86131124  6.78874988
   3.37311451 10.73104785  1.35775053
   2.51439671  4.72003049  4.07325014
   1.65567877 15.88334391  6.78874988
   5.09054783  5.57874820  1.35775053
   4.23182977 16.74206060  4.07325014
   3.37311195 10.73104478  6.78874988
   6.80798090  0.42644958  1.35775053
   5.94926258 11.58976250  4.07325014
   5.09054478  5.57874564  6.78874988
   8.52541551 12.44848124  1.35775053
   7.66669769  6.43746388  4.07325014
   6.80797988  0.42644761  6.78874988
  10.24284653  7.29618058  1.35775053
   9.38412871  1.28516360  4.07325014
   8.52541140 12.44847715  6.78874988
  11.96028215  2.14388297  1.35775053
  11.10156331 13.30719589  4.07325014
  10.24284653  7.29617903  6.78874988
  13.67771470 14.16591463  1.35775053
  12.81899688  8.15489675  4.07325014
  11.96027907  2.14387990  6.78874988
  15.39514724  9.01361446  1.35775053
  14.53642944  3.00259736  4.07325014
  13.67771162 14.16591052  6.78874988
  17.11257979  8.15489880  0.00000000
  16.25386199  2.14388196  2.71549974
  15.39514417 13.30719384  5.43100106
   1.65568081  3.00259941  0.00000000
   0.79696306 14.16591258  2.71549974
  17.11257674  8.15489471  5.43100106
   3.37311451 15.02463029  0.00000000
   2.51439645  9.01361345  2.71549974
   1.65567877  3.00259558  5.43100106
   5.09054783  9.87233116  0.00000000
   4.23182952  3.86131483  2.71549974
   3.37311170 15.02462721  5.43100106
   6.80798141  4.72003254  0.00000000
   5.94926361 15.88334597  2.71549974
   5.09054579  9.87232808  5.43100106
   8.52541396 16.74206265  0.00000000
   7.66669616 10.73104581  2.71549974
   6.80797784  4.72002793  5.43100106
  10.24284653 11.58976454  0.00000000
   9.38412871  5.57874770  2.71549974
   8.52541090 16.74205959  5.43100106
  11.96028009  6.43746489  0.00000000
  11.10156228  0.42644824  2.71549974
  10.24284446 11.58976046  5.43100106
  13.67771367  1.28516602  0.00000000
  12.81899586 12.44847816  2.71549974
  11.96027804  6.43746132  5.43100106
  15.39514827 13.30719793  0.00000000
  14.53643046  7.29618109  2.71549974
  13.67771265  1.28516334  5.43100106
  17.11257878 12.44848227  1.35775053
  16.25386096  6.43746440  4.07325014
  15.39514417  0.42644786  6.78874988
   1.65568095  7.29618210  1.35775053
   0.79696294  1.28516487  4.07325014
  17.11257674 12.44847816  6.78874988
   3.37311451  2.14388285  1.35775053
   2.51439671 13.30719589  4.07325014
   1.65567889  7.29617903  6.78874988
   5.09054734 14.16591463  1.35775053
   4.23182952  8.15489675  4.07325014
   3.37311170  2.14387990  6.78874988
   6.80798090  9.01361652  1.35775053
   5.94926309  3.00259915  4.07325014
   5.09054527 14.16591258  6.78874988
   8.52541396  3.86131559  1.35775053
   7.66669616 15.02462825  4.07325014
   6.80797784  9.01361140  6.78874988
  10.24284754 15.88334698  1.35775053
   9.38412974  9.87233014  4.07325014
   8.52541192  3.86131328  6.78874988
  11.96028112 10.73104888  1.35775053
  11.10156331  4.72003101  4.07325014
  10.24284550 15.88334494  6.78874988
  13.67771265  5.57874820  1.35775053
  12.81899483 16.74206060  4.07325014
  11.96027703 10.73104478  6.78874988
  15.39514623  0.42644936  1.35775053
  14.53642841 11.58976250  4.07325014
  13.67771061  5.57874463  6.78874988
   1.50915565 13.05650630  8.68874924
  15.82109939 13.05650630 11.51764973
  12.95870941 13.05650630 14.34654918
   1.50915565  7.33173058  8.68874924
  15.82109939  7.33173058 11.51764973
  12.95870941  7.33173058 14.34654918
   1.50915565  1.60695484  8.68874924
  15.82109939  1.60695484 11.51764973
  12.95870941  1.60695484 14.34654918
   7.23393252 13.05650630  8.68874924
   4.37154408 13.05650630 11.51764973
   1.50915565 13.05650630 14.34654918
   7.23393252  7.33173058  8.68874924
   4.37154408  7.33173058 11.51764973
   1.50915565  7.33173058 14.34654918
   7.23393252  1.60695484  8.68874924
   4.37154408  1.60695484 11.51764973
   1.50915565  1.60695484 14.34654918
  12.95870941 13.05650630  8.68874924
  10.09632045 13.05650630 11.51764973
   7.23393149 13.05650630 14.34654918
  12.95870941  7.33173058  8.68874924
  10.09632045  7.33173058 11.51764973
   7.23393149  7.33173058 14.34654918
  12.95870941  1.60695484  8.68874924
  10.09632045  1.60695484 11.51764973
   7.23393149  1.60695484 14.34654918
   2.94035012  0.17576001 10.10319843
   0.07796066  0.17576001 12.93209892
  14.38990440  0.17576001 15.76099941
   2.94035012 11.62531353 10.10319843
   0.07796066 11.62531353 12.93209892
  14.38990440 11.62531353 15.76099941
   2.94035012  5.90053627 10.10319843
   0.07796066  5.90053627 12.93209892
  14.38990440  5.90053627 15.76099941
   8.66512650  0.17576001 10.10319843
   5.80273754  0.17576001 12.93209892
   2.94034808  0.17576001 15.76099941
   8.66512650 11.62531353 10.10319843
   5.80273754 11.62531353 12.93209892
   2.94034808 11.62531353 15.76099941
   8.66512650  5.90053627 10.10319843
   5.80273754  5.90053627 12.93209892
   2.94034808  5.90053627 15.76099941
  14.38990440  0.17576001 10.10319843
  11.52751441  0.17576001 12.93209892
   8.66512547  0.17576001 15.76099941
  14.38990440 11.62531353 10.10319843
  11.52751441 11.62531353 12.93209892
   8.66512547 11.62531353 15.76099941
  14.38990440  5.90053627 10.10319843
  11.52751441  5.90053627 12.93209892
   8.66512547  5.90053627 15.76099941
   4.37154459 15.91889391  8.68874924
   1.50915565 15.91889391 11.51764973
  15.82109835 15.91889391 14.34654918
   4.37154459 10.19411768  8.68874924
   1.50915565 10.19411768 11.51764973
  15.82109835 10.19411768 14.34654918
   4.37154459  4.46934245  8.68874924
   1.50915565  4.46934245 11.51764973
  15.82109835  4.46934245 14.34654918
  10.09632045 15.91889391  8.68874924
   7.23393149 15.91889391 11.51764973
   4.37154255 15.91889391 14.34654918
  10.09632045 10.19411768  8.68874924
   7.23393149 10.19411768 11.51764973
   4.37154255 10.19411768 14.34654918
  10.09632045  4.46934245  8.68874924
   7.23393149  4.46934245 11.51764973
   4.37154255  4.46934245 14.34654918
  15.82109835 15.91889391  8.68874924
  12.95870941 15.91889391 11.51764973
  10.09632045 15.91889391 14.34654918
  15.82109835 10.19411768  8.68874924
  12.95870941 10.19411768 11.51764973
  10.09632045 10.19411768 14.34654918
  15.82109835  4.46934245  8.68874924
  12.95870941  4.46934245 11.51764973
  10.09632045  4.46934245 14.34654918
   5.80273805 14.48770012 10.10319843
   2.94034909 14.48770012 12.93209892
   0.07796066 14.48770012 15.76099941
   5.80273805  8.76292489 10.10319843
   2.94034909  8.76292489 12.93209892
   0.07796066  8.76292489 15.76099941
   5.80273805  3.03814891 10.10319843
   2.94034909  3.03814891 12.93209892
   0.07796066  3.03814891 15.76099941
  11.52751647 14.48770012 10.10319843
   8.66512650 14.48770012 12.93209892
   5.80273754 14.48770012 15.76099941
  11.52751647  8.76292489 10.10319843
   8.66512650  8.76292489 12.93209892
   5.80273754  8.76292489 15.76099941
  11.52751647  3.03814891 10.10319843
   8.66512650  3.03814891 12.93209892
   5.80273754  3.03814891 15.76099941
   0.07796271 14.48770012 10.10319843
  14.38990440 14.48770012 12.93209892
  11.52751441 14.48770012 15.76099941
   0.07796271  8.76292489 10.10319843
  14.38990440  8.76292489 12.93209892
  11.52751441  8.76292489 15.76099941
   0.07796271  3.03814891 10.10319843
  14.38990440  3.03814891 12.93209892
  11.52751441  3.03814891 15.76099941
 


--------------------------------------------------------------------------------------------------------


 k-point     1 :   0.0000 0.0000 0.0000  plane waves:  219017
 k-point     2 :   0.5000 0.0000 0.0000  plane waves:  219114
 k-point     3 :   0.0000 0.5000 0.0000  plane waves:  219114
 k-point     4 :   0.5000 0.5000 0.0000  plane waves:  219184
 k-point     5 :   0.0000 0.0000 0.5000  plane waves:  219132
 k-point     6 :   0.5000 0.0000 0.5000  plane waves:  219108
 k-point     7 :   0.0000 0.5000 0.5000  plane waves:  219108
 k-point     8 :   0.5000 0.5000 0.5000  plane waves:  219168

 maximum and minimum number of plane-waves per node :     13750    13642

 maximum number of plane-waves:    219184
 maximum index in each direction: 
   IXMAX=   37   IYMAX=   37   IZMAX=   38
   IXMIN=  -37   IYMIN=  -37   IZMIN=  -38


 real space projection operators:
  total allocation   :      35879.91 KBytes
  max/ min on nodes  :       2246.85       2237.30


 parallel 3D FFT for wavefunctions:
    minimum data exchange during FFTs selected (reduces bandwidth)
 parallel 3D FFT for charge:
    minimum data exchange during FFTs selected (reduces bandwidth)


 total amount of memory used by VASP MPI-rank0   584524. kBytes
=======================================================================

   base      :      30000. kBytes
   nonlr-proj:      11997. kBytes
   fftplans  :      30616. kBytes
   grid      :      24869. kBytes
   one-center:        243. kBytes
   wavefun   :     486799. kBytes
 
     INWAV:  cpu time      0.0000: real time      0.0002
 Broyden mixing: mesh for mixing (old mesh)
   NGX = 75   NGY = 75   NGZ = 77
  (NGX  =224   NGY  =224   NGZ  =240)
  gives a total of 433125 points

 initial charge density was supplied:
 charge density of overlapping atoms calculated
 number of electron     912.0000000 magnetization       1.0000000
 keeping initial charge density in first step


--------------------------------------------------------------------------------------------------------


 Maximum index for non-local projection operator          214
 Maximum index for augmentation-charges         3003 (set IRDMAX)


--------------------------------------------------------------------------------------------------------


 First call to EWALD:  gamma=   0.102
 Maximum number of real-space cells 3x 3x 3
 Maximum number of reciprocal cells 3x 3x 3

    FEWALD:  cpu time      0.0065: real time      0.0066


--------------------------------------- Ionic step        1  -------------------------------------------




--------------------------------------- Iteration      1(   1)  ---------------------------------------


    POTLOK:  cpu time      0.3740: real time      0.3769
    SETDIJ:  cpu time      1.9951: real time      2.0051
     EDDAV:  cpu time    112.3922: real time    113.4926
       DOS:  cpu time      0.0032: real time      0.0032
    --------------------------------------------
      LOOP:  cpu time    114.7646: real time    115.8779

 eigenvalue-minimisations  : 17536
 total energy-change (2. order) : 0.3799224E+04  (-0.4021421E+05)
 number of electron     912.0000000 magnetization       1.0000000
 augmentation part      912.0000000 magnetization       1.0000000

 Free energy of the ion-electron system (eV)
  ---------------------------------------------------
  alpha Z        PSCENC =      1080.28393531
  Ewald energy   TEWEN  =    -24063.62985827
  -Hartree energ DENC   =     -2220.27803080
  -exchange      EXHF   =         0.00000000
  -V(xc)+E(xc)   XCENC  =     -1951.93860017
  PAW double counting   =     20094.53666134   -16418.68521354
  entropy T*S    EENTRO =        -0.00301521
  eigenvalues    EBANDS =      3571.38526756
  atomic energy  EATOM  =     23707.55310521
  Solvation  Ediel_sol  =         0.00000000
  ---------------------------------------------------
  free energy    TOTEN  =      3799.22425143 eV

  energy without entropy =     3799.22726664  energy(sigma->0) =     3799.22575904


--------------------------------------------------------------------------------------------------------




--------------------------------------- Iteration      1(   2)  ---------------------------------------


     EDDAV:  cpu time    127.0262: real time    128.3378
       DOS:  cpu time      0.0027: real time      0.0028
    --------------------------------------------
      LOOP:  cpu time    127.0289: real time    128.3405

 eigenvalue-minimisations  : 20496
 total energy-change (2. order) :-0.4437972E+04  (-0.4285095E+04)
 number of electron     912.0000000 magnetization       1.0000000
 augmentation part      912.0000000 magnetization       1.0000000

 Free energy of the ion-electron system (eV)
  ---------------------------------------------------
  alpha Z        PSCENC =      1080.28393531
  Ewald energy   TEWEN  =    -24063.62985827
  -Hartree energ DENC   =     -2220.27803080
  -exchange      EXHF   =         0.00000000
  -V(xc)+E(xc)   XCENC  =     -1951.93860017
  PAW double counting   =     20094.53666134   -16418.68521354
  entropy T*S    EENTRO =        -0.00329544
  eigenvalues    EBANDS =      -866.58673181
  atomic energy  EATOM  =     23707.55310521
  Solvation  Ediel_sol  =         0.00000000
  ---------------------------------------------------
  free energy    TOTEN  =      -638.74802816 eV

  energy without entropy =     -638.74473273  energy(sigma->0) =     -638.74638045


--------------------------------------------------------------------------------------------------------




--------------------------------------- Iteration      1(   3)  ---------------------------------------


     EDDAV:  cpu time    132.9652: real time    134.2845
       DOS:  cpu time      0.0027: real time      0.0027
    --------------------------------------------
      LOOP:  cpu time    132.9678: real time    134.2871

 eigenvalue-minimisations  : 21696
 total energy-change (2. order) :-0.4253729E+03  (-0.4112140E+03)
 number of electron     912.0000000 magnetization       1.0000000
 augmentation part      912.0000000 magnetization       1.0000000

 Free energy of the ion-electron system (eV)
  ---------------------------------------------------
  alpha Z        PSCENC =      1080.28393531
  Ewald energy   TEWEN  =    -24063.62985827
  -Hartree energ DENC   =     -2220.27803080
  -exchange      EXHF   =         0.00000000
  -V(xc)+E(xc)   XCENC  =     -1951.93860017
  PAW double counting   =     20094.53666134   -16418.68521354
  entropy T*S    EENTRO =        -0.00351867
  eigenvalues    EBANDS =     -1291.95939389
  atomic energy  EATOM  =     23707.55310521
  Solvation  Ediel_sol  =         0.00000000
  ---------------------------------------------------
  free energy    TOTEN  =     -1064.12091349 eV

  energy without entropy =    -1064.11739481  energy(sigma->0) =    -1064.11915415


--------------------------------------------------------------------------------------------------------




--------------------------------------- Iteration      1(   4)  ---------------------------------------


     EDDAV:  cpu time    127.9987: real time    129.1833
       DOS:  cpu time      0.0031: real time      0.0031
    --------------------------------------------
      LOOP:  cpu time    128.0018: real time    129.1865

 eigenvalue-minimisations  : 20672
 total energy-change (2. order) :-0.1640350E+02  (-0.1610274E+02)
 number of electron     912.0000000 magnetization       1.0000000
 augmentation part      912.0000000 magnetization       1.0000000

 Free energy of the ion-electron system (eV)
  ---------------------------------------------------
  alpha Z        PSCENC =      1080.28393531
  Ewald energy   TEWEN  =    -24063.62985827
  -Hartree energ DENC   =     -2220.27803080
  -exchange      EXHF   =         0.00000000
  -V(xc)+E(xc)   XCENC  =     -1951.93860017
  PAW double counting   =     20094.53666134   -16418.68521354
  entropy T*S    EENTRO =        -0.00487305
  eigenvalues    EBANDS =     -1308.36154051
  atomic energy  EATOM  =     23707.55310521
  Solvation  Ediel_sol  =         0.00000000
  ---------------------------------------------------
  free energy    TOTEN  =     -1080.52441448 eV

  energy without entropy =    -1080.51954143  energy(sigma->0) =    -1080.52197796


--------------------------------------------------------------------------------------------------------




--------------------------------------- Iteration      1(   5)  ---------------------------------------


     EDDAV:  cpu time    143.4298: real time    144.7173
       DOS:  cpu time      0.0027: real time      0.0027
    CHARGE:  cpu time      4.6485: real time      4.6929
    MIXING:  cpu time      0.0119: real time      0.0121
    --------------------------------------------
      LOOP:  cpu time    148.0931: real time    149.4251

 eigenvalue-minimisations  : 23800
 total energy-change (2. order) :-0.6687560E+00  (-0.6642943E+00)
 number of electron     911.9999995 magnetization       1.0000000
 augmentation part      -99.5521135 magnetization      -0.0656044

 Broyden mixing:
  rms(total) = 0.41531E+01    rms(broyden)= 0.41531E+01
  rms(prec ) = 0.44775E+01
  weight for this iteration     100.00

 Free energy of the ion-electron system (eV)
  ---------------------------------------------------
  alpha Z        PSCENC =      1080.28393531
  Ewald energy   TEWEN  =    -24063.62985827
  -Hartree energ DENC   =     -2220.27803080
  -exchange      EXHF   =         0.00000000
  -V(xc)+E(xc)   XCENC  =     -1951.93860017
  PAW double counting   =     20094.53666134   -16418.68521354
  entropy T*S    EENTRO =        -0.00475722
  eigenvalues    EBANDS =     -1309.03041234
  atomic energy  EATOM  =     23707.55310521
  Solvation  Ediel_sol  =         0.00000000
  ---------------------------------------------------
  free energy    TOTEN  =     -1081.19317048 eV

  energy without entropy =    -1081.18841326  energy(sigma->0) =    -1081.19079187


--------------------------------------------------------------------------------------------------------




--------------------------------------- Iteration      1(   6)  ---------------------------------------


    POTLOK:  cpu time      0.3541: real time      0.3582
    SETDIJ:  cpu time      1.9826: real time      1.9926
     EDDAV:  cpu time    131.2191: real time    132.4242
       DOS:  cpu time      0.0028: real time      0.0029
    CHARGE:  cpu time      4.6556: real time      4.7025
    MIXING:  cpu time      0.0145: real time      0.0146
    --------------------------------------------
      LOOP:  cpu time    138.2287: real time    139.4949

 eigenvalue-minimisations  : 21424
 total energy-change (2. order) : 0.1810041E+02  (-0.3731632E+01)
 number of electron     911.9999995 magnetization       1.0000000
 augmentation part      -99.2619320 magnetization      -0.0561401

 Broyden mixing:
[...]
      7.66670      2.14388      2.71550         0.114034     -0.021865      0.025873
      6.80798     13.30719      5.43100         0.344490      0.037402     -0.173957
     10.24285      3.00260      0.00000         0.314240     -0.467696      0.661527
      9.38413     14.16591      2.71550        -0.083916      0.017032      0.099879
      8.52541      8.15489      5.43100        -0.052484      0.100163     -0.018568
     11.96028     15.02463      0.00000         1.211181      1.521743      5.088117
     11.10156      9.01361      2.71550        -0.017980      0.029778      0.080376
     10.24285      3.00260      5.43100        -0.402508     -0.025212      0.284163
     13.67771      9.87233      0.00000        -0.875690      0.414553     -1.350389
     12.81900      3.86132      2.71550         0.079242     -0.023216      0.066721
     11.96028     15.02463      5.43100         0.021031     -0.006900      0.463861
     15.39515      4.72003      0.00000        -0.829091      0.002754      0.104189
     14.53643     15.88335      2.71550         0.010726     -0.036131      0.075284
     13.67771      9.87233      5.43100         0.143186     -0.121723      0.338847
     17.11258      3.86132      1.35775         0.484029      0.160955      0.017368
     16.25386     15.02463      4.07325        -0.000658     -0.025037     -0.085003
     15.39514      9.01361      6.78875        -0.923907     -0.597783     -0.566057
      1.65568     15.88335      1.35775        -0.066044      0.000909     -0.009890
      0.79696      9.87233      4.07325         0.085675     -0.021054     -0.043657
     17.11258      3.86131      6.78875        -0.721655      0.129796     -0.360603
      3.37311     10.73105      1.35775        -0.483688     -0.110569     -0.184652
      2.51440      4.72003      4.07325        -0.109146      0.031268     -0.061081
      1.65568     15.88334      6.78875         0.188315     -0.078896      0.763891
      5.09055      5.57875      1.35775         0.020173      0.069332     -0.425368
      4.23183     16.74206      4.07325        -0.019724      0.020955     -0.078519
      3.37311     10.73104      6.78875         0.259192      0.092362     -1.603432
      6.80798      0.42645      1.35775         0.066341     -0.044847     -0.368790
      5.94926     11.58976      4.07325         0.027652     -0.004709     -0.049314
      5.09054      5.57875      6.78875         0.718128      0.550243     -0.064869
      8.52542     12.44848      1.35775         0.484029      0.160955      0.017368
      7.66670      6.43746      4.07325        -0.000658     -0.025037     -0.085003
      6.80798      0.42645      6.78875        -0.923907     -0.597783     -0.566057
     10.24285      7.29618      1.35775        -0.066044      0.000909     -0.009890
      9.38413      1.28516      4.07325         0.085675     -0.021054     -0.043657
      8.52541     12.44848      6.78875        -0.721655      0.129796     -0.360603
     11.96028      2.14388      1.35775        -0.483688     -0.110569     -0.184652
     11.10156     13.30720      4.07325        -0.109146      0.031268     -0.061081
     10.24285      7.29618      6.78875         0.188315     -0.078896      0.763891
     13.67771     14.16591      1.35775         0.020173      0.069332     -0.425368
     12.81900      8.15490      4.07325        -0.019724      0.020955     -0.078519
     11.96028      2.14388      6.78875         0.259192      0.092362     -1.603432
     15.39515      9.01361      1.35775         0.066341     -0.044847     -0.368790
     14.53643      3.00260      4.07325         0.027652     -0.004709     -0.049314
     13.67771     14.16591      6.78875         0.718128      0.550243     -0.064869
     17.11258      8.15490      0.00000        -0.782134     -1.730018      5.772111
     16.25386      2.14388      2.71550        -0.039514      0.009899      0.055514
     15.39514     13.30719      5.43100        -0.107518      0.124635      0.403754
      1.65568      3.00260      0.00000        -0.806123      0.414501     -0.230777
      0.79696     14.16591      2.71550         0.039303     -0.027944      0.089674
     17.11258      8.15489      5.43100         0.118724      0.017687      0.421849
      3.37311     15.02463      0.00000        -0.287950      0.084312     -0.659710
      2.51440      9.01361      2.71550         0.060027     -0.014603      0.071428
      1.65568      3.00260      5.43100         0.451158      0.078747      0.160551
      5.09055      9.87233      0.00000         0.855264      0.214890      0.701919
      4.23183      3.86131      2.71550        -0.108108      0.020355      0.013475
      3.37311     15.02463      5.43100        -0.063090     -0.126448     -0.074871
      6.80798      4.72003      0.00000         0.609238     -0.413932     -1.636708
      5.94926     15.88335      2.71550        -0.040875      0.029089      0.084771
      5.09055      9.87233      5.43100        -0.412912     -0.045411      0.016366
      8.52541     16.74206      0.00000        -0.782134     -1.730018      5.772111
      7.66670     10.73105      2.71550        -0.039514      0.009899      0.055514
      6.80798      4.72003      5.43100        -0.107518      0.124635      0.403754
     10.24285     11.58976      0.00000        -0.806123      0.414501     -0.230777
      9.38413      5.57875      2.71550         0.039303     -0.027944      0.089674
      8.52541     16.74206      5.43100         0.118724      0.017687      0.421849
     11.96028      6.43746      0.00000        -0.287950      0.084312     -0.659710
     11.10156      0.42645      2.71550         0.060027     -0.014603      0.071428
     10.24284     11.58976      5.43100         0.451158      0.078747      0.160551
     13.67771      1.28517      0.00000         0.855264      0.214890      0.701919
     12.81900     12.44848      2.71550        -0.108108      0.020355      0.013475
     11.96028      6.43746      5.43100        -0.063090     -0.126448     -0.074871
     15.39515     13.30720      0.00000         0.609238     -0.413932     -1.636708
     14.53643      7.29618      2.71550        -0.040875      0.029089      0.084771
     13.67771      1.28516      5.43100        -0.412912     -0.045411      0.016366
     17.11258     12.44848      1.35775        -0.300424      0.081396     -0.370006
     16.25386      6.43746      4.07325        -0.083268      0.006548     -0.110120
     15.39514      0.42645      6.78875         1.019581     -0.144727      0.403818
      1.65568      7.29618      1.35775         0.081907     -0.009964     -0.492925
      0.79696      1.28516      4.07325        -0.040346      0.025166     -0.078118
     17.11258     12.44848      6.78875         0.627980     -0.678260      0.984802
      3.37311      2.14388      1.35775         0.323638     -0.083631     -0.304931
      2.51440     13.30720      4.07325         0.068476     -0.023170     -0.092789
      1.65568      7.29618      6.78875         0.551273     -0.083886     -9.390259
      5.09055     14.16591      1.35775         0.085979     -0.143650      0.174851
      4.23183      8.15490      4.07325         0.059526     -0.032491     -0.082695
      3.37311      2.14388      6.78875        -0.879280      0.636842      1.136289
      6.80798      9.01362      1.35775        -0.193033      0.089788      0.042650
      5.94926      3.00260      4.07325         0.020945     -0.010151      0.000995
      5.09055     14.16591      6.78875        -0.665117      0.125538      0.412326
      8.52541      3.86132      1.35775        -0.300424      0.081396     -0.370006
      7.66670     15.02463      4.07325        -0.083268      0.006548     -0.110120
      6.80798      9.01361      6.78875         1.019581     -0.144727      0.403818
     10.24285     15.88335      1.35775         0.081907     -0.009964     -0.492925
      9.38413      9.87233      4.07325        -0.040346      0.025166     -0.078118
      8.52541      3.86131      6.78875         0.627980     -0.678260      0.984802
     11.96028     10.73105      1.35775         0.323638     -0.083631     -0.304931
     11.10156      4.72003      4.07325         0.068476     -0.023170     -0.092789
     10.24285     15.88334      6.78875         0.551273     -0.083886     -9.390259
     13.67771      5.57875      1.35775         0.085979     -0.143650      0.174851
     12.81899     16.74206      4.07325         0.059526     -0.032491     -0.082695
     11.96028     10.73104      6.78875        -0.879280      0.636842      1.136289
     15.39515      0.42645      1.35775        -0.193033      0.089788      0.042650
     14.53643     11.58976      4.07325         0.020945     -0.010151      0.000995
     13.67771      5.57874      6.78875        -0.665117      0.125538      0.412326
      1.50916     13.05651      8.68875        -0.613174      0.944293     -1.226323
     15.82110     13.05651     11.51765         0.002563      0.024233      0.042547
     12.95871     13.05651     14.34655        -0.218573     -0.009742      0.289952
      1.50916      7.33173      8.68875        -0.605830      0.064466      9.144110
     15.82110      7.33173     11.51765         0.035020     -0.046481      0.168137
     12.95871      7.33173     14.34655        -0.137379      0.362782     -0.251584
      1.50916      1.60695      8.68875         0.589455     -0.771276     -1.429229
     15.82110      1.60695     11.51765         0.046378     -0.038575      0.119961
     12.95871      1.60695     14.34655         0.051464     -0.496396     -0.142728
      7.23393     13.05651      8.68875         0.110872     -0.592333     -0.213787
      4.37154     13.05651     11.51765        -0.035585      0.031108      0.099136
      1.50916     13.05651     14.34655         0.305393     -0.204101     -0.179321
      7.23393      7.33173      8.68875        -0.882270      0.469095     -1.315142
      4.37154      7.33173     11.51765        -0.072911      0.071664      0.111981
      1.50916      7.33173     14.34655        -0.042101      0.061867      0.287364
      7.23393      1.60695      8.68875         0.694166      0.809229      0.006053
      4.37154      1.60695     11.51765         0.005044     -0.062621      0.054408
      1.50916      1.60695     14.34655        -0.222070      0.157484     -0.330242
     12.95871     13.05651      8.68875        -0.372518     -0.873635     -0.387086
     10.09632     13.05651     11.51765         0.035249      0.021053      0.114727
      7.23393     13.05651     14.34655        -0.027503      0.477772     -0.395678
     12.95871      7.33173      8.68875         0.606876     -0.434022     -1.333095
     10.09632      7.33173     11.51765         0.012805      0.035432      0.092062
      7.23393      7.33173     14.34655         0.236231     -0.337009     -0.021324
     12.95871      1.60695      8.68875         0.237334      0.352619      1.143721
     10.09632      1.60695     11.51765        -0.019900     -0.039256      0.100179
      7.23393      1.60695     14.34655         0.071937      0.068023      0.304380
      2.94035      0.17576     10.10320        -0.269007      0.172597      0.268195
      0.07796      0.17576     12.93210         0.005426      0.010309     -0.105403
     14.38990      0.17576     15.76100        -0.433000      0.143138     -0.089968
      2.94035     11.62531     10.10320         0.182066     -0.397105      0.217787
      0.07796     11.62531     12.93210         0.016999     -0.046588     -0.049552
     14.38990     11.62531     15.76100         0.279905     -0.083068      1.991427
      2.94035      5.90054     10.10320        -0.193927      0.059604     -0.263437
      0.07796      5.90054     12.93210         0.063967     -0.010200     -0.107267
     14.38990      5.90054     15.76100         0.383180     -0.344150      0.619885
      8.66513      0.17576     10.10320         0.087368      0.048436     -0.282058
      5.80274      0.17576     12.93210         0.058878     -0.082165     -0.101891
      2.94035      0.17576     15.76100         0.658192     -0.579412      1.695706
      8.66513     11.62531     10.10320        -0.166068      0.306504      0.388760
      5.80274     11.62531     12.93210         0.002038     -0.018033     -0.108842
      2.94035     11.62531     15.76100         0.080515      0.936008     -0.235671
      8.66513      5.90054     10.10320         0.359494     -0.182962      0.076445
      5.80274      5.90054     12.93210        -0.076906      0.091910     -0.074723
      2.94035      5.90054     15.76100        -1.135875     -1.616236     -4.780053
     14.38990      0.17576     10.10320         0.053916     -0.493929      0.076935
     11.52751      0.17576     12.93210        -0.064624      0.014581     -0.132675
      8.66513      0.17576     15.76100         0.673784      1.754546     -5.477143
     14.38990     11.62531     10.10320        -0.074247      0.036063     -0.341066
     11.52751     11.62531     12.93210        -0.020453      0.028053     -0.067875
      8.66513     11.62531     15.76100         0.281970     -0.891794      0.734709
     14.38990      5.90054     10.10320         0.025783      0.528337      0.325718
     11.52751      5.90054     12.93210        -0.024024      0.040024     -0.098412
      8.66513      5.90054     15.76100        -0.953375      0.750808      1.806062
      4.37154     15.91889      8.68875         0.606876     -0.434022     -1.333095
      1.50916     15.91889     11.51765         0.012805      0.035432      0.092062
     15.82110     15.91889     14.34655         0.236231     -0.337009     -0.021324
      4.37154     10.19412      8.68875         0.237334      0.352619      1.143721
      1.50916     10.19412     11.51765        -0.019900     -0.039256      0.100179
     15.82110     10.19412     14.34655         0.071937      0.068023      0.304380
      4.37154      4.46934      8.68875        -0.372518     -0.873635     -0.387086
      1.50916      4.46934     11.51765         0.035249      0.021053      0.114727
     15.82110      4.46934     14.34655        -0.027503      0.477772     -0.395678
     10.09632     15.91889      8.68875        -0.605830      0.064466      9.144110
      7.23393     15.91889     11.51765         0.035020     -0.046481      0.168137
      4.37154     15.91889     14.34655        -0.137379      0.362782     -0.251584
     10.09632     10.19412      8.68875         0.589455     -0.771276     -1.429229
      7.23393     10.19412     11.51765         0.046378     -0.038575      0.119961
      4.37154     10.19412     14.34655         0.051464     -0.496396     -0.142728
     10.09632      4.46934      8.68875        -0.613174      0.944293     -1.226323
      7.23393      4.46934     11.51765         0.002563      0.024233      0.042547
      4.37154      4.46934     14.34655        -0.218573     -0.009742      0.289952
     15.82110     15.91889      8.68875        -0.882270      0.469095     -1.315142
     12.95871     15.91889     11.51765        -0.072911      0.071664      0.111981
     10.09632     15.91889     14.34655        -0.042101      0.061867      0.287364
     15.82110     10.19412      8.68875         0.694166      0.809229      0.006053
     12.95871     10.19412     11.51765         0.005044     -0.062621      0.054408
     10.09632     10.19412     14.34655        -0.222070      0.157484     -0.330242
     15.82110      4.46934      8.68875         0.110872     -0.592333     -0.213787
     12.95871      4.46934     11.51765        -0.035585      0.031108      0.099136
     10.09632      4.46934     14.34655         0.305393     -0.204101     -0.179321
      5.80274     14.48770     10.10320         0.025783      0.528337      0.325718
      2.94035     14.48770     12.93210        -0.024024      0.040024     -0.098412
      0.07796     14.48770     15.76100        -0.953375      0.750808      1.806062
      5.80274      8.76292     10.10320         0.053916     -0.493929      0.076935
      2.94035      8.76292     12.93210        -0.064624      0.014581     -0.132675
      0.07796      8.76292     15.76100         0.673784      1.754546     -5.477143
      5.80274      3.03815     10.10320        -0.074247      0.036063     -0.341066
      2.94035      3.03815     12.93210        -0.020453      0.028053     -0.067875
      0.07796      3.03815     15.76100         0.281970     -0.891794      0.734709
     11.52752     14.48770     10.10320        -0.193927      0.059604     -0.263437
      8.66513     14.48770     12.93210         0.063967     -0.010200     -0.107267
      5.80274     14.48770     15.76100         0.383180     -0.344150      0.619885
     11.52752      8.76292     10.10320        -0.269007      0.172597      0.268195
      8.66513      8.76292     12.93210         0.005426      0.010309     -0.105403
      5.80274      8.76292     15.76100        -0.433000      0.143138     -0.089968
     11.52752      3.03815     10.10320         0.182066     -0.397105      0.217787
      8.66513      3.03815     12.93210         0.016999     -0.046588     -0.049552
      5.80274      3.03815     15.76100         0.279905     -0.083068      1.991427
      0.07796     14.48770     10.10320         0.359494     -0.182962      0.076445
     14.38990     14.48770     12.93210        -0.076906      0.091910     -0.074723
     11.52751     14.48770     15.76100        -1.135875     -1.616236     -4.780053
      0.07796      8.76292     10.10320         0.087368      0.048436     -0.282058
     14.38990      8.76292     12.93210         0.058878     -0.082165     -0.101891
     11.52751      8.76292     15.76100         0.658192     -0.579412      1.695706
      0.07796      3.03815     10.10320        -0.166068      0.306504      0.388760
     14.38990      3.03815     12.93210         0.002038     -0.018033     -0.108842
     11.52751      3.03815     15.76100         0.080515      0.936008     -0.235671
 -----------------------------------------------------------------------------------
    total drift:                               -0.027006      0.024899      0.063427


--------------------------------------------------------------------------------------------------------



  FREE ENERGIE OF THE ION-ELECTRON SYSTEM (eV)
  ---------------------------------------------------
  free  energy   TOTEN  =     -1062.03106961 eV

  energy  without entropy=    -1062.02834734  energy(sigma->0) =    -1062.02970847
 


--------------------------------------------------------------------------------------------------------


    POTLOK:  cpu time      2.3238: real time      2.3364


--------------------------------------------------------------------------------------------------------


     LOOP+:  cpu time   2919.0709: real time   2948.1352
    4ORBIT:  cpu time      0.0000: real time      0.0000

 total amount of memory used by VASP MPI-rank0   584524. kBytes
=======================================================================

   base      :      30000. kBytes
   nonlr-proj:      11997. kBytes
   fftplans  :      30616. kBytes
   grid      :      24869. kBytes
   one-center:        243. kBytes
   wavefun   :     486799. kBytes
 
  
  
 General timing and accounting informations for this job:
 ========================================================
  
                  Total CPU time used (sec):     3120.678
                            User time (sec):     2992.852
                          System time (sec):      127.826
                         Elapsed time (sec):     3155.456
  
                   Maximum memory used (kb):      879300.
                   Average memory used (kb):          N/A
  
                          Minor page faults:       501182
                          Major page faults:           41
                 Voluntary context switches:         2177
