 228 228   0   0
  0.2310631E+02  0.1717433E-08  0.1717433E-08  0.1786100E-08  0.5000000E-15
  1.000000000000000E-004
  CAR 
 Si and Ge interface calculation         
      6.90553641     -8.89063827  301      4.11332527      1.00000000
     -8.891  0.0000E+00  0.0000E+00  0.0000E+00  0.0000E+00
     -8.838  0.0000E+00  0.0000E+00  0.0000E+00  0.0000E+00
     -8.785  0.0000E+00  0.0000E+00  0.0000E+00  0.0000E+00
     -8.733  0.0000E+00  0.0000E+00  0.0000E+00  0.0000E+00
     -8.680  0.0000E+00  0.0000E+00  0.0000E+00  0.0000E+00
     -8.627  0.0000E+00  0.0000E+00  0.0000E+00  0.0000E+00
     -8.575  0.0000E+00  0.0000E+00  0.0000E+00  0.0000E+00
     -8.522  0.0000E+00  0.0000E+00  0.0000E+00  0.0000E+00
     -8.469  0.0000E+00  0.0000E+00  0.0000E+00  0.0000E+00
     -8.417  0.0000E+00  0.0000E+00  0.0000E+00  0.0000E+00
     -8.364  0.0000E+00  0.0000E+00  0.0000E+00  0.0000E+00
     -8.311  0.0000E+00  0.0000E+00  0.0000E+00  0.0000E+00
     -8.259  0.0000E+00  0.0000E+00  0.0000E+00  0.0000E+00
     -8.206  0.5111E-05  0.9238E-06  0.2691E-06  0.4864E-07
     -8.153  0.9030E+01  0.8685E+01  0.4755E+00  0.4573E+00
     -8.101  0.4659E+00  0.8112E+00  0.5000E+00  0.5000E+00
     -8.048  0.3678E+02  0.3578E+02  0.2437E+01  0.2384E+01
     -7.996  0.8005E+01  0.8364E+01  0.2858E+01  0.2824E+01
     -7.943  0.1718E+02  0.1671E+02  0.3763E+01  0.3704E+01
     -7.890  0.1400E+02  0.1511E+02  0.4500E+01  0.4500E+01
     -7.838  0.9222E-04  0.7960E-03  0.4500E+01  0.4500E+01
     -7.785  0.1471E+02  0.1379E+02  0.5275E+01  0.5226E+01
     -7.732  0.1456E+02  0.1384E+02  0.6042E+01  0.5955E+01
     -7.680  0.4118E+02  0.3961E+02  0.8210E+01  0.8040E+01
     -7.627  0.7620E+02  0.7831E+02  0.1222E+02  0.1216E+02
     -7.574  0.2881E+02  0.2938E+02  0.1374E+02  0.1371E+02
     -7.522  0.1071E+02  0.9932E+01  0.1430E+02  0.1423E+02
     -7.469  0.1325E+02  0.1456E+02  0.1500E+02  0.1500E+02
     -7.416  0.1836E+02  0.1601E+02  0.1597E+02  0.1584E+02
     -7.364  0.1565E+02  0.1615E+02  0.1679E+02  0.1669E+02
     -7.311  0.5875E+02  0.5835E+02  0.1989E+02  0.1977E+02
     -7.258  0.5080E+02  0.4864E+02  0.2256E+02  0.2233E+02
     -7.206  0.7229E+02  0.7484E+02  0.2637E+02  0.2627E+02
     -7.153  0.5511E+02  0.5466E+02  0.2927E+02  0.2915E+02
     -7.100  0.5480E+02  0.5341E+02  0.3215E+02  0.3196E+02
     -7.048  0.2555E+02  0.2916E+02  0.3350E+02  0.3349E+02
     -6.995  0.1990E+02  0.1402E+02  0.3455E+02  0.3423E+02
     -6.942  0.7290E+02  0.7717E+02  0.3838E+02  0.3830E+02
     -6.890  0.7233E+02  0.7138E+02  0.4219E+02  0.4205E+02
     -6.837  0.5395E+02  0.5457E+02  0.4503E+02  0.4493E+02
     -6.784  0.5123E+02  0.4822E+02  0.4773E+02  0.4747E+02
     -6.732  0.8295E+02  0.8364E+02  0.5210E+02  0.5187E+02
     -6.679  0.2772E+02  0.2864E+02  0.5356E+02  0.5338E+02
     -6.627  0.6866E+02  0.6594E+02  0.5717E+02  0.5685E+02
     -6.574  0.4893E+02  0.5066E+02  0.5975E+02  0.5952E+02
     -6.521  0.1210E+03  0.1205E+03  0.6612E+02  0.6586E+02
     -6.469  0.8359E+02  0.8314E+02  0.7052E+02  0.7024E+02
     -6.416  0.7780E+02  0.7782E+02  0.7462E+02  0.7434E+02
     -6.363  0.8660E+02  0.8579E+02  0.7918E+02  0.7885E+02
     -6.311  0.9355E+02  0.9477E+02  0.8411E+02  0.8384E+02
     -6.258  0.8286E+02  0.8222E+02  0.8847E+02  0.8817E+02
     -6.205  0.6170E+02  0.6423E+02  0.9172E+02  0.9156E+02
     -6.153  0.5650E+02  0.5519E+02  0.9469E+02  0.9446E+02
     -6.100  0.7431E+02  0.7078E+02  0.9860E+02  0.9819E+02
     -6.047  0.8179E+02  0.8517E+02  0.1029E+03  0.1027E+03
     -5.995  0.6740E+02  0.6984E+02  0.1065E+03  0.1063E+03
     -5.942  0.6334E+02  0.6050E+02  0.1098E+03  0.1095E+03
     -5.889  0.7460E+02  0.7591E+02  0.1137E+03  0.1135E+03
     -5.837  0.8384E+02  0.8477E+02  0.1181E+03  0.1180E+03
     -5.784  0.8286E+02  0.7904E+02  0.1225E+03  0.1222E+03
     -5.731  0.6923E+02  0.7246E+02  0.1261E+03  0.1260E+03
     -5.679  0.6034E+02  0.5603E+02  0.1293E+03  0.1289E+03
     -5.626  0.1488E+03  0.1522E+03  0.1372E+03  0.1369E+03
     -5.573  0.6724E+02  0.6489E+02  0.1407E+03  0.1404E+03
     -5.521  0.5354E+02  0.5972E+02  0.1435E+03  0.1435E+03
     -5.468  0.6516E+02  0.6259E+02  0.1469E+03  0.1468E+03
     -5.415  0.7304E+02  0.6847E+02  0.1508E+03  0.1504E+03
     -5.363  0.9723E+02  0.1008E+03  0.1559E+03  0.1557E+03
     -5.310  0.8290E+02  0.8102E+02  0.1603E+03  0.1600E+03
     -5.258  0.7289E+02  0.7443E+02  0.1641E+03  0.1639E+03
     -5.205  0.7795E+02  0.7866E+02  0.1682E+03  0.1680E+03
     -5.152  0.6030E+02  0.5872E+02  0.1714E+03  0.1711E+03
     -5.100  0.5509E+02  0.5464E+02  0.1743E+03  0.1740E+03
     -5.047  0.7831E+02  0.8030E+02  0.1784E+03  0.1782E+03
     -4.994  0.6721E+02  0.6838E+02  0.1820E+03  0.1818E+03
     -4.942  0.6269E+02  0.5946E+02  0.1853E+03  0.1850E+03
     -4.889  0.6172E+02  0.6229E+02  0.1885E+03  0.1882E+03
     -4.836  0.5584E+02  0.5491E+02  0.1914E+03  0.1911E+03
     -4.784  0.5792E+02  0.6081E+02  0.1945E+03  0.1943E+03
     -4.731  0.4541E+02  0.4433E+02  0.1969E+03  0.1967E+03
     -4.678  0.6811E+02  0.6809E+02  0.2005E+03  0.2003E+03
     -4.626  0.6238E+02  0.6532E+02  0.2038E+03  0.2037E+03
     -4.573  0.5738E+02  0.5811E+02  0.2068E+03  0.2068E+03
     -4.520  0.4670E+02  0.3992E+02  0.2092E+03  0.2089E+03
     -4.468  0.7074E+02  0.7574E+02  0.2130E+03  0.2128E+03
     -4.415  0.3363E+02  0.3355E+02  0.2147E+03  0.2146E+03
     -4.362  0.3388E+02  0.3165E+02  0.2165E+03  0.2163E+03
     -4.310  0.5720E+02  0.5675E+02  0.2195E+03  0.2193E+03
     -4.257  0.2985E+02  0.2924E+02  0.2211E+03  0.2208E+03
     -4.204  0.3601E+02  0.4165E+02  0.2230E+03  0.2230E+03
     -4.152  0.2149E+02  0.1828E+02  0.2241E+03  0.2240E+03
     -4.099  0.6311E+02  0.5987E+02  0.2275E+03  0.2271E+03
     -4.046  0.5729E+02  0.6273E+02  0.2305E+03  0.2304E+03
     -3.994  0.3207E+02  0.2847E+02  0.2322E+03  0.2319E+03
     -3.941  0.1718E+02  0.2090E+02  0.2331E+03  0.2330E+03
     -3.889  0.6628E+02  0.6483E+02  0.2366E+03  0.2364E+03
     -3.836  0.2695E+02  0.2745E+02  0.2380E+03  0.2379E+03
     -3.783  0.2465E+02  0.2324E+02  0.2393E+03  0.2391E+03
     -3.731  0.4360E+02  0.4294E+02  0.2416E+03  0.2414E+03
     -3.678  0.2111E+02  0.2305E+02  0.2427E+03  0.2426E+03
     -3.625  0.5309E+02  0.5144E+02  0.2455E+03  0.2453E+03
     -3.573  0.1072E+03  0.1003E+03  0.2511E+03  0.2506E+03
     -3.520  0.9886E+02  0.1052E+03  0.2563E+03  0.2561E+03
     -3.467  0.7318E+02  0.7178E+02  0.2602E+03  0.2599E+03
     -3.415  0.7602E+02  0.7445E+02  0.2642E+03  0.2638E+03
     -3.362  0.7466E+02  0.7480E+02  0.2681E+03  0.2677E+03
     -3.309  0.8349E+02  0.8518E+02  0.2725E+03  0.2722E+03
     -3.257  0.8484E+02  0.8348E+02  0.2770E+03  0.2766E+03
     -3.204  0.8799E+02  0.8818E+02  0.2816E+03  0.2813E+03
     -3.151  0.8393E+02  0.8472E+02  0.2860E+03  0.2857E+03
     -3.099  0.4784E+02  0.4788E+02  0.2885E+03  0.2882E+03
     -3.046  0.1003E+03  0.1010E+03  0.2938E+03  0.2936E+03
     -2.993  0.5821E+02  0.5859E+02  0.2969E+03  0.2967E+03
     -2.941  0.5915E+02  0.5751E+02  0.3000E+03  0.2997E+03
     -2.888  0.7891E+02  0.8175E+02  0.3042E+03  0.3040E+03
     -2.835  0.8938E+02  0.8904E+02  0.3089E+03  0.3087E+03
     -2.783  0.6318E+02  0.6014E+02  0.3122E+03  0.3118E+03
     -2.730  0.6707E+02  0.6864E+02  0.3157E+03  0.3155E+03
     -2.677  0.5026E+02  0.4751E+02  0.3184E+03  0.3180E+03
     -2.625  0.8438E+02  0.8720E+02  0.3228E+03  0.3225E+03
     -2.572  0.5510E+02  0.5707E+02  0.3257E+03  0.3256E+03
     -2.520  0.7796E+02  0.7749E+02  0.3298E+03  0.3296E+03
     -2.467  0.8706E+02  0.8150E+02  0.3344E+03  0.3339E+03
     -2.414  0.8279E+02  0.8549E+02  0.3388E+03  0.3384E+03
     -2.362  0.1066E+03  0.1051E+03  0.3444E+03  0.3440E+03
     -2.309  0.7917E+02  0.8473E+02  0.3485E+03  0.3484E+03
     -2.256  0.3510E+02  0.3458E+02  0.3504E+03  0.3502E+03
     -2.204  0.8276E+02  0.8549E+02  0.3548E+03  0.3547E+03
     -2.151  0.3941E+02  0.3593E+02  0.3568E+03  0.3566E+03
     -2.098  0.7128E+02  0.6885E+02  0.3606E+03  0.3603E+03
     -2.046  0.8523E+02  0.8755E+02  0.3651E+03  0.3649E+03
     -1.993  0.5503E+02  0.5569E+02  0.3680E+03  0.3678E+03
     -1.940  0.3891E+02  0.3852E+02  0.3700E+03  0.3698E+03
     -1.888  0.3579E+02  0.3690E+02  0.3719E+03  0.3718E+03
     -1.835  0.5624E+02  0.5274E+02  0.3749E+03  0.3745E+03
     -1.782  0.5101E+02  0.5352E+02  0.3775E+03  0.3774E+03
     -1.730  0.5780E+02  0.5518E+02  0.3806E+03  0.3803E+03
     -1.677  0.4998E+02  0.5352E+02  0.3832E+03  0.3831E+03
     -1.624  0.2000E+02  0.1869E+02  0.3843E+03  0.3841E+03
     -1.572  0.4533E+02  0.4623E+02  0.3867E+03  0.3865E+03
     -1.519  0.3287E+02  0.3357E+02  0.3884E+03  0.3883E+03
     -1.466  0.3189E+02  0.3192E+02  0.3901E+03  0.3900E+03
     -1.414  0.3089E+02  0.2773E+02  0.3917E+03  0.3914E+03
     -1.361  0.9059E+02  0.8938E+02  0.3965E+03  0.3961E+03
     -1.308  0.4593E+02  0.4992E+02  0.3989E+03  0.3988E+03
     -1.256  0.6451E+02  0.6221E+02  0.4023E+03  0.4020E+03
     -1.203  0.3241E+02  0.3627E+02  0.4040E+03  0.4039E+03
     -1.151  0.2285E+02  0.2285E+02  0.4052E+03  0.4051E+03
     -1.098  0.4547E+02  0.4171E+02  0.4076E+03  0.4073E+03
     -1.045  0.4533E+02  0.4716E+02  0.4100E+03  0.4098E+03
     -0.993  0.2952E+02  0.2831E+02  0.4115E+03  0.4113E+03
     -0.940  0.4073E+02  0.4356E+02  0.4137E+03  0.4136E+03
     -0.887  0.1263E+02  0.1280E+02  0.4143E+03  0.4143E+03
     -0.835  0.5175E+02  0.4972E+02  0.4171E+03  0.4169E+03
     -0.782  0.2674E+02  0.2928E+02  0.4185E+03  0.4184E+03
     -0.729  0.1139E+02  0.9001E+01  0.4191E+03  0.4189E+03
     -0.677  0.2677E+02  0.2798E+02  0.4205E+03  0.4204E+03
     -0.624  0.2782E+02  0.2669E+02  0.4219E+03  0.4218E+03
     -0.571  0.3749E+02  0.3817E+02  0.4239E+03  0.4238E+03
     -0.519  0.2604E+02  0.2689E+02  0.4253E+03  0.4252E+03
     -0.466  0.3438E+02  0.3313E+02  0.4271E+03  0.4270E+03
     -0.413  0.4552E+02  0.4359E+02  0.4295E+03  0.4293E+03
     -0.361  0.4486E+02  0.4425E+02  0.4319E+03  0.4316E+03
     -0.308  0.3034E+02  0.3340E+02  0.4335E+03  0.4333E+03
     -0.255  0.4082E+02  0.4115E+02  0.4356E+03  0.4355E+03
     -0.203  0.3424E+02  0.3309E+02  0.4374E+03  0.4373E+03
     -0.150  0.9613E+02  0.9389E+02  0.4425E+03  0.4422E+03
     -0.097  0.2417E+02  0.2599E+02  0.4437E+03  0.4436E+03
     -0.045  0.1046E+03  0.9973E+02  0.4492E+03  0.4488E+03
      0.008  0.9822E+02  0.1012E+03  0.4544E+03  0.4541E+03
      0.061  0.7627E+02  0.7338E+02  0.4584E+03  0.4580E+03
      0.113  0.1294E+03  0.1298E+03  0.4652E+03  0.4648E+03
      0.166  0.1183E+03  0.1178E+03  0.4715E+03  0.4710E+03
      0.218  0.1309E+03  0.1310E+03  0.4784E+03  0.4779E+03
      0.271  0.1246E+03  0.1194E+03  0.4849E+03  0.4842E+03
      0.324  0.1053E+03  0.1163E+03  0.4905E+03  0.4904E+03
      0.376  0.8906E+02  0.8096E+02  0.4952E+03  0.4946E+03
      0.429  0.1655E+03  0.1658E+03  0.5039E+03  0.5033E+03
      0.482  0.1736E+03  0.1765E+03  0.5130E+03  0.5126E+03
      0.534  0.1306E+03  0.1282E+03  0.5199E+03  0.5194E+03
      0.587  0.1498E+03  0.1502E+03  0.5278E+03  0.5273E+03
      0.640  0.1141E+03  0.1151E+03  0.5338E+03  0.5334E+03
      0.692  0.1430E+03  0.1418E+03  0.5413E+03  0.5408E+03
      0.745  0.1477E+03  0.1492E+03  0.5491E+03  0.5487E+03
      0.798  0.1355E+03  0.1360E+03  0.5562E+03  0.5558E+03
      0.850  0.1180E+03  0.1203E+03  0.5624E+03  0.5622E+03
      0.903  0.1137E+03  0.1115E+03  0.5684E+03  0.5680E+03
      0.956  0.1330E+03  0.1341E+03  0.5754E+03  0.5751E+03
      1.008  0.1192E+03  0.1189E+03  0.5817E+03  0.5814E+03
      1.061  0.1595E+03  0.1533E+03  0.5901E+03  0.5894E+03
      1.114  0.1408E+03  0.1449E+03  0.5975E+03  0.5971E+03
      1.166  0.1962E+03  0.1952E+03  0.6078E+03  0.6073E+03
      1.219  0.1347E+03  0.1348E+03  0.6149E+03  0.6144E+03
      1.272  0.1434E+03  0.1446E+03  0.6225E+03  0.6221E+03
      1.324  0.1325E+03  0.1308E+03  0.6295E+03  0.6289E+03
      1.377  0.1565E+03  0.1604E+03  0.6377E+03  0.6374E+03
      1.430  0.1090E+03  0.1062E+03  0.6434E+03  0.6430E+03
      1.482  0.2072E+03  0.2040E+03  0.6544E+03  0.6537E+03
      1.535  0.1170E+03  0.1225E+03  0.6605E+03  0.6602E+03
      1.587  0.1060E+03  0.1046E+03  0.6661E+03  0.6657E+03
      1.640  0.1558E+03  0.1483E+03  0.6743E+03  0.6735E+03
      1.693  0.1406E+03  0.1488E+03  0.6817E+03  0.6813E+03
      1.745  0.1329E+03  0.1340E+03  0.6887E+03  0.6884E+03
      1.798  0.1409E+03  0.1387E+03  0.6961E+03  0.6957E+03
      1.851  0.1127E+03  0.1140E+03  0.7021E+03  0.7017E+03
      1.903  0.9462E+02  0.9552E+02  0.7070E+03  0.7067E+03
      1.956  0.1167E+03  0.1115E+03  0.7132E+03  0.7126E+03
      2.009  0.1847E+03  0.1837E+03  0.7229E+03  0.7223E+03
      2.061  0.1554E+03  0.1583E+03  0.7311E+03  0.7306E+03
      2.114  0.1286E+03  0.1298E+03  0.7379E+03  0.7374E+03
      2.167  0.9416E+02  0.9148E+02  0.7428E+03  0.7422E+03
      2.219  0.1663E+03  0.1670E+03  0.7516E+03  0.7510E+03
      2.272  0.1147E+03  0.1146E+03  0.7576E+03  0.7571E+03
      2.325  0.1389E+03  0.1370E+03  0.7649E+03  0.7643E+03
      2.377  0.1113E+03  0.1115E+03  0.7708E+03  0.7702E+03
      2.430  0.1316E+03  0.1341E+03  0.7777E+03  0.7772E+03
      2.483  0.1024E+03  0.1042E+03  0.7831E+03  0.7827E+03
      2.535  0.1128E+03  0.1081E+03  0.7891E+03  0.7884E+03
      2.588  0.1221E+03  0.1247E+03  0.7955E+03  0.7950E+03
      2.641  0.1649E+03  0.1640E+03  0.8042E+03  0.8036E+03
      2.693  0.1374E+03  0.1419E+03  0.8114E+03  0.8111E+03
      2.746  0.1018E+03  0.9773E+02  0.8168E+03  0.8162E+03
      2.799  0.1147E+03  0.1176E+03  0.8228E+03  0.8224E+03
      2.851  0.9680E+02  0.9758E+02  0.8279E+03  0.8275E+03
      2.904  0.8560E+02  0.8423E+02  0.8324E+03  0.8320E+03
      2.956  0.7433E+02  0.7723E+02  0.8363E+03  0.8360E+03
      3.009  0.7838E+02  0.6968E+02  0.8405E+03  0.8397E+03
      3.062  0.6880E+02  0.7742E+02  0.8441E+03  0.8438E+03
      3.114  0.7030E+02  0.6647E+02  0.8478E+03  0.8473E+03
      3.167  0.9391E+02  0.9576E+02  0.8527E+03  0.8523E+03
      3.220  0.1002E+03  0.9565E+02  0.8580E+03  0.8574E+03
      3.272  0.1001E+03  0.1041E+03  0.8633E+03  0.8628E+03
      3.325  0.8303E+02  0.7876E+02  0.8676E+03  0.8670E+03
      3.378  0.7059E+02  0.7596E+02  0.8714E+03  0.8710E+03
      3.430  0.8370E+02  0.8425E+02  0.8758E+03  0.8754E+03
      3.483  0.2791E+02  0.3152E+02  0.8772E+03  0.8771E+03
      3.536  0.5606E+02  0.4711E+02  0.8802E+03  0.8796E+03
      3.588  0.7103E+02  0.7707E+02  0.8839E+03  0.8836E+03
      3.641  0.6808E+02  0.6642E+02  0.8875E+03  0.8871E+03
      3.694  0.4892E+02  0.5435E+02  0.8901E+03  0.8900E+03
      3.746  0.3128E+02  0.2616E+02  0.8917E+03  0.8914E+03
      3.799  0.5732E+02  0.5456E+02  0.8948E+03  0.8942E+03
      3.852  0.7255E+02  0.7126E+02  0.8986E+03  0.8980E+03
      3.904  0.2013E+02  0.2858E+02  0.8996E+03  0.8995E+03
      3.957  0.3663E+02  0.3030E+02  0.9016E+03  0.9011E+03
      4.010  0.4510E+02  0.4494E+02  0.9039E+03  0.9035E+03
      4.062  0.5858E+02  0.5493E+02  0.9070E+03  0.9063E+03
      4.115  0.8465E+02  0.8965E+02  0.9115E+03  0.9111E+03
      4.168  0.5356E+02  0.4615E+02  0.9143E+03  0.9135E+03
      4.220  0.7817E+02  0.8819E+02  0.9184E+03  0.9181E+03
      4.273  0.5913E+02  0.4998E+02  0.9215E+03  0.9208E+03
      4.325  0.4879E+02  0.6052E+02  0.9241E+03  0.9240E+03
      4.378  0.6862E+02  0.5308E+02  0.9277E+03  0.9268E+03
      4.431  0.7502E+02  0.8303E+02  0.9317E+03  0.9311E+03
      4.483  0.7277E+02  0.6447E+02  0.9355E+03  0.9345E+03
      4.536  0.8345E+02  0.8996E+02  0.9399E+03  0.9393E+03
      4.589  0.6051E+02  0.5909E+02  0.9431E+03  0.9424E+03
      4.641  0.9442E+02  0.9666E+02  0.9480E+03  0.9475E+03
      4.694  0.7376E+02  0.7557E+02  0.9519E+03  0.9514E+03
      4.747  0.7172E+02  0.6520E+02  0.9557E+03  0.9549E+03
      4.799  0.9743E+02  0.9857E+02  0.9608E+03  0.9601E+03
      4.852  0.1017E+03  0.9874E+02  0.9662E+03  0.9653E+03
      4.905  0.8918E+02  0.9486E+02  0.9709E+03  0.9703E+03
      4.957  0.1128E+03  0.1075E+03  0.9768E+03  0.9759E+03
      5.010  0.8516E+02  0.9367E+02  0.9813E+03  0.9808E+03
      5.063  0.6959E+02  0.7100E+02  0.9850E+03  0.9846E+03
      5.115  0.9321E+02  0.8435E+02  0.9899E+03  0.9890E+03
      5.168  0.9274E+02  0.9392E+02  0.9948E+03  0.9940E+03
      5.221  0.9585E+02  0.9938E+02  0.9998E+03  0.9992E+03
      5.273  0.1219E+03  0.1178E+03  0.1006E+04  0.1005E+04
      5.326  0.1179E+03  0.1210E+03  0.1012E+04  0.1012E+04
      5.379  0.9432E+02  0.8933E+02  0.1017E+04  0.1016E+04
      5.431  0.1235E+03  0.1279E+03  0.1024E+04  0.1023E+04
      5.484  0.1029E+03  0.1060E+03  0.1029E+04  0.1029E+04
      5.537  0.7811E+02  0.8052E+02  0.1033E+04  0.1033E+04
      5.589  0.1201E+03  0.1112E+03  0.1040E+04  0.1039E+04
      5.642  0.9768E+02  0.1008E+03  0.1045E+04  0.1044E+04
      5.694  0.1320E+03  0.1279E+03  0.1052E+04  0.1051E+04
      5.747  0.1400E+03  0.1464E+03  0.1059E+04  0.1059E+04
      5.800  0.9186E+02  0.9093E+02  0.1064E+04  0.1063E+04
      5.852  0.9345E+02  0.9711E+02  0.1069E+04  0.1069E+04
      5.905  0.1016E+03  0.9870E+02  0.1074E+04  0.1074E+04
      5.958  0.9628E+02  0.9554E+02  0.1079E+04  0.1079E+04
      6.010  0.9850E+02  0.9650E+02  0.1085E+04  0.1084E+04
      6.063  0.9489E+02  0.1013E+03  0.1090E+04  0.1089E+04
      6.116  0.7098E+02  0.7461E+02  0.1093E+04  0.1093E+04
      6.168  0.4467E+02  0.4288E+02  0.1096E+04  0.1095E+04
      6.221  0.6409E+01  0.1184E+02  0.1096E+04  0.1096E+04
      6.274  0.0000E+00  0.0000E+00  0.1096E+04  0.1096E+04
      6.326  0.0000E+00  0.0000E+00  0.1096E+04  0.1096E+04
      6.379  0.0000E+00  0.0000E+00  0.1096E+04  0.1096E+04
      6.432  0.0000E+00  0.0000E+00  0.1096E+04  0.1096E+04
      6.484  0.0000E+00  0.0000E+00  0.1096E+04  0.1096E+04
      6.537  0.0000E+00  0.0000E+00  0.1096E+04  0.1096E+04
      6.590  0.0000E+00  0.0000E+00  0.1096E+04  0.1096E+04
      6.642  0.0000E+00  0.0000E+00  0.1096E+04  0.1096E+04
      6.695  0.0000E+00  0.0000E+00  0.1096E+04  0.1096E+04
      6.748  0.0000E+00  0.0000E+00  0.1096E+04  0.1096E+04
      6.800  0.0000E+00  0.0000E+00  0.1096E+04  0.1096E+04
      6.853  0.0000E+00  0.0000E+00  0.1096E+04  0.1096E+04
      6.906  0.0000E+00  0.0000E+00  0.1096E+04  0.1096E+04
