Si and Ge interface calculation         
           1
     9.177114    0.000000    0.000000
     4.588558   13.765673    0.000000
     0.000000    0.000000   10.815333
   Sn
    48
Direct configuration=     1
   0.99503511  0.99503511  0.00000000
   0.82836843  0.82836843  0.30000004
   0.66170180  0.66170180  0.59999996
   0.32836846  0.32836843  0.00000000
   0.16170177  0.16170174  0.30000004
   0.99503511  0.99503511  0.59999996
   0.66170180  0.66170180  0.00000000
   0.49503514  0.49503511  0.30000004
   0.32836848  0.32836846  0.59999996
   0.24503510  0.99503511  0.14999999
   0.07836847  0.82836843  0.45000002
   0.91170174  0.66170174  0.75000006
   0.57836848  0.32836843  0.14999999
   0.41170183  0.16170178  0.45000002
   0.24503513  0.99503505  0.75000006
   0.91170174  0.66170174  0.14999999
   0.74503511  0.49503505  0.45000002
   0.57836843  0.32836837  0.75000006
   0.49503505  0.99503511  0.00000000
   0.32836840  0.82836843  0.30000004
   0.16170174  0.66170180  0.59999996
   0.16170172  0.66170174  0.00000000
   0.99503505  0.49503505  0.30000004
   0.82836843  0.32836843  0.59999996
   0.82836848  0.32836846  0.00000000
   0.66170180  0.16170177  0.30000004
   0.49503514  0.99503511  0.59999996
   0.07836841  0.32836843  0.14999999
   0.91170180  0.16170177  0.45000002
   0.74503505  0.99503505  0.75000006
   0.74503511  0.99503511  0.14999999
   0.57836848  0.82836843  0.45000002
   0.41170174  0.66170174  0.75000006
   0.41170174  0.66170174  0.14999999
   0.24503513  0.49503511  0.45000002
   0.07836840  0.32836840  0.75000006
   0.96284664  0.02653812  0.75000006
   0.57395762  0.30431601  0.85000014
   0.18506867  0.58209384  0.95000017
   0.46284667  0.02653812  0.75000006
   0.07395766  0.30431601  0.85000014
   0.68506873  0.58209384  0.95000017
   0.76840210  0.91542709  0.80000001
   0.37951314  0.19320500  0.90000010
   0.99062407  0.47098303  0.00000024
   0.26840213  0.91542709  0.80000001
   0.87951314  0.19320500  0.90000010
   0.49062413  0.47098303  0.00000024
