 156 156   0   0
  0.2314675E+02  0.1600268E-08  0.1697340E-08  0.1329392E-08  0.5000000E-15
  1.000000000000000E-004
  CAR 
 Si and Ge interface calculation         
      6.96204457     -8.77976010  301      4.20626126      1.00000000
     -8.780  0.0000E+00  0.0000E+00  0.0000E+00  0.0000E+00
     -8.727  0.0000E+00  0.0000E+00  0.0000E+00  0.0000E+00
     -8.675  0.0000E+00  0.0000E+00  0.0000E+00  0.0000E+00
     -8.622  0.0000E+00  0.0000E+00  0.0000E+00  0.0000E+00
     -8.570  0.0000E+00  0.0000E+00  0.0000E+00  0.0000E+00
     -8.517  0.0000E+00  0.0000E+00  0.0000E+00  0.0000E+00
     -8.465  0.0000E+00  0.0000E+00  0.0000E+00  0.0000E+00
     -8.412  0.0000E+00  0.0000E+00  0.0000E+00  0.0000E+00
     -8.360  0.0000E+00  0.0000E+00  0.0000E+00  0.0000E+00
     -8.308  0.0000E+00  0.0000E+00  0.0000E+00  0.0000E+00
     -8.255  0.0000E+00  0.0000E+00  0.0000E+00  0.0000E+00
     -8.203  0.0000E+00  0.0000E+00  0.0000E+00  0.0000E+00
     -8.150  0.0000E+00  0.0000E+00  0.0000E+00  0.0000E+00
     -8.098  0.5744E-05  0.2263E-06  0.3014E-06  0.1188E-07
     -8.045  0.9417E+01  0.9080E+01  0.4941E+00  0.4765E+00
     -7.993  0.1921E+02  0.1939E+02  0.1502E+01  0.1494E+01
     -7.940  0.9486E+01  0.9644E+01  0.2000E+01  0.2000E+01
     -7.888  0.1343E+00  0.1524E-01  0.2007E+01  0.2001E+01
     -7.835  0.9464E+01  0.9519E+01  0.2504E+01  0.2500E+01
     -7.783  0.9460E+01  0.9523E+01  0.3000E+01  0.3000E+01
     -7.730  0.7665E+01  0.6064E+01  0.3402E+01  0.3318E+01
     -7.678  0.1283E+02  0.1362E+02  0.4076E+01  0.4033E+01
     -7.625  0.2582E+02  0.2494E+02  0.5430E+01  0.5341E+01
     -7.573  0.4807E+01  0.5592E+01  0.5683E+01  0.5635E+01
     -7.520  0.2439E+02  0.2070E+02  0.6962E+01  0.6721E+01
     -7.468  0.2601E+02  0.2867E+02  0.8327E+01  0.8225E+01
     -7.415  0.3186E+02  0.3370E+02  0.9999E+01  0.9994E+01
     -7.363  0.9921E+01  0.8660E+01  0.1052E+02  0.1045E+02
     -7.311  0.2408E+02  0.2281E+02  0.1178E+02  0.1165E+02
     -7.258  0.2713E+02  0.2824E+02  0.1321E+02  0.1313E+02
     -7.206  0.2126E+02  0.2196E+02  0.1432E+02  0.1428E+02
     -7.153  0.2543E+02  0.2426E+02  0.1566E+02  0.1555E+02
     -7.101  0.4040E+02  0.3871E+02  0.1778E+02  0.1758E+02
     -7.048  0.2905E+02  0.2855E+02  0.1930E+02  0.1908E+02
     -6.996  0.4738E+02  0.5091E+02  0.2179E+02  0.2175E+02
     -6.943  0.4081E+02  0.3971E+02  0.2393E+02  0.2384E+02
     -6.891  0.2846E+02  0.2795E+02  0.2542E+02  0.2530E+02
     -6.838  0.2775E+02  0.2774E+02  0.2688E+02  0.2676E+02
     -6.786  0.3378E+02  0.3169E+02  0.2865E+02  0.2842E+02
     -6.733  0.3809E+02  0.3823E+02  0.3065E+02  0.3043E+02
     -6.681  0.3582E+02  0.3727E+02  0.3253E+02  0.3238E+02
     -6.628  0.3684E+02  0.3784E+02  0.3446E+02  0.3437E+02
     -6.576  0.1824E+02  0.1802E+02  0.3542E+02  0.3531E+02
     -6.523  0.2407E+02  0.2170E+02  0.3668E+02  0.3645E+02
     -6.471  0.3896E+02  0.4019E+02  0.3873E+02  0.3856E+02
     -6.418  0.3740E+02  0.3819E+02  0.4069E+02  0.4057E+02
     -6.366  0.3898E+02  0.3549E+02  0.4273E+02  0.4243E+02
     -6.314  0.4187E+02  0.4126E+02  0.4493E+02  0.4459E+02
     -6.261  0.3553E+02  0.3672E+02  0.4680E+02  0.4652E+02
     -6.209  0.3742E+02  0.4124E+02  0.4876E+02  0.4868E+02
     -6.156  0.4603E+02  0.4282E+02  0.5117E+02  0.5093E+02
     -6.104  0.5162E+02  0.5005E+02  0.5388E+02  0.5356E+02
     -6.051  0.5223E+02  0.5252E+02  0.5662E+02  0.5631E+02
     -5.999  0.2769E+02  0.2852E+02  0.5808E+02  0.5781E+02
     -5.946  0.4494E+02  0.4740E+02  0.6044E+02  0.6030E+02
     -5.894  0.5156E+02  0.4773E+02  0.6314E+02  0.6280E+02
     -5.841  0.4338E+02  0.4707E+02  0.6542E+02  0.6527E+02
     -5.789  0.5336E+02  0.4973E+02  0.6822E+02  0.6788E+02
     -5.736  0.3930E+02  0.3903E+02  0.7028E+02  0.6993E+02
     -5.684  0.6461E+02  0.6448E+02  0.7367E+02  0.7331E+02
     -5.631  0.5187E+02  0.5261E+02  0.7639E+02  0.7607E+02
     -5.579  0.5346E+02  0.5557E+02  0.7920E+02  0.7899E+02
     -5.526  0.4981E+02  0.4864E+02  0.8181E+02  0.8154E+02
     -5.474  0.4786E+02  0.4633E+02  0.8432E+02  0.8397E+02
     -5.422  0.7937E+02  0.7923E+02  0.8849E+02  0.8813E+02
     -5.369  0.5260E+02  0.5582E+02  0.9125E+02  0.9106E+02
     -5.317  0.4504E+02  0.4589E+02  0.9361E+02  0.9347E+02
     -5.264  0.4899E+02  0.4559E+02  0.9618E+02  0.9586E+02
     -5.212  0.4902E+02  0.5318E+02  0.9875E+02  0.9865E+02
     -5.159  0.2798E+02  0.2736E+02  0.1002E+03  0.1001E+03
     -5.107  0.3738E+02  0.3718E+02  0.1022E+03  0.1020E+03
     -5.054  0.3553E+02  0.3401E+02  0.1040E+03  0.1038E+03
     -5.002  0.3620E+02  0.3626E+02  0.1059E+03  0.1057E+03
     -4.949  0.4503E+02  0.4469E+02  0.1083E+03  0.1081E+03
     -4.897  0.5488E+02  0.5604E+02  0.1112E+03  0.1110E+03
     -4.844  0.6941E+02  0.6559E+02  0.1148E+03  0.1144E+03
     -4.792  0.5389E+02  0.5666E+02  0.1177E+03  0.1174E+03
     -4.739  0.6738E+02  0.6589E+02  0.1212E+03  0.1209E+03
     -4.687  0.5521E+02  0.5606E+02  0.1241E+03  0.1238E+03
     -4.634  0.5519E+02  0.5703E+02  0.1270E+03  0.1268E+03
     -4.582  0.2723E+02  0.2854E+02  0.1284E+03  0.1283E+03
     -4.529  0.2799E+02  0.2715E+02  0.1299E+03  0.1297E+03
     -4.477  0.3474E+02  0.3475E+02  0.1317E+03  0.1316E+03
     -4.425  0.2629E+02  0.2331E+02  0.1331E+03  0.1328E+03
     -4.372  0.3815E+02  0.4021E+02  0.1351E+03  0.1349E+03
     -4.320  0.4243E+02  0.4184E+02  0.1373E+03  0.1371E+03
     -4.267  0.2873E+02  0.2832E+02  0.1388E+03  0.1386E+03
     -4.215  0.4100E+02  0.4413E+02  0.1410E+03  0.1409E+03
     -4.162  0.3871E+02  0.3428E+02  0.1430E+03  0.1427E+03
     -4.110  0.3620E+02  0.3990E+02  0.1449E+03  0.1448E+03
     -4.057  0.1794E+02  0.1679E+02  0.1458E+03  0.1457E+03
     -4.005  0.3821E+02  0.3754E+02  0.1479E+03  0.1476E+03
     -3.952  0.3343E+02  0.3481E+02  0.1496E+03  0.1495E+03
     -3.900  0.3326E+02  0.3112E+02  0.1514E+03  0.1511E+03
     -3.847  0.4730E+02  0.5042E+02  0.1538E+03  0.1537E+03
     -3.795  0.2792E+02  0.2510E+02  0.1553E+03  0.1551E+03
     -3.742  0.4884E+02  0.4612E+02  0.1579E+03  0.1575E+03
     -3.690  0.5983E+02  0.6346E+02  0.1610E+03  0.1608E+03
     -3.637  0.3265E+02  0.3001E+02  0.1627E+03  0.1624E+03
     -3.585  0.5989E+02  0.6361E+02  0.1659E+03  0.1657E+03
     -3.532  0.2282E+02  0.2313E+02  0.1671E+03  0.1669E+03
     -3.480  0.3383E+02  0.2781E+02  0.1688E+03  0.1684E+03
     -3.428  0.3080E+02  0.3590E+02  0.1704E+03  0.1703E+03
     -3.375  0.4175E+02  0.3753E+02  0.1726E+03  0.1722E+03
     -3.323  0.4493E+02  0.4863E+02  0.1750E+03  0.1748E+03
     -3.270  0.3412E+02  0.3101E+02  0.1768E+03  0.1764E+03
     -3.218  0.3586E+02  0.3594E+02  0.1787E+03  0.1783E+03
     -3.165  0.2868E+02  0.3123E+02  0.1802E+03  0.1799E+03
     -3.113  0.3495E+02  0.3087E+02  0.1820E+03  0.1816E+03
     -3.060  0.3310E+02  0.3796E+02  0.1837E+03  0.1836E+03
     -3.008  0.5123E+02  0.5231E+02  0.1864E+03  0.1863E+03
     -2.955  0.2480E+02  0.2441E+02  0.1877E+03  0.1876E+03
     -2.903  0.2296E+02  0.2282E+02  0.1889E+03  0.1888E+03
     -2.850  0.5012E+02  0.4663E+02  0.1916E+03  0.1912E+03
     -2.798  0.3101E+02  0.3512E+02  0.1932E+03  0.1931E+03
     -2.745  0.5267E+02  0.4970E+02  0.1960E+03  0.1957E+03
     -2.693  0.4530E+02  0.4380E+02  0.1983E+03  0.1980E+03
     -2.640  0.6588E+02  0.6421E+02  0.2018E+03  0.2013E+03
     -2.588  0.4748E+02  0.4947E+02  0.2043E+03  0.2039E+03
     -2.536  0.2750E+02  0.3044E+02  0.2057E+03  0.2055E+03
     -2.483  0.4961E+02  0.4474E+02  0.2083E+03  0.2079E+03
     -2.431  0.5470E+02  0.5493E+02  0.2112E+03  0.2108E+03
     -2.378  0.7001E+02  0.7049E+02  0.2149E+03  0.2145E+03
     -2.326  0.2396E+02  0.2910E+02  0.2161E+03  0.2160E+03
     -2.273  0.7468E+02  0.7184E+02  0.2200E+03  0.2198E+03
     -2.221  0.5270E+02  0.5079E+02  0.2228E+03  0.2224E+03
     -2.168  0.5335E+02  0.5470E+02  0.2256E+03  0.2253E+03
     -2.116  0.4594E+02  0.4361E+02  0.2280E+03  0.2276E+03
     -2.063  0.5694E+02  0.5866E+02  0.2310E+03  0.2307E+03
     -2.011  0.4852E+02  0.4750E+02  0.2336E+03  0.2332E+03
     -1.958  0.3919E+02  0.4433E+02  0.2356E+03  0.2355E+03
     -1.906  0.5981E+02  0.5743E+02  0.2388E+03  0.2385E+03
     -1.853  0.3690E+02  0.3782E+02  0.2407E+03  0.2405E+03
     -1.801  0.4832E+02  0.4803E+02  0.2432E+03  0.2430E+03
     -1.748  0.4094E+02  0.4210E+02  0.2454E+03  0.2452E+03
     -1.696  0.3991E+02  0.3843E+02  0.2475E+03  0.2472E+03
     -1.643  0.3879E+02  0.4143E+02  0.2495E+03  0.2494E+03
     -1.591  0.3585E+02  0.3117E+02  0.2514E+03  0.2510E+03
     -1.539  0.3075E+02  0.3620E+02  0.2530E+03  0.2529E+03
     -1.486  0.4112E+02  0.3720E+02  0.2552E+03  0.2549E+03
     -1.434  0.3765E+02  0.3846E+02  0.2571E+03  0.2569E+03
     -1.381  0.4811E+02  0.4705E+02  0.2597E+03  0.2594E+03
     -1.329  0.3587E+02  0.3437E+02  0.2615E+03  0.2612E+03
     -1.276  0.4524E+02  0.4815E+02  0.2639E+03  0.2637E+03
     -1.224  0.4374E+02  0.4145E+02  0.2662E+03  0.2659E+03
     -1.171  0.2689E+02  0.2829E+02  0.2676E+03  0.2674E+03
     -1.119  0.3518E+02  0.3639E+02  0.2695E+03  0.2693E+03
     -1.066  0.2570E+02  0.2507E+02  0.2708E+03  0.2706E+03
     -1.014  0.3380E+02  0.3665E+02  0.2726E+03  0.2725E+03
     -0.961  0.3044E+02  0.2929E+02  0.2742E+03  0.2741E+03
     -0.909  0.1715E+02  0.1701E+02  0.2751E+03  0.2749E+03
     -0.856  0.2673E+02  0.2631E+02  0.2765E+03  0.2763E+03
     -0.804  0.3560E+02  0.3432E+02  0.2784E+03  0.2781E+03
     -0.751  0.3457E+02  0.3509E+02  0.2802E+03  0.2800E+03
     -0.699  0.3624E+02  0.3290E+02  0.2821E+03  0.2817E+03
     -0.646  0.3440E+02  0.3785E+02  0.2839E+03  0.2837E+03
     -0.594  0.4123E+02  0.4010E+02  0.2860E+03  0.2858E+03
     -0.542  0.3650E+02  0.3592E+02  0.2880E+03  0.2877E+03
     -0.489  0.2457E+02  0.2587E+02  0.2892E+03  0.2890E+03
     -0.437  0.3584E+02  0.3665E+02  0.2911E+03  0.2910E+03
     -0.384  0.3067E+02  0.2862E+02  0.2927E+03  0.2925E+03
     -0.332  0.2494E+02  0.2747E+02  0.2940E+03  0.2939E+03
     -0.279  0.1541E+02  0.1447E+02  0.2948E+03  0.2947E+03
     -0.227  0.3132E+02  0.3425E+02  0.2965E+03  0.2965E+03
     -0.174  0.4064E+02  0.3766E+02  0.2986E+03  0.2984E+03
     -0.122  0.2024E+02  0.2117E+02  0.2997E+03  0.2995E+03
     -0.069  0.2837E+02  0.2905E+02  0.3012E+03  0.3011E+03
     -0.017  0.4537E+02  0.4518E+02  0.3036E+03  0.3034E+03
      0.036  0.2977E+02  0.2938E+02  0.3051E+03  0.3050E+03
      0.088  0.3892E+02  0.3479E+02  0.3072E+03  0.3068E+03
      0.141  0.8222E+02  0.8508E+02  0.3115E+03  0.3113E+03
      0.193  0.6095E+02  0.5738E+02  0.3147E+03  0.3143E+03
      0.246  0.6485E+02  0.6663E+02  0.3181E+03  0.3178E+03
      0.298  0.7628E+02  0.7366E+02  0.3221E+03  0.3216E+03
      0.350  0.6461E+02  0.6761E+02  0.3255E+03  0.3252E+03
      0.403  0.8665E+02  0.8108E+02  0.3300E+03  0.3294E+03
      0.455  0.1003E+03  0.9981E+02  0.3353E+03  0.3347E+03
      0.508  0.8208E+02  0.8518E+02  0.3396E+03  0.3391E+03
      0.560  0.9282E+02  0.8987E+02  0.3445E+03  0.3439E+03
      0.613  0.8245E+02  0.8758E+02  0.3488E+03  0.3485E+03
      0.665  0.7892E+02  0.7974E+02  0.3529E+03  0.3526E+03
      0.718  0.9348E+02  0.9056E+02  0.3578E+03  0.3574E+03
      0.770  0.7915E+02  0.8003E+02  0.3620E+03  0.3616E+03
      0.823  0.7560E+02  0.7386E+02  0.3659E+03  0.3655E+03
      0.875  0.8442E+02  0.8690E+02  0.3704E+03  0.3700E+03
      0.928  0.8983E+02  0.8798E+02  0.3751E+03  0.3746E+03
      0.980  0.8400E+02  0.8194E+02  0.3795E+03  0.3789E+03
      1.033  0.1051E+03  0.1070E+03  0.3850E+03  0.3846E+03
      1.085  0.9067E+02  0.9055E+02  0.3898E+03  0.3893E+03
      1.138  0.7990E+02  0.8202E+02  0.3940E+03  0.3936E+03
      1.190  0.9523E+02  0.9662E+02  0.3990E+03  0.3987E+03
      1.243  0.1015E+03  0.9796E+02  0.4043E+03  0.4038E+03
      1.295  0.8442E+02  0.8475E+02  0.4087E+03  0.4083E+03
      1.347  0.9731E+02  0.9727E+02  0.4138E+03  0.4134E+03
      1.400  0.1024E+03  0.1012E+03  0.4192E+03  0.4187E+03
      1.452  0.9326E+02  0.9463E+02  0.4241E+03  0.4237E+03
      1.505  0.9305E+02  0.9075E+02  0.4290E+03  0.4284E+03
      1.557  0.1142E+03  0.1113E+03  0.4350E+03  0.4343E+03
      1.610  0.7900E+02  0.8473E+02  0.4391E+03  0.4387E+03
      1.662  0.1051E+03  0.1039E+03  0.4446E+03  0.4441E+03
      1.715  0.8524E+02  0.8712E+02  0.4491E+03  0.4487E+03
      1.767  0.9822E+02  0.9495E+02  0.4543E+03  0.4537E+03
      1.820  0.7796E+02  0.8040E+02  0.4583E+03  0.4579E+03
      1.872  0.7903E+02  0.8041E+02  0.4625E+03  0.4621E+03
      1.925  0.9020E+02  0.8493E+02  0.4672E+03  0.4666E+03
      1.977  0.9274E+02  0.9730E+02  0.4721E+03  0.4717E+03
      2.030  0.8232E+02  0.8230E+02  0.4764E+03  0.4760E+03
      2.082  0.7723E+02  0.7400E+02  0.4805E+03  0.4799E+03
      2.135  0.1017E+03  0.9912E+02  0.4858E+03  0.4851E+03
      2.187  0.1099E+03  0.1115E+03  0.4916E+03  0.4910E+03
      2.240  0.6907E+02  0.6951E+02  0.4952E+03  0.4946E+03
      2.292  0.9861E+02  0.9968E+02  0.5004E+03  0.4998E+03
      2.344  0.8832E+02  0.8728E+02  0.5050E+03  0.5044E+03
      2.397  0.9720E+02  0.9881E+02  0.5101E+03  0.5096E+03
      2.449  0.8662E+02  0.8418E+02  0.5146E+03  0.5140E+03
      2.502  0.8707E+02  0.8905E+02  0.5192E+03  0.5187E+03
      2.554  0.7602E+02  0.7727E+02  0.5232E+03  0.5227E+03
      2.607  0.8148E+02  0.7976E+02  0.5275E+03  0.5269E+03
      2.659  0.8518E+02  0.8351E+02  0.5319E+03  0.5313E+03
      2.712  0.9873E+02  0.1032E+03  0.5371E+03  0.5367E+03
      2.764  0.6363E+02  0.6393E+02  0.5405E+03  0.5401E+03
      2.817  0.7967E+02  0.7955E+02  0.5446E+03  0.5443E+03
      2.869  0.7401E+02  0.7130E+02  0.5485E+03  0.5480E+03
      2.922  0.7030E+02  0.7301E+02  0.5522E+03  0.5518E+03
      2.974  0.6831E+02  0.6790E+02  0.5558E+03  0.5554E+03
      3.027  0.6071E+02  0.6152E+02  0.5590E+03  0.5586E+03
      3.079  0.5476E+02  0.5059E+02  0.5619E+03  0.5613E+03
      3.132  0.6738E+02  0.6764E+02  0.5654E+03  0.5648E+03
      3.184  0.7329E+02  0.7214E+02  0.5692E+03  0.5686E+03
      3.236  0.5945E+02  0.6350E+02  0.5724E+03  0.5719E+03
      3.289  0.6637E+02  0.6253E+02  0.5758E+03  0.5752E+03
      3.341  0.5916E+02  0.6103E+02  0.5789E+03  0.5784E+03
      3.394  0.6350E+02  0.6540E+02  0.5823E+03  0.5819E+03
      3.446  0.6957E+02  0.6571E+02  0.5859E+03  0.5853E+03
      3.499  0.5030E+02  0.4869E+02  0.5886E+03  0.5879E+03
      3.551  0.4669E+02  0.5049E+02  0.5910E+03  0.5905E+03
      3.604  0.4315E+02  0.4889E+02  0.5933E+03  0.5931E+03
      3.656  0.3951E+02  0.3315E+02  0.5954E+03  0.5948E+03
      3.709  0.5148E+02  0.5630E+02  0.5981E+03  0.5978E+03
      3.761  0.5430E+02  0.4830E+02  0.6009E+03  0.6003E+03
      3.814  0.5426E+02  0.4938E+02  0.6038E+03  0.6029E+03
      3.866  0.4352E+02  0.4745E+02  0.6060E+03  0.6054E+03
      3.919  0.4501E+02  0.5028E+02  0.6084E+03  0.6080E+03
      3.971  0.4638E+02  0.3877E+02  0.6108E+03  0.6101E+03
      4.024  0.7061E+02  0.7076E+02  0.6145E+03  0.6138E+03
      4.076  0.4346E+02  0.4488E+02  0.6168E+03  0.6161E+03
      4.129  0.7030E+02  0.6493E+02  0.6205E+03  0.6195E+03
      4.181  0.3939E+02  0.4250E+02  0.6226E+03  0.6218E+03
      4.233  0.4784E+02  0.4822E+02  0.6251E+03  0.6243E+03
      4.286  0.5165E+02  0.5367E+02  0.6278E+03  0.6271E+03
      4.338  0.5577E+02  0.5357E+02  0.6307E+03  0.6299E+03
      4.391  0.5701E+02  0.5486E+02  0.6337E+03  0.6328E+03
      4.443  0.6191E+02  0.5909E+02  0.6370E+03  0.6359E+03
      4.496  0.5999E+02  0.5977E+02  0.6401E+03  0.6390E+03
      4.548  0.5295E+02  0.6484E+02  0.6429E+03  0.6424E+03
      4.601  0.6804E+02  0.5718E+02  0.6465E+03  0.6454E+03
      4.653  0.6050E+02  0.6762E+02  0.6496E+03  0.6490E+03
      4.706  0.5681E+02  0.5742E+02  0.6526E+03  0.6520E+03
      4.758  0.5999E+02  0.6232E+02  0.6558E+03  0.6553E+03
      4.811  0.6052E+02  0.5757E+02  0.6589E+03  0.6583E+03
      4.863  0.5707E+02  0.5939E+02  0.6619E+03  0.6614E+03
      4.916  0.5139E+02  0.5122E+02  0.6646E+03  0.6641E+03
      4.968  0.4957E+02  0.4955E+02  0.6672E+03  0.6667E+03
      5.021  0.6775E+02  0.6543E+02  0.6708E+03  0.6701E+03
      5.073  0.7012E+02  0.6865E+02  0.6745E+03  0.6737E+03
      5.126  0.5007E+02  0.4811E+02  0.6771E+03  0.6762E+03
      5.178  0.4928E+02  0.5188E+02  0.6797E+03  0.6790E+03
      5.230  0.5940E+02  0.5942E+02  0.6828E+03  0.6821E+03
      5.283  0.7631E+02  0.8063E+02  0.6868E+03  0.6863E+03
      5.335  0.7149E+02  0.6767E+02  0.6906E+03  0.6899E+03
      5.388  0.5650E+02  0.6304E+02  0.6935E+03  0.6932E+03
      5.440  0.6014E+02  0.5723E+02  0.6967E+03  0.6962E+03
      5.493  0.6817E+02  0.6643E+02  0.7002E+03  0.6997E+03
      5.545  0.7504E+02  0.7297E+02  0.7042E+03  0.7035E+03
      5.598  0.7772E+02  0.7862E+02  0.7083E+03  0.7076E+03
      5.650  0.6043E+02  0.6101E+02  0.7114E+03  0.7108E+03
      5.703  0.8598E+02  0.7920E+02  0.7159E+03  0.7150E+03
      5.755  0.6846E+02  0.8034E+02  0.7195E+03  0.7192E+03
      5.808  0.6605E+02  0.6146E+02  0.7230E+03  0.7224E+03
      5.860  0.7368E+02  0.7232E+02  0.7269E+03  0.7262E+03
      5.913  0.7621E+02  0.8226E+02  0.7309E+03  0.7305E+03
      5.965  0.6889E+02  0.6952E+02  0.7345E+03  0.7342E+03
      6.018  0.7041E+02  0.6362E+02  0.7382E+03  0.7375E+03
      6.070  0.6841E+02  0.7293E+02  0.7418E+03  0.7413E+03
      6.122  0.7332E+02  0.7427E+02  0.7456E+03  0.7452E+03
      6.175  0.6646E+02  0.6814E+02  0.7491E+03  0.7488E+03
      6.227  0.4578E+02  0.3800E+02  0.7515E+03  0.7508E+03
      6.280  0.9392E+01  0.2266E+02  0.7520E+03  0.7520E+03
      6.332  0.0000E+00  0.0000E+00  0.7520E+03  0.7520E+03
      6.385  0.0000E+00  0.0000E+00  0.7520E+03  0.7520E+03
      6.437  0.0000E+00  0.0000E+00  0.7520E+03  0.7520E+03
      6.490  0.0000E+00  0.0000E+00  0.7520E+03  0.7520E+03
      6.542  0.0000E+00  0.0000E+00  0.7520E+03  0.7520E+03
      6.595  0.0000E+00  0.0000E+00  0.7520E+03  0.7520E+03
      6.647  0.0000E+00  0.0000E+00  0.7520E+03  0.7520E+03
      6.700  0.0000E+00  0.0000E+00  0.7520E+03  0.7520E+03
      6.752  0.0000E+00  0.0000E+00  0.7520E+03  0.7520E+03
      6.805  0.0000E+00  0.0000E+00  0.7520E+03  0.7520E+03
      6.857  0.0000E+00  0.0000E+00  0.7520E+03  0.7520E+03
      6.910  0.0000E+00  0.0000E+00  0.7520E+03  0.7520E+03
      6.962  0.0000E+00  0.0000E+00  0.7520E+03  0.7520E+03
