 120 120   0   0
  0.1318225E+02  0.1629300E-08  0.1629300E-08  0.7994749E-09  0.5000000E-15
  1.000000000000000E-004
  CAR 
 Si and Ge interface calculation         
      7.67017072    -14.86365251  301      4.27051691      1.00000000
    -14.864  0.0000E+00  0.0000E+00  0.0000E+00  0.0000E+00
    -14.789  0.0000E+00  0.0000E+00  0.0000E+00  0.0000E+00
    -14.713  0.0000E+00  0.0000E+00  0.0000E+00  0.0000E+00
    -14.638  0.0000E+00  0.0000E+00  0.0000E+00  0.0000E+00
    -14.563  0.0000E+00  0.0000E+00  0.0000E+00  0.0000E+00
    -14.488  0.0000E+00  0.0000E+00  0.0000E+00  0.0000E+00
    -14.413  0.0000E+00  0.0000E+00  0.0000E+00  0.0000E+00
    -14.338  0.0000E+00  0.0000E+00  0.0000E+00  0.0000E+00
    -14.263  0.0000E+00  0.0000E+00  0.0000E+00  0.0000E+00
    -14.188  0.0000E+00  0.0000E+00  0.0000E+00  0.0000E+00
    -14.113  0.0000E+00  0.0000E+00  0.0000E+00  0.0000E+00
    -14.037  0.0000E+00  0.0000E+00  0.0000E+00  0.0000E+00
    -13.962  0.0000E+00  0.0000E+00  0.0000E+00  0.0000E+00
    -13.887  0.1219E-10  0.6159E-15  0.9157E-12  0.4626E-16
    -13.812  0.2960E+01  0.2939E+01  0.2224E+00  0.2207E+00
    -13.737  0.1774E+02  0.1737E+02  0.1555E+01  0.1527E+01
    -13.662  0.4403E+01  0.1091E+01  0.1886E+01  0.1637E+01
    -13.587  0.1348E+02  0.1666E+02  0.2899E+01  0.2889E+01
    -13.512  0.1702E+02  0.1343E+02  0.4177E+01  0.3898E+01
    -13.437  0.1182E+02  0.1578E+02  0.5110E+01  0.5083E+01
    -13.361  0.1749E+02  0.1495E+02  0.6425E+01  0.6234E+01
    -13.286  0.5758E-05  0.1178E+01  0.6444E+01  0.6444E+01
    -13.211  0.9097E+01  0.6558E+01  0.7128E+01  0.6937E+01
    -13.136  0.2750E+02  0.2518E+02  0.9193E+01  0.8829E+01
    -13.061  0.1046E+02  0.1560E+02  0.1004E+02  0.1000E+02
    -12.986  0.5789E+01  0.5913E+01  0.1047E+02  0.1045E+02
    -12.911  0.1149E+02  0.1175E+02  0.1133E+02  0.1133E+02
    -12.836  0.8109E+01  0.5956E+01  0.1194E+02  0.1178E+02
    -12.760  0.2197E+02  0.1960E+02  0.1359E+02  0.1327E+02
    -12.685  0.1605E+02  0.2154E+02  0.1489E+02  0.1489E+02
    -12.610  0.2278E+02  0.2090E+02  0.1660E+02  0.1646E+02
    -12.535  0.1153E+02  0.1170E+02  0.1747E+02  0.1735E+02
    -12.460  0.4114E+01  0.5720E+01  0.1778E+02  0.1778E+02
    -12.385  0.1522E+02  0.1181E+02  0.1892E+02  0.1867E+02
    -12.310  0.1426E+02  0.1628E+02  0.2000E+02  0.1996E+02
    -12.235  0.1048E+01  0.6315E-01  0.2008E+02  0.2000E+02
    -12.160  0.2567E+02  0.2545E+02  0.2201E+02  0.2192E+02
    -12.084  0.1464E+02  0.1455E+02  0.2311E+02  0.2309E+02
    -12.009  0.6516E+01  0.1698E+01  0.2360E+02  0.2324E+02
    -11.934  0.1124E+02  0.1605E+02  0.2444E+02  0.2444E+02
    -11.859  0.1113E+02  0.6999E+01  0.2528E+02  0.2497E+02
    -11.784  0.5649E+00  0.4858E+01  0.2538E+02  0.2534E+02
    -11.709  0.1382E+02  0.1257E+02  0.2641E+02  0.2628E+02
    -11.634  0.9276E+01  0.1100E+02  0.2711E+02  0.2711E+02
    -11.559  0.1159E+02  0.9850E+01  0.2798E+02  0.2785E+02
    -11.484  0.7165E-07  0.1984E+01  0.2800E+02  0.2800E+02
    -11.408  0.2959E+01  0.2958E+01  0.2822E+02  0.2822E+02
    -11.333  0.5917E+01  0.5909E+01  0.2867E+02  0.2867E+02
    -11.258  0.3957E+01  0.1120E+01  0.2896E+02  0.2875E+02
    -11.183  0.7877E+01  0.1071E+02  0.2956E+02  0.2956E+02
    -11.108  0.2357E+02  0.2168E+02  0.3133E+02  0.3118E+02
    -11.033  0.2264E+02  0.1895E+02  0.3304E+02  0.3273E+02
    -10.958  0.1244E+01  0.5139E+01  0.3316E+02  0.3311E+02
    -10.883  0.1692E+02  0.1562E+02  0.3443E+02  0.3429E+02
    -10.808  0.2673E+02  0.2851E+02  0.3646E+02  0.3643E+02
    -10.732  0.1463E+02  0.1479E+02  0.3756E+02  0.3756E+02
    -10.657  0.5898E+01  0.5274E+01  0.3800E+02  0.3795E+02
    -10.582  0.1178E+02  0.1093E+02  0.3888E+02  0.3882E+02
    -10.507  0.1508E+02  0.1306E+02  0.4002E+02  0.3987E+02
    -10.432  0.1275E+02  0.9581E+01  0.4099E+02  0.4072E+02
    -10.357  0.1350E+02  0.1703E+02  0.4200E+02  0.4200E+02
    -10.282  0.9812E+01  0.6984E+01  0.4274E+02  0.4252E+02
    -10.207  0.2486E+01  0.4779E+01  0.4292E+02  0.4289E+02
    -10.132  0.1137E+02  0.1182E+02  0.4378E+02  0.4378E+02
    -10.056  0.5447E+01  0.3067E+01  0.4419E+02  0.4401E+02
     -9.981  0.5922E+01  0.8767E+01  0.4467E+02  0.4467E+02
     -9.906  0.1544E+02  0.1218E+02  0.4583E+02  0.4558E+02
     -9.831  0.8141E+01  0.1042E+02  0.4644E+02  0.4644E+02
     -9.756  0.1183E+02  0.1183E+02  0.4733E+02  0.4733E+02
     -9.681  0.1389E+02  0.1162E+02  0.4838E+02  0.4821E+02
     -9.606  0.1273E+02  0.1473E+02  0.4933E+02  0.4933E+02
     -9.531  0.1478E+02  0.1423E+02  0.5044E+02  0.5040E+02
     -9.456  0.3536E+02  0.3346E+02  0.5310E+02  0.5296E+02
     -9.380  0.8941E+01  0.1004E+02  0.5378E+02  0.5378E+02
     -9.305  0.1270E+02  0.7793E+01  0.5474E+02  0.5436E+02
     -9.230  0.1806E+02  0.1722E+02  0.5613E+02  0.5566E+02
     -9.155  0.2724E+02  0.3069E+02  0.5821E+02  0.5800E+02
     -9.080  0.2064E+02  0.2139E+02  0.5978E+02  0.5966E+02
     -9.005  0.1774E+02  0.1733E+02  0.6111E+02  0.6105E+02
     -8.930  0.1817E+02  0.1645E+02  0.6248E+02  0.6235E+02
     -8.855  0.3436E+02  0.3126E+02  0.6506E+02  0.6474E+02
     -8.780  0.2112E+02  0.2133E+02  0.6667E+02  0.6639E+02
     -8.704  0.1411E+02  0.1507E+02  0.6777E+02  0.6757E+02
     -8.629  0.2012E+02  0.1674E+02  0.6929E+02  0.6884E+02
     -8.554  0.2065E+02  0.2338E+02  0.7086E+02  0.7060E+02
     -8.479  0.2086E+02  0.1986E+02  0.7246E+02  0.7216E+02
     -8.404  0.1052E+02  0.1100E+02  0.7326E+02  0.7299E+02
     -8.329  0.2938E+02  0.3108E+02  0.7547E+02  0.7535E+02
     -8.254  0.1904E+02  0.1988E+02  0.7691E+02  0.7688E+02
     -8.179  0.1754E+02  0.1694E+02  0.7822E+02  0.7816E+02
     -8.104  0.1729E+02  0.1284E+02  0.7952E+02  0.7913E+02
     -8.028  0.1090E+02  0.1427E+02  0.8038E+02  0.8021E+02
     -7.953  0.8968E+01  0.9047E+01  0.8107E+02  0.8091E+02
     -7.878  0.1181E+02  0.1455E+02  0.8200E+02  0.8200E+02
     -7.803  0.5917E+01  0.5879E+01  0.8244E+02  0.8244E+02
     -7.728  0.1704E+01  0.2618E+00  0.8257E+02  0.8246E+02
     -7.653  0.1013E+02  0.1157E+02  0.8333E+02  0.8333E+02
     -7.578  0.0000E+00  0.0000E+00  0.8333E+02  0.8333E+02
     -7.503  0.3468E+01  0.1217E+01  0.8359E+02  0.8342E+02
     -7.427  0.8080E+01  0.1062E+02  0.8422E+02  0.8422E+02
     -7.352  0.5905E+00  0.2160E-01  0.8427E+02  0.8422E+02
     -7.277  0.5279E+01  0.5639E+01  0.8466E+02  0.8465E+02
     -7.202  0.2378E+01  0.1125E+01  0.8485E+02  0.8474E+02
     -7.127  0.5543E+01  0.6178E+01  0.8531E+02  0.8520E+02
     -7.052  0.1062E+02  0.8210E+01  0.8613E+02  0.8582E+02
     -6.977  0.9415E+01  0.1318E+02  0.8688E+02  0.8683E+02
     -6.902  0.9747E+01  0.7410E+01  0.8762E+02  0.8739E+02
     -6.827  0.5362E+01  0.7994E+01  0.8804E+02  0.8801E+02
     -6.751  0.6184E+01  0.5862E+01  0.8851E+02  0.8845E+02
     -6.676  0.1123E+02  0.1137E+02  0.8935E+02  0.8930E+02
     -6.601  0.8815E+01  0.7589E+01  0.9002E+02  0.8990E+02
     -6.526  0.9858E+01  0.9504E+01  0.9078E+02  0.9062E+02
     -6.451  0.1563E+02  0.1669E+02  0.9197E+02  0.9188E+02
     -6.376  0.1933E+02  0.1850E+02  0.9343E+02  0.9330E+02
     -6.301  0.2310E+02  0.1984E+02  0.9517E+02  0.9483E+02
     -6.226  0.3535E+02  0.3574E+02  0.9785E+02  0.9754E+02
     -6.151  0.1988E+02  0.2051E+02  0.9941E+02  0.9910E+02
     -6.075  0.3011E+02  0.3208E+02  0.1017E+03  0.1015E+03
     -6.000  0.2681E+02  0.2525E+02  0.1037E+03  0.1035E+03
     -5.925  0.2583E+02  0.2385E+02  0.1057E+03  0.1053E+03
     -5.850  0.1355E+02  0.1663E+02  0.1067E+03  0.1065E+03
     -5.775  0.2783E+02  0.2551E+02  0.1089E+03  0.1085E+03
     -5.700  0.3006E+02  0.3029E+02  0.1112E+03  0.1108E+03
     -5.625  0.2391E+02  0.2672E+02  0.1130E+03  0.1128E+03
     -5.550  0.1800E+02  0.1821E+02  0.1144E+03  0.1142E+03
     -5.475  0.3097E+02  0.2993E+02  0.1167E+03  0.1165E+03
     -5.399  0.3528E+02  0.3330E+02  0.1194E+03  0.1190E+03
     -5.324  0.2048E+02  0.2290E+02  0.1210E+03  0.1207E+03
     -5.249  0.2949E+02  0.2848E+02  0.1232E+03  0.1229E+03
     -5.174  0.2468E+02  0.2563E+02  0.1251E+03  0.1249E+03
     -5.099  0.2521E+02  0.2525E+02  0.1271E+03  0.1268E+03
     -5.024  0.3524E+02  0.3559E+02  0.1297E+03  0.1295E+03
     -4.949  0.2861E+02  0.2869E+02  0.1319E+03  0.1317E+03
     -4.874  0.2901E+02  0.2881E+02  0.1341E+03  0.1339E+03
     -4.799  0.3426E+02  0.3309E+02  0.1368E+03  0.1364E+03
     -4.723  0.3229E+02  0.3204E+02  0.1392E+03  0.1388E+03
     -4.648  0.2949E+02  0.3200E+02  0.1415E+03  0.1412E+03
     -4.573  0.2609E+02  0.2530E+02  0.1435E+03  0.1431E+03
     -4.498  0.2484E+02  0.2218E+02  0.1454E+03  0.1449E+03
     -4.423  0.3088E+02  0.3488E+02  0.1477E+03  0.1475E+03
     -4.348  0.2502E+02  0.2389E+02  0.1497E+03  0.1493E+03
     -4.273  0.3709E+02  0.3601E+02  0.1525E+03  0.1520E+03
     -4.198  0.4240E+02  0.4392E+02  0.1557E+03  0.1554E+03
     -4.123  0.2862E+02  0.2897E+02  0.1579E+03  0.1576E+03
     -4.047  0.3279E+02  0.3188E+02  0.1603E+03  0.1600E+03
     -3.972  0.3114E+02  0.3295E+02  0.1627E+03  0.1625E+03
     -3.897  0.2286E+02  0.2214E+02  0.1644E+03  0.1642E+03
     -3.822  0.2212E+02  0.2259E+02  0.1661E+03  0.1659E+03
     -3.747  0.2016E+02  0.1998E+02  0.1677E+03  0.1675E+03
     -3.672  0.3864E+02  0.3882E+02  0.1706E+03  0.1704E+03
     -3.597  0.2870E+02  0.2442E+02  0.1728E+03  0.1723E+03
     -3.522  0.3293E+02  0.3347E+02  0.1753E+03  0.1749E+03
     -3.447  0.1646E+02  0.2208E+02  0.1766E+03  0.1766E+03
     -3.371  0.2547E+02  0.2369E+02  0.1785E+03  0.1783E+03
     -3.296  0.3517E+02  0.3516E+02  0.1812E+03  0.1810E+03
     -3.221  0.3552E+02  0.3247E+02  0.1839E+03  0.1835E+03
     -3.146  0.2848E+02  0.2656E+02  0.1860E+03  0.1856E+03
     -3.071  0.3364E+02  0.3724E+02  0.1886E+03  0.1884E+03
     -2.996  0.2943E+02  0.2705E+02  0.1909E+03  0.1904E+03
     -2.921  0.3157E+02  0.3383E+02  0.1933E+03  0.1930E+03
     -2.846  0.2916E+02  0.2935E+02  0.1955E+03  0.1953E+03
     -2.771  0.1739E+02  0.1991E+02  0.1969E+03  0.1968E+03
     -2.695  0.2089E+02  0.2029E+02  0.1985E+03  0.1984E+03
     -2.620  0.1754E+02  0.1715E+02  0.1998E+03  0.1997E+03
     -2.545  0.1891E+02  0.1719E+02  0.2013E+03  0.2010E+03
     -2.470  0.2147E+02  0.2470E+02  0.2029E+03  0.2028E+03
     -2.395  0.2158E+02  0.1862E+02  0.2046E+03  0.2043E+03
     -2.320  0.3600E+02  0.3639E+02  0.2073E+03  0.2071E+03
     -2.245  0.3284E+02  0.3200E+02  0.2098E+03  0.2095E+03
     -2.170  0.3490E+02  0.3629E+02  0.2125E+03  0.2123E+03
     -2.094  0.3579E+02  0.3408E+02  0.2152E+03  0.2148E+03
     -2.019  0.3542E+02  0.3687E+02  0.2179E+03  0.2177E+03
     -1.944  0.3321E+02  0.3231E+02  0.2204E+03  0.2202E+03
     -1.869  0.3718E+02  0.3545E+02  0.2232E+03  0.2229E+03
     -1.794  0.3222E+02  0.3067E+02  0.2256E+03  0.2252E+03
     -1.719  0.2872E+02  0.2990E+02  0.2279E+03  0.2275E+03
     -1.644  0.3210E+02  0.3295E+02  0.2303E+03  0.2300E+03
     -1.569  0.3252E+02  0.3178E+02  0.2328E+03  0.2324E+03
     -1.494  0.4243E+02  0.4134E+02  0.2360E+03  0.2356E+03
     -1.418  0.4068E+02  0.4128E+02  0.2391E+03  0.2387E+03
     -1.343  0.3683E+02  0.3758E+02  0.2419E+03  0.2416E+03
     -1.268  0.4886E+02  0.4623E+02  0.2456E+03  0.2451E+03
     -1.193  0.3808E+02  0.3828E+02  0.2485E+03  0.2481E+03
     -1.118  0.3992E+02  0.4270E+02  0.2515E+03  0.2513E+03
     -1.043  0.3411E+02  0.3157E+02  0.2541E+03  0.2537E+03
     -0.968  0.4889E+02  0.5084E+02  0.2578E+03  0.2575E+03
     -0.893  0.3470E+02  0.3339E+02  0.2605E+03  0.2601E+03
     -0.818  0.4000E+02  0.3931E+02  0.2635E+03  0.2631E+03
     -0.742  0.3597E+02  0.3461E+02  0.2662E+03  0.2657E+03
     -0.667  0.4502E+02  0.4763E+02  0.2696E+03  0.2693E+03
     -0.592  0.4502E+02  0.4446E+02  0.2730E+03  0.2727E+03
     -0.517  0.3769E+02  0.3749E+02  0.2759E+03  0.2756E+03
     -0.442  0.5035E+02  0.4782E+02  0.2797E+03  0.2793E+03
     -0.367  0.3343E+02  0.3536E+02  0.2822E+03  0.2819E+03
     -0.292  0.3263E+02  0.3233E+02  0.2847E+03  0.2844E+03
     -0.217  0.3201E+02  0.3341E+02  0.2872E+03  0.2869E+03
     -0.142  0.3356E+02  0.3029E+02  0.2897E+03  0.2893E+03
     -0.066  0.2983E+02  0.3037E+02  0.2920E+03  0.2916E+03
      0.009  0.3123E+02  0.3151E+02  0.2944E+03  0.2940E+03
      0.084  0.3084E+02  0.3336E+02  0.2967E+03  0.2966E+03
      0.159  0.3357E+02  0.2995E+02  0.2993E+03  0.2989E+03
      0.234  0.3708E+02  0.3780E+02  0.3021E+03  0.3017E+03
      0.309  0.3231E+02  0.3409E+02  0.3046E+03  0.3043E+03
      0.384  0.2977E+02  0.2984E+02  0.3068E+03  0.3065E+03
      0.459  0.4583E+02  0.4187E+02  0.3103E+03  0.3097E+03
      0.534  0.4340E+02  0.4558E+02  0.3136E+03  0.3132E+03
      0.610  0.3169E+02  0.3196E+02  0.3160E+03  0.3157E+03
      0.685  0.3138E+02  0.3217E+02  0.3184E+03  0.3181E+03
      0.760  0.3326E+02  0.3396E+02  0.3210E+03  0.3207E+03
      0.835  0.3353E+02  0.3211E+02  0.3235E+03  0.3231E+03
      0.910  0.3762E+02  0.3492E+02  0.3264E+03  0.3258E+03
      0.985  0.3893E+02  0.3970E+02  0.3293E+03  0.3288E+03
      1.060  0.3802E+02  0.3985E+02  0.3322E+03  0.3318E+03
      1.135  0.5071E+02  0.4842E+02  0.3360E+03  0.3355E+03
      1.210  0.3985E+02  0.4183E+02  0.3390E+03  0.3387E+03
      1.286  0.3823E+02  0.3555E+02  0.3419E+03  0.3414E+03
      1.361  0.4500E+02  0.4382E+02  0.3454E+03  0.3448E+03
      1.436  0.3276E+02  0.3681E+02  0.3479E+03  0.3476E+03
      1.511  0.3462E+02  0.3161E+02  0.3505E+03  0.3500E+03
      1.586  0.4280E+02  0.4227E+02  0.3538E+03  0.3532E+03
      1.661  0.4039E+02  0.4190E+02  0.3569E+03  0.3564E+03
      1.736  0.4431E+02  0.4237E+02  0.3603E+03  0.3596E+03
      1.811  0.4082E+02  0.4465E+02  0.3634E+03  0.3630E+03
      1.886  0.4858E+02  0.4779E+02  0.3671E+03  0.3666E+03
      1.962  0.3480E+02  0.3340E+02  0.3697E+03  0.3692E+03
      2.037  0.5196E+02  0.5228E+02  0.3737E+03  0.3732E+03
      2.112  0.4181E+02  0.3621E+02  0.3768E+03  0.3759E+03
      2.187  0.4092E+02  0.4338E+02  0.3799E+03  0.3793E+03
      2.262  0.4334E+02  0.4482E+02  0.3832E+03  0.3827E+03
      2.337  0.3956E+02  0.3973E+02  0.3863E+03  0.3857E+03
      2.412  0.4108E+02  0.3898E+02  0.3894E+03  0.3887E+03
      2.487  0.5765E+02  0.5584E+02  0.3937E+03  0.3930E+03
      2.563  0.5571E+02  0.5832E+02  0.3980E+03  0.3974E+03
      2.638  0.4360E+02  0.3974E+02  0.4013E+03  0.4004E+03
      2.713  0.4530E+02  0.4651E+02  0.4047E+03  0.4040E+03
      2.788  0.4572E+02  0.4707E+02  0.4082E+03  0.4075E+03
      2.863  0.4679E+02  0.4521E+02  0.4117E+03  0.4110E+03
      2.938  0.5476E+02  0.5728E+02  0.4159E+03  0.4153E+03
      3.013  0.4690E+02  0.4698E+02  0.4195E+03  0.4189E+03
      3.088  0.4375E+02  0.4326E+02  0.4228E+03  0.4222E+03
      3.163  0.5344E+02  0.5502E+02  0.4268E+03  0.4264E+03
      3.239  0.5031E+02  0.4411E+02  0.4306E+03  0.4298E+03
      3.314  0.5111E+02  0.5360E+02  0.4345E+03  0.4338E+03
      3.389  0.4998E+02  0.5332E+02  0.4383E+03  0.4379E+03
      3.464  0.4787E+02  0.4383E+02  0.4419E+03  0.4412E+03
      3.539  0.4599E+02  0.4747E+02  0.4454E+03  0.4448E+03
      3.614  0.3749E+02  0.3533E+02  0.4482E+03  0.4475E+03
      3.689  0.4107E+02  0.4216E+02  0.4514E+03  0.4508E+03
      3.764  0.5124E+02  0.4501E+02  0.4552E+03  0.4543E+03
      3.839  0.4666E+02  0.4675E+02  0.4588E+03  0.4579E+03
      3.915  0.4698E+02  0.4676E+02  0.4623E+03  0.4614E+03
      3.990  0.5578E+02  0.5457E+02  0.4666E+03  0.4656E+03
      4.065  0.4462E+02  0.4219E+02  0.4700E+03  0.4688E+03
      4.140  0.4304E+02  0.5024E+02  0.4733E+03  0.4726E+03
      4.215  0.5850E+02  0.4792E+02  0.4777E+03  0.4762E+03
      4.290  0.4653E+02  0.5275E+02  0.4812E+03  0.4802E+03
      4.365  0.4846E+02  0.5055E+02  0.4849E+03  0.4841E+03
      4.440  0.5036E+02  0.4610E+02  0.4888E+03  0.4876E+03
      4.515  0.4000E+02  0.4468E+02  0.4919E+03  0.4910E+03
      4.591  0.6459E+02  0.6265E+02  0.4968E+03  0.4957E+03
      4.666  0.3774E+02  0.3955E+02  0.4996E+03  0.4988E+03
      4.741  0.3502E+02  0.3097E+02  0.5023E+03  0.5012E+03
      4.816  0.3672E+02  0.4133E+02  0.5052E+03  0.5043E+03
      4.891  0.3913E+02  0.4157E+02  0.5082E+03  0.5074E+03
      4.966  0.4714E+02  0.4242E+02  0.5118E+03  0.5107E+03
      5.041  0.4657E+02  0.5107E+02  0.5154E+03  0.5145E+03
      5.116  0.3307E+02  0.3694E+02  0.5179E+03  0.5174E+03
      5.191  0.3105E+02  0.3169E+02  0.5202E+03  0.5198E+03
      5.267  0.4502E+02  0.4013E+02  0.5236E+03  0.5228E+03
      5.342  0.3870E+02  0.3666E+02  0.5266E+03  0.5257E+03
      5.417  0.4298E+02  0.4316E+02  0.5299E+03  0.5289E+03
      5.492  0.4697E+02  0.5115E+02  0.5334E+03  0.5328E+03
      5.567  0.4478E+02  0.4089E+02  0.5368E+03  0.5359E+03
      5.642  0.3957E+02  0.3888E+02  0.5398E+03  0.5389E+03
      5.717  0.4819E+02  0.4879E+02  0.5435E+03  0.5426E+03
      5.792  0.3835E+02  0.4169E+02  0.5464E+03  0.5458E+03
      5.867  0.4265E+02  0.3993E+02  0.5497E+03  0.5489E+03
      5.943  0.2460E+02  0.2828E+02  0.5516E+03  0.5511E+03
      6.018  0.3597E+02  0.3654E+02  0.5543E+03  0.5539E+03
      6.093  0.3130E+02  0.2569E+02  0.5567E+03  0.5558E+03
      6.168  0.3731E+02  0.3880E+02  0.5596E+03  0.5588E+03
      6.243  0.4407E+02  0.4537E+02  0.5629E+03  0.5622E+03
      6.318  0.3554E+02  0.3930E+02  0.5657E+03  0.5652E+03
      6.393  0.3996E+02  0.3831E+02  0.5687E+03  0.5681E+03
      6.468  0.4388E+02  0.4191E+02  0.5720E+03  0.5713E+03
      6.543  0.3592E+02  0.3580E+02  0.5748E+03  0.5741E+03
      6.619  0.1576E+02  0.2299E+02  0.5760E+03  0.5758E+03
      6.694  0.0000E+00  0.2659E+01  0.5760E+03  0.5760E+03
      6.769  0.0000E+00  0.0000E+00  0.5760E+03  0.5760E+03
      6.844  0.0000E+00  0.0000E+00  0.5760E+03  0.5760E+03
      6.919  0.0000E+00  0.0000E+00  0.5760E+03  0.5760E+03
      6.994  0.0000E+00  0.0000E+00  0.5760E+03  0.5760E+03
      7.069  0.0000E+00  0.0000E+00  0.5760E+03  0.5760E+03
      7.144  0.0000E+00  0.0000E+00  0.5760E+03  0.5760E+03
      7.219  0.0000E+00  0.0000E+00  0.5760E+03  0.5760E+03
      7.295  0.0000E+00  0.0000E+00  0.5760E+03  0.5760E+03
      7.370  0.0000E+00  0.0000E+00  0.5760E+03  0.5760E+03
      7.445  0.0000E+00  0.0000E+00  0.5760E+03  0.5760E+03
      7.520  0.0000E+00  0.0000E+00  0.5760E+03  0.5760E+03
      7.595  0.0000E+00  0.0000E+00  0.5760E+03  0.5760E+03
      7.670  0.0000E+00  0.0000E+00  0.5760E+03  0.5760E+03
