  48  48   0   0
  0.1668662E+02  0.7680595E-09  0.1214409E-08  0.9051668E-09  0.5000000E-15
  1.000000000000000E-004
  CAR 
 Si and Ge interface calculation         
     10.85500127     -8.48800113  301      7.83812857      1.00000000
     -8.488  0.0000E+00  0.0000E+00  0.0000E+00  0.0000E+00
     -8.424  0.0000E+00  0.0000E+00  0.0000E+00  0.0000E+00
     -8.359  0.0000E+00  0.0000E+00  0.0000E+00  0.0000E+00
     -8.295  0.0000E+00  0.0000E+00  0.0000E+00  0.0000E+00
     -8.230  0.0000E+00  0.0000E+00  0.0000E+00  0.0000E+00
     -8.166  0.0000E+00  0.0000E+00  0.0000E+00  0.0000E+00
     -8.101  0.0000E+00  0.0000E+00  0.0000E+00  0.0000E+00
     -8.037  0.0000E+00  0.0000E+00  0.0000E+00  0.0000E+00
     -7.972  0.0000E+00  0.0000E+00  0.0000E+00  0.0000E+00
     -7.908  0.0000E+00  0.0000E+00  0.0000E+00  0.0000E+00
     -7.843  0.0000E+00  0.0000E+00  0.0000E+00  0.0000E+00
     -7.779  0.0000E+00  0.0000E+00  0.0000E+00  0.0000E+00
     -7.714  0.0000E+00  0.0000E+00  0.0000E+00  0.0000E+00
     -7.650  0.2914E-08  0.0000E+00  0.1879E-09  0.0000E+00
     -7.585  0.7619E+01  0.6258E-01  0.4912E+00  0.4035E-02
     -7.521  0.1137E+00  0.7692E+01  0.5000E+00  0.5000E+00
     -7.456  0.1550E+02  0.1382E+01  0.1500E+01  0.5891E+00
     -7.392  0.0000E+00  0.1413E+02  0.1500E+01  0.1500E+01
     -7.327  0.0000E+00  0.0000E+00  0.1500E+01  0.1500E+01
     -7.263  0.0000E+00  0.0000E+00  0.1500E+01  0.1500E+01
     -7.198  0.6696E-15  0.0000E+00  0.1500E+01  0.1500E+01
     -7.134  0.9438E+01  0.6002E-04  0.2109E+01  0.1500E+01
     -7.070  0.1383E+02  0.2288E+02  0.3000E+01  0.2975E+01
     -7.005  0.7048E-03  0.3552E+00  0.3000E+01  0.3000E+01
     -6.941  0.1551E+02  0.1335E+02  0.4000E+01  0.3861E+01
     -6.876  0.0000E+00  0.2149E+01  0.4000E+01  0.4000E+01
     -6.812  0.0000E+00  0.0000E+00  0.4000E+01  0.4000E+01
     -6.747  0.0000E+00  0.0000E+00  0.4000E+01  0.4000E+01
     -6.683  0.3834E-08  0.0000E+00  0.4000E+01  0.4000E+01
     -6.618  0.1545E+02  0.1207E+00  0.4996E+01  0.4008E+01
     -6.554  0.1548E+02  0.2230E+02  0.5998E+01  0.5446E+01
     -6.489  0.0000E+00  0.8595E+01  0.6000E+01  0.6000E+01
     -6.425  0.0000E+00  0.0000E+00  0.6000E+01  0.6000E+01
     -6.360  0.3553E-11  0.0000E+00  0.6000E+01  0.6000E+01
     -6.296  0.7545E+01  0.3710E-02  0.6486E+01  0.6000E+01
     -6.231  0.2101E+00  0.7751E+01  0.6500E+01  0.6500E+01
     -6.167  0.0000E+00  0.0000E+00  0.6500E+01  0.6500E+01
     -6.102  0.0000E+00  0.0000E+00  0.6500E+01  0.6500E+01
     -6.038  0.0000E+00  0.0000E+00  0.6500E+01  0.6500E+01
     -5.973  0.3707E-04  0.1672E-12  0.6500E+01  0.6500E+01
     -5.909  0.1551E+02  0.1284E+02  0.7500E+01  0.7328E+01
     -5.844  0.0000E+00  0.2673E+01  0.7500E+01  0.7500E+01
     -5.780  0.0000E+00  0.0000E+00  0.7500E+01  0.7500E+01
     -5.716  0.0000E+00  0.0000E+00  0.7500E+01  0.7500E+01
     -5.651  0.0000E+00  0.0000E+00  0.7500E+01  0.7500E+01
     -5.587  0.0000E+00  0.0000E+00  0.7500E+01  0.7500E+01
     -5.522  0.0000E+00  0.0000E+00  0.7500E+01  0.7500E+01
     -5.458  0.0000E+00  0.0000E+00  0.7500E+01  0.7500E+01
     -5.393  0.1612E+00  0.7924E-05  0.7510E+01  0.7500E+01
     -5.329  0.7594E+01  0.7723E+01  0.8000E+01  0.7998E+01
     -5.264  0.8163E+01  0.7532E+01  0.8526E+01  0.8486E+01
     -5.200  0.1510E+02  0.1565E+02  0.9500E+01  0.9496E+01
     -5.135  0.0000E+00  0.4769E-01  0.9500E+01  0.9500E+01
     -5.071  0.0000E+00  0.0000E+00  0.9500E+01  0.9500E+01
     -5.006  0.0000E+00  0.0000E+00  0.9500E+01  0.9500E+01
     -4.942  0.1550E-13  0.0000E+00  0.9500E+01  0.9500E+01
     -4.877  0.9515E+01  0.1477E+00  0.1011E+02  0.9510E+01
     -4.813  0.1373E+02  0.1713E+02  0.1100E+02  0.1061E+02
     -4.748  0.0000E+00  0.5982E+01  0.1100E+02  0.1100E+02
     -4.684  0.0000E+00  0.0000E+00  0.1100E+02  0.1100E+02
     -4.619  0.0000E+00  0.0000E+00  0.1100E+02  0.1100E+02
     -4.555  0.1924E-06  0.0000E+00  0.1100E+02  0.1100E+02
     -4.490  0.7715E+01  0.2048E+00  0.1150E+02  0.1101E+02
     -4.426  0.1361E+02  0.9226E+01  0.1238E+02  0.1161E+02
     -4.361  0.1885E+01  0.1383E+02  0.1250E+02  0.1250E+02
     -4.297  0.0000E+00  0.0000E+00  0.1250E+02  0.1250E+02
     -4.233  0.2187E-04  0.1398E-11  0.1250E+02  0.1250E+02
     -4.168  0.5166E+01  0.4110E+01  0.1283E+02  0.1276E+02
     -4.104  0.1876E-03  0.1060E+01  0.1283E+02  0.1283E+02
     -4.039  0.2134E+02  0.8517E+01  0.1421E+02  0.1338E+02
     -3.975  0.4474E+01  0.1732E+02  0.1450E+02  0.1450E+02
     -3.910  0.1728E+01  0.1638E+01  0.1461E+02  0.1461E+02
     -3.846  0.5137E+01  0.2880E+01  0.1494E+02  0.1479E+02
     -3.781  0.5053E+01  0.6156E+01  0.1527E+02  0.1519E+02
     -3.717  0.1421E+02  0.7971E+01  0.1618E+02  0.1570E+02
     -3.652  0.2419E+02  0.1919E+02  0.1775E+02  0.1694E+02
     -3.588  0.1367E+01  0.1386E+02  0.1784E+02  0.1783E+02
     -3.523  0.4494E+01  0.4250E+01  0.1813E+02  0.1811E+02
     -3.459  0.1044E+02  0.8630E+01  0.1880E+02  0.1866E+02
     -3.394  0.1235E+02  0.7767E+01  0.1959E+02  0.1917E+02
     -3.330  0.1058E+02  0.1693E+02  0.2028E+02  0.2026E+02
     -3.265  0.4713E+01  0.2615E+01  0.2058E+02  0.2043E+02
     -3.201  0.7298E+01  0.6552E+01  0.2105E+02  0.2085E+02
     -3.136  0.1039E+02  0.1353E+02  0.2172E+02  0.2172E+02
     -3.072  0.1238E+02  0.1723E+01  0.2252E+02  0.2183E+02
     -3.007  0.2023E+02  0.2654E+02  0.2383E+02  0.2354E+02
     -2.943  0.1217E+02  0.1420E+02  0.2461E+02  0.2446E+02
     -2.879  0.5030E+01  0.4963E+01  0.2494E+02  0.2478E+02
     -2.814  0.4750E+01  0.3515E+01  0.2524E+02  0.2501E+02
     -2.750  0.3138E+01  0.6780E+01  0.2544E+02  0.2544E+02
     -2.685  0.1460E+02  0.9515E+01  0.2639E+02  0.2606E+02
     -2.621  0.1271E+02  0.1553E+02  0.2721E+02  0.2706E+02
     -2.556  0.1322E+02  0.1092E+02  0.2806E+02  0.2777E+02
     -2.492  0.1229E+02  0.1336E+02  0.2885E+02  0.2863E+02
     -2.427  0.9494E+01  0.7807E+01  0.2946E+02  0.2913E+02
     -2.363  0.1434E+02  0.1638E+02  0.3039E+02  0.3019E+02
     -2.298  0.1753E+02  0.1707E+02  0.3152E+02  0.3129E+02
     -2.234  0.1780E+02  0.1654E+02  0.3267E+02  0.3236E+02
     -2.169  0.1351E+02  0.1184E+02  0.3354E+02  0.3312E+02
     -2.105  0.2299E+02  0.1686E+02  0.3502E+02  0.3421E+02
     -2.040  0.1471E+02  0.2295E+02  0.3597E+02  0.3569E+02
     -1.976  0.1779E+02  0.1635E+02  0.3712E+02  0.3674E+02
     -1.911  0.1981E+02  0.2052E+02  0.3840E+02  0.3806E+02
     -1.847  0.1996E+02  0.1565E+02  0.3968E+02  0.3907E+02
     -1.782  0.1610E+02  0.2009E+02  0.4072E+02  0.4037E+02
     -1.718  0.1138E+02  0.1419E+02  0.4146E+02  0.4129E+02
     -1.653  0.1011E+02  0.5092E+01  0.4211E+02  0.4161E+02
     -1.589  0.2590E+01  0.1018E+02  0.4228E+02  0.4227E+02
     -1.525  0.4510E+01  0.1876E+01  0.4257E+02  0.4239E+02
     -1.460  0.8267E+01  0.7735E+01  0.4310E+02  0.4289E+02
     -1.396  0.2824E+01  0.6007E+01  0.4328E+02  0.4328E+02
     -1.331  0.7461E+01  0.5512E+01  0.4377E+02  0.4363E+02
     -1.267  0.1139E+02  0.1133E+02  0.4450E+02  0.4436E+02
     -1.202  0.4382E+01  0.4315E+01  0.4478E+02  0.4464E+02
     -1.138  0.1644E+02  0.1247E+02  0.4584E+02  0.4545E+02
     -1.073  0.1752E+02  0.1837E+02  0.4697E+02  0.4663E+02
     -1.009  0.1272E+02  0.1271E+02  0.4779E+02  0.4745E+02
     -0.944  0.7364E+01  0.9412E+01  0.4827E+02  0.4806E+02
     -0.880  0.1055E+02  0.8873E+01  0.4895E+02  0.4863E+02
     -0.815  0.1198E+02  0.1523E+02  0.4972E+02  0.4961E+02
     -0.751  0.9899E+01  0.1016E+02  0.5036E+02  0.5027E+02
     -0.686  0.1592E+02  0.1506E+02  0.5139E+02  0.5124E+02
     -0.622  0.1431E+02  0.1330E+02  0.5231E+02  0.5210E+02
     -0.557  0.1885E+02  0.1239E+02  0.5352E+02  0.5290E+02
     -0.493  0.2481E+02  0.2380E+02  0.5512E+02  0.5444E+02
     -0.428  0.1207E+02  0.2016E+02  0.5590E+02  0.5574E+02
     -0.364  0.9721E+01  0.7530E+01  0.5653E+02  0.5622E+02
     -0.299  0.1788E+02  0.1626E+02  0.5768E+02  0.5727E+02
     -0.235  0.7896E+01  0.1342E+02  0.5819E+02  0.5813E+02
     -0.171  0.1160E+02  0.8679E+01  0.5894E+02  0.5869E+02
     -0.106  0.9580E+01  0.8456E+01  0.5956E+02  0.5924E+02
     -0.042  0.1753E+02  0.1412E+02  0.6069E+02  0.6015E+02
      0.023  0.1471E+02  0.2157E+02  0.6164E+02  0.6154E+02
      0.087  0.1396E+02  0.9741E+01  0.6254E+02  0.6217E+02
      0.152  0.8105E+01  0.1099E+02  0.6306E+02  0.6288E+02
      0.216  0.1376E+02  0.8634E+01  0.6395E+02  0.6344E+02
      0.281  0.2038E+02  0.2238E+02  0.6527E+02  0.6488E+02
      0.345  0.1236E+02  0.1030E+02  0.6606E+02  0.6555E+02
      0.410  0.1513E+02  0.1846E+02  0.6704E+02  0.6674E+02
      0.474  0.2314E+02  0.1625E+02  0.6853E+02  0.6778E+02
      0.539  0.1548E+02  0.2200E+02  0.6953E+02  0.6920E+02
      0.603  0.1813E+02  0.1282E+02  0.7070E+02  0.7003E+02
      0.668  0.1142E+02  0.1624E+02  0.7144E+02  0.7108E+02
      0.732  0.1619E+02  0.1599E+02  0.7248E+02  0.7211E+02
      0.797  0.6845E+01  0.8852E+01  0.7292E+02  0.7268E+02
      0.861  0.4953E+01  0.6686E+01  0.7324E+02  0.7311E+02
      0.926  0.1270E+02  0.9220E+01  0.7406E+02  0.7371E+02
      0.990  0.1373E+02  0.1274E+02  0.7495E+02  0.7453E+02
      1.055  0.2169E+02  0.1970E+02  0.7635E+02  0.7580E+02
      1.119  0.7503E+01  0.1439E+02  0.7683E+02  0.7673E+02
      1.184  0.2009E+02  0.1269E+02  0.7813E+02  0.7754E+02
      1.248  0.1773E+02  0.2337E+02  0.7927E+02  0.7905E+02
      1.312  0.2384E+02  0.1664E+02  0.8081E+02  0.8012E+02
      1.377  0.1473E+02  0.2021E+02  0.8176E+02  0.8143E+02
      1.441  0.4796E+01  0.7152E+01  0.8207E+02  0.8189E+02
      1.506  0.2155E+02  0.1425E+02  0.8346E+02  0.8281E+02
      1.570  0.2370E+02  0.2580E+02  0.8499E+02  0.8447E+02
      1.635  0.1638E+02  0.1409E+02  0.8604E+02  0.8538E+02
      1.699  0.2390E+02  0.2787E+02  0.8759E+02  0.8718E+02
      1.764  0.2097E+02  0.1993E+02  0.8894E+02  0.8846E+02
      1.828  0.7695E+01  0.1116E+02  0.8944E+02  0.8918E+02
      1.893  0.1489E+02  0.1274E+02  0.9040E+02  0.9001E+02
      1.957  0.1195E+02  0.1404E+02  0.9117E+02  0.9091E+02
      2.022  0.1525E+02  0.1454E+02  0.9215E+02  0.9185E+02
      2.086  0.6545E+01  0.8349E+01  0.9257E+02  0.9239E+02
      2.151  0.1061E+02  0.1038E+02  0.9326E+02  0.9306E+02
      2.215  0.1136E+02  0.1203E+02  0.9399E+02  0.9383E+02
      2.280  0.6241E+01  0.5397E+01  0.9439E+02  0.9418E+02
      2.344  0.2805E+02  0.2093E+02  0.9620E+02  0.9553E+02
      2.409  0.6692E+01  0.1381E+02  0.9663E+02  0.9642E+02
      2.473  0.1010E+02  0.8617E+01  0.9729E+02  0.9698E+02
      2.538  0.1924E+02  0.1441E+02  0.9853E+02  0.9791E+02
      2.602  0.1748E+02  0.2140E+02  0.9966E+02  0.9929E+02
      2.666  0.1337E+02  0.1148E+02  0.1005E+03  0.1000E+03
      2.731  0.6008E+01  0.1155E+02  0.1009E+03  0.1008E+03
      2.795  0.1587E+02  0.1287E+02  0.1019E+03  0.1016E+03
      2.860  0.9569E+01  0.1085E+02  0.1025E+03  0.1023E+03
      2.924  0.1997E+02  0.1825E+02  0.1038E+03  0.1035E+03
      2.989  0.1535E+02  0.1354E+02  0.1048E+03  0.1044E+03
      3.053  0.1362E+02  0.1388E+02  0.1057E+03  0.1053E+03
      3.118  0.1619E+02  0.1576E+02  0.1067E+03  0.1063E+03
      3.182  0.1097E+02  0.1532E+02  0.1075E+03  0.1073E+03
      3.247  0.1162E+02  0.1005E+02  0.1082E+03  0.1079E+03
      3.311  0.1206E+02  0.1234E+02  0.1090E+03  0.1087E+03
      3.376  0.1730E+02  0.1556E+02  0.1101E+03  0.1097E+03
      3.440  0.1072E+02  0.1324E+02  0.1108E+03  0.1106E+03
      3.505  0.1183E+02  0.1195E+02  0.1116E+03  0.1113E+03
      3.569  0.7488E+01  0.9240E+01  0.1120E+03  0.1119E+03
      3.634  0.8012E+01  0.6409E+01  0.1126E+03  0.1123E+03
      3.698  0.2426E+02  0.2108E+02  0.1141E+03  0.1137E+03
      3.763  0.1456E+02  0.1412E+02  0.1151E+03  0.1146E+03
      3.827  0.1885E+02  0.1929E+02  0.1163E+03  0.1159E+03
      3.892  0.1751E+02  0.1612E+02  0.1174E+03  0.1169E+03
      3.956  0.2443E+02  0.2211E+02  0.1190E+03  0.1183E+03
      4.020  0.1636E+02  0.1990E+02  0.1200E+03  0.1196E+03
      4.085  0.1891E+02  0.1970E+02  0.1213E+03  0.1209E+03
      4.149  0.2619E+02  0.2351E+02  0.1229E+03  0.1224E+03
      4.214  0.1411E+02  0.2041E+02  0.1239E+03  0.1237E+03
      4.278  0.2830E+02  0.2042E+02  0.1257E+03  0.1250E+03
      4.343  0.2539E+02  0.2569E+02  0.1273E+03  0.1267E+03
      4.407  0.2163E+02  0.2572E+02  0.1287E+03  0.1283E+03
      4.472  0.2549E+02  0.1950E+02  0.1304E+03  0.1296E+03
      4.536  0.1749E+02  0.2488E+02  0.1315E+03  0.1312E+03
      4.601  0.1563E+02  0.1383E+02  0.1325E+03  0.1321E+03
      4.665  0.2250E+02  0.2215E+02  0.1339E+03  0.1335E+03
      4.730  0.2249E+02  0.2164E+02  0.1354E+03  0.1349E+03
      4.794  0.1566E+02  0.2050E+02  0.1364E+03  0.1362E+03
      4.859  0.2194E+02  0.1615E+02  0.1378E+03  0.1373E+03
      4.923  0.1613E+02  0.1961E+02  0.1389E+03  0.1385E+03
      4.988  0.2648E+02  0.2287E+02  0.1406E+03  0.1400E+03
      5.052  0.2561E+02  0.2300E+02  0.1422E+03  0.1415E+03
      5.117  0.2664E+02  0.2652E+02  0.1439E+03  0.1432E+03
      5.181  0.2758E+02  0.2870E+02  0.1457E+03  0.1451E+03
      5.246  0.1946E+02  0.2551E+02  0.1470E+03  0.1467E+03
      5.310  0.2942E+02  0.2600E+02  0.1489E+03  0.1484E+03
      5.374  0.2861E+02  0.2762E+02  0.1507E+03  0.1502E+03
      5.439  0.1609E+02  0.1913E+02  0.1518E+03  0.1514E+03
      5.503  0.1704E+02  0.1817E+02  0.1529E+03  0.1526E+03
      5.568  0.2343E+02  0.2111E+02  0.1544E+03  0.1539E+03
      5.632  0.2009E+02  0.2004E+02  0.1557E+03  0.1552E+03
      5.697  0.1614E+02  0.1527E+02  0.1567E+03  0.1562E+03
      5.761  0.1610E+02  0.1843E+02  0.1577E+03  0.1574E+03
      5.826  0.2769E+02  0.1407E+02  0.1595E+03  0.1583E+03
      5.890  0.2055E+02  0.3580E+02  0.1609E+03  0.1606E+03
      5.955  0.1682E+02  0.1683E+02  0.1619E+03  0.1617E+03
      6.019  0.1740E+02  0.1362E+02  0.1631E+03  0.1626E+03
      6.084  0.1152E+02  0.1561E+02  0.1638E+03  0.1636E+03
      6.148  0.6471E+01  0.9644E+01  0.1642E+03  0.1642E+03
      6.213  0.1311E+02  0.8538E+01  0.1651E+03  0.1648E+03
      6.277  0.1013E+02  0.1171E+02  0.1657E+03  0.1655E+03
      6.342  0.2659E+02  0.1720E+02  0.1674E+03  0.1666E+03
      6.406  0.1725E+02  0.2632E+02  0.1686E+03  0.1683E+03
      6.471  0.1055E+02  0.8365E+01  0.1692E+03  0.1689E+03
      6.535  0.1812E+02  0.1619E+02  0.1704E+03  0.1699E+03
      6.600  0.1327E+02  0.1303E+02  0.1713E+03  0.1708E+03
      6.664  0.1669E+02  0.1489E+02  0.1723E+03  0.1717E+03
      6.728  0.1020E+02  0.1533E+02  0.1730E+03  0.1727E+03
      6.793  0.2312E+02  0.2064E+02  0.1745E+03  0.1740E+03
      6.857  0.1067E+02  0.1384E+02  0.1752E+03  0.1749E+03
      6.922  0.9939E+01  0.9178E+01  0.1758E+03  0.1755E+03
      6.986  0.9700E+01  0.1080E+02  0.1764E+03  0.1762E+03
      7.051  0.1723E+02  0.8947E+01  0.1776E+03  0.1768E+03
      7.115  0.2556E+02  0.2414E+02  0.1792E+03  0.1784E+03
      7.180  0.1791E+02  0.2185E+02  0.1804E+03  0.1798E+03
      7.244  0.2029E+02  0.1362E+02  0.1817E+03  0.1806E+03
      7.309  0.2072E+02  0.2912E+02  0.1830E+03  0.1825E+03
      7.373  0.9414E+01  0.1237E+02  0.1836E+03  0.1833E+03
      7.438  0.9129E+01  0.9760E+01  0.1842E+03  0.1839E+03
      7.502  0.1505E+02  0.1226E+02  0.1852E+03  0.1847E+03
      7.567  0.2110E+02  0.1715E+02  0.1865E+03  0.1858E+03
      7.631  0.2245E+02  0.2354E+02  0.1880E+03  0.1874E+03
      7.696  0.1900E+02  0.1904E+02  0.1892E+03  0.1886E+03
      7.760  0.1517E+02  0.1686E+02  0.1902E+03  0.1897E+03
      7.825  0.1960E+02  0.1719E+02  0.1915E+03  0.1908E+03
      7.889  0.1577E+02  0.1519E+02  0.1925E+03  0.1918E+03
      7.954  0.1808E+02  0.1596E+02  0.1936E+03  0.1928E+03
      8.018  0.2144E+02  0.2364E+02  0.1950E+03  0.1943E+03
      8.083  0.1707E+02  0.1715E+02  0.1961E+03  0.1954E+03
      8.147  0.2531E+02  0.2247E+02  0.1978E+03  0.1969E+03
      8.211  0.2117E+02  0.2614E+02  0.1991E+03  0.1986E+03
      8.276  0.2171E+02  0.1923E+02  0.2005E+03  0.1998E+03
      8.340  0.1593E+02  0.1739E+02  0.2015E+03  0.2009E+03
      8.405  0.1119E+02  0.1717E+02  0.2023E+03  0.2020E+03
      8.469  0.2494E+02  0.2001E+02  0.2039E+03  0.2033E+03
      8.534  0.1756E+02  0.1431E+02  0.2050E+03  0.2043E+03
      8.598  0.2506E+02  0.2323E+02  0.2066E+03  0.2057E+03
      8.663  0.1305E+02  0.2337E+02  0.2075E+03  0.2073E+03
      8.727  0.1730E+02  0.1334E+02  0.2086E+03  0.2081E+03
      8.792  0.2119E+02  0.2325E+02  0.2099E+03  0.2096E+03
      8.856  0.2459E+02  0.2019E+02  0.2115E+03  0.2109E+03
      8.921  0.1844E+02  0.2220E+02  0.2127E+03  0.2124E+03
      8.985  0.1747E+02  0.1785E+02  0.2138E+03  0.2135E+03
      9.050  0.1790E+02  0.1645E+02  0.2150E+03  0.2146E+03
      9.114  0.2059E+02  0.1773E+02  0.2163E+03  0.2157E+03
      9.179  0.2105E+02  0.2099E+02  0.2177E+03  0.2171E+03
      9.243  0.1928E+02  0.2258E+02  0.2189E+03  0.2185E+03
      9.308  0.1522E+02  0.1089E+02  0.2199E+03  0.2192E+03
      9.372  0.1952E+02  0.2026E+02  0.2212E+03  0.2205E+03
      9.437  0.1954E+02  0.2131E+02  0.2224E+03  0.2219E+03
      9.501  0.2206E+02  0.1932E+02  0.2239E+03  0.2232E+03
      9.565  0.2313E+02  0.2718E+02  0.2254E+03  0.2249E+03
      9.630  0.2064E+02  0.2121E+02  0.2267E+03  0.2263E+03
      9.694  0.2383E+02  0.2144E+02  0.2282E+03  0.2277E+03
      9.759  0.2583E+02  0.2127E+02  0.2299E+03  0.2290E+03
      9.823  0.1444E+02  0.2179E+02  0.2308E+03  0.2304E+03
      9.888  0.1295E+02  0.1507E+02  0.2317E+03  0.2314E+03
      9.952  0.4759E+01  0.5977E+01  0.2320E+03  0.2318E+03
     10.017  0.5732E+00  0.3209E+01  0.2320E+03  0.2320E+03
     10.081  0.0000E+00  0.0000E+00  0.2320E+03  0.2320E+03
     10.146  0.0000E+00  0.0000E+00  0.2320E+03  0.2320E+03
     10.210  0.0000E+00  0.0000E+00  0.2320E+03  0.2320E+03
     10.275  0.0000E+00  0.0000E+00  0.2320E+03  0.2320E+03
     10.339  0.0000E+00  0.0000E+00  0.2320E+03  0.2320E+03
     10.404  0.0000E+00  0.0000E+00  0.2320E+03  0.2320E+03
     10.468  0.0000E+00  0.0000E+00  0.2320E+03  0.2320E+03
     10.533  0.0000E+00  0.0000E+00  0.2320E+03  0.2320E+03
     10.597  0.0000E+00  0.0000E+00  0.2320E+03  0.2320E+03
     10.662  0.0000E+00  0.0000E+00  0.2320E+03  0.2320E+03
     10.726  0.0000E+00  0.0000E+00  0.2320E+03  0.2320E+03
     10.791  0.0000E+00  0.0000E+00  0.2320E+03  0.2320E+03
     10.855  0.0000E+00  0.0000E+00  0.2320E+03  0.2320E+03
