Si and Ge interface calculation         
           1
    16.293001    0.000000    0.000000
   -10.862000   12.144086    0.000000
     0.000000    0.000000    7.006474
   Si   C 
    36    84
Direct configuration=     1
   0.97435850  0.98290563  0.00000000
   0.67435843  0.78290558  0.17332670
   0.37435842  0.58290553  0.34665340
   0.30769178  0.98290563  0.00000000
   0.00769173  0.78290558  0.17332670
   0.70769167  0.58290553  0.34665340
   0.64102507  0.98290563  0.00000000
   0.34102503  0.78290558  0.17332670
   0.04102499  0.58290553  0.34665340
   0.15769197  0.63290560  0.08666317
   0.85769194  0.43290553  0.25998989
   0.55769193  0.23290551  0.43331653
   0.49102521  0.63290560  0.08666317
   0.19102515  0.43290553  0.25998989
   0.89102519  0.23290551  0.43331653
   0.82435846  0.63290560  0.08666317
   0.52435839  0.43290553  0.25998989
   0.22435850  0.23290551  0.43331653
   0.14102516  0.48290560  0.00000000
   0.84102511  0.28290549  0.17332670
   0.54102510  0.08290543  0.34665340
   0.47435844  0.48290560  0.00000000
   0.17435838  0.28290549  0.17332670
   0.87435836  0.08290543  0.34665340
   0.80769169  0.48290560  0.00000000
   0.50769168  0.28290549  0.17332670
   0.20769163  0.08290543  0.34665340
   0.99102521  0.13290566  0.08666318
   0.69102514  0.93290561  0.25998989
   0.39102519  0.73290557  0.43331653
   0.32435846  0.13290566  0.08666318
   0.02435841  0.93290561  0.25998989
   0.72435844  0.73290557  0.43331653
   0.65769166  0.13290566  0.08666318
   0.35769162  0.93290561  0.25998989
   0.05769165  0.73290557  0.43331653
   0.13592589  0.20078433  0.57436830
   0.37878311  0.17221284  0.68820030
   0.62164033  0.14364135  0.80203235
   0.42164016  0.34364146  0.57436830
   0.66449738  0.31506997  0.68820030
   0.90735459  0.28649849  0.80203235
   0.70735437  0.48649856  0.57436830
   0.95021164  0.45792708  0.68820030
   0.19306892  0.42935562  0.80203235
   0.99306876  0.62935579  0.57436830
   0.23592597  0.60078430  0.68820030
   0.47878331  0.57221282  0.80203235
   0.27878302  0.77221286  0.57436830
   0.52164024  0.74364144  0.68820030
   0.76449746  0.71506995  0.80203235
   0.56449735  0.91507006  0.57436830
   0.80735457  0.88649857  0.68820030
   0.05021179  0.85792708  0.80203235
   0.85021156  0.05792713  0.57436830
   0.09306884  0.02935565  0.68820030
   0.33592600  0.00078416  0.80203235
   0.97164005  0.29364145  0.63128424
   0.21449739  0.26506999  0.74511617
   0.45735460  0.23649847  0.85894823
   0.25735426  0.43649858  0.63128418
   0.50021154  0.40792713  0.74511629
   0.74306876  0.37935561  0.85894823
   0.54306865  0.57935578  0.63128418
   0.78592587  0.55078429  0.74511629
   0.02878320  0.52221280  0.85894823
   0.82878298  0.72221291  0.63128418
   0.07164025  0.69364142  0.74511629
   0.31449753  0.66507000  0.85894823
   0.11449713  0.86507005  0.63128418
   0.35735446  0.83649856  0.74511629
   0.60021156  0.80792707  0.85894823
   0.40021157  0.00792718  0.63128424
   0.64306885  0.97935563  0.74511629
   0.88592607  0.95078421  0.85894823
   0.68592572  0.15078425  0.63128424
   0.92878294  0.12221289  0.74511629
   0.17164022  0.09364128  0.85894823
   0.77878314  0.27221292  0.57436830
   0.02164030  0.24364141  0.68820030
   0.26449758  0.21506998  0.80203235
   0.06449747  0.41507006  0.57436830
   0.30735463  0.38649854  0.68820030
   0.55021173  0.35792705  0.80203235
   0.35021162  0.55792719  0.57436830
   0.59306884  0.52935571  0.68820030
   0.83592606  0.50078422  0.80203235
   0.63592583  0.70078433  0.57436830
   0.87878311  0.67221284  0.68820030
   0.12164039  0.64364135  0.80203235
   0.92164016  0.84364146  0.57436830
   0.16449744  0.81507003  0.68820030
   0.40735453  0.78649849  0.80203235
   0.20735446  0.98649865  0.57436830
   0.45021167  0.95792723  0.68820035
   0.69306898  0.92935574  0.80203235
   0.49306873  0.12935579  0.57436830
   0.73592591  0.10078430  0.68820035
   0.97878325  0.07221293  0.80203235
   0.32878304  0.22221290  0.63128418
   0.57164031  0.19364142  0.74511629
   0.81449759  0.16506994  0.85894823
   0.61449718  0.36507005  0.63128418
   0.85735446  0.33649856  0.74511629
   0.10021174  0.30792710  0.85894823
   0.90021145  0.50792718  0.63128418
   0.14306885  0.47935572  0.74511629
   0.38592607  0.45078427  0.85894823
   0.18592566  0.65078431  0.63128418
   0.42878300  0.62221289  0.74511617
   0.67164022  0.59364134  0.85894823
   0.47164011  0.79364139  0.63128418
   0.71449745  0.76506990  0.74511629
   0.95735466  0.73649847  0.85894823
   0.75735444  0.93649858  0.63128418
   0.00021172  0.90792710  0.74511629
   0.24306899  0.87935573  0.85894823
   0.04306865  0.07935572  0.63128418
   0.28592593  0.05078435  0.74511629
   0.52878314  0.02221274  0.85894823
