 120 120   0   0
  0.1383406E+02  0.1330318E-08  0.1629300E-08  0.8390060E-09  0.5000000E-15
  1.000000000000000E-004
  CAR 
 Si and Ge interface calculation         
      7.17953455    -15.23878048  301      3.82563915      1.00000000
    -15.239  0.0000E+00  0.0000E+00  0.0000E+00  0.0000E+00
    -15.164  0.0000E+00  0.0000E+00  0.0000E+00  0.0000E+00
    -15.089  0.0000E+00  0.0000E+00  0.0000E+00  0.0000E+00
    -15.015  0.0000E+00  0.0000E+00  0.0000E+00  0.0000E+00
    -14.940  0.0000E+00  0.0000E+00  0.0000E+00  0.0000E+00
    -14.865  0.0000E+00  0.0000E+00  0.0000E+00  0.0000E+00
    -14.790  0.0000E+00  0.0000E+00  0.0000E+00  0.0000E+00
    -14.716  0.0000E+00  0.0000E+00  0.0000E+00  0.0000E+00
    -14.641  0.0000E+00  0.0000E+00  0.0000E+00  0.0000E+00
    -14.566  0.0000E+00  0.0000E+00  0.0000E+00  0.0000E+00
    -14.492  0.0000E+00  0.0000E+00  0.0000E+00  0.0000E+00
    -14.417  0.0000E+00  0.0000E+00  0.0000E+00  0.0000E+00
    -14.342  0.0000E+00  0.0000E+00  0.0000E+00  0.0000E+00
    -14.267  0.3008E-10  0.5509E-14  0.2248E-11  0.4117E-15
    -14.193  0.4460E+01  0.4443E+01  0.3333E+00  0.3320E+00
    -14.118  0.1211E+02  0.9660E+01  0.1238E+01  0.1055E+01
    -14.043  0.1465E+02  0.1690E+02  0.2333E+01  0.2333E+01
    -13.968  0.7059E-01  0.1686E-02  0.2339E+01  0.2333E+01
    -13.894  0.2627E+02  0.2402E+02  0.4302E+01  0.4129E+01
    -13.819  0.8922E+01  0.1157E+02  0.5000E+01  0.4993E+01
    -13.744  0.1561E+02  0.1260E+02  0.6167E+01  0.5942E+01
    -13.669  0.2315E+01  0.3794E+01  0.6351E+01  0.6334E+01
    -13.595  0.1760E+02  0.1781E+02  0.7667E+01  0.7665E+01
    -13.520  0.1855E+02  0.1785E+02  0.9053E+01  0.9001E+01
    -13.445  0.8209E+01  0.8881E+01  0.9667E+01  0.9667E+01
    -13.371  0.9448E+01  0.2890E+01  0.1037E+02  0.9883E+01
    -13.296  0.8605E+01  0.1496E+02  0.1102E+02  0.1100E+02
    -13.221  0.2516E+02  0.2327E+02  0.1290E+02  0.1274E+02
    -13.146  0.1647E+02  0.1633E+02  0.1413E+02  0.1396E+02
    -13.072  0.1162E+02  0.1297E+02  0.1500E+02  0.1500E+02
    -12.997  0.2220E+02  0.2102E+02  0.1666E+02  0.1657E+02
    -12.922  0.8178E+01  0.5183E+01  0.1728E+02  0.1705E+02
    -12.847  0.8921E+01  0.1264E+02  0.1800E+02  0.1800E+02
    -12.773  0.8826E+01  0.7365E+01  0.1866E+02  0.1855E+02
    -12.698  0.1697E+02  0.1533E+02  0.1994E+02  0.1981E+02
    -12.623  0.1327E+00  0.2508E+01  0.2001E+02  0.2000E+02
    -12.549  0.3547E+02  0.3454E+02  0.2266E+02  0.2258E+02
    -12.474  0.8914E+01  0.8569E+01  0.2333E+02  0.2331E+02
    -12.399  0.8907E+01  0.8921E+01  0.2400E+02  0.2400E+02
    -12.324  0.4456E+01  0.4366E+01  0.2433E+02  0.2433E+02
    -12.250  0.8919E+01  0.8840E+01  0.2500E+02  0.2499E+02
    -12.175  0.1341E-05  0.4445E-08  0.2500E+02  0.2500E+02
    -12.100  0.1294E+02  0.1111E+02  0.2597E+02  0.2583E+02
    -12.025  0.2067E+02  0.2155E+02  0.2755E+02  0.2744E+02
    -11.951  0.5960E+01  0.7424E+01  0.2800E+02  0.2800E+02
    -11.876  0.2331E-12  0.6190E-16  0.2800E+02  0.2800E+02
    -11.801  0.4457E+01  0.4395E+01  0.2833E+02  0.2833E+02
    -11.727  0.8342E+01  0.6381E+01  0.2896E+02  0.2881E+02
    -11.652  0.0000E+00  0.2540E+01  0.2900E+02  0.2900E+02
    -11.577  0.6269E-01  0.4180E-02  0.2900E+02  0.2900E+02
    -11.502  0.1355E+02  0.1340E+02  0.3002E+02  0.3000E+02
    -11.428  0.3991E+02  0.3992E+02  0.3300E+02  0.3299E+02
    -11.353  0.1896E+02  0.1535E+02  0.3442E+02  0.3415E+02
    -11.278  0.1672E+02  0.2032E+02  0.3567E+02  0.3567E+02
    -11.203  0.1243E+02  0.9824E+01  0.3660E+02  0.3640E+02
    -11.129  0.4461E+01  0.7934E+01  0.3700E+02  0.3700E+02
    -11.054  0.8586E+01  0.6945E+01  0.3764E+02  0.3752E+02
    -10.979  0.1784E+02  0.1781E+02  0.3900E+02  0.3900E+02
    -10.905  0.1032E+02  0.8975E+01  0.3977E+02  0.3967E+02
    -10.830  0.1643E+02  0.1763E+02  0.4100E+02  0.4100E+02
    -10.755  0.8960E+01  0.8920E+01  0.4167E+02  0.4167E+02
    -10.680  0.1780E+02  0.1771E+02  0.4300E+02  0.4299E+02
    -10.606  0.4447E+00  0.4257E-01  0.4303E+02  0.4300E+02
    -10.531  0.1740E+02  0.1774E+02  0.4433E+02  0.4433E+02
    -10.456  0.8224E+01  0.5307E+01  0.4495E+02  0.4473E+02
    -10.381  0.8898E+01  0.1211E+02  0.4566E+02  0.4563E+02
    -10.307  0.2066E-02  0.8241E-05  0.4567E+02  0.4567E+02
    -10.232  0.4459E+01  0.4461E+01  0.4600E+02  0.4600E+02
    -10.157  0.7258E+01  0.5170E+01  0.4654E+02  0.4639E+02
    -10.083  0.3284E+02  0.3388E+02  0.4900E+02  0.4892E+02
    -10.008  0.4461E+01  0.4461E+01  0.4933E+02  0.4933E+02
     -9.933  0.1783E+02  0.1725E+02  0.5067E+02  0.5062E+02
     -9.858  0.2051E+02  0.1360E+02  0.5220E+02  0.5168E+02
     -9.784  0.2766E+02  0.3172E+02  0.5433E+02  0.5413E+02
     -9.709  0.2152E+02  0.2127E+02  0.5595E+02  0.5572E+02
     -9.634  0.1021E+02  0.1195E+02  0.5676E+02  0.5661E+02
     -9.559  0.2993E+02  0.3111E+02  0.5900E+02  0.5900E+02
     -9.485  0.1771E+02  0.1535E+02  0.6032E+02  0.6015E+02
     -9.410  0.1626E+02  0.1198E+02  0.6155E+02  0.6107E+02
     -9.335  0.6173E+01  0.1196E+02  0.6204E+02  0.6200E+02
     -9.261  0.2772E+02  0.2677E+02  0.6411E+02  0.6400E+02
     -9.186  0.3461E+02  0.2953E+02  0.6670E+02  0.6621E+02
     -9.111  0.1730E+02  0.2272E+02  0.6808E+02  0.6794E+02
     -9.036  0.3284E+02  0.3225E+02  0.7054E+02  0.7039E+02
     -8.962  0.1173E+02  0.7041E+01  0.7142E+02  0.7097E+02
     -8.887  0.2338E+01  0.9342E+01  0.7167E+02  0.7167E+02
     -8.812  0.2240E+02  0.2230E+02  0.7334E+02  0.7333E+02
     -8.737  0.1824E+02  0.1665E+02  0.7470E+02  0.7458E+02
     -8.663  0.2945E+02  0.2934E+02  0.7692E+02  0.7678E+02
     -8.588  0.2315E+02  0.2356E+02  0.7866E+02  0.7855E+02
     -8.513  0.1779E+02  0.1913E+02  0.8000E+02  0.8000E+02
     -8.439  0.2449E+01  0.3207E+00  0.8018E+02  0.8002E+02
     -8.364  0.1410E+02  0.1413E+02  0.8124E+02  0.8108E+02
     -8.289  0.1028E+02  0.1232E+02  0.8200E+02  0.8200E+02
     -8.214  0.4402E+01  0.4460E+01  0.8233E+02  0.8233E+02
     -8.140  0.3813E-04  0.5920E-07  0.8233E+02  0.8233E+02
     -8.065  0.8921E+01  0.8921E+01  0.8300E+02  0.8300E+02
     -7.990  0.0000E+00  0.0000E+00  0.8300E+02  0.8300E+02
     -7.915  0.1106E-09  0.1944E-13  0.8300E+02  0.8300E+02
     -7.841  0.1309E+02  0.1156E+02  0.8398E+02  0.8386E+02
     -7.766  0.0000E+00  0.0000E+00  0.8400E+02  0.8400E+02
     -7.691  0.2944E+01  0.1501E+01  0.8422E+02  0.8411E+02
     -7.617  0.6996E+01  0.7552E+01  0.8475E+02  0.8468E+02
     -7.542  0.3299E+01  0.4328E+01  0.8500E+02  0.8500E+02
     -7.467  0.7444E+01  0.3156E+01  0.8556E+02  0.8524E+02
     -7.392  0.2360E+02  0.2778E+02  0.8733E+02  0.8731E+02
     -7.318  0.4169E-01  0.4602E-03  0.8734E+02  0.8733E+02
     -7.243  0.1217E+02  0.9059E+01  0.8825E+02  0.8801E+02
     -7.168  0.6070E+00  0.4322E+01  0.8833E+02  0.8833E+02
     -7.093  0.4336E+01  0.3881E+01  0.8866E+02  0.8862E+02
     -7.019  0.5712E+00  0.5216E+00  0.8871E+02  0.8867E+02
     -6.944  0.8632E+01  0.8910E+01  0.8935E+02  0.8934E+02
     -6.869  0.6949E+01  0.6515E+01  0.8987E+02  0.8982E+02
     -6.795  0.2040E+02  0.1945E+02  0.9140E+02  0.9129E+02
     -6.720  0.2544E+02  0.2292E+02  0.9332E+02  0.9304E+02
     -6.645  0.2082E+02  0.2172E+02  0.9489E+02  0.9471E+02
     -6.570  0.3742E+02  0.3647E+02  0.9769E+02  0.9746E+02
     -6.496  0.2347E+02  0.2136E+02  0.9947E+02  0.9908E+02
     -6.421  0.2949E+02  0.3157E+02  0.1017E+03  0.1015E+03
     -6.346  0.2516E+02  0.2379E+02  0.1036E+03  0.1033E+03
     -6.271  0.2796E+02  0.3150E+02  0.1058E+03  0.1057E+03
     -6.197  0.2091E+02  0.1979E+02  0.1073E+03  0.1072E+03
     -6.122  0.2725E+02  0.2504E+02  0.1094E+03  0.1091E+03
     -6.047  0.2554E+02  0.2291E+02  0.1113E+03  0.1108E+03
     -5.973  0.2718E+02  0.2957E+02  0.1134E+03  0.1131E+03
     -5.898  0.3826E+02  0.4127E+02  0.1163E+03  0.1162E+03
     -5.823  0.3031E+02  0.3056E+02  0.1186E+03  0.1185E+03
     -5.748  0.3066E+02  0.2805E+02  0.1209E+03  0.1206E+03
     -5.674  0.2678E+02  0.2660E+02  0.1229E+03  0.1227E+03
     -5.599  0.3124E+02  0.3013E+02  0.1252E+03  0.1249E+03
     -5.524  0.2088E+02  0.2300E+02  0.1268E+03  0.1267E+03
     -5.449  0.2444E+02  0.2375E+02  0.1287E+03  0.1285E+03
     -5.375  0.2087E+02  0.2056E+02  0.1303E+03  0.1300E+03
     -5.300  0.4236E+02  0.4318E+02  0.1335E+03  0.1333E+03
     -5.225  0.3564E+02  0.3596E+02  0.1362E+03  0.1360E+03
     -5.151  0.2565E+02  0.2238E+02  0.1381E+03  0.1377E+03
     -5.076  0.2740E+02  0.2886E+02  0.1402E+03  0.1399E+03
     -5.001  0.3081E+02  0.3153E+02  0.1425E+03  0.1422E+03
     -4.926  0.3018E+02  0.3151E+02  0.1448E+03  0.1446E+03
     -4.852  0.3697E+02  0.3440E+02  0.1476E+03  0.1472E+03
     -4.777  0.3609E+02  0.3263E+02  0.1503E+03  0.1497E+03
     -4.702  0.2351E+02  0.2881E+02  0.1521E+03  0.1519E+03
     -4.627  0.2404E+02  0.2428E+02  0.1540E+03  0.1537E+03
     -4.553  0.2913E+02  0.2895E+02  0.1562E+03  0.1559E+03
     -4.478  0.4003E+02  0.4141E+02  0.1591E+03  0.1590E+03
     -4.403  0.3270E+02  0.2769E+02  0.1616E+03  0.1611E+03
     -4.329  0.2201E+02  0.2509E+02  0.1633E+03  0.1631E+03
     -4.254  0.1769E+02  0.1684E+02  0.1646E+03  0.1643E+03
     -4.179  0.2991E+02  0.3128E+02  0.1669E+03  0.1667E+03
     -4.104  0.1834E+02  0.1437E+02  0.1682E+03  0.1679E+03
     -4.030  0.2193E+02  0.2216E+02  0.1699E+03  0.1696E+03
     -3.955  0.3554E+02  0.3466E+02  0.1726E+03  0.1721E+03
     -3.880  0.2979E+02  0.3401E+02  0.1749E+03  0.1747E+03
     -3.805  0.2900E+02  0.2682E+02  0.1771E+03  0.1767E+03
     -3.731  0.3019E+02  0.2888E+02  0.1794E+03  0.1789E+03
     -3.656  0.4435E+02  0.4603E+02  0.1827E+03  0.1824E+03
     -3.581  0.2607E+02  0.2743E+02  0.1847E+03  0.1844E+03
     -3.507  0.3369E+02  0.3209E+02  0.1872E+03  0.1869E+03
     -3.432  0.2455E+02  0.2318E+02  0.1891E+03  0.1887E+03
     -3.357  0.2493E+02  0.2828E+02  0.1910E+03  0.1908E+03
     -3.282  0.2799E+02  0.2599E+02  0.1931E+03  0.1927E+03
     -3.208  0.1888E+02  0.2188E+02  0.1945E+03  0.1944E+03
     -3.133  0.2199E+02  0.2069E+02  0.1961E+03  0.1959E+03
     -3.058  0.2247E+02  0.2322E+02  0.1978E+03  0.1977E+03
     -2.983  0.2133E+02  0.1856E+02  0.1994E+03  0.1991E+03
     -2.909  0.2115E+02  0.1877E+02  0.2010E+03  0.2006E+03
     -2.834  0.3155E+02  0.3148E+02  0.2034E+03  0.2030E+03
     -2.759  0.3618E+02  0.3902E+02  0.2062E+03  0.2059E+03
     -2.685  0.3690E+02  0.3776E+02  0.2090E+03  0.2088E+03
     -2.610  0.3944E+02  0.3943E+02  0.2119E+03  0.2118E+03
     -2.535  0.3656E+02  0.3476E+02  0.2147E+03  0.2144E+03
     -2.460  0.3371E+02  0.3224E+02  0.2172E+03  0.2168E+03
     -2.386  0.3990E+02  0.4170E+02  0.2203E+03  0.2199E+03
     -2.311  0.3036E+02  0.3226E+02  0.2226E+03  0.2224E+03
     -2.236  0.3648E+02  0.3340E+02  0.2253E+03  0.2249E+03
     -2.161  0.2979E+02  0.3264E+02  0.2276E+03  0.2274E+03
     -2.087  0.2503E+02  0.2661E+02  0.2295E+03  0.2294E+03
     -2.012  0.3300E+02  0.2886E+02  0.2320E+03  0.2316E+03
     -1.937  0.3112E+02  0.3066E+02  0.2343E+03  0.2339E+03
     -1.863  0.3556E+02  0.3683E+02  0.2370E+03  0.2367E+03
     -1.788  0.4274E+02  0.4077E+02  0.2402E+03  0.2397E+03
     -1.713  0.4685E+02  0.4807E+02  0.2438E+03  0.2433E+03
     -1.638  0.3942E+02  0.4002E+02  0.2468E+03  0.2464E+03
     -1.564  0.5018E+02  0.5198E+02  0.2506E+03  0.2503E+03
     -1.489  0.3510E+02  0.3600E+02  0.2533E+03  0.2530E+03
     -1.414  0.4404E+02  0.4383E+02  0.2566E+03  0.2563E+03
     -1.339  0.5079E+02  0.4874E+02  0.2604E+03  0.2601E+03
     -1.265  0.2719E+02  0.2905E+02  0.2625E+03  0.2623E+03
     -1.190  0.4065E+02  0.3816E+02  0.2655E+03  0.2652E+03
     -1.115  0.3252E+02  0.3316E+02  0.2680E+03  0.2677E+03
     -1.041  0.3788E+02  0.3884E+02  0.2709E+03  0.2707E+03
     -0.966  0.3156E+02  0.2900E+02  0.2733E+03  0.2729E+03
     -0.891  0.3001E+02  0.3282E+02  0.2756E+03  0.2753E+03
     -0.816  0.3628E+02  0.3511E+02  0.2783E+03  0.2780E+03
     -0.742  0.3099E+02  0.2754E+02  0.2806E+03  0.2801E+03
     -0.667  0.4172E+02  0.4276E+02  0.2838E+03  0.2833E+03
     -0.592  0.3666E+02  0.3847E+02  0.2866E+03  0.2862E+03
     -0.517  0.3091E+02  0.3230E+02  0.2889E+03  0.2887E+03
     -0.443  0.3302E+02  0.3199E+02  0.2914E+03  0.2911E+03
     -0.368  0.2071E+02  0.2285E+02  0.2930E+03  0.2928E+03
     -0.293  0.3574E+02  0.3431E+02  0.2957E+03  0.2954E+03
     -0.219  0.3727E+02  0.3689E+02  0.2985E+03  0.2982E+03
     -0.144  0.3617E+02  0.3502E+02  0.3013E+03  0.3009E+03
     -0.069  0.2843E+02  0.3100E+02  0.3034E+03  0.3032E+03
      0.006  0.3773E+02  0.3429E+02  0.3062E+03  0.3058E+03
      0.080  0.4759E+02  0.4831E+02  0.3098E+03  0.3094E+03
      0.155  0.3821E+02  0.3501E+02  0.3127E+03  0.3121E+03
      0.230  0.3584E+02  0.3992E+02  0.3155E+03  0.3152E+03
      0.305  0.4948E+02  0.4690E+02  0.3192E+03  0.3187E+03
      0.379  0.3143E+02  0.3327E+02  0.3216E+03  0.3212E+03
      0.454  0.3194E+02  0.3072E+02  0.3240E+03  0.3235E+03
      0.529  0.4727E+02  0.4474E+02  0.3275E+03  0.3269E+03
      0.603  0.3996E+02  0.4173E+02  0.3306E+03  0.3300E+03
      0.678  0.3827E+02  0.4383E+02  0.3335E+03  0.3334E+03
      0.753  0.4015E+02  0.3607E+02  0.3365E+03  0.3361E+03
      0.828  0.4182E+02  0.4418E+02  0.3397E+03  0.3394E+03
      0.902  0.5204E+02  0.4666E+02  0.3436E+03  0.3429E+03
      0.977  0.2723E+02  0.2960E+02  0.3457E+03  0.3452E+03
      1.052  0.4498E+02  0.4115E+02  0.3490E+03  0.3483E+03
      1.127  0.3563E+02  0.4376E+02  0.3518E+03  0.3516E+03
      1.201  0.4567E+02  0.4265E+02  0.3552E+03  0.3548E+03
      1.276  0.4753E+02  0.4547E+02  0.3588E+03  0.3582E+03
      1.351  0.4770E+02  0.5075E+02  0.3624E+03  0.3621E+03
      1.426  0.4694E+02  0.4389E+02  0.3660E+03  0.3654E+03
      1.500  0.4045E+02  0.4355E+02  0.3691E+03  0.3686E+03
      1.575  0.4192E+02  0.4030E+02  0.3722E+03  0.3717E+03
      1.650  0.3625E+02  0.3655E+02  0.3750E+03  0.3745E+03
      1.724  0.5185E+02  0.5137E+02  0.3789E+03  0.3783E+03
      1.799  0.4563E+02  0.4857E+02  0.3824E+03  0.3820E+03
      1.874  0.4622E+02  0.4249E+02  0.3858E+03  0.3852E+03
      1.949  0.5018E+02  0.4544E+02  0.3896E+03  0.3887E+03
      2.023  0.4158E+02  0.4787E+02  0.3928E+03  0.3923E+03
      2.098  0.4665E+02  0.4280E+02  0.3963E+03  0.3955E+03
      2.173  0.4568E+02  0.4841E+02  0.3998E+03  0.3992E+03
      2.248  0.4063E+02  0.4077E+02  0.4028E+03  0.4023E+03
      2.322  0.4524E+02  0.4344E+02  0.4062E+03  0.4056E+03
      2.397  0.5325E+02  0.5318E+02  0.4102E+03  0.4096E+03
      2.472  0.4874E+02  0.4771E+02  0.4139E+03  0.4133E+03
      2.546  0.4637E+02  0.4847E+02  0.4174E+03  0.4170E+03
      2.621  0.4948E+02  0.4778E+02  0.4211E+03  0.4206E+03
      2.696  0.5168E+02  0.4925E+02  0.4250E+03  0.4243E+03
      2.771  0.5273E+02  0.5510E+02  0.4290E+03  0.4285E+03
      2.845  0.5297E+02  0.4584E+02  0.4330E+03  0.4319E+03
      2.920  0.5323E+02  0.5603E+02  0.4370E+03  0.4361E+03
      2.995  0.4391E+02  0.4891E+02  0.4404E+03  0.4398E+03
      3.070  0.3792E+02  0.3343E+02  0.4432E+03  0.4423E+03
      3.144  0.4961E+02  0.5049E+02  0.4470E+03  0.4461E+03
      3.219  0.5168E+02  0.4901E+02  0.4509E+03  0.4498E+03
      3.294  0.2983E+02  0.3757E+02  0.4532E+03  0.4527E+03
      3.368  0.5244E+02  0.5029E+02  0.4571E+03  0.4564E+03
      3.443  0.4387E+02  0.3713E+02  0.4604E+03  0.4593E+03
      3.518  0.3980E+02  0.4806E+02  0.4635E+03  0.4629E+03
      3.593  0.5178E+02  0.4408E+02  0.4674E+03  0.4663E+03
      3.667  0.5709E+02  0.5764E+02  0.4717E+03  0.4706E+03
      3.742  0.6199E+02  0.6146E+02  0.4765E+03  0.4753E+03
      3.817  0.4091E+02  0.4400E+02  0.4796E+03  0.4787E+03
      3.892  0.4143E+02  0.4398E+02  0.4827E+03  0.4820E+03
      3.966  0.4497E+02  0.3761E+02  0.4861E+03  0.4848E+03
      4.041  0.5066E+02  0.5191E+02  0.4900E+03  0.4888E+03
      4.116  0.4803E+02  0.4848E+02  0.4936E+03  0.4925E+03
      4.190  0.3568E+02  0.3880E+02  0.4964E+03  0.4954E+03
      4.265  0.4823E+02  0.4689E+02  0.5000E+03  0.4989E+03
      4.340  0.5272E+02  0.4804E+02  0.5040E+03  0.5026E+03
      4.415  0.3588E+02  0.4979E+02  0.5067E+03  0.5063E+03
      4.489  0.4441E+02  0.3762E+02  0.5101E+03  0.5092E+03
      4.564  0.4161E+02  0.4351E+02  0.5132E+03  0.5125E+03
      4.639  0.4876E+02  0.4622E+02  0.5168E+03  0.5160E+03
      4.714  0.5348E+02  0.5442E+02  0.5209E+03  0.5201E+03
      4.788  0.4219E+02  0.4135E+02  0.5241E+03  0.5232E+03
      4.863  0.4698E+02  0.4726E+02  0.5276E+03  0.5268E+03
      4.938  0.3766E+02  0.4002E+02  0.5305E+03  0.5298E+03
      5.012  0.4319E+02  0.3841E+02  0.5337E+03  0.5327E+03
      5.087  0.5214E+02  0.4670E+02  0.5377E+03  0.5362E+03
      5.162  0.3836E+02  0.4976E+02  0.5407E+03  0.5400E+03
      5.237  0.3909E+02  0.3804E+02  0.5436E+03  0.5429E+03
      5.311  0.3700E+02  0.3741E+02  0.5464E+03  0.5457E+03
      5.386  0.3832E+02  0.3979E+02  0.5493E+03  0.5487E+03
      5.461  0.3194E+02  0.2757E+02  0.5517E+03  0.5508E+03
      5.536  0.2657E+02  0.3319E+02  0.5537E+03  0.5534E+03
      5.610  0.2607E+02  0.2644E+02  0.5557E+03  0.5553E+03
      5.685  0.4041E+02  0.4143E+02  0.5587E+03  0.5584E+03
      5.760  0.3862E+02  0.3547E+02  0.5616E+03  0.5611E+03
      5.834  0.5340E+02  0.5099E+02  0.5657E+03  0.5650E+03
      5.909  0.3826E+02  0.3937E+02  0.5686E+03  0.5680E+03
      5.984  0.3684E+02  0.3016E+02  0.5714E+03  0.5703E+03
      6.059  0.3499E+02  0.4356E+02  0.5740E+03  0.5736E+03
      6.133  0.2262E+02  0.2680E+02  0.5757E+03  0.5757E+03
      6.208  0.3338E+01  0.4524E+01  0.5760E+03  0.5760E+03
      6.283  0.0000E+00  0.0000E+00  0.5760E+03  0.5760E+03
      6.358  0.0000E+00  0.0000E+00  0.5760E+03  0.5760E+03
      6.432  0.0000E+00  0.0000E+00  0.5760E+03  0.5760E+03
      6.507  0.0000E+00  0.0000E+00  0.5760E+03  0.5760E+03
      6.582  0.0000E+00  0.0000E+00  0.5760E+03  0.5760E+03
      6.656  0.0000E+00  0.0000E+00  0.5760E+03  0.5760E+03
      6.731  0.0000E+00  0.0000E+00  0.5760E+03  0.5760E+03
      6.806  0.0000E+00  0.0000E+00  0.5760E+03  0.5760E+03
      6.881  0.0000E+00  0.0000E+00  0.5760E+03  0.5760E+03
      6.955  0.0000E+00  0.0000E+00  0.5760E+03  0.5760E+03
      7.030  0.0000E+00  0.0000E+00  0.5760E+03  0.5760E+03
      7.105  0.0000E+00  0.0000E+00  0.5760E+03  0.5760E+03
      7.180  0.0000E+00  0.0000E+00  0.5760E+03  0.5760E+03
