       N       E                     dE             d eps       ncg     rms          rms(c)
DAV:   1     0.196403779587E+04    0.19640E+04   -0.21422E+05  6912   0.173E+03
DAV:   2    -0.359219343126E+03   -0.23233E+04   -0.22399E+04  8064   0.214E+02
DAV:   3    -0.576862857477E+03   -0.21764E+03   -0.21106E+03  8568   0.573E+01
DAV:   4    -0.584700350305E+03   -0.78375E+01   -0.77130E+01  8192   0.117E+01
DAV:   5    -0.584991851629E+03   -0.29150E+00   -0.28981E+00  9120   0.223E+00    0.316E+01
DAV:   6    -0.576036045549E+03    0.89558E+01   -0.14435E+01  8352   0.815E+00    0.144E+01
DAV:   7    -0.576201208175E+03   -0.16516E+00   -0.15045E+01  8504   0.912E+00    0.657E+00
DAV:   8    -0.575102691026E+03    0.10985E+01   -0.44893E+00  8440   0.539E+00    0.159E+00
DAV:   9    -0.575170884129E+03   -0.68193E-01   -0.14460E+00  8024   0.172E+00    0.126E+00
DAV:  10    -0.575158217775E+03    0.12666E-01   -0.14901E-01  7992   0.636E-01    0.755E-01
DAV:  11    -0.575158109713E+03    0.10806E-03   -0.36394E-02  7992   0.312E-01    0.471E-01
DAV:  12    -0.575157794978E+03    0.31473E-03   -0.16754E-02  8512   0.235E-01    0.260E-01
DAV:  13    -0.575157615158E+03    0.17982E-03   -0.92213E-03  8592   0.177E-01    0.142E-01
DAV:  14    -0.575157193891E+03    0.42127E-03   -0.40759E-03  8616   0.114E-01    0.840E-02
DAV:  15    -0.575157197950E+03   -0.40591E-05   -0.72949E-04  8232   0.460E-02    0.667E-02
DAV:  16    -0.575157195375E+03    0.25745E-05   -0.17593E-04  7960   0.223E-02    0.470E-02
DAV:  17    -0.575157197490E+03   -0.21147E-05   -0.80596E-05  7824   0.133E-02    0.198E-02
DAV:  18    -0.575157196523E+03    0.96730E-06   -0.41353E-05  8080   0.960E-03    0.164E-02
DAV:  19    -0.575157199019E+03   -0.24961E-05   -0.79130E-06  7808   0.469E-03    0.134E-02
DAV:  20    -0.575157202945E+03   -0.39259E-05   -0.66912E-06  8192   0.350E-03    0.584E-03
DAV:  21    -0.575157203854E+03   -0.90982E-06   -0.17027E-06  8040   0.190E-03    0.400E-03
DAV:  22    -0.575157203980E+03   -0.12602E-06   -0.43089E-07  6448   0.885E-04    0.291E-03
DAV:  23    -0.575157205650E+03   -0.16694E-05   -0.28073E-06  7992   0.186E-03    0.263E-03
DAV:  24    -0.575157206109E+03   -0.45901E-06   -0.13348E-06  8304   0.129E-03    0.276E-03
DAV:  25    -0.575157205988E+03    0.12056E-06   -0.28749E-07  5256   0.664E-04    0.185E-03
DAV:  26    -0.575157205667E+03    0.32142E-06   -0.29790E-07  5328   0.631E-04    0.749E-04
DAV:  27    -0.575157205499E+03    0.16780E-06   -0.97654E-08  4072   0.414E-04    0.506E-04
DAV:  28    -0.575157205420E+03    0.78722E-07   -0.31404E-08  3944   0.246E-04
   1 F= -.57515721E+03 E0= -.57515625E+03  d E =-.191717E-02  mag=     1.0000
