 264 264   0   0
  0.2774202E+02  0.1958175E-08  0.1958175E-08  0.1910025E-08  0.5000000E-15
  1.000000000000000E-004
  CAR 
 Si and Ge interface calculation         
      6.69320378     -8.43960443  301      4.07978954      1.00000000
     -8.440  0.0000E+00  0.0000E+00  0.0000E+00  0.0000E+00
     -8.389  0.0000E+00  0.0000E+00  0.0000E+00  0.0000E+00
     -8.339  0.0000E+00  0.0000E+00  0.0000E+00  0.0000E+00
     -8.288  0.0000E+00  0.0000E+00  0.0000E+00  0.0000E+00
     -8.238  0.0000E+00  0.0000E+00  0.0000E+00  0.0000E+00
     -8.187  0.0000E+00  0.0000E+00  0.0000E+00  0.0000E+00
     -8.137  0.0000E+00  0.0000E+00  0.0000E+00  0.0000E+00
     -8.087  0.0000E+00  0.0000E+00  0.0000E+00  0.0000E+00
     -8.036  0.0000E+00  0.0000E+00  0.0000E+00  0.0000E+00
     -7.986  0.0000E+00  0.0000E+00  0.0000E+00  0.0000E+00
     -7.935  0.0000E+00  0.0000E+00  0.0000E+00  0.0000E+00
     -7.885  0.0000E+00  0.0000E+00  0.0000E+00  0.0000E+00
     -7.834  0.0000E+00  0.0000E+00  0.0000E+00  0.0000E+00
     -7.784  0.2531E-04  0.5430E-05  0.1277E-05  0.2739E-06
     -7.733  0.9862E+01  0.9794E+01  0.4975E+00  0.4940E+00
     -7.683  0.1647E+01  0.9036E+00  0.5805E+00  0.5396E+00
     -7.633  0.3805E+02  0.3886E+02  0.2500E+01  0.2500E+01
     -7.582  0.3119E+02  0.2810E+02  0.4073E+01  0.3917E+01
     -7.532  0.8460E+01  0.1155E+02  0.4500E+01  0.4500E+01
     -7.481  0.1665E-07  0.2021E-08  0.4500E+01  0.4500E+01
     -7.431  0.1902E+02  0.1656E+02  0.5459E+01  0.5335E+01
     -7.380  0.2063E+02  0.2309E+02  0.6500E+01  0.6500E+01
     -7.330  0.7889E+02  0.7839E+02  0.1048E+02  0.1045E+02
     -7.279  0.4076E+00  0.9029E+00  0.1050E+02  0.1050E+02
     -7.229  0.0000E+00  0.0000E+00  0.1050E+02  0.1050E+02
     -7.179  0.1704E-08  0.2626E-09  0.1050E+02  0.1050E+02
     -7.128  0.8443E+01  0.7356E+01  0.1093E+02  0.1087E+02
     -7.078  0.3100E+02  0.3183E+02  0.1249E+02  0.1248E+02
     -7.027  0.3573E+02  0.3384E+02  0.1429E+02  0.1418E+02
     -6.977  0.3306E+02  0.3453E+02  0.1596E+02  0.1593E+02
     -6.926  0.3953E+02  0.3941E+02  0.1795E+02  0.1791E+02
     -6.876  0.1082E+02  0.1160E+02  0.1850E+02  0.1850E+02
     -6.825  0.1652E-01  0.2674E-01  0.1850E+02  0.1850E+02
     -6.775  0.9495E+01  0.8965E+01  0.1898E+02  0.1895E+02
     -6.725  0.6115E+02  0.5761E+02  0.2206E+02  0.2186E+02
     -6.674  0.6348E+02  0.6674E+02  0.2527E+02  0.2522E+02
     -6.624  0.3394E+02  0.3393E+02  0.2698E+02  0.2694E+02
     -6.573  0.5563E+00  0.1292E+01  0.2701E+02  0.2700E+02
     -6.523  0.3944E+02  0.3928E+02  0.2900E+02  0.2898E+02
     -6.472  0.7495E+02  0.6989E+02  0.3278E+02  0.3251E+02
     -6.422  0.9124E+02  0.9146E+02  0.3738E+02  0.3712E+02
     -6.371  0.4606E+02  0.5073E+02  0.3970E+02  0.3968E+02
     -6.321  0.3220E+02  0.2821E+02  0.4133E+02  0.4110E+02
     -6.271  0.7197E+02  0.7116E+02  0.4496E+02  0.4469E+02
     -6.220  0.4590E+02  0.5088E+02  0.4727E+02  0.4726E+02
     -6.170  0.9469E+02  0.9055E+02  0.5205E+02  0.5183E+02
     -6.119  0.5440E+02  0.5772E+02  0.5479E+02  0.5474E+02
     -6.069  0.1825E+02  0.1861E+02  0.5571E+02  0.5568E+02
     -6.018  0.5832E+02  0.5475E+02  0.5865E+02  0.5844E+02
     -5.968  0.8863E+02  0.8834E+02  0.6312E+02  0.6290E+02
     -5.917  0.1225E+03  0.1246E+03  0.6930E+02  0.6918E+02
     -5.867  0.7382E+02  0.7077E+02  0.7303E+02  0.7275E+02
     -5.817  0.1340E+03  0.1341E+03  0.7978E+02  0.7952E+02
     -5.766  0.8027E+02  0.7641E+02  0.8383E+02  0.8337E+02
     -5.716  0.1131E+03  0.1155E+03  0.8954E+02  0.8919E+02
     -5.665  0.5224E+02  0.5652E+02  0.9217E+02  0.9205E+02
     -5.615  0.8898E+02  0.8972E+02  0.9666E+02  0.9657E+02
     -5.564  0.6415E+02  0.6215E+02  0.9990E+02  0.9971E+02
     -5.514  0.1294E+03  0.1257E+03  0.1064E+03  0.1060E+03
     -5.463  0.1115E+03  0.1140E+03  0.1120E+03  0.1118E+03
     -5.413  0.7119E+02  0.7204E+02  0.1156E+03  0.1154E+03
     -5.363  0.1132E+03  0.1097E+03  0.1213E+03  0.1210E+03
     -5.312  0.1105E+03  0.1144E+03  0.1269E+03  0.1267E+03
     -5.262  0.5942E+02  0.6096E+02  0.1299E+03  0.1298E+03
     -5.211  0.8490E+02  0.8603E+02  0.1342E+03  0.1342E+03
     -5.161  0.7922E+02  0.7756E+02  0.1382E+03  0.1381E+03
     -5.110  0.5304E+02  0.5324E+02  0.1409E+03  0.1408E+03
     -5.060  0.1037E+03  0.1013E+03  0.1461E+03  0.1459E+03
     -5.010  0.9810E+02  0.9921E+02  0.1511E+03  0.1509E+03
     -4.959  0.1101E+03  0.1086E+03  0.1566E+03  0.1563E+03
     -4.909  0.1167E+03  0.1211E+03  0.1625E+03  0.1624E+03
     -4.858  0.7953E+02  0.7615E+02  0.1665E+03  0.1663E+03
     -4.808  0.8818E+02  0.8600E+02  0.1710E+03  0.1706E+03
     -4.757  0.7823E+02  0.8124E+02  0.1749E+03  0.1747E+03
     -4.707  0.1097E+03  0.1068E+03  0.1804E+03  0.1801E+03
     -4.656  0.9692E+02  0.9791E+02  0.1853E+03  0.1851E+03
     -4.606  0.1104E+03  0.1126E+03  0.1909E+03  0.1907E+03
     -4.556  0.8307E+02  0.8126E+02  0.1951E+03  0.1948E+03
     -4.505  0.9428E+02  0.9170E+02  0.1998E+03  0.1995E+03
     -4.455  0.1338E+03  0.1331E+03  0.2066E+03  0.2062E+03
     -4.404  0.7964E+02  0.8328E+02  0.2106E+03  0.2104E+03
     -4.354  0.1456E+03  0.1446E+03  0.2180E+03  0.2177E+03
     -4.303  0.6951E+02  0.7182E+02  0.2215E+03  0.2213E+03
     -4.253  0.7528E+02  0.7350E+02  0.2253E+03  0.2250E+03
     -4.202  0.5382E+02  0.5662E+02  0.2280E+03  0.2279E+03
     -4.152  0.8268E+02  0.8177E+02  0.2321E+03  0.2320E+03
     -4.102  0.5666E+02  0.5978E+02  0.2350E+03  0.2350E+03
     -4.051  0.1654E+02  0.1299E+02  0.2358E+03  0.2357E+03
     -4.001  0.6569E+02  0.6528E+02  0.2391E+03  0.2389E+03
     -3.950  0.3259E+02  0.3602E+02  0.2408E+03  0.2408E+03
     -3.900  0.4845E+02  0.4774E+02  0.2432E+03  0.2432E+03
     -3.849  0.8985E+02  0.8668E+02  0.2478E+03  0.2475E+03
     -3.799  0.7910E+02  0.7796E+02  0.2518E+03  0.2515E+03
     -3.748  0.3218E+02  0.3437E+02  0.2534E+03  0.2532E+03
     -3.698  0.6174E+02  0.5503E+02  0.2565E+03  0.2560E+03
     -3.648  0.6677E+02  0.7197E+02  0.2599E+03  0.2596E+03
     -3.597  0.4278E+02  0.4126E+02  0.2620E+03  0.2617E+03
     -3.547  0.4963E+02  0.4951E+02  0.2645E+03  0.2642E+03
     -3.496  0.8288E+02  0.8434E+02  0.2687E+03  0.2685E+03
     -3.446  0.4139E+02  0.4585E+02  0.2708E+03  0.2708E+03
     -3.395  0.8585E+02  0.7699E+02  0.2751E+03  0.2746E+03
     -3.345  0.6562E+02  0.6770E+02  0.2784E+03  0.2781E+03
     -3.294  0.9078E+02  0.9372E+02  0.2830E+03  0.2828E+03
     -3.244  0.3922E+02  0.4059E+02  0.2850E+03  0.2848E+03
     -3.194  0.1012E+03  0.9798E+02  0.2901E+03  0.2898E+03
     -3.143  0.6501E+02  0.6839E+02  0.2934E+03  0.2932E+03
     -3.093  0.6336E+02  0.5954E+02  0.2966E+03  0.2962E+03
     -3.042  0.7650E+02  0.8160E+02  0.3004E+03  0.3003E+03
     -2.992  0.4658E+02  0.4184E+02  0.3028E+03  0.3025E+03
     -2.941  0.6498E+02  0.6742E+02  0.3061E+03  0.3059E+03
     -2.891  0.7118E+02  0.6794E+02  0.3096E+03  0.3093E+03
     -2.840  0.9226E+02  0.9539E+02  0.3143E+03  0.3141E+03
     -2.790  0.1064E+03  0.1081E+03  0.3197E+03  0.3196E+03
     -2.740  0.5228E+02  0.4797E+02  0.3223E+03  0.3220E+03
     -2.689  0.8206E+02  0.8397E+02  0.3264E+03  0.3262E+03
     -2.639  0.1133E+03  0.1116E+03  0.3322E+03  0.3318E+03
     -2.588  0.1295E+03  0.1289E+03  0.3387E+03  0.3383E+03
     -2.538  0.9944E+02  0.9820E+02  0.3437E+03  0.3433E+03
     -2.487  0.1508E+03  0.1506E+03  0.3513E+03  0.3509E+03
     -2.437  0.1362E+03  0.1391E+03  0.3582E+03  0.3579E+03
     -2.386  0.1001E+03  0.1019E+03  0.3632E+03  0.3630E+03
     -2.336  0.9909E+02  0.9789E+02  0.3682E+03  0.3680E+03
     -2.286  0.7683E+02  0.7618E+02  0.3721E+03  0.3718E+03
     -2.235  0.1029E+03  0.1057E+03  0.3773E+03  0.3772E+03
     -2.185  0.9019E+02  0.8422E+02  0.3818E+03  0.3814E+03
     -2.134  0.5856E+02  0.6645E+02  0.3848E+03  0.3848E+03
     -2.084  0.7333E+02  0.6972E+02  0.3885E+03  0.3883E+03
     -2.033  0.1067E+03  0.1025E+03  0.3939E+03  0.3934E+03
     -1.983  0.9575E+02  0.1006E+03  0.3987E+03  0.3985E+03
     -1.932  0.5118E+02  0.5327E+02  0.4013E+03  0.4012E+03
     -1.882  0.7944E+02  0.7421E+02  0.4053E+03  0.4050E+03
     -1.832  0.7758E+02  0.7958E+02  0.4092E+03  0.4090E+03
     -1.781  0.9869E+02  0.1003E+03  0.4142E+03  0.4140E+03
     -1.731  0.7349E+02  0.7218E+02  0.4179E+03  0.4177E+03
     -1.680  0.7064E+02  0.6977E+02  0.4215E+03  0.4212E+03
     -1.630  0.9777E+02  0.1003E+03  0.4264E+03  0.4262E+03
     -1.579  0.6526E+02  0.6547E+02  0.4297E+03  0.4295E+03
     -1.529  0.8618E+02  0.8576E+02  0.4340E+03  0.4339E+03
     -1.479  0.8238E+02  0.8006E+02  0.4382E+03  0.4379E+03
     -1.428  0.7232E+02  0.6988E+02  0.4418E+03  0.4414E+03
     -1.378  0.2494E+02  0.3203E+02  0.4431E+03  0.4430E+03
     -1.327  0.8259E+02  0.7846E+02  0.4473E+03  0.4470E+03
     -1.277  0.3818E+02  0.4074E+02  0.4492E+03  0.4491E+03
     -1.226  0.3564E+02  0.3280E+02  0.4510E+03  0.4507E+03
     -1.176  0.6732E+02  0.6935E+02  0.4544E+03  0.4542E+03
     -1.125  0.4271E+02  0.4294E+02  0.4565E+03  0.4564E+03
     -1.075  0.4115E+02  0.4226E+02  0.4586E+03  0.4585E+03
     -1.025  0.7256E+02  0.7070E+02  0.4623E+03  0.4621E+03
     -0.974  0.4469E+02  0.3930E+02  0.4645E+03  0.4641E+03
     -0.924  0.5886E+02  0.6801E+02  0.4675E+03  0.4675E+03
     -0.873  0.6177E+02  0.5793E+02  0.4706E+03  0.4704E+03
     -0.823  0.6513E+02  0.6740E+02  0.4739E+03  0.4738E+03
     -0.772  0.6774E+02  0.6578E+02  0.4773E+03  0.4771E+03
     -0.722  0.2649E+02  0.2777E+02  0.4787E+03  0.4785E+03
     -0.671  0.5480E+02  0.4808E+02  0.4814E+03  0.4810E+03
     -0.621  0.6625E+02  0.6965E+02  0.4848E+03  0.4845E+03
     -0.571  0.3906E+02  0.4225E+02  0.4867E+03  0.4866E+03
     -0.520  0.2562E+02  0.2595E+02  0.4880E+03  0.4879E+03
     -0.470  0.9869E+01  0.1174E+02  0.4885E+03  0.4885E+03
     -0.419  0.3913E+02  0.3785E+02  0.4905E+03  0.4904E+03
     -0.369  0.3181E+02  0.2844E+02  0.4921E+03  0.4918E+03
     -0.318  0.4396E+02  0.4800E+02  0.4943E+03  0.4943E+03
     -0.268  0.4312E+02  0.4379E+02  0.4965E+03  0.4965E+03
     -0.217  0.3951E+02  0.3347E+02  0.4985E+03  0.4982E+03
     -0.167  0.7885E+02  0.8149E+02  0.5025E+03  0.5023E+03
     -0.117  0.3185E+02  0.3264E+02  0.5041E+03  0.5039E+03
     -0.066  0.6827E+02  0.6568E+02  0.5075E+03  0.5072E+03
     -0.016  0.6703E+02  0.7035E+02  0.5109E+03  0.5108E+03
      0.035  0.9228E+02  0.8565E+02  0.5155E+03  0.5151E+03
      0.085  0.1169E+03  0.1211E+03  0.5214E+03  0.5212E+03
      0.136  0.1137E+03  0.1088E+03  0.5272E+03  0.5267E+03
      0.186  0.1258E+03  0.1266E+03  0.5335E+03  0.5331E+03
      0.237  0.1554E+03  0.1557E+03  0.5414E+03  0.5409E+03
      0.287  0.1111E+03  0.1135E+03  0.5470E+03  0.5467E+03
      0.337  0.1239E+03  0.1257E+03  0.5532E+03  0.5530E+03
      0.388  0.9536E+02  0.9009E+02  0.5580E+03  0.5576E+03
      0.438  0.1081E+03  0.1121E+03  0.5635E+03  0.5632E+03
      0.489  0.1328E+03  0.1306E+03  0.5702E+03  0.5698E+03
      0.539  0.1039E+03  0.1045E+03  0.5754E+03  0.5751E+03
      0.590  0.5640E+02  0.6016E+02  0.5783E+03  0.5781E+03
      0.640  0.1015E+03  0.9769E+02  0.5834E+03  0.5830E+03
      0.691  0.1619E+03  0.1628E+03  0.5916E+03  0.5912E+03
      0.741  0.1655E+03  0.1639E+03  0.5999E+03  0.5995E+03
      0.791  0.1444E+03  0.1429E+03  0.6072E+03  0.6067E+03
      0.842  0.2232E+03  0.2179E+03  0.6184E+03  0.6177E+03
      0.892  0.1176E+03  0.1279E+03  0.6244E+03  0.6242E+03
      0.943  0.1390E+03  0.1309E+03  0.6314E+03  0.6308E+03
      0.993  0.1925E+03  0.1933E+03  0.6411E+03  0.6405E+03
      1.044  0.1595E+03  0.1651E+03  0.6491E+03  0.6488E+03
      1.094  0.1536E+03  0.1515E+03  0.6569E+03  0.6565E+03
      1.145  0.2130E+03  0.2118E+03  0.6676E+03  0.6672E+03
      1.195  0.1429E+03  0.1407E+03  0.6748E+03  0.6743E+03
      1.245  0.2102E+03  0.2104E+03  0.6855E+03  0.6849E+03
      1.296  0.1356E+03  0.1417E+03  0.6923E+03  0.6920E+03
      1.346  0.1279E+03  0.1270E+03  0.6987E+03  0.6984E+03
      1.397  0.1900E+03  0.1881E+03  0.7083E+03  0.7079E+03
      1.447  0.1901E+03  0.1876E+03  0.7179E+03  0.7174E+03
      1.498  0.2410E+03  0.2392E+03  0.7301E+03  0.7294E+03
      1.548  0.2152E+03  0.2169E+03  0.7409E+03  0.7404E+03
      1.598  0.1355E+03  0.1392E+03  0.7478E+03  0.7474E+03
      1.649  0.1629E+03  0.1634E+03  0.7560E+03  0.7557E+03
      1.699  0.2108E+03  0.2070E+03  0.7666E+03  0.7661E+03
      1.750  0.1685E+03  0.1706E+03  0.7751E+03  0.7747E+03
      1.800  0.1796E+03  0.1764E+03  0.7842E+03  0.7836E+03
      1.851  0.1823E+03  0.1852E+03  0.7934E+03  0.7929E+03
      1.901  0.1780E+03  0.1747E+03  0.8024E+03  0.8018E+03
      1.952  0.1777E+03  0.1797E+03  0.8113E+03  0.8108E+03
      2.002  0.1783E+03  0.1763E+03  0.8203E+03  0.8197E+03
      2.052  0.2256E+03  0.2268E+03  0.8317E+03  0.8312E+03
      2.103  0.1478E+03  0.1502E+03  0.8391E+03  0.8387E+03
      2.153  0.1658E+03  0.1671E+03  0.8475E+03  0.8472E+03
      2.204  0.1379E+03  0.1351E+03  0.8545E+03  0.8540E+03
      2.254  0.1789E+03  0.1744E+03  0.8635E+03  0.8628E+03
      2.305  0.1637E+03  0.1624E+03  0.8717E+03  0.8710E+03
      2.355  0.2054E+03  0.2043E+03  0.8821E+03  0.8813E+03
      2.406  0.1464E+03  0.1571E+03  0.8895E+03  0.8892E+03
      2.456  0.1264E+03  0.1227E+03  0.8959E+03  0.8954E+03
      2.506  0.1232E+03  0.1301E+03  0.9021E+03  0.9019E+03
      2.557  0.1293E+03  0.1214E+03  0.9086E+03  0.9081E+03
      2.607  0.1748E+03  0.1728E+03  0.9174E+03  0.9168E+03
      2.658  0.1475E+03  0.1497E+03  0.9249E+03  0.9243E+03
      2.708  0.1283E+03  0.1216E+03  0.9313E+03  0.9305E+03
      2.759  0.1717E+03  0.1788E+03  0.9400E+03  0.9395E+03
      2.809  0.1404E+03  0.1330E+03  0.9471E+03  0.9462E+03
      2.860  0.1399E+03  0.1507E+03  0.9541E+03  0.9538E+03
      2.910  0.8317E+02  0.8435E+02  0.9583E+03  0.9581E+03
      2.960  0.1457E+03  0.1409E+03  0.9657E+03  0.9652E+03
      3.011  0.1159E+03  0.1189E+03  0.9715E+03  0.9712E+03
      3.061  0.1049E+03  0.1050E+03  0.9768E+03  0.9765E+03
      3.112  0.1206E+03  0.1157E+03  0.9829E+03  0.9823E+03
      3.162  0.1290E+03  0.1250E+03  0.9894E+03  0.9886E+03
      3.213  0.8706E+02  0.9909E+02  0.9938E+03  0.9936E+03
      3.263  0.1164E+03  0.1088E+03  0.9997E+03  0.9991E+03
      3.314  0.1049E+03  0.1089E+03  0.1005E+04  0.1005E+04
      3.364  0.1008E+03  0.9483E+02  0.1010E+04  0.1009E+04
      3.414  0.5911E+02  0.6659E+02  0.1013E+04  0.1013E+04
      3.465  0.9146E+02  0.8390E+02  0.1018E+04  0.1017E+04
      3.515  0.8780E+02  0.9110E+02  0.1022E+04  0.1022E+04
      3.566  0.9736E+02  0.8324E+02  0.1027E+04  0.1026E+04
      3.616  0.9331E+02  0.1071E+03  0.1032E+04  0.1031E+04
      3.667  0.4205E+02  0.4366E+02  0.1034E+04  0.1033E+04
      3.717  0.6125E+02  0.6235E+02  0.1037E+04  0.1036E+04
      3.768  0.4126E+02  0.3606E+02  0.1039E+04  0.1038E+04
      3.818  0.4638E+02  0.5123E+02  0.1041E+04  0.1041E+04
      3.868  0.2832E+02  0.2383E+02  0.1043E+04  0.1042E+04
      3.919  0.4698E+02  0.4902E+02  0.1045E+04  0.1045E+04
      3.969  0.6040E+02  0.5951E+02  0.1048E+04  0.1048E+04
      4.020  0.4816E+02  0.4707E+02  0.1051E+04  0.1050E+04
      4.070  0.9708E+02  0.6568E+02  0.1055E+04  0.1053E+04
      4.121  0.8327E+02  0.1142E+03  0.1060E+04  0.1059E+04
      4.171  0.9573E+02  0.9300E+02  0.1065E+04  0.1064E+04
      4.222  0.1114E+03  0.1203E+03  0.1070E+04  0.1070E+04
      4.272  0.7579E+02  0.7304E+02  0.1074E+04  0.1073E+04
      4.322  0.1005E+03  0.9653E+02  0.1079E+04  0.1078E+04
      4.373  0.1067E+03  0.1004E+03  0.1084E+04  0.1083E+04
      4.423  0.1280E+03  0.1181E+03  0.1091E+04  0.1089E+04
      4.474  0.9479E+02  0.1110E+03  0.1096E+04  0.1095E+04
      4.524  0.1388E+03  0.1379E+03  0.1103E+04  0.1102E+04
      4.575  0.9043E+02  0.1002E+03  0.1107E+04  0.1107E+04
      4.625  0.7726E+02  0.6791E+02  0.1111E+04  0.1110E+04
      4.675  0.1166E+03  0.1131E+03  0.1117E+04  0.1116E+04
      4.726  0.1396E+03  0.1408E+03  0.1124E+04  0.1123E+04
      4.776  0.1065E+03  0.1098E+03  0.1129E+04  0.1129E+04
      4.827  0.8770E+02  0.7338E+02  0.1134E+04  0.1132E+04
      4.877  0.1747E+03  0.1893E+03  0.1143E+04  0.1142E+04
      4.928  0.1086E+03  0.1107E+03  0.1148E+04  0.1148E+04
      4.978  0.1165E+03  0.1056E+03  0.1154E+04  0.1153E+04
      5.029  0.1195E+03  0.1224E+03  0.1160E+04  0.1159E+04
      5.079  0.1460E+03  0.1466E+03  0.1167E+04  0.1166E+04
      5.129  0.1486E+03  0.1470E+03  0.1175E+04  0.1174E+04
      5.180  0.7704E+02  0.8480E+02  0.1179E+04  0.1178E+04
      5.230  0.9880E+02  0.9999E+02  0.1184E+04  0.1183E+04
      5.281  0.1087E+03  0.1077E+03  0.1189E+04  0.1189E+04
      5.331  0.1017E+03  0.1030E+03  0.1194E+04  0.1194E+04
      5.382  0.1589E+03  0.1565E+03  0.1202E+04  0.1202E+04
      5.432  0.1526E+03  0.1551E+03  0.1210E+04  0.1210E+04
      5.483  0.9803E+02  0.9662E+02  0.1215E+04  0.1214E+04
      5.533  0.1143E+03  0.1110E+03  0.1221E+04  0.1220E+04
      5.583  0.1723E+03  0.1764E+03  0.1229E+04  0.1229E+04
      5.634  0.1388E+03  0.1395E+03  0.1236E+04  0.1236E+04
      5.684  0.1261E+03  0.1246E+03  0.1243E+04  0.1242E+04
      5.735  0.9958E+02  0.9880E+02  0.1248E+04  0.1247E+04
      5.785  0.1293E+03  0.1325E+03  0.1254E+04  0.1254E+04
      5.836  0.1252E+03  0.1268E+03  0.1261E+04  0.1260E+04
      5.886  0.1229E+03  0.1186E+03  0.1267E+04  0.1266E+04
      5.937  0.7426E+02  0.8010E+02  0.1271E+04  0.1270E+04
      5.987  0.2356E+02  0.2398E+02  0.1272E+04  0.1272E+04
      6.037  0.3588E+01  0.8659E+01  0.1272E+04  0.1272E+04
      6.088  0.0000E+00  0.0000E+00  0.1272E+04  0.1272E+04
      6.138  0.0000E+00  0.0000E+00  0.1272E+04  0.1272E+04
      6.189  0.0000E+00  0.0000E+00  0.1272E+04  0.1272E+04
      6.239  0.0000E+00  0.0000E+00  0.1272E+04  0.1272E+04
      6.290  0.0000E+00  0.0000E+00  0.1272E+04  0.1272E+04
      6.340  0.0000E+00  0.0000E+00  0.1272E+04  0.1272E+04
      6.391  0.0000E+00  0.0000E+00  0.1272E+04  0.1272E+04
      6.441  0.0000E+00  0.0000E+00  0.1272E+04  0.1272E+04
      6.491  0.0000E+00  0.0000E+00  0.1272E+04  0.1272E+04
      6.542  0.0000E+00  0.0000E+00  0.1272E+04  0.1272E+04
      6.592  0.0000E+00  0.0000E+00  0.1272E+04  0.1272E+04
      6.643  0.0000E+00  0.0000E+00  0.1272E+04  0.1272E+04
      6.693  0.0000E+00  0.0000E+00  0.1272E+04  0.1272E+04
