 180 180   0   0
  0.2656311E+02  0.1385872E-08  0.1959920E-08  0.1760313E-08  0.5000000E-15
  1.000000000000000E-004
  CAR 
 Si and Ge interface calculation         
      5.89327734    -10.23224227  301      2.95227234      1.00000000
    -10.232  0.0000E+00  0.0000E+00  0.0000E+00  0.0000E+00
    -10.178  0.0000E+00  0.0000E+00  0.0000E+00  0.0000E+00
    -10.125  0.0000E+00  0.0000E+00  0.0000E+00  0.0000E+00
    -10.071  0.0000E+00  0.0000E+00  0.0000E+00  0.0000E+00
    -10.017  0.0000E+00  0.0000E+00  0.0000E+00  0.0000E+00
     -9.963  0.0000E+00  0.0000E+00  0.0000E+00  0.0000E+00
     -9.910  0.0000E+00  0.0000E+00  0.0000E+00  0.0000E+00
     -9.856  0.0000E+00  0.0000E+00  0.0000E+00  0.0000E+00
     -9.802  0.0000E+00  0.0000E+00  0.0000E+00  0.0000E+00
     -9.748  0.0000E+00  0.0000E+00  0.0000E+00  0.0000E+00
     -9.695  0.0000E+00  0.0000E+00  0.0000E+00  0.0000E+00
     -9.641  0.0000E+00  0.0000E+00  0.0000E+00  0.0000E+00
     -9.587  0.0000E+00  0.0000E+00  0.0000E+00  0.0000E+00
     -9.533  0.3766E-05  0.3329E-06  0.2024E-06  0.1789E-07
     -9.480  0.9258E+01  0.9153E+01  0.4976E+00  0.4920E+00
     -9.426  0.1355E+01  0.6535E+00  0.5705E+00  0.5271E+00
     -9.372  0.1729E+02  0.1810E+02  0.1500E+01  0.1500E+01
     -9.318  0.1840E+02  0.1800E+02  0.2489E+01  0.2467E+01
     -9.265  0.1123E+02  0.9378E+01  0.3093E+01  0.2972E+01
     -9.211  0.2631E+02  0.2845E+02  0.4507E+01  0.4501E+01
     -9.157  0.9775E+01  0.9515E+01  0.5033E+01  0.5012E+01
     -9.103  0.8697E+01  0.9072E+01  0.5500E+01  0.5500E+01
     -9.050  0.9171E+01  0.5707E+01  0.5993E+01  0.5807E+01
     -8.996  0.2637E+02  0.2643E+02  0.7410E+01  0.7228E+01
     -8.942  0.2964E+02  0.3299E+02  0.9003E+01  0.9001E+01
     -8.888  0.4228E+02  0.4006E+02  0.1128E+02  0.1115E+02
     -8.835  0.1347E+02  0.1553E+02  0.1200E+02  0.1199E+02
     -8.781  0.3982E+02  0.3510E+02  0.1414E+02  0.1388E+02
     -8.727  0.4649E+02  0.4977E+02  0.1664E+02  0.1655E+02
     -8.673  0.2539E+02  0.2698E+02  0.1800E+02  0.1800E+02
     -8.620  0.2634E+02  0.2465E+02  0.1942E+02  0.1933E+02
     -8.566  0.5326E+02  0.5250E+02  0.2228E+02  0.2215E+02
     -8.512  0.1068E+02  0.9936E+01  0.2286E+02  0.2268E+02
     -8.458  0.4633E+02  0.4754E+02  0.2535E+02  0.2524E+02
     -8.405  0.4790E+02  0.4607E+02  0.2792E+02  0.2771E+02
     -8.351  0.1095E+02  0.1470E+02  0.2851E+02  0.2850E+02
     -8.297  0.3898E+02  0.3582E+02  0.3061E+02  0.3043E+02
     -8.243  0.5266E+02  0.5439E+02  0.3344E+02  0.3335E+02
     -8.190  0.2458E+02  0.2401E+02  0.3476E+02  0.3464E+02
     -8.136  0.2330E+02  0.2460E+02  0.3601E+02  0.3597E+02
     -8.082  0.6914E+02  0.6681E+02  0.3973E+02  0.3956E+02
     -8.028  0.6758E+02  0.6819E+02  0.4336E+02  0.4322E+02
     -7.975  0.5004E+02  0.4969E+02  0.4605E+02  0.4589E+02
     -7.921  0.5789E+02  0.5436E+02  0.4916E+02  0.4882E+02
     -7.867  0.4319E+02  0.4850E+02  0.5148E+02  0.5142E+02
     -7.813  0.2383E+02  0.1918E+02  0.5276E+02  0.5245E+02
     -7.760  0.3616E+02  0.4045E+02  0.5471E+02  0.5463E+02
     -7.706  0.5715E+02  0.5357E+02  0.5778E+02  0.5751E+02
     -7.652  0.6421E+02  0.6700E+02  0.6123E+02  0.6111E+02
     -7.598  0.4071E+02  0.3920E+02  0.6342E+02  0.6322E+02
     -7.545  0.6597E+02  0.6595E+02  0.6696E+02  0.6676E+02
     -7.491  0.7504E+02  0.7302E+02  0.7100E+02  0.7068E+02
     -7.437  0.1040E+03  0.9816E+02  0.7659E+02  0.7596E+02
     -7.383  0.3131E+02  0.4031E+02  0.7827E+02  0.7813E+02
     -7.330  0.6998E+02  0.7070E+02  0.8203E+02  0.8193E+02
     -7.276  0.4131E+02  0.4247E+02  0.8425E+02  0.8421E+02
     -7.222  0.8417E+02  0.7989E+02  0.8878E+02  0.8851E+02
     -7.168  0.6021E+02  0.5746E+02  0.9202E+02  0.9159E+02
     -7.115  0.5776E+02  0.6255E+02  0.9512E+02  0.9496E+02
     -7.061  0.3075E+02  0.3094E+02  0.9677E+02  0.9662E+02
     -7.007  0.6431E+02  0.6038E+02  0.1002E+03  0.9987E+02
     -6.953  0.5214E+02  0.5497E+02  0.1030E+03  0.1028E+03
     -6.900  0.4065E+02  0.3997E+02  0.1052E+03  0.1050E+03
     -6.846  0.3938E+02  0.4144E+02  0.1073E+03  0.1072E+03
     -6.792  0.6991E+02  0.6750E+02  0.1111E+03  0.1108E+03
     -6.738  0.4303E+02  0.4673E+02  0.1134E+03  0.1133E+03
     -6.685  0.5714E+02  0.5611E+02  0.1165E+03  0.1164E+03
     -6.631  0.5352E+02  0.5404E+02  0.1194E+03  0.1193E+03
     -6.577  0.5755E+02  0.5327E+02  0.1224E+03  0.1221E+03
     -6.523  0.5108E+02  0.5518E+02  0.1252E+03  0.1251E+03
     -6.470  0.5026E+02  0.4892E+02  0.1279E+03  0.1277E+03
     -6.416  0.3455E+02  0.3374E+02  0.1298E+03  0.1295E+03
     -6.362  0.3366E+02  0.3653E+02  0.1316E+03  0.1315E+03
     -6.308  0.2587E+02  0.2509E+02  0.1330E+03  0.1328E+03
     -6.255  0.4327E+02  0.4060E+02  0.1353E+03  0.1350E+03
     -6.201  0.6845E+02  0.6547E+02  0.1390E+03  0.1385E+03
     -6.147  0.4133E+02  0.4657E+02  0.1412E+03  0.1410E+03
     -6.093  0.6193E+02  0.5940E+02  0.1445E+03  0.1442E+03
     -6.040  0.4466E+02  0.4416E+02  0.1469E+03  0.1466E+03
     -5.986  0.6027E+02  0.6349E+02  0.1501E+03  0.1500E+03
     -5.932  0.2996E+02  0.2921E+02  0.1518E+03  0.1516E+03
     -5.878  0.2334E+02  0.2537E+02  0.1530E+03  0.1530E+03
     -5.825  0.1337E+02  0.1256E+02  0.1537E+03  0.1536E+03
     -5.771  0.5366E+02  0.5167E+02  0.1566E+03  0.1564E+03
     -5.717  0.3929E+02  0.3730E+02  0.1587E+03  0.1584E+03
     -5.663  0.2281E+02  0.2729E+02  0.1600E+03  0.1599E+03
     -5.610  0.3831E+02  0.3629E+02  0.1620E+03  0.1618E+03
     -5.556  0.2220E+02  0.1872E+02  0.1632E+03  0.1628E+03
     -5.502  0.5654E+02  0.6219E+02  0.1662E+03  0.1662E+03
     -5.448  0.9535E+01  0.1054E+02  0.1668E+03  0.1668E+03
     -5.395  0.2905E+02  0.2719E+02  0.1683E+03  0.1682E+03
     -5.341  0.4015E+02  0.3907E+02  0.1705E+03  0.1703E+03
     -5.287  0.4747E+02  0.4948E+02  0.1730E+03  0.1730E+03
     -5.233  0.4971E+02  0.4603E+02  0.1757E+03  0.1754E+03
     -5.180  0.6730E+02  0.6608E+02  0.1793E+03  0.1790E+03
     -5.126  0.5108E+02  0.5260E+02  0.1821E+03  0.1818E+03
     -5.072  0.3723E+02  0.3908E+02  0.1841E+03  0.1839E+03
     -5.018  0.1977E+02  0.2043E+02  0.1851E+03  0.1850E+03
     -4.965  0.3470E+02  0.3623E+02  0.1870E+03  0.1870E+03
     -4.911  0.4340E+02  0.3866E+02  0.1893E+03  0.1891E+03
     -4.857  0.5923E+02  0.6320E+02  0.1925E+03  0.1924E+03
     -4.803  0.5102E+02  0.4780E+02  0.1953E+03  0.1950E+03
     -4.750  0.5994E+02  0.6133E+02  0.1985E+03  0.1983E+03
     -4.696  0.4200E+02  0.4017E+02  0.2007E+03  0.2005E+03
     -4.642  0.4481E+02  0.4531E+02  0.2031E+03  0.2029E+03
     -4.588  0.6259E+02  0.6345E+02  0.2065E+03  0.2063E+03
     -4.535  0.8102E+02  0.7869E+02  0.2109E+03  0.2105E+03
     -4.481  0.6393E+02  0.6205E+02  0.2143E+03  0.2139E+03
     -4.427  0.8829E+02  0.8644E+02  0.2190E+03  0.2185E+03
     -4.373  0.7597E+02  0.7869E+02  0.2231E+03  0.2228E+03
     -4.320  0.7494E+02  0.7771E+02  0.2272E+03  0.2269E+03
     -4.266  0.6185E+02  0.6219E+02  0.2305E+03  0.2303E+03
     -4.212  0.5585E+02  0.5467E+02  0.2335E+03  0.2332E+03
     -4.158  0.8647E+02  0.8419E+02  0.2381E+03  0.2377E+03
     -4.105  0.6885E+02  0.7073E+02  0.2418E+03  0.2415E+03
     -4.051  0.9984E+02  0.9653E+02  0.2472E+03  0.2467E+03
     -3.997  0.9294E+02  0.9690E+02  0.2522E+03  0.2519E+03
     -3.943  0.7237E+02  0.7468E+02  0.2561E+03  0.2560E+03
     -3.890  0.4671E+02  0.4519E+02  0.2586E+03  0.2584E+03
     -3.836  0.4019E+02  0.4204E+02  0.2608E+03  0.2606E+03
     -3.782  0.5124E+02  0.4880E+02  0.2635E+03  0.2633E+03
     -3.728  0.3604E+02  0.3829E+02  0.2654E+03  0.2653E+03
     -3.675  0.3289E+02  0.3097E+02  0.2672E+03  0.2670E+03
     -3.621  0.3794E+02  0.4194E+02  0.2693E+03  0.2692E+03
     -3.567  0.3804E+02  0.3484E+02  0.2713E+03  0.2711E+03
     -3.513  0.4497E+02  0.4509E+02  0.2737E+03  0.2735E+03
     -3.460  0.3491E+02  0.3465E+02  0.2756E+03  0.2754E+03
     -3.406  0.5013E+02  0.4540E+02  0.2783E+03  0.2778E+03
     -3.352  0.3425E+02  0.4063E+02  0.2801E+03  0.2800E+03
     -3.298  0.5091E+02  0.4822E+02  0.2829E+03  0.2826E+03
     -3.245  0.4504E+02  0.4769E+02  0.2853E+03  0.2852E+03
     -3.191  0.4192E+02  0.3765E+02  0.2875E+03  0.2872E+03
     -3.137  0.3840E+02  0.4198E+02  0.2896E+03  0.2895E+03
     -3.083  0.4267E+02  0.3966E+02  0.2919E+03  0.2916E+03
     -3.030  0.6489E+02  0.6675E+02  0.2954E+03  0.2952E+03
     -2.976  0.5795E+02  0.5919E+02  0.2985E+03  0.2984E+03
     -2.922  0.2136E+02  0.2188E+02  0.2996E+03  0.2995E+03
     -2.868  0.3584E+02  0.3322E+02  0.3016E+03  0.3013E+03
     -2.815  0.1903E+02  0.1988E+02  0.3026E+03  0.3024E+03
     -2.761  0.2377E+02  0.2594E+02  0.3039E+03  0.3038E+03
     -2.707  0.3959E+02  0.4058E+02  0.3060E+03  0.3060E+03
     -2.653  0.3343E+02  0.2884E+02  0.3078E+03  0.3075E+03
     -2.599  0.4701E+02  0.4802E+02  0.3103E+03  0.3101E+03
     -2.546  0.3114E+02  0.3242E+02  0.3120E+03  0.3118E+03
     -2.492  0.1906E+02  0.1969E+02  0.3130E+03  0.3129E+03
     -2.438  0.2432E+02  0.2390E+02  0.3143E+03  0.3142E+03
     -2.384  0.3599E+02  0.3562E+02  0.3163E+03  0.3161E+03
     -2.331  0.3335E+02  0.2960E+02  0.3181E+03  0.3177E+03
     -2.277  0.3879E+02  0.4192E+02  0.3201E+03  0.3199E+03
     -2.223  0.3940E+02  0.4099E+02  0.3223E+03  0.3222E+03
     -2.169  0.1786E+02  0.1808E+02  0.3232E+03  0.3231E+03
     -2.116  0.2071E+02  0.2058E+02  0.3243E+03  0.3242E+03
     -2.062  0.3579E+02  0.3458E+02  0.3263E+03  0.3261E+03
     -2.008  0.1811E+02  0.1944E+02  0.3272E+03  0.3271E+03
     -1.954  0.1305E+02  0.1264E+02  0.3279E+03  0.3278E+03
     -1.901  0.1226E+02  0.1347E+02  0.3286E+03  0.3285E+03
     -1.847  0.4512E+02  0.4290E+02  0.3310E+03  0.3308E+03
     -1.793  0.2007E+02  0.2215E+02  0.3321E+03  0.3320E+03
     -1.739  0.2733E+02  0.2589E+02  0.3336E+03  0.3334E+03
     -1.686  0.5047E+02  0.4942E+02  0.3363E+03  0.3361E+03
     -1.632  0.2621E+02  0.2801E+02  0.3377E+03  0.3376E+03
     -1.578  0.3709E+02  0.3435E+02  0.3397E+03  0.3394E+03
     -1.524  0.2401E+02  0.2700E+02  0.3410E+03  0.3409E+03
     -1.471  0.1560E+02  0.1618E+02  0.3418E+03  0.3418E+03
     -1.417  0.1232E+02  0.1049E+02  0.3425E+03  0.3423E+03
     -1.363  0.2241E+02  0.2339E+02  0.3437E+03  0.3436E+03
     -1.309  0.2135E+02  0.2207E+02  0.3448E+03  0.3448E+03
     -1.256  0.2831E+02  0.2809E+02  0.3463E+03  0.3463E+03
     -1.202  0.1915E+02  0.1918E+02  0.3474E+03  0.3473E+03
     -1.148  0.6950E+01  0.5395E+01  0.3477E+03  0.3476E+03
     -1.094  0.4940E+02  0.5026E+02  0.3504E+03  0.3503E+03
     -1.041  0.5728E+02  0.5199E+02  0.3535E+03  0.3531E+03
     -0.987  0.8825E+02  0.8961E+02  0.3582E+03  0.3579E+03
     -0.933  0.9447E+02  0.9340E+02  0.3633E+03  0.3629E+03
     -0.879  0.7851E+02  0.8066E+02  0.3675E+03  0.3673E+03
     -0.826  0.7969E+02  0.7935E+02  0.3718E+03  0.3715E+03
     -0.772  0.1087E+03  0.1064E+03  0.3776E+03  0.3772E+03
     -0.718  0.6058E+02  0.6334E+02  0.3809E+03  0.3807E+03
     -0.664  0.9685E+02  0.9243E+02  0.3861E+03  0.3856E+03
     -0.611  0.1064E+03  0.1054E+03  0.3918E+03  0.3913E+03
     -0.557  0.1287E+03  0.1299E+03  0.3987E+03  0.3983E+03
     -0.503  0.7828E+02  0.8136E+02  0.4030E+03  0.4026E+03
     -0.449  0.1094E+03  0.1073E+03  0.4088E+03  0.4084E+03
     -0.396  0.7737E+02  0.8035E+02  0.4130E+03  0.4127E+03
     -0.342  0.7963E+02  0.7954E+02  0.4173E+03  0.4170E+03
     -0.288  0.8496E+02  0.8122E+02  0.4218E+03  0.4214E+03
     -0.234  0.6499E+02  0.6756E+02  0.4253E+03  0.4250E+03
     -0.181  0.7263E+02  0.7104E+02  0.4292E+03  0.4288E+03
     -0.127  0.8034E+02  0.8057E+02  0.4336E+03  0.4332E+03
     -0.073  0.1055E+03  0.1045E+03  0.4392E+03  0.4388E+03
     -0.019  0.1300E+03  0.1271E+03  0.4462E+03  0.4456E+03
      0.034  0.1263E+03  0.1258E+03  0.4530E+03  0.4524E+03
      0.088  0.1174E+03  0.1201E+03  0.4593E+03  0.4588E+03
      0.142  0.1136E+03  0.1144E+03  0.4654E+03  0.4650E+03
      0.196  0.1276E+03  0.1276E+03  0.4723E+03  0.4718E+03
      0.249  0.1049E+03  0.1074E+03  0.4779E+03  0.4776E+03
      0.303  0.1268E+03  0.1224E+03  0.4847E+03  0.4842E+03
      0.357  0.1280E+03  0.1266E+03  0.4916E+03  0.4910E+03
      0.411  0.1102E+03  0.1117E+03  0.4975E+03  0.4970E+03
      0.464  0.1151E+03  0.1157E+03  0.5037E+03  0.5032E+03
      0.518  0.1160E+03  0.1165E+03  0.5100E+03  0.5095E+03
      0.572  0.1281E+03  0.1263E+03  0.5168E+03  0.5163E+03
      0.626  0.1196E+03  0.1198E+03  0.5233E+03  0.5227E+03
      0.679  0.9825E+02  0.1029E+03  0.5286E+03  0.5282E+03
      0.733  0.1103E+03  0.1101E+03  0.5345E+03  0.5341E+03
      0.787  0.1120E+03  0.1121E+03  0.5405E+03  0.5402E+03
      0.841  0.1139E+03  0.1135E+03  0.5466E+03  0.5463E+03
      0.894  0.1011E+03  0.9941E+02  0.5521E+03  0.5516E+03
      0.948  0.1111E+03  0.1086E+03  0.5580E+03  0.5574E+03
      1.002  0.1121E+03  0.1118E+03  0.5640E+03  0.5635E+03
      1.056  0.1129E+03  0.1170E+03  0.5701E+03  0.5697E+03
      1.109  0.9766E+02  0.9874E+02  0.5754E+03  0.5751E+03
      1.163  0.1139E+03  0.1068E+03  0.5815E+03  0.5808E+03
      1.217  0.9698E+02  0.1031E+03  0.5867E+03  0.5863E+03
      1.271  0.9485E+02  0.9500E+02  0.5918E+03  0.5914E+03
      1.324  0.9138E+02  0.8529E+02  0.5967E+03  0.5960E+03
      1.378  0.9581E+02  0.1042E+03  0.6019E+03  0.6016E+03
      1.432  0.9240E+02  0.9028E+02  0.6068E+03  0.6065E+03
      1.486  0.9738E+02  0.9884E+02  0.6121E+03  0.6118E+03
      1.539  0.1078E+03  0.1037E+03  0.6179E+03  0.6174E+03
      1.593  0.7322E+02  0.7730E+02  0.6218E+03  0.6215E+03
      1.647  0.7480E+02  0.7076E+02  0.6258E+03  0.6253E+03
      1.701  0.1050E+03  0.1055E+03  0.6315E+03  0.6310E+03
      1.754  0.7910E+02  0.8258E+02  0.6357E+03  0.6354E+03
      1.808  0.6854E+02  0.6784E+02  0.6394E+03  0.6391E+03
      1.862  0.7706E+02  0.7621E+02  0.6435E+03  0.6432E+03
      1.916  0.7345E+02  0.7395E+02  0.6475E+03  0.6472E+03
      1.969  0.8901E+02  0.8619E+02  0.6523E+03  0.6518E+03
      2.023  0.6100E+02  0.6175E+02  0.6555E+03  0.6551E+03
      2.077  0.7796E+02  0.7937E+02  0.6597E+03  0.6594E+03
      2.131  0.6129E+02  0.6188E+02  0.6630E+03  0.6627E+03
      2.184  0.9572E+02  0.9456E+02  0.6682E+03  0.6678E+03
      2.238  0.6712E+02  0.5950E+02  0.6718E+03  0.6710E+03
      2.292  0.6656E+02  0.7757E+02  0.6754E+03  0.6752E+03
      2.346  0.8925E+02  0.8034E+02  0.6802E+03  0.6795E+03
      2.399  0.6781E+02  0.7201E+02  0.6838E+03  0.6833E+03
      2.453  0.3683E+02  0.3552E+02  0.6858E+03  0.6852E+03
      2.507  0.6885E+02  0.7022E+02  0.6895E+03  0.6890E+03
      2.561  0.8177E+02  0.8202E+02  0.6939E+03  0.6934E+03
      2.614  0.6453E+02  0.6273E+02  0.6973E+03  0.6968E+03
      2.668  0.6028E+02  0.5496E+02  0.7006E+03  0.6998E+03
      2.722  0.6230E+02  0.6542E+02  0.7039E+03  0.7033E+03
      2.776  0.6594E+02  0.6780E+02  0.7075E+03  0.7069E+03
      2.829  0.7956E+02  0.6685E+02  0.7118E+03  0.7105E+03
      2.883  0.6876E+02  0.8324E+02  0.7155E+03  0.7150E+03
      2.937  0.6280E+02  0.5344E+02  0.7188E+03  0.7179E+03
      2.991  0.5952E+02  0.6609E+02  0.7220E+03  0.7214E+03
      3.044  0.5755E+02  0.5876E+02  0.7251E+03  0.7246E+03
      3.098  0.3872E+02  0.3498E+02  0.7272E+03  0.7265E+03
      3.152  0.6620E+02  0.6548E+02  0.7308E+03  0.7300E+03
      3.206  0.5910E+02  0.6448E+02  0.7339E+03  0.7334E+03
      3.259  0.5684E+02  0.5934E+02  0.7370E+03  0.7366E+03
      3.313  0.3404E+02  0.3359E+02  0.7388E+03  0.7384E+03
      3.367  0.7189E+02  0.6833E+02  0.7427E+03  0.7421E+03
      3.421  0.6379E+02  0.6420E+02  0.7461E+03  0.7456E+03
      3.474  0.4647E+02  0.4764E+02  0.7486E+03  0.7481E+03
      3.528  0.5868E+02  0.6351E+02  0.7518E+03  0.7515E+03
      3.582  0.4352E+02  0.3407E+02  0.7541E+03  0.7534E+03
      3.636  0.4703E+02  0.5466E+02  0.7566E+03  0.7563E+03
      3.689  0.5274E+02  0.5463E+02  0.7595E+03  0.7592E+03
      3.743  0.4391E+02  0.3665E+02  0.7618E+03  0.7612E+03
      3.797  0.4408E+02  0.4997E+02  0.7642E+03  0.7639E+03
      3.851  0.5817E+02  0.5520E+02  0.7673E+03  0.7669E+03
      3.904  0.7131E+02  0.7484E+02  0.7712E+03  0.7709E+03
      3.958  0.2821E+02  0.2941E+02  0.7727E+03  0.7725E+03
      4.012  0.5167E+02  0.4893E+02  0.7755E+03  0.7751E+03
      4.066  0.5958E+02  0.5970E+02  0.7787E+03  0.7783E+03
      4.119  0.4344E+02  0.4421E+02  0.7810E+03  0.7807E+03
      4.173  0.3761E+02  0.3987E+02  0.7830E+03  0.7828E+03
      4.227  0.5519E+02  0.4942E+02  0.7860E+03  0.7855E+03
      4.281  0.5297E+02  0.5621E+02  0.7888E+03  0.7885E+03
      4.334  0.8909E+02  0.8907E+02  0.7936E+03  0.7933E+03
      4.388  0.5067E+02  0.5121E+02  0.7963E+03  0.7960E+03
      4.442  0.7400E+02  0.7707E+02  0.8003E+03  0.8002E+03
      4.496  0.7137E+02  0.6319E+02  0.8042E+03  0.8036E+03
      4.549  0.7948E+02  0.8635E+02  0.8084E+03  0.8082E+03
      4.603  0.1123E+03  0.1092E+03  0.8145E+03  0.8141E+03
      4.657  0.9135E+02  0.9062E+02  0.8194E+03  0.8190E+03
      4.711  0.9816E+02  0.9954E+02  0.8246E+03  0.8243E+03
      4.764  0.6973E+02  0.7073E+02  0.8284E+03  0.8281E+03
      4.818  0.8511E+02  0.8241E+02  0.8330E+03  0.8325E+03
      4.872  0.7373E+02  0.7616E+02  0.8369E+03  0.8366E+03
      4.926  0.8861E+02  0.8708E+02  0.8417E+03  0.8413E+03
      4.979  0.1293E+03  0.1289E+03  0.8486E+03  0.8482E+03
      5.033  0.1207E+03  0.1167E+03  0.8551E+03  0.8545E+03
      5.087  0.1058E+03  0.1066E+03  0.8608E+03  0.8603E+03
      5.141  0.4858E+02  0.5336E+02  0.8634E+03  0.8631E+03
      5.195  0.1057E+02  0.1638E+02  0.8640E+03  0.8640E+03
      5.248  0.0000E+00  0.0000E+00  0.8640E+03  0.8640E+03
      5.302  0.0000E+00  0.0000E+00  0.8640E+03  0.8640E+03
      5.356  0.0000E+00  0.0000E+00  0.8640E+03  0.8640E+03
      5.410  0.0000E+00  0.0000E+00  0.8640E+03  0.8640E+03
      5.463  0.0000E+00  0.0000E+00  0.8640E+03  0.8640E+03
      5.517  0.0000E+00  0.0000E+00  0.8640E+03  0.8640E+03
      5.571  0.0000E+00  0.0000E+00  0.8640E+03  0.8640E+03
      5.625  0.0000E+00  0.0000E+00  0.8640E+03  0.8640E+03
      5.678  0.0000E+00  0.0000E+00  0.8640E+03  0.8640E+03
      5.732  0.0000E+00  0.0000E+00  0.8640E+03  0.8640E+03
      5.786  0.0000E+00  0.0000E+00  0.8640E+03  0.8640E+03
      5.840  0.0000E+00  0.0000E+00  0.8640E+03  0.8640E+03
      5.893  0.0000E+00  0.0000E+00  0.8640E+03  0.8640E+03
