Si Bulk DFT energetics calculations using VASP\n
This script is running on comp120.cluster.local in /lustre/home/ah1365/projects/127870/upgrade_report/case_studies/common/structures/interfaces/120_Si36C84_012_012_a0.272727_b0.061728_c1.482413_interface11shift8\n
Job started on: Sun  8 Jun 00:14:09 UTC 2025\n
 running   64 mpi-ranks, on    4 nodes
 distrk:  each k-point on   64 cores,    1 groups
 distr:  one band on   16 cores,    4 groups
 vasp.6.4.3 19Mar24 (build Oct 22 2024 11:23:12) complex                        
  
 POSCAR found type information on POSCAR SiC 
 POSCAR found :  2 types and     120 ions
 -----------------------------------------------------------------------------
|                                                                             |
|           W    W    AA    RRRRR   N    N  II  N    N   GGGG   !!!           |
|           W    W   A  A   R    R  NN   N  II  NN   N  G    G  !!!           |
|           W    W  A    A  R    R  N N  N  II  N N  N  G       !!!           |
|           W WW W  AAAAAA  RRRRR   N  N N  II  N  N N  G  GGG   !            |
|           WW  WW  A    A  R   R   N   NN  II  N   NN  G    G                |
|           W    W  A    A  R    R  N    N  II  N    N   GGGG   !!!           |
|                                                                             |
|     You use a magnetic or noncollinear calculation, but did not specify     |
|     the initial magnetic moment with the MAGMOM tag. Note that a            |
|     default of 8.333e-3 will be used for all atoms. This ferromagnetic      |
|     setup may break the symmetry of the crystal, in particular it may       |
|     rule out finding an antiferromagnetic solution. Thence, we              |
|     recommend setting the initial magnetic moment manually or verifying     |
|     carefully that this magnetic setup is desired.                          |
|                                                                             |
 -----------------------------------------------------------------------------

 scaLAPACK will be used
 LDA part: xc-table for (Slater+PW92), standard interpolation
 POSCAR, INCAR and KPOINTS ok, starting setup
 FFT: planning ... GRIDC
 FFT: planning ... GRID_SOFT
 FFT: planning ... GRID
 WAVECAR not read
 entering main loop
       N       E                     dE             d eps       ncg     rms          rms(c)
DAV:   1     0.237919615944E+04    0.23792E+04   -0.25585E+05 16128   0.186E+03
DAV:   2    -0.514521569255E+03   -0.28937E+04   -0.27624E+04 19736   0.293E+02
DAV:   3    -0.826562218158E+03   -0.31204E+03   -0.29782E+03 20040   0.899E+01
DAV:   4    -0.843138372187E+03   -0.16576E+02   -0.15960E+02 21488   0.203E+01
DAV:   5    -0.844002853022E+03   -0.86448E+00   -0.84903E+00 23152   0.405E+00    0.405E+01
DAV:   6    -0.831402798119E+03    0.12600E+02   -0.38260E+02 22208   0.369E+01    0.338E+01
DAV:   7    -0.795583428483E+03    0.35819E+02   -0.17111E+02 22696   0.262E+01    0.131E+01
DAV:   8    -0.800595734040E+03   -0.50123E+01   -0.37884E+01 22696   0.140E+01    0.113E+01
DAV:   9    -0.796573546560E+03    0.40222E+01   -0.12436E+01 21720   0.100E+01    0.450E+00
DAV:  10    -0.796390087967E+03    0.18346E+00   -0.36339E+00 21136   0.406E+00    0.271E+00
DAV:  11    -0.796325740690E+03    0.64347E-01   -0.11061E+00 20928   0.241E+00    0.182E+00
DAV:  12    -0.796312969643E+03    0.12771E-01   -0.33541E-01 20448   0.137E+00    0.128E+00
DAV:  13    -0.796304169409E+03    0.88002E-02   -0.11804E-01 20600   0.838E-01    0.716E-01
DAV:  14    -0.796303160575E+03    0.10088E-02   -0.42303E-02 20816   0.513E-01    0.380E-01
DAV:  15    -0.796300622452E+03    0.25381E-02   -0.14562E-02 20976   0.290E-01    0.182E-01
DAV:  16    -0.796300426512E+03    0.19594E-03   -0.49581E-03 22440   0.149E-01    0.115E-01
DAV:  17    -0.796300235289E+03    0.19122E-03   -0.14473E-03 21776   0.861E-02    0.574E-02
DAV:  18    -0.796300218595E+03    0.16694E-04   -0.45550E-04 21616   0.447E-02    0.296E-02
DAV:  19    -0.796300222345E+03   -0.37497E-05   -0.14346E-04 20272   0.245E-02    0.146E-02
DAV:  20    -0.796300226210E+03   -0.38651E-05   -0.41601E-05 20728   0.134E-02    0.983E-03
DAV:  21    -0.796300229114E+03   -0.29038E-05   -0.17642E-05 21888   0.873E-03    0.721E-03
DAV:  22    -0.796300230440E+03   -0.13262E-05   -0.86164E-06 21512   0.585E-03    0.475E-03
DAV:  23    -0.796300231587E+03   -0.11470E-05   -0.50626E-06 22040   0.394E-03    0.350E-03
DAV:  24    -0.796300232289E+03   -0.70142E-06   -0.32270E-06 21856   0.307E-03    0.237E-03
DAV:  25    -0.796300232653E+03   -0.36425E-06   -0.24113E-06 22504   0.258E-03    0.145E-03
DAV:  26    -0.796300232731E+03   -0.77693E-07   -0.74694E-07 19584   0.159E-03
   1 F= -.79630023E+03 E0= -.79629911E+03  d E =-.224863E-02  mag=     1.0000
Job ended on: Sun  8 Jun 00:30:44 UTC 2025\n
