  96  96   0   0
  0.2243693E+02  0.1265123E-08  0.1265123E-08  0.1373516E-08  0.5000000E-15
  1.000000000000000E-004
  CAR 
 Si and Ge interface calculation         
      6.64013040    -12.33104306  301      3.67743727      1.00000000
    -12.331  0.0000E+00  0.0000E+00  0.0000E+00  0.0000E+00
    -12.268  0.0000E+00  0.0000E+00  0.0000E+00  0.0000E+00
    -12.205  0.0000E+00  0.0000E+00  0.0000E+00  0.0000E+00
    -12.141  0.0000E+00  0.0000E+00  0.0000E+00  0.0000E+00
    -12.078  0.0000E+00  0.0000E+00  0.0000E+00  0.0000E+00
    -12.015  0.0000E+00  0.0000E+00  0.0000E+00  0.0000E+00
    -11.952  0.0000E+00  0.0000E+00  0.0000E+00  0.0000E+00
    -11.888  0.0000E+00  0.0000E+00  0.0000E+00  0.0000E+00
    -11.825  0.0000E+00  0.0000E+00  0.0000E+00  0.0000E+00
    -11.762  0.0000E+00  0.0000E+00  0.0000E+00  0.0000E+00
    -11.699  0.0000E+00  0.0000E+00  0.0000E+00  0.0000E+00
    -11.635  0.0000E+00  0.0000E+00  0.0000E+00  0.0000E+00
    -11.572  0.0000E+00  0.0000E+00  0.0000E+00  0.0000E+00
    -11.509  0.1561E-06  0.7120E-14  0.9873E-08  0.4503E-15
    -11.446  0.3161E+02  0.2511E+02  0.1999E+01  0.1588E+01
    -11.382  0.0000E+00  0.6522E+01  0.2000E+01  0.2000E+01
    -11.319  0.0000E+00  0.0000E+00  0.2000E+01  0.2000E+01
    -11.256  0.0000E+00  0.0000E+00  0.2000E+01  0.2000E+01
    -11.193  0.0000E+00  0.0000E+00  0.2000E+01  0.2000E+01
    -11.130  0.0000E+00  0.0000E+00  0.2000E+01  0.2000E+01
    -11.066  0.0000E+00  0.0000E+00  0.2000E+01  0.2000E+01
    -11.003  0.0000E+00  0.0000E+00  0.2000E+01  0.2000E+01
    -10.940  0.0000E+00  0.0000E+00  0.2000E+01  0.2000E+01
    -10.877  0.8043E-08  0.1170E-14  0.2000E+01  0.2000E+01
    -10.813  0.3152E+02  0.2254E+02  0.3993E+01  0.3425E+01
    -10.750  0.0000E+00  0.9090E+01  0.4000E+01  0.4000E+01
    -10.687  0.0000E+00  0.0000E+00  0.4000E+01  0.4000E+01
    -10.624  0.0000E+00  0.0000E+00  0.4000E+01  0.4000E+01
    -10.560  0.0000E+00  0.0000E+00  0.4000E+01  0.4000E+01
    -10.497  0.0000E+00  0.0000E+00  0.4000E+01  0.4000E+01
    -10.434  0.0000E+00  0.0000E+00  0.4000E+01  0.4000E+01
    -10.371  0.1030E+01  0.1468E+00  0.4065E+01  0.4009E+01
    -10.307  0.2262E+02  0.1615E+02  0.5496E+01  0.5030E+01
    -10.244  0.7976E+01  0.1533E+02  0.6000E+01  0.6000E+01
    -10.181  0.1452E+00  0.7335E-02  0.6009E+01  0.6000E+01
    -10.118  0.2094E+02  0.2108E+02  0.7333E+01  0.7333E+01
    -10.055  0.0000E+00  0.0000E+00  0.7333E+01  0.7333E+01
     -9.991  0.3043E-13  0.0000E+00  0.7333E+01  0.7333E+01
     -9.928  0.1194E+02  0.6074E+01  0.8088E+01  0.7717E+01
     -9.865  0.9143E+01  0.1501E+02  0.8667E+01  0.8667E+01
     -9.802  0.0000E+00  0.0000E+00  0.8667E+01  0.8667E+01
     -9.738  0.0000E+00  0.0000E+00  0.8667E+01  0.8667E+01
     -9.675  0.1360E-02  0.1962E-04  0.8667E+01  0.8667E+01
     -9.612  0.2108E+02  0.2108E+02  0.1000E+02  0.1000E+02
     -9.549  0.3669E-02  0.5027E-06  0.1000E+02  0.1000E+02
     -9.485  0.3162E+02  0.3160E+02  0.1200E+02  0.1200E+02
     -9.422  0.6442E-07  0.1552E-09  0.1200E+02  0.1200E+02
     -9.359  0.2106E+02  0.2068E+02  0.1333E+02  0.1331E+02
     -9.296  0.3162E+02  0.3197E+02  0.1533E+02  0.1533E+02
     -9.232  0.1054E+02  0.1059E+02  0.1600E+02  0.1600E+02
     -9.169  0.0000E+00  0.0000E+00  0.1600E+02  0.1600E+02
     -9.106  0.0000E+00  0.0000E+00  0.1600E+02  0.1600E+02
     -9.043  0.0000E+00  0.0000E+00  0.1600E+02  0.1600E+02
     -8.979  0.0000E+00  0.0000E+00  0.1600E+02  0.1600E+02
     -8.916  0.0000E+00  0.0000E+00  0.1600E+02  0.1600E+02
     -8.853  0.0000E+00  0.0000E+00  0.1600E+02  0.1600E+02
     -8.790  0.0000E+00  0.0000E+00  0.1600E+02  0.1600E+02
     -8.727  0.0000E+00  0.0000E+00  0.1600E+02  0.1600E+02
     -8.663  0.0000E+00  0.0000E+00  0.1600E+02  0.1600E+02
     -8.600  0.2090E-04  0.8916E-07  0.1600E+02  0.1600E+02
     -8.537  0.3553E+01  0.2177E+01  0.1622E+02  0.1614E+02
     -8.474  0.1564E+02  0.1615E+02  0.1721E+02  0.1716E+02
     -8.410  0.1823E+02  0.1643E+02  0.1837E+02  0.1820E+02
     -8.347  0.2530E+02  0.2258E+02  0.1997E+02  0.1963E+02
     -8.284  0.1632E+02  0.1868E+02  0.2100E+02  0.2081E+02
     -8.221  0.1813E+02  0.1938E+02  0.2215E+02  0.2203E+02
     -8.157  0.1551E+02  0.1705E+02  0.2313E+02  0.2311E+02
     -8.094  0.2355E+02  0.2132E+02  0.2462E+02  0.2446E+02
     -8.031  0.1947E+02  0.1974E+02  0.2585E+02  0.2571E+02
     -7.968  0.2492E+02  0.2237E+02  0.2742E+02  0.2712E+02
     -7.904  0.3425E+02  0.3454E+02  0.2959E+02  0.2931E+02
     -7.841  0.2615E+02  0.2269E+02  0.3124E+02  0.3075E+02
     -7.778  0.3468E+02  0.3825E+02  0.3344E+02  0.3316E+02
     -7.715  0.1427E+02  0.1717E+02  0.3434E+02  0.3425E+02
     -7.651  0.1043E+02  0.8860E+01  0.3500E+02  0.3481E+02
     -7.588  0.2122E+02  0.2267E+02  0.3634E+02  0.3625E+02
     -7.525  0.2081E+02  0.1851E+02  0.3766E+02  0.3742E+02
     -7.462  0.2078E+02  0.1982E+02  0.3897E+02  0.3867E+02
     -7.399  0.2376E+02  0.2764E+02  0.4048E+02  0.4042E+02
     -7.335  0.1691E+02  0.1565E+02  0.4155E+02  0.4141E+02
     -7.272  0.2581E+02  0.2256E+02  0.4318E+02  0.4284E+02
     -7.209  0.2690E+02  0.2935E+02  0.4488E+02  0.4469E+02
     -7.146  0.2294E+02  0.2062E+02  0.4633E+02  0.4600E+02
     -7.082  0.1205E+02  0.1608E+02  0.4709E+02  0.4701E+02
     -7.019  0.4223E+02  0.4049E+02  0.4976E+02  0.4958E+02
     -6.956  0.2217E+02  0.2302E+02  0.5117E+02  0.5103E+02
     -6.893  0.2801E+02  0.2481E+02  0.5294E+02  0.5260E+02
     -6.829  0.2239E+02  0.2515E+02  0.5436E+02  0.5419E+02
     -6.766  0.1970E+02  0.2043E+02  0.5560E+02  0.5548E+02
     -6.703  0.3029E+02  0.2840E+02  0.5752E+02  0.5728E+02
     -6.640  0.2857E+02  0.3074E+02  0.5932E+02  0.5922E+02
     -6.576  0.2043E+02  0.1979E+02  0.6062E+02  0.6048E+02
     -6.513  0.2490E+02  0.2114E+02  0.6219E+02  0.6182E+02
     -6.450  0.2112E+02  0.2381E+02  0.6353E+02  0.6332E+02
     -6.387  0.2173E+02  0.1725E+02  0.6490E+02  0.6441E+02
     -6.324  0.3551E+02  0.3699E+02  0.6715E+02  0.6675E+02
     -6.260  0.2267E+02  0.2557E+02  0.6858E+02  0.6837E+02
     -6.197  0.2874E+02  0.2968E+02  0.7040E+02  0.7025E+02
     -6.134  0.3105E+02  0.2639E+02  0.7236E+02  0.7191E+02
     -6.071  0.3045E+02  0.3168E+02  0.7429E+02  0.7392E+02
     -6.007  0.2554E+02  0.2945E+02  0.7590E+02  0.7578E+02
     -5.944  0.2640E+02  0.2549E+02  0.7757E+02  0.7739E+02
     -5.881  0.3074E+02  0.2766E+02  0.7952E+02  0.7914E+02
     -5.818  0.3639E+02  0.3501E+02  0.8182E+02  0.8136E+02
     -5.754  0.1509E+02  0.1833E+02  0.8277E+02  0.8252E+02
     -5.691  0.3330E+02  0.3541E+02  0.8488E+02  0.8476E+02
     -5.628  0.2177E+02  0.1913E+02  0.8626E+02  0.8597E+02
     -5.565  0.2080E+02  0.2280E+02  0.8757E+02  0.8741E+02
     -5.501  0.1723E+02  0.1831E+02  0.8866E+02  0.8857E+02
     -5.438  0.2488E+02  0.2246E+02  0.9024E+02  0.8999E+02
     -5.375  0.2131E+02  0.2407E+02  0.9159E+02  0.9151E+02
     -5.312  0.1257E+02  0.1034E+02  0.9238E+02  0.9217E+02
     -5.248  0.2610E+02  0.2715E+02  0.9403E+02  0.9388E+02
     -5.185  0.2220E+02  0.1817E+02  0.9544E+02  0.9503E+02
     -5.122  0.3075E+02  0.3388E+02  0.9738E+02  0.9718E+02
     -5.059  0.1981E+02  0.2107E+02  0.9863E+02  0.9851E+02
     -4.996  0.1467E+02  0.1333E+02  0.9956E+02  0.9936E+02
     -4.932  0.1750E+02  0.2069E+02  0.1007E+03  0.1007E+03
     -4.869  0.1398E+02  0.1111E+02  0.1016E+03  0.1014E+03
     -4.806  0.1076E+02  0.1197E+02  0.1022E+03  0.1021E+03
     -4.743  0.2592E+02  0.2501E+02  0.1039E+03  0.1037E+03
     -4.679  0.2662E+02  0.2757E+02  0.1056E+03  0.1054E+03
     -4.616  0.2291E+02  0.1814E+02  0.1070E+03  0.1066E+03
     -4.553  0.2097E+02  0.2414E+02  0.1083E+03  0.1081E+03
     -4.490  0.3947E+02  0.3707E+02  0.1108E+03  0.1105E+03
     -4.426  0.2644E+02  0.2681E+02  0.1125E+03  0.1122E+03
     -4.363  0.3527E+02  0.3584E+02  0.1147E+03  0.1144E+03
     -4.300  0.3027E+02  0.2951E+02  0.1166E+03  0.1163E+03
     -4.237  0.3229E+02  0.2860E+02  0.1187E+03  0.1181E+03
     -4.173  0.2370E+02  0.3150E+02  0.1202E+03  0.1201E+03
     -4.110  0.8830E+01  0.7588E+01  0.1207E+03  0.1206E+03
     -4.047  0.2540E+02  0.2601E+02  0.1224E+03  0.1222E+03
     -3.984  0.1773E+02  0.1736E+02  0.1235E+03  0.1233E+03
     -3.920  0.2362E+02  0.2337E+02  0.1250E+03  0.1248E+03
     -3.857  0.1587E+02  0.1341E+02  0.1260E+03  0.1256E+03
     -3.794  0.3524E+02  0.3841E+02  0.1282E+03  0.1281E+03
     -3.731  0.2508E+02  0.2208E+02  0.1298E+03  0.1295E+03
     -3.668  0.2280E+02  0.2760E+02  0.1312E+03  0.1312E+03
     -3.604  0.2602E+02  0.2298E+02  0.1329E+03  0.1327E+03
     -3.541  0.1384E+02  0.1566E+02  0.1338E+03  0.1337E+03
     -3.478  0.2314E+02  0.2241E+02  0.1352E+03  0.1351E+03
     -3.415  0.2480E+02  0.2660E+02  0.1368E+03  0.1368E+03
     -3.351  0.2038E+02  0.1818E+02  0.1381E+03  0.1379E+03
     -3.288  0.1953E+02  0.1811E+02  0.1393E+03  0.1391E+03
     -3.225  0.2593E+02  0.2527E+02  0.1410E+03  0.1407E+03
     -3.162  0.1868E+02  0.1801E+02  0.1421E+03  0.1418E+03
     -3.098  0.2149E+02  0.2293E+02  0.1435E+03  0.1433E+03
     -3.035  0.3112E+02  0.2767E+02  0.1455E+03  0.1450E+03
     -2.972  0.3290E+02  0.3819E+02  0.1475E+03  0.1474E+03
     -2.909  0.2862E+02  0.2778E+02  0.1494E+03  0.1492E+03
     -2.845  0.2709E+02  0.2555E+02  0.1511E+03  0.1508E+03
     -2.782  0.3487E+02  0.3456E+02  0.1533E+03  0.1530E+03
     -2.719  0.2641E+02  0.2542E+02  0.1549E+03  0.1546E+03
     -2.656  0.3877E+02  0.3750E+02  0.1574E+03  0.1570E+03
     -2.593  0.3518E+02  0.3908E+02  0.1596E+03  0.1594E+03
     -2.529  0.3194E+02  0.2939E+02  0.1616E+03  0.1613E+03
     -2.466  0.2894E+02  0.3095E+02  0.1635E+03  0.1632E+03
     -2.403  0.2938E+02  0.3227E+02  0.1653E+03  0.1653E+03
     -2.340  0.2841E+02  0.2437E+02  0.1671E+03  0.1668E+03
     -2.276  0.3290E+02  0.3625E+02  0.1692E+03  0.1691E+03
     -2.213  0.3215E+02  0.2645E+02  0.1712E+03  0.1708E+03
     -2.150  0.3088E+02  0.3503E+02  0.1732E+03  0.1730E+03
     -2.087  0.4004E+02  0.3943E+02  0.1757E+03  0.1755E+03
     -2.023  0.2737E+02  0.2762E+02  0.1775E+03  0.1773E+03
     -1.960  0.2904E+02  0.3000E+02  0.1793E+03  0.1792E+03
     -1.897  0.2012E+02  0.2004E+02  0.1806E+03  0.1804E+03
     -1.834  0.2885E+02  0.2433E+02  0.1824E+03  0.1820E+03
     -1.770  0.3299E+02  0.3595E+02  0.1845E+03  0.1842E+03
     -1.707  0.2524E+02  0.2470E+02  0.1861E+03  0.1858E+03
     -1.644  0.2150E+02  0.2365E+02  0.1874E+03  0.1873E+03
     -1.581  0.2972E+02  0.3084E+02  0.1893E+03  0.1892E+03
     -1.517  0.1882E+02  0.1808E+02  0.1905E+03  0.1904E+03
     -1.454  0.1912E+02  0.1585E+02  0.1917E+03  0.1914E+03
     -1.391  0.1807E+02  0.1968E+02  0.1929E+03  0.1926E+03
     -1.328  0.2098E+02  0.2217E+02  0.1942E+03  0.1940E+03
     -1.265  0.1965E+02  0.2060E+02  0.1954E+03  0.1953E+03
     -1.201  0.1222E+02  0.1115E+02  0.1962E+03  0.1960E+03
     -1.138  0.1812E+02  0.1787E+02  0.1974E+03  0.1972E+03
     -1.075  0.2518E+02  0.2701E+02  0.1990E+03  0.1989E+03
     -1.012  0.1219E+02  0.1035E+02  0.1997E+03  0.1995E+03
     -0.948  0.2750E+02  0.2441E+02  0.2015E+03  0.2011E+03
     -0.885  0.2768E+02  0.3000E+02  0.2032E+03  0.2030E+03
     -0.822  0.2159E+02  0.2419E+02  0.2046E+03  0.2045E+03
     -0.759  0.2699E+02  0.2349E+02  0.2063E+03  0.2060E+03
     -0.695  0.2849E+02  0.2973E+02  0.2081E+03  0.2079E+03
     -0.632  0.3378E+02  0.3461E+02  0.2102E+03  0.2101E+03
     -0.569  0.3938E+02  0.3452E+02  0.2127E+03  0.2123E+03
     -0.506  0.4463E+02  0.4570E+02  0.2155E+03  0.2151E+03
     -0.442  0.3567E+02  0.3582E+02  0.2178E+03  0.2174E+03
     -0.379  0.2513E+02  0.2841E+02  0.2194E+03  0.2192E+03
     -0.316  0.2615E+02  0.2356E+02  0.2210E+03  0.2207E+03
     -0.253  0.2799E+02  0.3077E+02  0.2228E+03  0.2226E+03
     -0.189  0.3899E+02  0.3752E+02  0.2253E+03  0.2250E+03
     -0.126  0.3749E+02  0.3740E+02  0.2276E+03  0.2274E+03
     -0.063  0.2910E+02  0.2888E+02  0.2295E+03  0.2292E+03
      0.000  0.3030E+02  0.3037E+02  0.2314E+03  0.2311E+03
      0.063  0.2768E+02  0.2658E+02  0.2332E+03  0.2328E+03
      0.127  0.4682E+02  0.4547E+02  0.2361E+03  0.2357E+03
      0.190  0.2322E+02  0.2602E+02  0.2376E+03  0.2373E+03
      0.253  0.4794E+02  0.4834E+02  0.2406E+03  0.2404E+03
      0.316  0.4525E+02  0.4339E+02  0.2435E+03  0.2431E+03
      0.380  0.4119E+02  0.3967E+02  0.2461E+03  0.2456E+03
      0.443  0.3712E+02  0.4043E+02  0.2484E+03  0.2482E+03
      0.506  0.5448E+02  0.5237E+02  0.2519E+03  0.2515E+03
      0.569  0.3958E+02  0.4202E+02  0.2544E+03  0.2542E+03
      0.633  0.4570E+02  0.4121E+02  0.2573E+03  0.2568E+03
      0.696  0.4800E+02  0.5258E+02  0.2603E+03  0.2601E+03
      0.759  0.4241E+02  0.4057E+02  0.2630E+03  0.2627E+03
      0.822  0.5282E+02  0.4749E+02  0.2663E+03  0.2657E+03
      0.886  0.4073E+02  0.4689E+02  0.2689E+03  0.2686E+03
      0.949  0.4633E+02  0.4633E+02  0.2719E+03  0.2716E+03
      1.012  0.5780E+02  0.5426E+02  0.2755E+03  0.2750E+03
      1.075  0.4595E+02  0.4701E+02  0.2784E+03  0.2780E+03
      1.138  0.4204E+02  0.4441E+02  0.2811E+03  0.2808E+03
      1.202  0.4507E+02  0.4547E+02  0.2839E+03  0.2837E+03
      1.265  0.4965E+02  0.4696E+02  0.2871E+03  0.2866E+03
      1.328  0.4324E+02  0.4444E+02  0.2898E+03  0.2894E+03
      1.391  0.4308E+02  0.4282E+02  0.2925E+03  0.2922E+03
      1.455  0.5161E+02  0.4859E+02  0.2958E+03  0.2952E+03
      1.518  0.4791E+02  0.4984E+02  0.2988E+03  0.2984E+03
      1.581  0.4144E+02  0.4148E+02  0.3014E+03  0.3010E+03
      1.644  0.4803E+02  0.4728E+02  0.3045E+03  0.3040E+03
      1.708  0.5183E+02  0.5213E+02  0.3078E+03  0.3073E+03
      1.771  0.4461E+02  0.4657E+02  0.3106E+03  0.3102E+03
      1.834  0.4057E+02  0.3855E+02  0.3131E+03  0.3127E+03
      1.897  0.3941E+02  0.4112E+02  0.3156E+03  0.3153E+03
      1.961  0.4012E+02  0.4034E+02  0.3182E+03  0.3178E+03
      2.024  0.2728E+02  0.2795E+02  0.3199E+03  0.3196E+03
      2.087  0.4452E+02  0.4244E+02  0.3227E+03  0.3223E+03
      2.150  0.4807E+02  0.4433E+02  0.3258E+03  0.3251E+03
      2.214  0.3193E+02  0.3825E+02  0.3278E+03  0.3275E+03
      2.277  0.4568E+02  0.4175E+02  0.3307E+03  0.3302E+03
      2.340  0.3489E+02  0.3496E+02  0.3329E+03  0.3324E+03
      2.403  0.2708E+02  0.3227E+02  0.3346E+03  0.3344E+03
      2.466  0.4632E+02  0.4163E+02  0.3375E+03  0.3370E+03
      2.530  0.2710E+02  0.2787E+02  0.3392E+03  0.3388E+03
      2.593  0.3544E+02  0.3505E+02  0.3415E+03  0.3410E+03
      2.656  0.2333E+02  0.2528E+02  0.3430E+03  0.3426E+03
      2.719  0.4526E+02  0.4332E+02  0.3458E+03  0.3454E+03
      2.783  0.4066E+02  0.3992E+02  0.3484E+03  0.3479E+03
      2.846  0.3778E+02  0.3742E+02  0.3508E+03  0.3502E+03
      2.909  0.2617E+02  0.3116E+02  0.3524E+03  0.3522E+03
      2.972  0.3432E+02  0.3249E+02  0.3546E+03  0.3543E+03
      3.036  0.3394E+02  0.3184E+02  0.3568E+03  0.3563E+03
      3.099  0.3872E+02  0.3493E+02  0.3592E+03  0.3585E+03
      3.162  0.2965E+02  0.3631E+02  0.3611E+03  0.3608E+03
      3.225  0.4746E+02  0.4024E+02  0.3641E+03  0.3633E+03
      3.289  0.5063E+02  0.5245E+02  0.3673E+03  0.3667E+03
      3.352  0.4484E+02  0.4126E+02  0.3701E+03  0.3693E+03
      3.415  0.3619E+02  0.3986E+02  0.3724E+03  0.3718E+03
      3.478  0.4281E+02  0.4523E+02  0.3751E+03  0.3746E+03
      3.542  0.4420E+02  0.4143E+02  0.3779E+03  0.3773E+03
      3.605  0.4666E+02  0.4755E+02  0.3809E+03  0.3803E+03
      3.668  0.3902E+02  0.3959E+02  0.3833E+03  0.3828E+03
      3.731  0.4319E+02  0.4294E+02  0.3861E+03  0.3855E+03
      3.794  0.5002E+02  0.5077E+02  0.3892E+03  0.3887E+03
      3.858  0.3190E+02  0.3210E+02  0.3912E+03  0.3907E+03
      3.921  0.4607E+02  0.4182E+02  0.3942E+03  0.3934E+03
      3.984  0.2835E+02  0.3076E+02  0.3960E+03  0.3953E+03
      4.047  0.3517E+02  0.3575E+02  0.3982E+03  0.3976E+03
      4.111  0.3693E+02  0.3334E+02  0.4005E+03  0.3997E+03
      4.174  0.4224E+02  0.4196E+02  0.4032E+03  0.4024E+03
      4.237  0.4180E+02  0.4639E+02  0.4058E+03  0.4053E+03
      4.300  0.2918E+02  0.2945E+02  0.4077E+03  0.4072E+03
      4.364  0.4095E+02  0.3922E+02  0.4103E+03  0.4096E+03
      4.427  0.2598E+02  0.2708E+02  0.4119E+03  0.4114E+03
      4.490  0.4099E+02  0.4100E+02  0.4145E+03  0.4139E+03
      4.553  0.2955E+02  0.2960E+02  0.4164E+03  0.4158E+03
      4.617  0.4398E+02  0.4631E+02  0.4192E+03  0.4187E+03
      4.680  0.3178E+02  0.3165E+02  0.4212E+03  0.4207E+03
      4.743  0.4117E+02  0.4268E+02  0.4238E+03  0.4234E+03
      4.806  0.3942E+02  0.3592E+02  0.4263E+03  0.4257E+03
      4.869  0.4197E+02  0.4049E+02  0.4289E+03  0.4283E+03
      4.933  0.3033E+02  0.3595E+02  0.4308E+03  0.4306E+03
      4.996  0.2170E+02  0.2370E+02  0.4322E+03  0.4321E+03
      5.059  0.4338E+02  0.3794E+02  0.4350E+03  0.4345E+03
      5.122  0.3480E+02  0.3570E+02  0.4372E+03  0.4367E+03
      5.186  0.3764E+02  0.3747E+02  0.4395E+03  0.4391E+03
      5.249  0.4198E+02  0.3889E+02  0.4422E+03  0.4415E+03
      5.312  0.4145E+02  0.4699E+02  0.4448E+03  0.4445E+03
      5.375  0.4506E+02  0.3970E+02  0.4477E+03  0.4470E+03
      5.439  0.3702E+02  0.4279E+02  0.4500E+03  0.4497E+03
      5.502  0.4635E+02  0.4432E+02  0.4529E+03  0.4525E+03
      5.565  0.4658E+02  0.4797E+02  0.4559E+03  0.4556E+03
      5.628  0.3955E+02  0.3524E+02  0.4584E+03  0.4578E+03
      5.692  0.4032E+02  0.4521E+02  0.4609E+03  0.4607E+03
      5.755  0.3861E+02  0.3792E+02  0.4634E+03  0.4631E+03
      5.818  0.9779E+01  0.1497E+02  0.4640E+03  0.4640E+03
      5.881  0.0000E+00  0.0000E+00  0.4640E+03  0.4640E+03
      5.945  0.0000E+00  0.0000E+00  0.4640E+03  0.4640E+03
      6.008  0.0000E+00  0.0000E+00  0.4640E+03  0.4640E+03
      6.071  0.0000E+00  0.0000E+00  0.4640E+03  0.4640E+03
      6.134  0.0000E+00  0.0000E+00  0.4640E+03  0.4640E+03
      6.197  0.0000E+00  0.0000E+00  0.4640E+03  0.4640E+03
      6.261  0.0000E+00  0.0000E+00  0.4640E+03  0.4640E+03
      6.324  0.0000E+00  0.0000E+00  0.4640E+03  0.4640E+03
      6.387  0.0000E+00  0.0000E+00  0.4640E+03  0.4640E+03
      6.450  0.0000E+00  0.0000E+00  0.4640E+03  0.4640E+03
      6.514  0.0000E+00  0.0000E+00  0.4640E+03  0.4640E+03
      6.577  0.0000E+00  0.0000E+00  0.4640E+03  0.4640E+03
      6.640  0.0000E+00  0.0000E+00  0.4640E+03  0.4640E+03
