 168 168   0   0
  0.2680331E+02  0.1600268E-08  0.1600268E-08  0.2030401E-08  0.5000000E-15
  1.000000000000000E-004
  CAR 
 Si and Ge interface calculation         
      6.59406625     -9.48668941  301      3.63361485      1.00000000
     -9.487  0.0000E+00  0.0000E+00  0.0000E+00  0.0000E+00
     -9.433  0.0000E+00  0.0000E+00  0.0000E+00  0.0000E+00
     -9.379  0.0000E+00  0.0000E+00  0.0000E+00  0.0000E+00
     -9.326  0.0000E+00  0.0000E+00  0.0000E+00  0.0000E+00
     -9.272  0.0000E+00  0.0000E+00  0.0000E+00  0.0000E+00
     -9.219  0.0000E+00  0.0000E+00  0.0000E+00  0.0000E+00
     -9.165  0.0000E+00  0.0000E+00  0.0000E+00  0.0000E+00
     -9.111  0.0000E+00  0.0000E+00  0.0000E+00  0.0000E+00
     -9.058  0.0000E+00  0.0000E+00  0.0000E+00  0.0000E+00
     -9.004  0.0000E+00  0.0000E+00  0.0000E+00  0.0000E+00
     -8.951  0.0000E+00  0.0000E+00  0.0000E+00  0.0000E+00
     -8.897  0.0000E+00  0.0000E+00  0.0000E+00  0.0000E+00
     -8.843  0.0000E+00  0.0000E+00  0.0000E+00  0.0000E+00
     -8.790  0.5987E-05  0.1409E-06  0.3209E-06  0.7554E-08
     -8.736  0.9299E+01  0.9135E+01  0.4984E+00  0.4896E+00
     -8.683  0.2893E-01  0.1933E+00  0.5000E+00  0.5000E+00
     -8.629  0.2183E-07  0.2168E-09  0.5000E+00  0.5000E+00
     -8.575  0.5170E+02  0.4305E+02  0.3271E+01  0.2808E+01
     -8.522  0.4271E+01  0.1292E+02  0.3500E+01  0.3500E+01
     -8.468  0.0000E+00  0.0000E+00  0.3500E+01  0.3500E+01
     -8.415  0.0000E+00  0.0000E+00  0.3500E+01  0.3500E+01
     -8.361  0.7479E-02  0.3114E-03  0.3500E+01  0.3500E+01
     -8.307  0.9320E+01  0.9326E+01  0.4000E+01  0.4000E+01
     -8.254  0.1995E+02  0.8209E+01  0.5069E+01  0.4440E+01
     -8.200  0.3602E+02  0.4776E+02  0.7000E+01  0.7000E+01
     -8.147  0.5587E+02  0.5493E+02  0.9995E+01  0.9944E+01
     -8.093  0.2483E+02  0.2117E+02  0.1133E+02  0.1108E+02
     -8.039  0.3124E+02  0.3584E+02  0.1300E+02  0.1300E+02
     -7.986  0.0000E+00  0.0000E+00  0.1300E+02  0.1300E+02
     -7.932  0.0000E+00  0.0000E+00  0.1300E+02  0.1300E+02
     -7.879  0.6273E-08  0.2867E-10  0.1300E+02  0.1300E+02
     -7.825  0.4965E+02  0.3725E+02  0.1566E+02  0.1500E+02
     -7.771  0.6322E+01  0.1872E+02  0.1600E+02  0.1600E+02
     -7.718  0.2122E-04  0.1701E-05  0.1600E+02  0.1600E+02
     -7.664  0.2805E+02  0.2763E+02  0.1750E+02  0.1748E+02
     -7.611  0.8195E+02  0.7601E+02  0.2190E+02  0.2156E+02
     -7.557  0.5790E+02  0.6427E+02  0.2500E+02  0.2500E+02
     -7.503  0.7816E+01  0.6378E+01  0.2542E+02  0.2534E+02
     -7.450  0.1512E+01  0.2950E+01  0.2550E+02  0.2550E+02
     -7.396  0.1254E-09  0.4320E-11  0.2550E+02  0.2550E+02
     -7.343  0.3442E+02  0.2509E+02  0.2734E+02  0.2685E+02
     -7.289  0.7752E+02  0.8683E+02  0.3150E+02  0.3150E+02
     -7.235  0.6810E-02  0.1148E-01  0.3150E+02  0.3150E+02
     -7.182  0.5959E+02  0.5617E+02  0.3469E+02  0.3451E+02
     -7.128  0.5234E+02  0.5576E+02  0.3750E+02  0.3750E+02
     -7.075  0.0000E+00  0.0000E+00  0.3750E+02  0.3750E+02
     -7.021  0.3557E-01  0.3573E-02  0.3750E+02  0.3750E+02
     -6.967  0.5593E+02  0.5592E+02  0.4050E+02  0.4050E+02
     -6.914  0.8068E+02  0.7330E+02  0.4482E+02  0.4443E+02
     -6.860  0.1973E+02  0.1971E+02  0.4588E+02  0.4548E+02
     -6.807  0.9812E+02  0.1032E+03  0.5114E+02  0.5101E+02
     -6.753  0.2920E+02  0.2889E+02  0.5271E+02  0.5256E+02
     -6.699  0.7077E+02  0.7348E+02  0.5650E+02  0.5650E+02
     -6.646  0.7164E+01  0.3690E+01  0.5688E+02  0.5670E+02
     -6.592  0.1058E+02  0.9300E+01  0.5745E+02  0.5720E+02
     -6.539  0.2786E+02  0.2991E+02  0.5894E+02  0.5880E+02
     -6.485  0.5304E+02  0.5532E+02  0.6179E+02  0.6176E+02
     -6.431  0.2263E+02  0.2304E+02  0.6300E+02  0.6300E+02
     -6.378  0.8421E+02  0.7726E+02  0.6751E+02  0.6714E+02
     -6.324  0.1213E+03  0.1081E+03  0.7402E+02  0.7293E+02
     -6.271  0.4635E+02  0.6654E+02  0.7650E+02  0.7650E+02
     -6.217  0.1524E+02  0.1101E+02  0.7732E+02  0.7709E+02
     -6.163  0.5008E+02  0.5429E+02  0.8000E+02  0.8000E+02
     -6.110  0.4637E+01  0.4659E+01  0.8025E+02  0.8025E+02
     -6.056  0.7188E+02  0.6530E+02  0.8410E+02  0.8375E+02
     -6.003  0.1226E+02  0.1869E+02  0.8476E+02  0.8475E+02
     -5.949  0.9338E+02  0.7364E+02  0.8977E+02  0.8870E+02
     -5.895  0.3703E+02  0.5691E+02  0.9175E+02  0.9175E+02
     -5.842  0.2812E+02  0.2571E+02  0.9326E+02  0.9313E+02
     -5.788  0.6866E+02  0.5901E+02  0.9694E+02  0.9629E+02
     -5.735  0.7576E+02  0.8783E+02  0.1010E+03  0.1010E+03
     -5.681  0.1600E+02  0.9137E+01  0.1019E+03  0.1015E+03
     -5.627  0.1199E+02  0.1885E+02  0.1025E+03  0.1025E+03
     -5.574  0.3351E+01  0.7376E+00  0.1027E+03  0.1025E+03
     -5.520  0.9133E+02  0.7215E+02  0.1076E+03  0.1064E+03
     -5.467  0.6013E+02  0.7159E+02  0.1108E+03  0.1102E+03
     -5.413  0.6670E+02  0.7186E+02  0.1144E+03  0.1141E+03
     -5.359  0.2441E+02  0.2728E+02  0.1157E+03  0.1156E+03
     -5.306  0.7596E+02  0.7128E+02  0.1198E+03  0.1194E+03
     -5.252  0.6185E+02  0.6797E+02  0.1231E+03  0.1230E+03
     -5.198  0.2670E+02  0.2756E+02  0.1245E+03  0.1245E+03
     -5.145  0.5556E+02  0.5249E+02  0.1275E+03  0.1273E+03
     -5.091  0.5491E+02  0.5209E+02  0.1304E+03  0.1301E+03
     -5.038  0.3662E+02  0.3948E+02  0.1324E+03  0.1322E+03
     -4.984  0.7409E+02  0.6245E+02  0.1364E+03  0.1356E+03
     -4.930  0.6272E+02  0.7113E+02  0.1397E+03  0.1394E+03
     -4.877  0.5997E+02  0.5788E+02  0.1429E+03  0.1425E+03
     -4.823  0.7980E+02  0.8373E+02  0.1472E+03  0.1470E+03
     -4.770  0.9242E+02  0.9350E+02  0.1522E+03  0.1520E+03
     -4.716  0.3692E+02  0.3502E+02  0.1541E+03  0.1539E+03
     -4.662  0.3468E+02  0.3989E+02  0.1560E+03  0.1560E+03
     -4.609  0.4193E+02  0.4195E+02  0.1582E+03  0.1582E+03
     -4.555  0.3070E+02  0.2750E+02  0.1599E+03  0.1597E+03
     -4.502  0.2626E+02  0.2881E+02  0.1613E+03  0.1613E+03
     -4.448  0.2930E+02  0.2473E+02  0.1629E+03  0.1626E+03
     -4.394  0.4194E+02  0.4228E+02  0.1651E+03  0.1649E+03
     -4.341  0.1030E+03  0.1027E+03  0.1706E+03  0.1704E+03
     -4.287  0.3128E+02  0.2760E+02  0.1723E+03  0.1718E+03
     -4.234  0.4775E+02  0.5096E+02  0.1749E+03  0.1746E+03
     -4.180  0.3954E+02  0.4521E+02  0.1770E+03  0.1770E+03
     -4.126  0.2743E+02  0.2151E+02  0.1785E+03  0.1782E+03
     -4.073  0.5386E+02  0.4953E+02  0.1814E+03  0.1808E+03
     -4.019  0.3064E+02  0.4089E+02  0.1830E+03  0.1830E+03
     -3.966  0.1394E+02  0.1379E+02  0.1837E+03  0.1837E+03
     -3.912  0.2799E+02  0.2792E+02  0.1852E+03  0.1852E+03
     -3.858  0.5642E+02  0.5489E+02  0.1883E+03  0.1882E+03
     -3.805  0.6306E+02  0.6039E+02  0.1917E+03  0.1914E+03
     -3.751  0.4889E+02  0.4200E+02  0.1943E+03  0.1937E+03
     -3.698  0.6421E+02  0.6245E+02  0.1977E+03  0.1970E+03
     -3.644  0.6140E+02  0.5950E+02  0.2010E+03  0.2002E+03
     -3.590  0.2321E+02  0.3818E+02  0.2023E+03  0.2023E+03
     -3.537  0.4912E+02  0.4172E+02  0.2049E+03  0.2045E+03
     -3.483  0.6914E+02  0.6836E+02  0.2086E+03  0.2082E+03
     -3.430  0.6269E+02  0.6852E+02  0.2119E+03  0.2118E+03
     -3.376  0.1198E+01  0.3332E+01  0.2120E+03  0.2120E+03
     -3.322  0.5571E+02  0.5590E+02  0.2150E+03  0.2150E+03
     -3.269  0.1393E+02  0.1126E+02  0.2157E+03  0.2156E+03
     -3.215  0.9493E+02  0.9460E+02  0.2208E+03  0.2207E+03
     -3.162  0.9626E+02  0.8462E+02  0.2260E+03  0.2252E+03
     -3.108  0.4206E+02  0.5667E+02  0.2282E+03  0.2282E+03
     -3.054  0.1695E+02  0.9116E+01  0.2292E+03  0.2287E+03
     -3.001  0.9931E+02  0.1044E+03  0.2345E+03  0.2343E+03
     -2.947  0.7506E+02  0.7760E+02  0.2385E+03  0.2385E+03
     -2.894  0.9267E+02  0.9192E+02  0.2435E+03  0.2434E+03
     -2.840  0.2722E+02  0.2518E+02  0.2449E+03  0.2448E+03
     -2.786  0.3462E+02  0.3464E+02  0.2468E+03  0.2466E+03
     -2.733  0.8266E+02  0.7676E+02  0.2512E+03  0.2507E+03
     -2.679  0.4797E+02  0.5357E+02  0.2538E+03  0.2536E+03
     -2.626  0.4591E+02  0.4925E+02  0.2562E+03  0.2562E+03
     -2.572  0.3034E-05  0.1167E-06  0.2563E+03  0.2563E+03
     -2.518  0.7723E+02  0.6927E+02  0.2604E+03  0.2600E+03
     -2.465  0.3263E+02  0.3759E+02  0.2621E+03  0.2620E+03
     -2.411  0.6306E+02  0.5640E+02  0.2655E+03  0.2650E+03
     -2.358  0.4855E+02  0.5219E+02  0.2681E+03  0.2678E+03
     -2.304  0.1113E+03  0.1038E+03  0.2741E+03  0.2734E+03
     -2.250  0.2169E+02  0.3526E+02  0.2753E+03  0.2753E+03
     -2.197  0.5591E+02  0.5570E+02  0.2782E+03  0.2782E+03
     -2.143  0.2794E+02  0.2778E+02  0.2797E+03  0.2797E+03
     -2.090  0.8739E+01  0.5966E+01  0.2802E+03  0.2800E+03
     -2.036  0.3334E+02  0.3648E+02  0.2820E+03  0.2820E+03
     -1.982  0.2191E+00  0.5320E-01  0.2820E+03  0.2820E+03
     -1.929  0.5575E+02  0.5591E+02  0.2850E+03  0.2850E+03
     -1.875  0.4255E+02  0.4103E+02  0.2873E+03  0.2872E+03
     -1.822  0.5539E+02  0.5685E+02  0.2902E+03  0.2902E+03
     -1.768  0.5316E+02  0.4654E+02  0.2931E+03  0.2927E+03
     -1.714  0.2833E+01  0.9493E+01  0.2933E+03  0.2933E+03
     -1.661  0.5206E+02  0.4392E+02  0.2960E+03  0.2956E+03
     -1.607  0.9291E+02  0.1005E+03  0.3010E+03  0.3010E+03
     -1.554  0.6693E+02  0.6525E+02  0.3046E+03  0.3045E+03
     -1.500  0.7269E+01  0.9453E+01  0.3050E+03  0.3050E+03
     -1.446  0.5216E+01  0.2229E+01  0.3053E+03  0.3051E+03
     -1.393  0.3665E+02  0.3929E+02  0.3072E+03  0.3072E+03
     -1.339  0.1276E+00  0.5392E+00  0.3072E+03  0.3072E+03
     -1.286  0.6246E-02  0.9038E-04  0.3073E+03  0.3073E+03
     -1.232  0.2799E+02  0.2796E+02  0.3088E+03  0.3087E+03
     -1.178  0.2797E+02  0.2801E+02  0.3102E+03  0.3102E+03
     -1.125  0.0000E+00  0.2151E-02  0.3102E+03  0.3102E+03
     -1.071  0.1990E+01  0.3442E+00  0.3104E+03  0.3103E+03
     -1.017  0.2599E+02  0.2764E+02  0.3117E+03  0.3117E+03
     -0.964  0.0000E+00  0.0000E+00  0.3118E+03  0.3118E+03
     -0.910  0.1186E-08  0.2929E-10  0.3118E+03  0.3118E+03
     -0.857  0.1445E+02  0.1082E+02  0.3125E+03  0.3123E+03
     -0.803  0.3972E+02  0.3580E+02  0.3147E+03  0.3142E+03
     -0.749  0.3832E+02  0.4265E+02  0.3167E+03  0.3165E+03
     -0.696  0.2266E+02  0.2359E+02  0.3179E+03  0.3178E+03
     -0.642  0.5936E+02  0.5770E+02  0.3211E+03  0.3209E+03
     -0.589  0.3312E+02  0.2933E+02  0.3229E+03  0.3225E+03
     -0.535  0.1624E+02  0.2397E+02  0.3237E+03  0.3237E+03
     -0.481  0.0000E+00  0.0000E+00  0.3238E+03  0.3238E+03
     -0.428  0.4936E-02  0.7390E-03  0.3238E+03  0.3238E+03
     -0.374  0.5295E+01  0.4772E+01  0.3240E+03  0.3240E+03
     -0.321  0.5980E+02  0.5972E+02  0.3272E+03  0.3272E+03
     -0.267  0.9585E+02  0.7330E+02  0.3324E+03  0.3311E+03
     -0.213  0.1291E+03  0.1395E+03  0.3393E+03  0.3386E+03
     -0.160  0.3402E+02  0.4150E+02  0.3411E+03  0.3408E+03
     -0.106  0.1136E+03  0.1145E+03  0.3472E+03  0.3470E+03
     -0.053  0.9020E+02  0.8237E+02  0.3520E+03  0.3514E+03
      0.001  0.1022E+03  0.1006E+03  0.3575E+03  0.3568E+03
      0.055  0.5409E+02  0.6606E+02  0.3604E+03  0.3603E+03
      0.108  0.2817E+02  0.2242E+02  0.3619E+03  0.3615E+03
      0.162  0.5764E+02  0.6471E+02  0.3650E+03  0.3650E+03
      0.215  0.1153E+03  0.1023E+03  0.3712E+03  0.3705E+03
      0.269  0.1326E+03  0.1342E+03  0.3783E+03  0.3777E+03
      0.323  0.1130E+03  0.9736E+02  0.3844E+03  0.3829E+03
      0.376  0.7868E+02  0.9900E+02  0.3886E+03  0.3882E+03
      0.430  0.9800E+02  0.8568E+02  0.3938E+03  0.3928E+03
      0.483  0.1239E+03  0.1334E+03  0.4005E+03  0.3999E+03
      0.537  0.4698E+02  0.5635E+02  0.4030E+03  0.4030E+03
      0.591  0.6315E+02  0.4843E+02  0.4064E+03  0.4056E+03
      0.644  0.3758E+02  0.4479E+02  0.4084E+03  0.4080E+03
      0.698  0.5068E+02  0.5069E+02  0.4111E+03  0.4107E+03
      0.751  0.1137E+03  0.1139E+03  0.4172E+03  0.4168E+03
      0.805  0.1049E+03  0.9882E+02  0.4228E+03  0.4221E+03
      0.859  0.1253E+03  0.1316E+03  0.4295E+03  0.4291E+03
      0.912  0.1712E+03  0.1641E+03  0.4387E+03  0.4379E+03
      0.966  0.1192E+03  0.1257E+03  0.4451E+03  0.4447E+03
      1.019  0.1207E+03  0.1186E+03  0.4516E+03  0.4510E+03
      1.073  0.8612E+02  0.8629E+02  0.4562E+03  0.4556E+03
      1.127  0.1445E+03  0.1425E+03  0.4639E+03  0.4633E+03
      1.180  0.7059E+02  0.6881E+02  0.4677E+03  0.4670E+03
      1.234  0.1348E+03  0.1317E+03  0.4750E+03  0.4740E+03
      1.287  0.1060E+03  0.1099E+03  0.4806E+03  0.4799E+03
      1.341  0.9927E+02  0.1028E+03  0.4860E+03  0.4854E+03
      1.395  0.1093E+03  0.1060E+03  0.4918E+03  0.4911E+03
      1.448  0.8416E+02  0.9236E+02  0.4963E+03  0.4961E+03
      1.502  0.1487E+03  0.1390E+03  0.5043E+03  0.5035E+03
      1.555  0.1608E+03  0.1639E+03  0.5129E+03  0.5123E+03
      1.609  0.1065E+03  0.1056E+03  0.5186E+03  0.5180E+03
      1.663  0.1134E+03  0.1231E+03  0.5247E+03  0.5246E+03
      1.716  0.1159E+03  0.9455E+02  0.5309E+03  0.5296E+03
      1.770  0.1027E+03  0.1135E+03  0.5364E+03  0.5357E+03
      1.823  0.8937E+02  0.9291E+02  0.5412E+03  0.5407E+03
      1.877  0.9785E+02  0.1010E+03  0.5465E+03  0.5461E+03
      1.931  0.8547E+02  0.8207E+02  0.5510E+03  0.5505E+03
      1.984  0.8134E+02  0.8555E+02  0.5554E+03  0.5551E+03
      2.038  0.7144E+02  0.7387E+02  0.5592E+03  0.5591E+03
      2.091  0.7666E+02  0.7650E+02  0.5633E+03  0.5632E+03
      2.145  0.1576E+03  0.1496E+03  0.5718E+03  0.5712E+03
      2.199  0.7967E+02  0.7959E+02  0.5761E+03  0.5754E+03
      2.252  0.1015E+03  0.1100E+03  0.5815E+03  0.5813E+03
      2.306  0.1036E+03  0.9911E+02  0.5871E+03  0.5866E+03
      2.359  0.5568E+02  0.5770E+02  0.5900E+03  0.5897E+03
      2.413  0.9735E+02  0.8300E+02  0.5953E+03  0.5942E+03
      2.467  0.6219E+02  0.7637E+02  0.5986E+03  0.5983E+03
      2.520  0.6962E+02  0.6502E+02  0.6023E+03  0.6018E+03
      2.574  0.5012E+02  0.5816E+02  0.6050E+03  0.6049E+03
      2.627  0.8642E+02  0.8386E+02  0.6096E+03  0.6094E+03
      2.681  0.1273E+03  0.1200E+03  0.6165E+03  0.6158E+03
      2.735  0.5285E+02  0.6416E+02  0.6193E+03  0.6193E+03
      2.788  0.9006E+02  0.8183E+02  0.6241E+03  0.6236E+03
      2.842  0.7267E+02  0.7868E+02  0.6280E+03  0.6279E+03
      2.895  0.6966E+02  0.7025E+02  0.6318E+03  0.6316E+03
      2.949  0.1851E+02  0.2103E+02  0.6327E+03  0.6327E+03
      3.003  0.3972E+02  0.3177E+02  0.6349E+03  0.6345E+03
      3.056  0.8616E+02  0.9133E+02  0.6395E+03  0.6393E+03
      3.110  0.1443E+02  0.1611E+02  0.6403E+03  0.6402E+03
      3.164  0.1014E+03  0.8565E+02  0.6457E+03  0.6448E+03
      3.217  0.7434E+02  0.8471E+02  0.6497E+03  0.6493E+03
      3.271  0.2498E+02  0.2227E+02  0.6510E+03  0.6505E+03
      3.324  0.8540E+02  0.6667E+02  0.6556E+03  0.6541E+03
      3.378  0.6335E+02  0.9043E+02  0.6590E+03  0.6590E+03
      3.432  0.3956E+02  0.2861E+02  0.6611E+03  0.6605E+03
      3.485  0.4910E+02  0.6037E+02  0.6638E+03  0.6637E+03
      3.539  0.3114E+02  0.2842E+02  0.6654E+03  0.6652E+03
      3.592  0.6836E+02  0.5436E+02  0.6691E+03  0.6682E+03
      3.646  0.6323E+02  0.7217E+02  0.6725E+03  0.6720E+03
      3.700  0.4202E+02  0.2336E+02  0.6747E+03  0.6733E+03
      3.753  0.3275E+01  0.2734E+02  0.6749E+03  0.6748E+03
      3.807  0.4254E+02  0.4335E+02  0.6772E+03  0.6771E+03
      3.860  0.2235E+02  0.5473E+01  0.6784E+03  0.6774E+03
      3.914  0.1152E+02  0.3046E+02  0.6790E+03  0.6790E+03
      3.968  0.6225E+01  0.3747E+01  0.6793E+03  0.6792E+03
      4.021  0.6320E+02  0.6054E+02  0.6827E+03  0.6824E+03
      4.075  0.1516E+01  0.5760E+01  0.6828E+03  0.6828E+03
      4.128  0.5857E+02  0.4850E+02  0.6859E+03  0.6854E+03
      4.182  0.7565E+02  0.8624E+02  0.6900E+03  0.6900E+03
      4.236  0.4650E+01  0.2596E+01  0.6902E+03  0.6901E+03
      4.289  0.6549E+02  0.6305E+02  0.6938E+03  0.6935E+03
      4.343  0.2475E+02  0.2847E+02  0.6951E+03  0.6950E+03
      4.396  0.5103E+02  0.4785E+02  0.6978E+03  0.6976E+03
      4.450  0.1637E+02  0.1845E+02  0.6987E+03  0.6986E+03
      4.504  0.5193E+02  0.3926E+02  0.7015E+03  0.7007E+03
      4.557  0.9684E+02  0.1072E+03  0.7067E+03  0.7064E+03
      4.611  0.1577E+01  0.6044E+01  0.7068E+03  0.7068E+03
      4.664  0.5291E+02  0.4546E+02  0.7096E+03  0.7092E+03
      4.718  0.1029E+03  0.9710E+02  0.7151E+03  0.7144E+03
      4.772  0.1047E+03  0.1162E+03  0.7207E+03  0.7206E+03
      4.825  0.6979E+02  0.6591E+02  0.7245E+03  0.7242E+03
      4.879  0.4817E+02  0.5321E+02  0.7270E+03  0.7270E+03
      4.932  0.3939E+02  0.3714E+02  0.7292E+03  0.7290E+03
      4.986  0.5370E+02  0.5240E+02  0.7320E+03  0.7318E+03
      5.040  0.6462E+02  0.6872E+02  0.7355E+03  0.7355E+03
      5.093  0.6342E+02  0.5747E+02  0.7389E+03  0.7386E+03
      5.147  0.1006E+03  0.9794E+02  0.7443E+03  0.7438E+03
      5.200  0.1300E+03  0.1384E+03  0.7513E+03  0.7512E+03
      5.254  0.6115E+02  0.4126E+02  0.7545E+03  0.7534E+03
      5.308  0.9113E+02  0.1063E+03  0.7594E+03  0.7591E+03
      5.361  0.8746E+02  0.8705E+02  0.7641E+03  0.7638E+03
      5.415  0.7719E+02  0.8159E+02  0.7682E+03  0.7682E+03
      5.468  0.8799E+02  0.7345E+02  0.7730E+03  0.7721E+03
      5.522  0.8478E+02  0.8466E+02  0.7775E+03  0.7767E+03
      5.576  0.9712E+02  0.1073E+03  0.7827E+03  0.7824E+03
      5.629  0.1002E+03  0.9854E+02  0.7881E+03  0.7877E+03
      5.683  0.8526E+02  0.8447E+02  0.7927E+03  0.7922E+03
      5.736  0.1208E+03  0.1141E+03  0.7991E+03  0.7983E+03
      5.790  0.7505E+02  0.8785E+02  0.8032E+03  0.8030E+03
      5.844  0.7320E+02  0.8102E+02  0.8071E+03  0.8074E+03
      5.897  0.1719E+02  0.1134E+02  0.8080E+03  0.8080E+03
      5.951  0.0000E+00  0.0000E+00  0.8080E+03  0.8080E+03
      6.004  0.0000E+00  0.0000E+00  0.8080E+03  0.8080E+03
      6.058  0.0000E+00  0.0000E+00  0.8080E+03  0.8080E+03
      6.112  0.0000E+00  0.0000E+00  0.8080E+03  0.8080E+03
      6.165  0.0000E+00  0.0000E+00  0.8080E+03  0.8080E+03
      6.219  0.0000E+00  0.0000E+00  0.8080E+03  0.8080E+03
      6.272  0.0000E+00  0.0000E+00  0.8080E+03  0.8080E+03
      6.326  0.0000E+00  0.0000E+00  0.8080E+03  0.8080E+03
      6.380  0.0000E+00  0.0000E+00  0.8080E+03  0.8080E+03
      6.433  0.0000E+00  0.0000E+00  0.8080E+03  0.8080E+03
      6.487  0.0000E+00  0.0000E+00  0.8080E+03  0.8080E+03
      6.540  0.0000E+00  0.0000E+00  0.8080E+03  0.8080E+03
      6.594  0.0000E+00  0.0000E+00  0.8080E+03  0.8080E+03
