 264 264   0   0
  0.2139018E+02  0.1946760E-08  0.1946760E-08  0.1490025E-08  0.5000000E-15
  1.000000000000000E-004
  CAR 
 Si and Ge interface calculation         
      9.27391639     -9.18678465  301      6.68899920      1.00000000
     -9.187  0.0000E+00  0.0000E+00  0.0000E+00  0.0000E+00
     -9.125  0.0000E+00  0.0000E+00  0.0000E+00  0.0000E+00
     -9.064  0.0000E+00  0.0000E+00  0.0000E+00  0.0000E+00
     -9.002  0.0000E+00  0.0000E+00  0.0000E+00  0.0000E+00
     -8.941  0.0000E+00  0.0000E+00  0.0000E+00  0.0000E+00
     -8.879  0.0000E+00  0.0000E+00  0.0000E+00  0.0000E+00
     -8.818  0.0000E+00  0.0000E+00  0.0000E+00  0.0000E+00
     -8.756  0.0000E+00  0.0000E+00  0.0000E+00  0.0000E+00
     -8.694  0.0000E+00  0.0000E+00  0.0000E+00  0.0000E+00
     -8.633  0.0000E+00  0.0000E+00  0.0000E+00  0.0000E+00
     -8.571  0.0000E+00  0.0000E+00  0.0000E+00  0.0000E+00
     -8.510  0.0000E+00  0.0000E+00  0.0000E+00  0.0000E+00
     -8.448  0.0000E+00  0.0000E+00  0.0000E+00  0.0000E+00
     -8.387  0.7890E-09  0.4696E-06  0.4855E-10  0.2890E-07
     -8.325  0.3196E+02  0.3248E+02  0.1967E+01  0.1998E+01
     -8.264  0.5431E+00  0.0000E+00  0.2000E+01  0.2000E+01
     -8.202  0.0000E+00  0.0000E+00  0.2000E+01  0.2000E+01
     -8.141  0.0000E+00  0.0000E+00  0.2000E+01  0.2000E+01
     -8.079  0.0000E+00  0.0000E+00  0.2000E+01  0.2000E+01
     -8.018  0.0000E+00  0.0000E+00  0.2000E+01  0.2000E+01
     -7.956  0.0000E+00  0.0000E+00  0.2000E+01  0.2000E+01
     -7.895  0.9025E+01  0.1546E+02  0.2555E+01  0.2952E+01
     -7.833  0.5551E+02  0.4922E+02  0.5971E+01  0.5980E+01
     -7.771  0.4711E+00  0.3190E+00  0.6000E+01  0.6000E+01
     -7.710  0.3240E+02  0.3250E+02  0.7994E+01  0.8000E+01
     -7.648  0.4248E-01  0.0000E+00  0.8000E+01  0.8000E+01
     -7.587  0.0000E+00  0.0000E+00  0.8000E+01  0.8000E+01
     -7.525  0.1038E-04  0.2481E-03  0.8000E+01  0.8000E+01
     -7.464  0.5766E+02  0.6224E+02  0.1155E+02  0.1183E+02
     -7.402  0.3970E+02  0.3529E+02  0.1399E+02  0.1400E+02
     -7.341  0.3333E+02  0.4096E+02  0.1604E+02  0.1652E+02
     -7.279  0.6387E+02  0.5648E+02  0.1998E+02  0.2000E+02
     -7.218  0.3848E+00  0.5836E-01  0.2000E+02  0.2000E+02
     -7.156  0.5356E+02  0.6266E+02  0.2330E+02  0.2386E+02
     -7.095  0.4510E+02  0.4443E+02  0.2607E+02  0.2659E+02
     -7.033  0.6383E+02  0.5533E+02  0.3000E+02  0.3000E+02
     -6.972  0.0000E+00  0.0000E+00  0.3000E+02  0.3000E+02
     -6.910  0.0000E+00  0.0000E+00  0.3000E+02  0.3000E+02
     -6.848  0.0000E+00  0.0000E+00  0.3000E+02  0.3000E+02
     -6.787  0.1028E+00  0.7895E+00  0.3001E+02  0.3005E+02
     -6.725  0.3240E+02  0.3173E+02  0.3200E+02  0.3200E+02
     -6.664  0.3249E+02  0.3248E+02  0.3400E+02  0.3400E+02
     -6.602  0.0000E+00  0.0000E+00  0.3400E+02  0.3400E+02
     -6.541  0.3924E-13  0.3868E-08  0.3400E+02  0.3400E+02
     -6.479  0.1097E+02  0.2615E+02  0.3468E+02  0.3561E+02
     -6.418  0.7795E+02  0.6758E+02  0.3947E+02  0.3977E+02
     -6.356  0.8662E+01  0.3973E+01  0.4000E+02  0.4001E+02
     -6.295  0.3110E+02  0.3167E+02  0.4192E+02  0.4196E+02
     -6.233  0.2267E+02  0.2287E+02  0.4331E+02  0.4337E+02
     -6.172  0.1114E+02  0.1024E+02  0.4400E+02  0.4400E+02
     -6.110  0.1209E+02  0.2998E+02  0.4474E+02  0.4584E+02
     -6.048  0.5276E+02  0.3509E+02  0.4799E+02  0.4800E+02
     -5.987  0.3265E+02  0.3243E+02  0.5000E+02  0.5000E+02
     -5.925  0.2268E+01  0.4925E+00  0.5014E+02  0.5003E+02
     -5.864  0.3949E+02  0.4656E+02  0.5257E+02  0.5290E+02
     -5.802  0.3233E+02  0.3419E+02  0.5456E+02  0.5500E+02
     -5.741  0.2342E+02  0.1627E+02  0.5600E+02  0.5600E+02
     -5.679  0.2511E+02  0.2937E+02  0.5755E+02  0.5781E+02
     -5.618  0.3640E+02  0.3512E+02  0.5978E+02  0.5997E+02
     -5.556  0.3600E+02  0.3298E+02  0.6200E+02  0.6200E+02
     -5.495  0.7505E+01  0.1386E+02  0.6246E+02  0.6285E+02
     -5.433  0.4382E+02  0.4328E+02  0.6516E+02  0.6552E+02
     -5.372  0.1368E+02  0.7842E+01  0.6600E+02  0.6600E+02
     -5.310  0.1254E+01  0.4988E-01  0.6608E+02  0.6600E+02
     -5.249  0.3125E+02  0.3238E+02  0.6800E+02  0.6800E+02
     -5.187  0.3054E+02  0.3258E+02  0.6988E+02  0.7000E+02
     -5.125  0.3098E+02  0.2983E+02  0.7179E+02  0.7184E+02
     -5.064  0.3469E+01  0.2656E+01  0.7200E+02  0.7200E+02
     -5.002  0.3801E-03  0.3074E-02  0.7200E+02  0.7200E+02
     -4.941  0.2474E+02  0.2784E+02  0.7352E+02  0.7371E+02
     -4.879  0.2390E+02  0.2469E+02  0.7499E+02  0.7523E+02
     -4.818  0.3214E+02  0.3479E+02  0.7697E+02  0.7737E+02
     -4.756  0.5482E+02  0.5126E+02  0.8035E+02  0.8053E+02
     -4.695  0.4318E+02  0.4056E+02  0.8300E+02  0.8303E+02
     -4.633  0.3665E+02  0.4159E+02  0.8526E+02  0.8558E+02
     -4.572  0.4052E+02  0.3790E+02  0.8775E+02  0.8792E+02
     -4.510  0.4151E+02  0.4651E+02  0.9031E+02  0.9078E+02
     -4.449  0.4229E+02  0.3929E+02  0.9291E+02  0.9320E+02
     -4.387  0.4330E+02  0.4400E+02  0.9557E+02  0.9591E+02
     -4.325  0.5945E+02  0.5879E+02  0.9923E+02  0.9952E+02
     -4.264  0.5915E+02  0.5632E+02  0.1029E+03  0.1030E+03
     -4.202  0.3827E+02  0.4017E+02  0.1052E+03  0.1055E+03
     -4.141  0.6009E+02  0.6027E+02  0.1089E+03  0.1092E+03
     -4.079  0.6526E+02  0.6614E+02  0.1129E+03  0.1132E+03
     -4.018  0.5551E+02  0.5486E+02  0.1164E+03  0.1166E+03
     -3.956  0.5481E+02  0.5608E+02  0.1197E+03  0.1201E+03
     -3.895  0.5685E+02  0.5510E+02  0.1232E+03  0.1235E+03
     -3.833  0.4627E+02  0.4659E+02  0.1261E+03  0.1263E+03
     -3.772  0.5657E+02  0.5819E+02  0.1296E+03  0.1299E+03
     -3.710  0.5765E+02  0.5554E+02  0.1331E+03  0.1333E+03
     -3.649  0.5361E+02  0.5483E+02  0.1364E+03  0.1367E+03
     -3.587  0.4710E+02  0.4734E+02  0.1393E+03  0.1396E+03
     -3.526  0.4380E+02  0.4863E+02  0.1420E+03  0.1426E+03
     -3.464  0.5573E+02  0.5262E+02  0.1454E+03  0.1458E+03
     -3.402  0.5279E+02  0.5247E+02  0.1487E+03  0.1491E+03
     -3.341  0.5648E+02  0.5692E+02  0.1522E+03  0.1526E+03
     -3.279  0.5222E+02  0.5005E+02  0.1554E+03  0.1557E+03
     -3.218  0.4843E+02  0.5055E+02  0.1584E+03  0.1588E+03
     -3.156  0.6784E+02  0.7072E+02  0.1625E+03  0.1631E+03
     -3.095  0.4209E+02  0.3705E+02  0.1651E+03  0.1654E+03
     -3.033  0.3104E+02  0.2776E+02  0.1670E+03  0.1671E+03
     -2.972  0.4477E+02  0.4894E+02  0.1698E+03  0.1701E+03
     -2.910  0.5392E+02  0.5431E+02  0.1731E+03  0.1735E+03
     -2.849  0.4282E+02  0.4100E+02  0.1757E+03  0.1760E+03
     -2.787  0.5919E+02  0.5783E+02  0.1794E+03  0.1796E+03
     -2.726  0.5938E+02  0.6134E+02  0.1830E+03  0.1833E+03
     -2.664  0.4965E+02  0.5038E+02  0.1861E+03  0.1864E+03
     -2.602  0.6294E+02  0.6728E+02  0.1900E+03  0.1906E+03
     -2.541  0.5412E+02  0.5301E+02  0.1933E+03  0.1938E+03
     -2.479  0.6755E+02  0.6667E+02  0.1975E+03  0.1979E+03
     -2.418  0.7403E+02  0.7687E+02  0.2020E+03  0.2027E+03
     -2.356  0.7080E+02  0.6546E+02  0.2064E+03  0.2067E+03
     -2.295  0.5870E+02  0.6328E+02  0.2100E+03  0.2106E+03
     -2.233  0.7694E+02  0.7866E+02  0.2147E+03  0.2154E+03
     -2.172  0.6351E+02  0.6587E+02  0.2186E+03  0.2195E+03
     -2.110  0.7212E+02  0.6578E+02  0.2231E+03  0.2235E+03
     -2.049  0.7093E+02  0.7460E+02  0.2274E+03  0.2281E+03
     -1.987  0.7858E+02  0.7318E+02  0.2323E+03  0.2326E+03
     -1.926  0.7117E+02  0.7571E+02  0.2367E+03  0.2373E+03
     -1.864  0.8343E+02  0.8135E+02  0.2418E+03  0.2423E+03
     -1.803  0.7516E+02  0.7236E+02  0.2464E+03  0.2467E+03
     -1.741  0.5540E+02  0.6094E+02  0.2498E+03  0.2505E+03
     -1.679  0.7315E+02  0.6849E+02  0.2543E+03  0.2547E+03
     -1.618  0.6094E+02  0.6039E+02  0.2581E+03  0.2584E+03
     -1.556  0.8000E+02  0.7421E+02  0.2630E+03  0.2630E+03
     -1.495  0.7102E+02  0.8228E+02  0.2674E+03  0.2681E+03
     -1.433  0.7489E+02  0.7795E+02  0.2720E+03  0.2729E+03
     -1.372  0.7590E+02  0.6709E+02  0.2767E+03  0.2770E+03
     -1.310  0.5822E+02  0.6028E+02  0.2802E+03  0.2807E+03
     -1.249  0.7149E+02  0.6312E+02  0.2846E+03  0.2846E+03
     -1.187  0.7433E+02  0.7738E+02  0.2892E+03  0.2893E+03
     -1.126  0.6535E+02  0.6765E+02  0.2932E+03  0.2935E+03
     -1.064  0.7672E+02  0.7676E+02  0.2980E+03  0.2982E+03
     -1.003  0.8497E+02  0.8082E+02  0.3032E+03  0.3032E+03
     -0.941  0.5769E+02  0.5937E+02  0.3067E+03  0.3069E+03
     -0.879  0.7619E+02  0.7206E+02  0.3114E+03  0.3113E+03
     -0.818  0.6333E+02  0.6762E+02  0.3153E+03  0.3155E+03
     -0.756  0.6973E+02  0.7264E+02  0.3196E+03  0.3199E+03
     -0.695  0.6634E+02  0.6731E+02  0.3237E+03  0.3241E+03
     -0.633  0.5538E+02  0.5250E+02  0.3271E+03  0.3273E+03
     -0.572  0.5922E+02  0.5834E+02  0.3308E+03  0.3309E+03
     -0.510  0.6637E+02  0.6021E+02  0.3348E+03  0.3346E+03
     -0.449  0.6453E+02  0.7039E+02  0.3388E+03  0.3389E+03
     -0.387  0.6676E+02  0.6855E+02  0.3429E+03  0.3431E+03
     -0.326  0.6692E+02  0.6816E+02  0.3470E+03  0.3473E+03
     -0.264  0.7239E+02  0.6903E+02  0.3515E+03  0.3516E+03
     -0.203  0.6823E+02  0.7204E+02  0.3557E+03  0.3560E+03
     -0.141  0.7905E+02  0.8135E+02  0.3606E+03  0.3610E+03
     -0.080  0.7731E+02  0.7833E+02  0.3653E+03  0.3659E+03
     -0.018  0.8588E+02  0.7844E+02  0.3706E+03  0.3707E+03
      0.044  0.8071E+02  0.7881E+02  0.3756E+03  0.3755E+03
      0.105  0.8233E+02  0.8465E+02  0.3806E+03  0.3807E+03
      0.167  0.7540E+02  0.7324E+02  0.3853E+03  0.3852E+03
      0.228  0.8760E+02  0.7791E+02  0.3907E+03  0.3900E+03
      0.290  0.7953E+02  0.8100E+02  0.3956E+03  0.3950E+03
      0.351  0.8006E+02  0.7831E+02  0.4005E+03  0.3998E+03
      0.413  0.9346E+02  0.8965E+02  0.4062E+03  0.4054E+03
      0.474  0.6605E+02  0.7299E+02  0.4103E+03  0.4099E+03
      0.536  0.7480E+02  0.7326E+02  0.4149E+03  0.4144E+03
      0.597  0.9198E+02  0.8583E+02  0.4206E+03  0.4196E+03
      0.659  0.7483E+02  0.7731E+02  0.4252E+03  0.4244E+03
      0.720  0.8083E+02  0.8281E+02  0.4301E+03  0.4295E+03
      0.782  0.8922E+02  0.9157E+02  0.4356E+03  0.4351E+03
      0.844  0.9219E+02  0.7429E+02  0.4413E+03  0.4397E+03
      0.905  0.8737E+02  0.1032E+03  0.4467E+03  0.4461E+03
      0.967  0.8544E+02  0.7887E+02  0.4520E+03  0.4509E+03
      1.028  0.8730E+02  0.8740E+02  0.4573E+03  0.4563E+03
      1.090  0.8143E+02  0.8210E+02  0.4623E+03  0.4613E+03
      1.151  0.9207E+02  0.9897E+02  0.4680E+03  0.4674E+03
      1.213  0.7275E+02  0.7158E+02  0.4725E+03  0.4718E+03
      1.274  0.7992E+02  0.7554E+02  0.4774E+03  0.4765E+03
      1.336  0.8814E+02  0.9720E+02  0.4828E+03  0.4825E+03
      1.397  0.8421E+02  0.7678E+02  0.4880E+03  0.4872E+03
      1.459  0.8571E+02  0.8676E+02  0.4933E+03  0.4925E+03
      1.520  0.8497E+02  0.8354E+02  0.4985E+03  0.4977E+03
      1.582  0.8075E+02  0.8475E+02  0.5035E+03  0.5029E+03
      1.643  0.1003E+03  0.9612E+02  0.5097E+03  0.5088E+03
      1.705  0.8824E+02  0.7944E+02  0.5151E+03  0.5137E+03
      1.767  0.9260E+02  0.8439E+02  0.5208E+03  0.5189E+03
      1.828  0.9062E+02  0.8491E+02  0.5264E+03  0.5241E+03
      1.890  0.1027E+03  0.8464E+02  0.5327E+03  0.5293E+03
      1.951  0.8524E+02  0.9257E+02  0.5379E+03  0.5350E+03
      2.013  0.9109E+02  0.9213E+02  0.5435E+03  0.5407E+03
      2.074  0.9827E+02  0.9002E+02  0.5496E+03  0.5462E+03
      2.136  0.9921E+02  0.1035E+03  0.5557E+03  0.5526E+03
      2.197  0.9297E+02  0.8644E+02  0.5614E+03  0.5579E+03
      2.259  0.1128E+03  0.1206E+03  0.5684E+03  0.5653E+03
      2.320  0.1019E+03  0.8692E+02  0.5746E+03  0.5707E+03
      2.382  0.1195E+03  0.1123E+03  0.5820E+03  0.5776E+03
      2.443  0.1053E+03  0.9578E+02  0.5885E+03  0.5835E+03
      2.505  0.1148E+03  0.9830E+02  0.5955E+03  0.5896E+03
      2.567  0.9278E+02  0.1063E+03  0.6012E+03  0.5961E+03
      2.628  0.1234E+03  0.1096E+03  0.6088E+03  0.6028E+03
      2.690  0.1216E+03  0.1130E+03  0.6163E+03  0.6098E+03
      2.751  0.1060E+03  0.1024E+03  0.6228E+03  0.6161E+03
      2.813  0.1205E+03  0.1193E+03  0.6303E+03  0.6234E+03
      2.874  0.1236E+03  0.1160E+03  0.6379E+03  0.6306E+03
      2.936  0.1238E+03  0.1257E+03  0.6455E+03  0.6383E+03
      2.997  0.1383E+03  0.1167E+03  0.6540E+03  0.6455E+03
      3.059  0.1383E+03  0.1379E+03  0.6625E+03  0.6540E+03
      3.120  0.1393E+03  0.1286E+03  0.6711E+03  0.6619E+03
      3.182  0.1251E+03  0.1285E+03  0.6788E+03  0.6698E+03
      3.243  0.1412E+03  0.1273E+03  0.6875E+03  0.6776E+03
      3.305  0.1142E+03  0.1223E+03  0.6945E+03  0.6852E+03
      3.366  0.1315E+03  0.1287E+03  0.7026E+03  0.6931E+03
      3.428  0.1229E+03  0.1119E+03  0.7102E+03  0.7000E+03
      3.490  0.1229E+03  0.1171E+03  0.7177E+03  0.7072E+03
      3.551  0.1133E+03  0.1229E+03  0.7247E+03  0.7147E+03
      3.613  0.1322E+03  0.1203E+03  0.7328E+03  0.7222E+03
      3.674  0.1369E+03  0.1287E+03  0.7413E+03  0.7301E+03
      3.736  0.1162E+03  0.1184E+03  0.7484E+03  0.7374E+03
      3.797  0.1280E+03  0.1240E+03  0.7563E+03  0.7450E+03
      3.859  0.1209E+03  0.1131E+03  0.7637E+03  0.7519E+03
      3.920  0.1276E+03  0.1211E+03  0.7716E+03  0.7594E+03
      3.982  0.1065E+03  0.1225E+03  0.7781E+03  0.7669E+03
      4.043  0.1212E+03  0.1168E+03  0.7856E+03  0.7741E+03
      4.105  0.1261E+03  0.1208E+03  0.7934E+03  0.7816E+03
      4.166  0.9875E+02  0.1058E+03  0.7994E+03  0.7881E+03
      4.228  0.1066E+03  0.1135E+03  0.8060E+03  0.7951E+03
      4.290  0.1117E+03  0.1206E+03  0.8129E+03  0.8025E+03
      4.351  0.1272E+03  0.1292E+03  0.8207E+03  0.8104E+03
      4.413  0.1123E+03  0.1124E+03  0.8276E+03  0.8173E+03
      4.474  0.1024E+03  0.1033E+03  0.8339E+03  0.8237E+03
      4.536  0.1074E+03  0.1042E+03  0.8405E+03  0.8301E+03
      4.597  0.1163E+03  0.1177E+03  0.8477E+03  0.8374E+03
      4.659  0.1138E+03  0.1024E+03  0.8547E+03  0.8437E+03
      4.720  0.1162E+03  0.1236E+03  0.8618E+03  0.8513E+03
      4.782  0.1051E+03  0.1178E+03  0.8683E+03  0.8585E+03
      4.843  0.1244E+03  0.1197E+03  0.8760E+03  0.8659E+03
      4.905  0.9334E+02  0.9584E+02  0.8817E+03  0.8718E+03
      4.966  0.1137E+03  0.1081E+03  0.8887E+03  0.8784E+03
      5.028  0.1019E+03  0.1035E+03  0.8950E+03  0.8848E+03
      5.089  0.8338E+02  0.9430E+02  0.9001E+03  0.8906E+03
      5.151  0.9766E+02  0.1043E+03  0.9061E+03  0.8970E+03
      5.213  0.1072E+03  0.1008E+03  0.9127E+03  0.9032E+03
      5.274  0.8626E+02  0.8777E+02  0.9180E+03  0.9086E+03
      5.336  0.9748E+02  0.9626E+02  0.9240E+03  0.9146E+03
      5.397  0.1071E+03  0.9950E+02  0.9306E+03  0.9207E+03
      5.459  0.1105E+03  0.1118E+03  0.9374E+03  0.9276E+03
      5.520  0.9969E+02  0.9229E+02  0.9435E+03  0.9332E+03
      5.582  0.8893E+02  0.9638E+02  0.9490E+03  0.9392E+03
      5.643  0.1026E+03  0.9820E+02  0.9553E+03  0.9452E+03
      5.705  0.1069E+03  0.1083E+03  0.9619E+03  0.9519E+03
      5.766  0.9271E+02  0.9098E+02  0.9676E+03  0.9575E+03
      5.828  0.9802E+02  0.1020E+03  0.9736E+03  0.9637E+03
      5.889  0.9879E+02  0.9906E+02  0.9797E+03  0.9698E+03
      5.951  0.1033E+03  0.1103E+03  0.9861E+03  0.9766E+03
      6.013  0.1006E+03  0.8920E+02  0.9923E+03  0.9821E+03
      6.074  0.9834E+02  0.9733E+02  0.9983E+03  0.9881E+03
      6.136  0.1073E+03  0.8764E+02  0.1005E+04  0.9935E+03
      6.197  0.9304E+02  0.1093E+03  0.1011E+04  0.1000E+04
      6.259  0.1166E+03  0.1043E+03  0.1018E+04  0.1007E+04
      6.320  0.1109E+03  0.1007E+03  0.1025E+04  0.1013E+04
      6.382  0.1100E+03  0.1055E+03  0.1031E+04  0.1019E+04
      6.443  0.1073E+03  0.1088E+03  0.1038E+04  0.1026E+04
      6.505  0.1086E+03  0.1200E+03  0.1045E+04  0.1033E+04
      6.566  0.1174E+03  0.1167E+03  0.1052E+04  0.1041E+04
      6.628  0.1221E+03  0.1250E+03  0.1059E+04  0.1048E+04
      6.689  0.1062E+03  0.1100E+03  0.1066E+04  0.1055E+04
      6.751  0.1174E+03  0.1299E+03  0.1073E+04  0.1063E+04
      6.812  0.1202E+03  0.1358E+03  0.1081E+04  0.1071E+04
      6.874  0.1305E+03  0.1185E+03  0.1089E+04  0.1079E+04
      6.936  0.1218E+03  0.1305E+03  0.1096E+04  0.1087E+04
      6.997  0.1255E+03  0.1255E+03  0.1104E+04  0.1094E+04
      7.059  0.1232E+03  0.1366E+03  0.1111E+04  0.1103E+04
      7.120  0.1268E+03  0.1417E+03  0.1119E+04  0.1112E+04
      7.182  0.1153E+03  0.1099E+03  0.1126E+04  0.1118E+04
      7.243  0.1230E+03  0.1207E+03  0.1134E+04  0.1126E+04
      7.305  0.1117E+03  0.1327E+03  0.1141E+04  0.1134E+04
      7.366  0.1127E+03  0.1284E+03  0.1148E+04  0.1142E+04
      7.428  0.1180E+03  0.1255E+03  0.1155E+04  0.1150E+04
      7.489  0.1280E+03  0.1107E+03  0.1163E+04  0.1156E+04
      7.551  0.1179E+03  0.1307E+03  0.1170E+04  0.1164E+04
      7.612  0.1290E+03  0.1241E+03  0.1178E+04  0.1172E+04
      7.674  0.1108E+03  0.1261E+03  0.1185E+04  0.1180E+04
      7.736  0.1149E+03  0.1235E+03  0.1192E+04  0.1187E+04
      7.797  0.1268E+03  0.1138E+03  0.1200E+04  0.1194E+04
      7.859  0.1149E+03  0.1282E+03  0.1207E+04  0.1202E+04
      7.920  0.1228E+03  0.1250E+03  0.1214E+04  0.1210E+04
      7.982  0.1246E+03  0.1239E+03  0.1222E+04  0.1218E+04
      8.043  0.1264E+03  0.1340E+03  0.1230E+04  0.1226E+04
      8.105  0.1431E+03  0.1473E+03  0.1239E+04  0.1235E+04
      8.166  0.1262E+03  0.1184E+03  0.1246E+04  0.1242E+04
      8.228  0.1152E+03  0.1224E+03  0.1254E+04  0.1250E+04
      8.289  0.1361E+03  0.1355E+03  0.1262E+04  0.1258E+04
      8.351  0.8707E+02  0.1266E+03  0.1267E+04  0.1266E+04
      8.412  0.6179E+02  0.8108E+02  0.1271E+04  0.1271E+04
      8.474  0.1512E+02  0.1777E+02  0.1272E+04  0.1272E+04
      8.535  0.0000E+00  0.0000E+00  0.1272E+04  0.1272E+04
      8.597  0.0000E+00  0.0000E+00  0.1272E+04  0.1272E+04
      8.659  0.0000E+00  0.0000E+00  0.1272E+04  0.1272E+04
      8.720  0.0000E+00  0.0000E+00  0.1272E+04  0.1272E+04
      8.782  0.0000E+00  0.0000E+00  0.1272E+04  0.1272E+04
      8.843  0.0000E+00  0.0000E+00  0.1272E+04  0.1272E+04
      8.905  0.0000E+00  0.0000E+00  0.1272E+04  0.1272E+04
      8.966  0.0000E+00  0.0000E+00  0.1272E+04  0.1272E+04
      9.028  0.0000E+00  0.0000E+00  0.1272E+04  0.1272E+04
      9.089  0.0000E+00  0.0000E+00  0.1272E+04  0.1272E+04
      9.151  0.0000E+00  0.0000E+00  0.1272E+04  0.1272E+04
      9.212  0.0000E+00  0.0000E+00  0.1272E+04  0.1272E+04
      9.274  0.0000E+00  0.0000E+00  0.1272E+04  0.1272E+04
