 228 228   0   0
  0.2310631E+02  0.1717433E-08  0.1717433E-08  0.1786100E-08  0.5000000E-15
  1.000000000000000E-004
  CAR 
 Si and Ge interface calculation         
      6.90131769     -8.88995013  301      4.11727574      1.00000000
     -8.890  0.0000E+00  0.0000E+00  0.0000E+00  0.0000E+00
     -8.837  0.0000E+00  0.0000E+00  0.0000E+00  0.0000E+00
     -8.785  0.0000E+00  0.0000E+00  0.0000E+00  0.0000E+00
     -8.732  0.0000E+00  0.0000E+00  0.0000E+00  0.0000E+00
     -8.679  0.0000E+00  0.0000E+00  0.0000E+00  0.0000E+00
     -8.627  0.0000E+00  0.0000E+00  0.0000E+00  0.0000E+00
     -8.574  0.0000E+00  0.0000E+00  0.0000E+00  0.0000E+00
     -8.521  0.0000E+00  0.0000E+00  0.0000E+00  0.0000E+00
     -8.469  0.0000E+00  0.0000E+00  0.0000E+00  0.0000E+00
     -8.416  0.0000E+00  0.0000E+00  0.0000E+00  0.0000E+00
     -8.364  0.0000E+00  0.0000E+00  0.0000E+00  0.0000E+00
     -8.311  0.0000E+00  0.0000E+00  0.0000E+00  0.0000E+00
     -8.258  0.0000E+00  0.0000E+00  0.0000E+00  0.0000E+00
     -8.206  0.5149E-05  0.9064E-06  0.2711E-06  0.4771E-07
     -8.153  0.9030E+01  0.8676E+01  0.4753E+00  0.4567E+00
     -8.100  0.4692E+00  0.8225E+00  0.5000E+00  0.5000E+00
     -8.048  0.3672E+02  0.3567E+02  0.2433E+01  0.2377E+01
     -7.995  0.7360E+01  0.7752E+01  0.2820E+01  0.2785E+01
     -7.942  0.1771E+02  0.1721E+02  0.3753E+01  0.3691E+01
     -7.890  0.1420E+02  0.1537E+02  0.4500E+01  0.4500E+01
     -7.837  0.3134E-04  0.7521E-05  0.4500E+01  0.4500E+01
     -7.785  0.1378E+02  0.1290E+02  0.5225E+01  0.5179E+01
     -7.732  0.1686E+02  0.1582E+02  0.6113E+01  0.6012E+01
     -7.679  0.4120E+02  0.3979E+02  0.8281E+01  0.8106E+01
     -7.627  0.7474E+02  0.7686E+02  0.1222E+02  0.1215E+02
     -7.574  0.2897E+02  0.2960E+02  0.1374E+02  0.1371E+02
     -7.521  0.1091E+02  0.1014E+02  0.1431E+02  0.1424E+02
     -7.469  0.1303E+02  0.1438E+02  0.1500E+02  0.1500E+02
     -7.416  0.1872E+02  0.1637E+02  0.1599E+02  0.1586E+02
     -7.363  0.1542E+02  0.1580E+02  0.1680E+02  0.1669E+02
     -7.311  0.5898E+02  0.5856E+02  0.1990E+02  0.1978E+02
     -7.258  0.5141E+02  0.4910E+02  0.2261E+02  0.2236E+02
     -7.206  0.7133E+02  0.7418E+02  0.2636E+02  0.2627E+02
     -7.153  0.5513E+02  0.5458E+02  0.2926E+02  0.2914E+02
     -7.100  0.5673E+02  0.5489E+02  0.3225E+02  0.3203E+02
     -7.048  0.2362E+02  0.2757E+02  0.3349E+02  0.3348E+02
     -6.995  0.1923E+02  0.1386E+02  0.3451E+02  0.3421E+02
     -6.942  0.7315E+02  0.7750E+02  0.3836E+02  0.3829E+02
     -6.890  0.7224E+02  0.7084E+02  0.4216E+02  0.4202E+02
     -6.837  0.5474E+02  0.5534E+02  0.4504E+02  0.4493E+02
     -6.784  0.5114E+02  0.4793E+02  0.4773E+02  0.4745E+02
     -6.732  0.8362E+02  0.8481E+02  0.5213E+02  0.5192E+02
     -6.679  0.2813E+02  0.2839E+02  0.5361E+02  0.5341E+02
     -6.627  0.7035E+02  0.6704E+02  0.5732E+02  0.5694E+02
     -6.574  0.4703E+02  0.4962E+02  0.5979E+02  0.5955E+02
     -6.521  0.1189E+03  0.1191E+03  0.6605E+02  0.6582E+02
     -6.469  0.8598E+02  0.8481E+02  0.7058E+02  0.7028E+02
     -6.416  0.7806E+02  0.7766E+02  0.7468E+02  0.7437E+02
     -6.363  0.8437E+02  0.8431E+02  0.7913E+02  0.7881E+02
     -6.311  0.9494E+02  0.9619E+02  0.8412E+02  0.8387E+02
     -6.258  0.8593E+02  0.8425E+02  0.8865E+02  0.8831E+02
     -6.205  0.5910E+02  0.6215E+02  0.9176E+02  0.9158E+02
     -6.153  0.5662E+02  0.5537E+02  0.9474E+02  0.9449E+02
     -6.100  0.7367E+02  0.7043E+02  0.9862E+02  0.9820E+02
     -6.048  0.8088E+02  0.8425E+02  0.1029E+03  0.1026E+03
     -5.995  0.6811E+02  0.7051E+02  0.1065E+03  0.1063E+03
     -5.942  0.6218E+02  0.5889E+02  0.1097E+03  0.1094E+03
     -5.890  0.7609E+02  0.7860E+02  0.1137E+03  0.1136E+03
     -5.837  0.8108E+02  0.7976E+02  0.1180E+03  0.1178E+03
     -5.784  0.8653E+02  0.8383E+02  0.1226E+03  0.1222E+03
     -5.732  0.6711E+02  0.7122E+02  0.1261E+03  0.1259E+03
     -5.679  0.5911E+02  0.5451E+02  0.1292E+03  0.1288E+03
     -5.626  0.1508E+03  0.1544E+03  0.1371E+03  0.1369E+03
     -5.574  0.6387E+02  0.6302E+02  0.1405E+03  0.1403E+03
     -5.521  0.5707E+02  0.6162E+02  0.1435E+03  0.1435E+03
     -5.469  0.6639E+02  0.6321E+02  0.1470E+03  0.1468E+03
     -5.416  0.7199E+02  0.6814E+02  0.1508E+03  0.1504E+03
     -5.363  0.9564E+02  0.9928E+02  0.1558E+03  0.1556E+03
     -5.311  0.8310E+02  0.8050E+02  0.1602E+03  0.1599E+03
     -5.258  0.7466E+02  0.7671E+02  0.1641E+03  0.1639E+03
     -5.205  0.7388E+02  0.7561E+02  0.1680E+03  0.1679E+03
     -5.153  0.6073E+02  0.5700E+02  0.1712E+03  0.1709E+03
     -5.100  0.5335E+02  0.5606E+02  0.1740E+03  0.1738E+03
     -5.047  0.8563E+02  0.8489E+02  0.1785E+03  0.1783E+03
     -4.995  0.6913E+02  0.6916E+02  0.1822E+03  0.1820E+03
     -4.942  0.5062E+02  0.5058E+02  0.1848E+03  0.1846E+03
     -4.889  0.6559E+02  0.6498E+02  0.1883E+03  0.1880E+03
     -4.837  0.5707E+02  0.5553E+02  0.1913E+03  0.1910E+03
     -4.784  0.6210E+02  0.6322E+02  0.1946E+03  0.1943E+03
     -4.732  0.4583E+02  0.4697E+02  0.1970E+03  0.1968E+03
     -4.679  0.6543E+02  0.6595E+02  0.2004E+03  0.2002E+03
     -4.626  0.6138E+02  0.6246E+02  0.2036E+03  0.2035E+03
     -4.574  0.5943E+02  0.6138E+02  0.2068E+03  0.2068E+03
     -4.521  0.5087E+02  0.4423E+02  0.2095E+03  0.2091E+03
     -4.468  0.6601E+02  0.7108E+02  0.2129E+03  0.2128E+03
     -4.416  0.3454E+02  0.3472E+02  0.2147E+03  0.2146E+03
     -4.363  0.3748E+02  0.3702E+02  0.2167E+03  0.2166E+03
     -4.310  0.4922E+02  0.4934E+02  0.2193E+03  0.2192E+03
     -4.258  0.4116E+02  0.3800E+02  0.2215E+03  0.2212E+03
     -4.205  0.2891E+02  0.3427E+02  0.2230E+03  0.2230E+03
     -4.153  0.2535E+02  0.2218E+02  0.2243E+03  0.2242E+03
     -4.100  0.6611E+02  0.6139E+02  0.2278E+03  0.2274E+03
     -4.047  0.5006E+02  0.5662E+02  0.2304E+03  0.2304E+03
     -3.995  0.3420E+02  0.3085E+02  0.2322E+03  0.2320E+03
     -3.942  0.1516E+02  0.1919E+02  0.2330E+03  0.2330E+03
     -3.889  0.6788E+02  0.6652E+02  0.2366E+03  0.2365E+03
     -3.837  0.2611E+02  0.2615E+02  0.2380E+03  0.2379E+03
     -3.784  0.2389E+02  0.2305E+02  0.2393E+03  0.2391E+03
     -3.731  0.4205E+02  0.4142E+02  0.2415E+03  0.2413E+03
     -3.679  0.2271E+02  0.2431E+02  0.2427E+03  0.2426E+03
     -3.626  0.5128E+02  0.4961E+02  0.2454E+03  0.2452E+03
     -3.574  0.1078E+03  0.1006E+03  0.2510E+03  0.2505E+03
     -3.521  0.1001E+03  0.1057E+03  0.2563E+03  0.2560E+03
     -3.468  0.7060E+02  0.7033E+02  0.2600E+03  0.2597E+03
     -3.416  0.7815E+02  0.7631E+02  0.2641E+03  0.2638E+03
     -3.363  0.7147E+02  0.7053E+02  0.2679E+03  0.2675E+03
     -3.310  0.8601E+02  0.8865E+02  0.2724E+03  0.2721E+03
     -3.258  0.8374E+02  0.8368E+02  0.2768E+03  0.2765E+03
     -3.205  0.8786E+02  0.8595E+02  0.2815E+03  0.2811E+03
     -3.152  0.8410E+02  0.8432E+02  0.2859E+03  0.2855E+03
     -3.100  0.5191E+02  0.5358E+02  0.2886E+03  0.2883E+03
     -3.047  0.9442E+02  0.9346E+02  0.2936E+03  0.2932E+03
     -2.995  0.6032E+02  0.6363E+02  0.2968E+03  0.2966E+03
     -2.942  0.5297E+02  0.5189E+02  0.2995E+03  0.2993E+03
     -2.889  0.8764E+02  0.8713E+02  0.3042E+03  0.3039E+03
     -2.837  0.9059E+02  0.9249E+02  0.3089E+03  0.3088E+03
     -2.784  0.6349E+02  0.5982E+02  0.3123E+03  0.3119E+03
     -2.731  0.6469E+02  0.6486E+02  0.3157E+03  0.3153E+03
     -2.679  0.4959E+02  0.4877E+02  0.3183E+03  0.3179E+03
     -2.626  0.8403E+02  0.8459E+02  0.3227E+03  0.3224E+03
     -2.573  0.5520E+02  0.5809E+02  0.3256E+03  0.3254E+03
     -2.521  0.7860E+02  0.7854E+02  0.3297E+03  0.3296E+03
     -2.468  0.8527E+02  0.7985E+02  0.3342E+03  0.3338E+03
     -2.416  0.8342E+02  0.8614E+02  0.3386E+03  0.3383E+03
     -2.363  0.1070E+03  0.1056E+03  0.3443E+03  0.3438E+03
     -2.310  0.7949E+02  0.8509E+02  0.3484E+03  0.3483E+03
     -2.258  0.3480E+02  0.3472E+02  0.3503E+03  0.3502E+03
     -2.205  0.8493E+02  0.8710E+02  0.3547E+03  0.3547E+03
     -2.152  0.3711E+02  0.3346E+02  0.3567E+03  0.3565E+03
     -2.100  0.7211E+02  0.6934E+02  0.3605E+03  0.3601E+03
     -2.047  0.8467E+02  0.8672E+02  0.3650E+03  0.3647E+03
     -1.994  0.5689E+02  0.5822E+02  0.3679E+03  0.3678E+03
     -1.942  0.3936E+02  0.3976E+02  0.3700E+03  0.3699E+03
     -1.889  0.3480E+02  0.3587E+02  0.3719E+03  0.3718E+03
     -1.837  0.5490E+02  0.5104E+02  0.3747E+03  0.3744E+03
     -1.784  0.5346E+02  0.5565E+02  0.3776E+03  0.3774E+03
     -1.731  0.5416E+02  0.5230E+02  0.3804E+03  0.3801E+03
     -1.679  0.5302E+02  0.5589E+02  0.3832E+03  0.3831E+03
     -1.626  0.2019E+02  0.1865E+02  0.3843E+03  0.3840E+03
     -1.573  0.4453E+02  0.4517E+02  0.3866E+03  0.3864E+03
     -1.521  0.3304E+02  0.3416E+02  0.3883E+03  0.3882E+03
     -1.468  0.3166E+02  0.3198E+02  0.3900E+03  0.3899E+03
     -1.415  0.3005E+02  0.2678E+02  0.3916E+03  0.3913E+03
     -1.363  0.8908E+02  0.8686E+02  0.3963E+03  0.3959E+03
     -1.310  0.4876E+02  0.5337E+02  0.3988E+03  0.3987E+03
     -1.258  0.6306E+02  0.6169E+02  0.4022E+03  0.4019E+03
     -1.205  0.3404E+02  0.3696E+02  0.4040E+03  0.4039E+03
     -1.152  0.2330E+02  0.2351E+02  0.4052E+03  0.4051E+03
     -1.100  0.4443E+02  0.4007E+02  0.4075E+03  0.4072E+03
     -1.047  0.4531E+02  0.4810E+02  0.4099E+03  0.4098E+03
     -0.994  0.2931E+02  0.2739E+02  0.4115E+03  0.4112E+03
     -0.942  0.4144E+02  0.4457E+02  0.4136E+03  0.4136E+03
     -0.889  0.1305E+02  0.1349E+02  0.4143E+03  0.4143E+03
     -0.836  0.5063E+02  0.4805E+02  0.4170E+03  0.4168E+03
     -0.784  0.2758E+02  0.3020E+02  0.4184E+03  0.4184E+03
     -0.731  0.1056E+02  0.8221E+01  0.4190E+03  0.4188E+03
     -0.678  0.2734E+02  0.2892E+02  0.4204E+03  0.4203E+03
     -0.626  0.2727E+02  0.2579E+02  0.4219E+03  0.4217E+03
     -0.573  0.3830E+02  0.3862E+02  0.4239E+03  0.4237E+03
     -0.521  0.2602E+02  0.2752E+02  0.4253E+03  0.4252E+03
     -0.468  0.3417E+02  0.3271E+02  0.4271E+03  0.4269E+03
     -0.415  0.4451E+02  0.4226E+02  0.4294E+03  0.4291E+03
     -0.363  0.4402E+02  0.4384E+02  0.4317E+03  0.4314E+03
     -0.310  0.3180E+02  0.3500E+02  0.4334E+03  0.4333E+03
     -0.257  0.4142E+02  0.4149E+02  0.4356E+03  0.4355E+03
     -0.205  0.3395E+02  0.3276E+02  0.4374E+03  0.4372E+03
     -0.152  0.9444E+02  0.9091E+02  0.4423E+03  0.4420E+03
     -0.099  0.2410E+02  0.2798E+02  0.4436E+03  0.4434E+03
     -0.047  0.1012E+03  0.9557E+02  0.4489E+03  0.4485E+03
      0.006  0.1014E+03  0.1037E+03  0.4543E+03  0.4539E+03
      0.058  0.7546E+02  0.7306E+02  0.4582E+03  0.4578E+03
      0.111  0.1287E+03  0.1278E+03  0.4650E+03  0.4645E+03
      0.164  0.1190E+03  0.1206E+03  0.4713E+03  0.4709E+03
      0.216  0.1289E+03  0.1281E+03  0.4781E+03  0.4776E+03
      0.269  0.1215E+03  0.1164E+03  0.4844E+03  0.4837E+03
      0.322  0.1148E+03  0.1259E+03  0.4905E+03  0.4903E+03
      0.374  0.8332E+02  0.7584E+02  0.4949E+03  0.4943E+03
      0.427  0.1653E+03  0.1649E+03  0.5036E+03  0.5030E+03
      0.480  0.1751E+03  0.1771E+03  0.5128E+03  0.5123E+03
      0.532  0.1279E+03  0.1270E+03  0.5195E+03  0.5190E+03
      0.585  0.1499E+03  0.1499E+03  0.5274E+03  0.5269E+03
      0.637  0.1155E+03  0.1169E+03  0.5335E+03  0.5331E+03
      0.690  0.1427E+03  0.1414E+03  0.5410E+03  0.5405E+03
      0.743  0.1471E+03  0.1484E+03  0.5487E+03  0.5483E+03
      0.795  0.1368E+03  0.1375E+03  0.5559E+03  0.5556E+03
      0.848  0.1194E+03  0.1208E+03  0.5622E+03  0.5619E+03
      0.901  0.1132E+03  0.1120E+03  0.5682E+03  0.5678E+03
      0.953  0.1326E+03  0.1330E+03  0.5752E+03  0.5748E+03
      1.006  0.1192E+03  0.1197E+03  0.5815E+03  0.5811E+03
      1.059  0.1562E+03  0.1492E+03  0.5897E+03  0.5890E+03
      1.111  0.1427E+03  0.1488E+03  0.5972E+03  0.5968E+03
      1.164  0.1967E+03  0.1941E+03  0.6075E+03  0.6070E+03
      1.216  0.1334E+03  0.1346E+03  0.6146E+03  0.6141E+03
      1.269  0.1451E+03  0.1461E+03  0.6222E+03  0.6218E+03
      1.322  0.1314E+03  0.1291E+03  0.6291E+03  0.6286E+03
      1.374  0.1583E+03  0.1615E+03  0.6374E+03  0.6371E+03
      1.427  0.1084E+03  0.1065E+03  0.6432E+03  0.6427E+03
      1.480  0.2019E+03  0.1970E+03  0.6538E+03  0.6531E+03
      1.532  0.1211E+03  0.1278E+03  0.6602E+03  0.6598E+03
      1.585  0.1075E+03  0.1077E+03  0.6658E+03  0.6655E+03
      1.638  0.1532E+03  0.1430E+03  0.6739E+03  0.6730E+03
      1.690  0.1432E+03  0.1536E+03  0.6814E+03  0.6811E+03
      1.743  0.1344E+03  0.1348E+03  0.6885E+03  0.6882E+03
      1.795  0.1383E+03  0.1354E+03  0.6958E+03  0.6953E+03
      1.848  0.1158E+03  0.1176E+03  0.7019E+03  0.7015E+03
      1.901  0.9400E+02  0.9534E+02  0.7068E+03  0.7065E+03
      1.953  0.1129E+03  0.1084E+03  0.7128E+03  0.7122E+03
      2.006  0.1846E+03  0.1823E+03  0.7225E+03  0.7218E+03
      2.059  0.1573E+03  0.1609E+03  0.7308E+03  0.7303E+03
      2.111  0.1282E+03  0.1265E+03  0.7375E+03  0.7369E+03
      2.164  0.9291E+02  0.9492E+02  0.7424E+03  0.7419E+03
      2.217  0.1647E+03  0.1626E+03  0.7511E+03  0.7505E+03
      2.269  0.1143E+03  0.1148E+03  0.7571E+03  0.7565E+03
      2.322  0.1378E+03  0.1375E+03  0.7643E+03  0.7638E+03
      2.374  0.1123E+03  0.1116E+03  0.7702E+03  0.7696E+03
      2.427  0.1288E+03  0.1304E+03  0.7770E+03  0.7765E+03
      2.480  0.1122E+03  0.1146E+03  0.7829E+03  0.7825E+03
      2.532  0.1087E+03  0.1048E+03  0.7887E+03  0.7880E+03
      2.585  0.1270E+03  0.1290E+03  0.7953E+03  0.7948E+03
      2.638  0.1660E+03  0.1643E+03  0.8041E+03  0.8035E+03
      2.690  0.1347E+03  0.1389E+03  0.8112E+03  0.8108E+03
      2.743  0.1038E+03  0.9966E+02  0.8166E+03  0.8160E+03
      2.796  0.1123E+03  0.1136E+03  0.8225E+03  0.8220E+03
      2.848  0.9914E+02  0.1015E+03  0.8278E+03  0.8274E+03
      2.901  0.8434E+02  0.8534E+02  0.8322E+03  0.8319E+03
      2.954  0.7634E+02  0.7681E+02  0.8362E+03  0.8359E+03
      3.006  0.7123E+02  0.6461E+02  0.8400E+03  0.8393E+03
      3.059  0.7282E+02  0.8140E+02  0.8438E+03  0.8436E+03
      3.111  0.7044E+02  0.6485E+02  0.8475E+03  0.8470E+03
      3.164  0.9461E+02  0.9655E+02  0.8525E+03  0.8521E+03
      3.217  0.1018E+03  0.9575E+02  0.8578E+03  0.8571E+03
      3.269  0.1074E+03  0.1106E+03  0.8635E+03  0.8629E+03
      3.322  0.7359E+02  0.7339E+02  0.8674E+03  0.8668E+03
      3.375  0.7489E+02  0.7691E+02  0.8713E+03  0.8709E+03
      3.427  0.8402E+02  0.8726E+02  0.8757E+03  0.8754E+03
      3.480  0.2921E+02  0.3285E+02  0.8773E+03  0.8772E+03
      3.533  0.4872E+02  0.4319E+02  0.8798E+03  0.8795E+03
      3.585  0.7396E+02  0.7696E+02  0.8837E+03  0.8835E+03
      3.638  0.6772E+02  0.6613E+02  0.8873E+03  0.8870E+03
      3.690  0.5043E+02  0.5445E+02  0.8900E+03  0.8898E+03
      3.743  0.2991E+02  0.2534E+02  0.8915E+03  0.8912E+03
      3.796  0.5697E+02  0.5310E+02  0.8945E+03  0.8940E+03
      3.848  0.6802E+02  0.6967E+02  0.8981E+03  0.8976E+03
      3.901  0.2740E+02  0.3330E+02  0.8996E+03  0.8994E+03
      3.954  0.3496E+02  0.3096E+02  0.9014E+03  0.9010E+03
      4.006  0.4352E+02  0.4180E+02  0.9037E+03  0.9032E+03
      4.059  0.6197E+02  0.5678E+02  0.9069E+03  0.9062E+03
      4.112  0.8168E+02  0.8645E+02  0.9112E+03  0.9108E+03
      4.164  0.5716E+02  0.4997E+02  0.9143E+03  0.9134E+03
      4.217  0.7610E+02  0.8698E+02  0.9183E+03  0.9180E+03
      4.269  0.5851E+02  0.4833E+02  0.9213E+03  0.9205E+03
      4.322  0.5064E+02  0.6377E+02  0.9240E+03  0.9239E+03
      4.375  0.5930E+02  0.4692E+02  0.9271E+03  0.9263E+03
      4.427  0.8624E+02  0.9579E+02  0.9317E+03  0.9314E+03
      4.480  0.6576E+02  0.5265E+02  0.9351E+03  0.9342E+03
      4.533  0.8781E+02  0.9362E+02  0.9397E+03  0.9391E+03
      4.585  0.5617E+02  0.5338E+02  0.9427E+03  0.9419E+03
      4.638  0.9690E+02  0.1009E+03  0.9478E+03  0.9472E+03
      4.691  0.7687E+02  0.7992E+02  0.9518E+03  0.9514E+03
      4.743  0.6832E+02  0.6021E+02  0.9554E+03  0.9546E+03
      4.796  0.9738E+02  0.9820E+02  0.9606E+03  0.9598E+03
      4.848  0.9953E+02  0.1024E+03  0.9658E+03  0.9651E+03
      4.901  0.9221E+02  0.9025E+02  0.9707E+03  0.9699E+03
      4.954  0.1059E+03  0.1058E+03  0.9762E+03  0.9755E+03
      5.006  0.9607E+02  0.1022E+03  0.9813E+03  0.9808E+03
      5.059  0.6731E+02  0.6888E+02  0.9848E+03  0.9845E+03
      5.112  0.8467E+02  0.7705E+02  0.9893E+03  0.9885E+03
      5.164  0.9706E+02  0.9664E+02  0.9944E+03  0.9936E+03
      5.217  0.1018E+03  0.1057E+03  0.9998E+03  0.9992E+03
      5.270  0.1129E+03  0.1066E+03  0.1006E+04  0.1005E+04
      5.322  0.1165E+03  0.1191E+03  0.1012E+04  0.1011E+04
      5.375  0.9151E+02  0.8759E+02  0.1017E+04  0.1016E+04
      5.427  0.1282E+03  0.1368E+03  0.1023E+04  0.1023E+04
      5.480  0.1094E+03  0.1062E+03  0.1029E+04  0.1028E+04
      5.533  0.8022E+02  0.8384E+02  0.1033E+04  0.1033E+04
      5.585  0.1114E+03  0.1095E+03  0.1039E+04  0.1039E+04
      5.638  0.9660E+02  0.9849E+02  0.1044E+04  0.1044E+04
      5.691  0.1293E+03  0.1247E+03  0.1051E+04  0.1050E+04
      5.743  0.1507E+03  0.1547E+03  0.1059E+04  0.1059E+04
      5.796  0.9025E+02  0.9096E+02  0.1064E+04  0.1063E+04
      5.849  0.9298E+02  0.9424E+02  0.1069E+04  0.1068E+04
      5.901  0.9540E+02  0.9592E+02  0.1074E+04  0.1073E+04
      5.954  0.9872E+02  0.9629E+02  0.1079E+04  0.1078E+04
      6.006  0.9608E+02  0.9240E+02  0.1084E+04  0.1083E+04
      6.059  0.1009E+03  0.1065E+03  0.1089E+04  0.1089E+04
      6.112  0.7066E+02  0.6845E+02  0.1093E+04  0.1092E+04
      6.164  0.4732E+02  0.5350E+02  0.1096E+04  0.1095E+04
      6.217  0.9198E+01  0.1365E+02  0.1096E+04  0.1096E+04
      6.270  0.0000E+00  0.0000E+00  0.1096E+04  0.1096E+04
      6.322  0.0000E+00  0.0000E+00  0.1096E+04  0.1096E+04
      6.375  0.0000E+00  0.0000E+00  0.1096E+04  0.1096E+04
      6.428  0.0000E+00  0.0000E+00  0.1096E+04  0.1096E+04
      6.480  0.0000E+00  0.0000E+00  0.1096E+04  0.1096E+04
      6.533  0.0000E+00  0.0000E+00  0.1096E+04  0.1096E+04
      6.585  0.0000E+00  0.0000E+00  0.1096E+04  0.1096E+04
      6.638  0.0000E+00  0.0000E+00  0.1096E+04  0.1096E+04
      6.691  0.0000E+00  0.0000E+00  0.1096E+04  0.1096E+04
      6.743  0.0000E+00  0.0000E+00  0.1096E+04  0.1096E+04
      6.796  0.0000E+00  0.0000E+00  0.1096E+04  0.1096E+04
      6.849  0.0000E+00  0.0000E+00  0.1096E+04  0.1096E+04
      6.901  0.0000E+00  0.0000E+00  0.1096E+04  0.1096E+04
