  96  96   0   0
  0.2924478E+02  0.1131560E-08  0.1789154E-08  0.1386738E-08  0.5000000E-15
  1.000000000000000E-004
  CAR 
 Si and Ge interface calculation         
      5.99135378    -10.50184188  301      3.21763124      1.00000000
    -10.502  0.0000E+00  0.0000E+00  0.0000E+00  0.0000E+00
    -10.447  0.0000E+00  0.0000E+00  0.0000E+00  0.0000E+00
    -10.392  0.0000E+00  0.0000E+00  0.0000E+00  0.0000E+00
    -10.337  0.0000E+00  0.0000E+00  0.0000E+00  0.0000E+00
    -10.282  0.0000E+00  0.0000E+00  0.0000E+00  0.0000E+00
    -10.227  0.0000E+00  0.0000E+00  0.0000E+00  0.0000E+00
    -10.172  0.0000E+00  0.0000E+00  0.0000E+00  0.0000E+00
    -10.117  0.0000E+00  0.0000E+00  0.0000E+00  0.0000E+00
    -10.062  0.0000E+00  0.0000E+00  0.0000E+00  0.0000E+00
    -10.007  0.0000E+00  0.0000E+00  0.0000E+00  0.0000E+00
     -9.952  0.0000E+00  0.0000E+00  0.0000E+00  0.0000E+00
     -9.897  0.0000E+00  0.0000E+00  0.0000E+00  0.0000E+00
     -9.842  0.0000E+00  0.0000E+00  0.0000E+00  0.0000E+00
     -9.787  0.2021E-05  0.5065E-07  0.1111E-06  0.2785E-08
     -9.732  0.1834E+02  0.1735E+02  0.1008E+01  0.9541E+00
     -9.677  0.4009E+02  0.3885E+02  0.3212E+01  0.3090E+01
     -9.622  0.1433E+02  0.1655E+02  0.4000E+01  0.4000E+01
     -9.567  0.0000E+00  0.0000E+00  0.4000E+01  0.4000E+01
     -9.512  0.0000E+00  0.0000E+00  0.4000E+01  0.4000E+01
     -9.457  0.0000E+00  0.0000E+00  0.4000E+01  0.4000E+01
     -9.402  0.3323E-01  0.7126E-03  0.4002E+01  0.4000E+01
     -9.347  0.1823E+02  0.1819E+02  0.5004E+01  0.5000E+01
     -9.292  0.3784E+02  0.3656E+02  0.7084E+01  0.7010E+01
     -9.237  0.1666E+02  0.1801E+02  0.8000E+01  0.8000E+01
     -9.182  0.0000E+00  0.0000E+00  0.8000E+01  0.8000E+01
     -9.127  0.0000E+00  0.0000E+00  0.8000E+01  0.8000E+01
     -9.072  0.0000E+00  0.0000E+00  0.8000E+01  0.8000E+01
     -9.017  0.0000E+00  0.0000E+00  0.8000E+01  0.8000E+01
     -8.962  0.0000E+00  0.0000E+00  0.8000E+01  0.8000E+01
     -8.907  0.0000E+00  0.0000E+00  0.8000E+01  0.8000E+01
     -8.853  0.0000E+00  0.0000E+00  0.8000E+01  0.8000E+01
     -8.798  0.0000E+00  0.0000E+00  0.8000E+01  0.8000E+01
     -8.743  0.7596E-10  0.2221E-13  0.8000E+01  0.8000E+01
     -8.688  0.1178E+02  0.4595E+01  0.8648E+01  0.8253E+01
     -8.633  0.6717E+01  0.1361E+02  0.9017E+01  0.9001E+01
     -8.578  0.3607E+02  0.3636E+02  0.1100E+02  0.1100E+02
     -8.523  0.9054E-13  0.0000E+00  0.1100E+02  0.1100E+02
     -8.468  0.9085E+01  0.2752E+01  0.1150E+02  0.1115E+02
     -8.413  0.9104E+01  0.1544E+02  0.1200E+02  0.1200E+02
     -8.358  0.0000E+00  0.0000E+00  0.1200E+02  0.1200E+02
     -8.303  0.0000E+00  0.0000E+00  0.1200E+02  0.1200E+02
     -8.248  0.8855E-01  0.2395E-02  0.1200E+02  0.1200E+02
     -8.193  0.1537E+02  0.1001E+02  0.1285E+02  0.1255E+02
     -8.138  0.2731E+01  0.8175E+01  0.1300E+02  0.1300E+02
     -8.083  0.1212E+02  0.1202E+02  0.1367E+02  0.1366E+02
     -8.028  0.2384E+02  0.2116E+02  0.1498E+02  0.1482E+02
     -7.973  0.1260E+02  0.1444E+02  0.1567E+02  0.1562E+02
     -7.918  0.7032E+01  0.6996E+01  0.1606E+02  0.1600E+02
     -7.863  0.3508E+02  0.3345E+02  0.1799E+02  0.1784E+02
     -7.808  0.1240E+02  0.1500E+02  0.1867E+02  0.1867E+02
     -7.753  0.5995E+01  0.5277E+01  0.1900E+02  0.1896E+02
     -7.698  0.1824E+02  0.1836E+02  0.2000E+02  0.1997E+02
     -7.643  0.1816E+02  0.1728E+02  0.2100E+02  0.2092E+02
     -7.588  0.4504E-01  0.1535E+01  0.2100E+02  0.2100E+02
     -7.533  0.1149E+02  0.7162E+01  0.2163E+02  0.2139E+02
     -7.478  0.2467E+02  0.2584E+02  0.2299E+02  0.2281E+02
     -7.423  0.3432E+01  0.4992E+01  0.2318E+02  0.2309E+02
     -7.368  0.2147E+02  0.1333E+02  0.2436E+02  0.2382E+02
     -7.313  0.3301E+02  0.3621E+02  0.2617E+02  0.2581E+02
     -7.258  0.2719E+02  0.3372E+02  0.2767E+02  0.2767E+02
     -7.203  0.5856E+01  0.9958E+00  0.2799E+02  0.2772E+02
     -7.148  0.2049E+02  0.2383E+02  0.2911E+02  0.2903E+02
     -7.093  0.1911E+02  0.1664E+02  0.3017E+02  0.2995E+02
     -7.038  0.3430E+02  0.3705E+02  0.3205E+02  0.3198E+02
     -6.983  0.2938E+02  0.3058E+02  0.3367E+02  0.3366E+02
     -6.928  0.1124E+02  0.7384E+01  0.3428E+02  0.3407E+02
     -6.873  0.2753E+02  0.2842E+02  0.3580E+02  0.3563E+02
     -6.818  0.2433E+02  0.2476E+02  0.3714E+02  0.3699E+02
     -6.763  0.2384E+02  0.2185E+02  0.3845E+02  0.3820E+02
     -6.708  0.6068E+01  0.6909E+01  0.3878E+02  0.3858E+02
     -6.653  0.3807E+02  0.3329E+02  0.4087E+02  0.4040E+02
     -6.598  0.9048E+01  0.1693E+02  0.4137E+02  0.4134E+02
     -6.543  0.2387E+02  0.1681E+02  0.4268E+02  0.4226E+02
     -6.488  0.3366E+02  0.3618E+02  0.4453E+02  0.4425E+02
     -6.434  0.2594E+02  0.2761E+02  0.4596E+02  0.4577E+02
     -6.379  0.3813E+02  0.3634E+02  0.4806E+02  0.4777E+02
     -6.324  0.2950E+02  0.3458E+02  0.4968E+02  0.4967E+02
     -6.269  0.9415E+01  0.6947E+01  0.5019E+02  0.5005E+02
     -6.214  0.2043E+02  0.2017E+02  0.5132E+02  0.5116E+02
     -6.159  0.3103E+02  0.2970E+02  0.5302E+02  0.5279E+02
     -6.104  0.1342E+02  0.1605E+02  0.5376E+02  0.5367E+02
     -6.049  0.2792E+02  0.2472E+02  0.5530E+02  0.5503E+02
     -5.994  0.5279E+02  0.4694E+02  0.5820E+02  0.5761E+02
     -5.939  0.3380E+02  0.3887E+02  0.6006E+02  0.5975E+02
     -5.884  0.1665E+02  0.1787E+02  0.6097E+02  0.6073E+02
     -5.829  0.2794E+02  0.2983E+02  0.6251E+02  0.6237E+02
     -5.774  0.2019E+02  0.1893E+02  0.6362E+02  0.6341E+02
     -5.719  0.4077E+02  0.3875E+02  0.6586E+02  0.6554E+02
     -5.664  0.2227E+02  0.2625E+02  0.6708E+02  0.6699E+02
     -5.609  0.4332E+02  0.3952E+02  0.6947E+02  0.6916E+02
     -5.554  0.4263E+02  0.4053E+02  0.7181E+02  0.7139E+02
     -5.499  0.4264E+02  0.4236E+02  0.7415E+02  0.7371E+02
     -5.444  0.2490E+02  0.2867E+02  0.7552E+02  0.7529E+02
     -5.389  0.3288E+02  0.3618E+02  0.7733E+02  0.7728E+02
     -5.334  0.3294E+02  0.3210E+02  0.7914E+02  0.7904E+02
     -5.279  0.9897E+01  0.9024E+01  0.7969E+02  0.7954E+02
     -5.224  0.3621E+02  0.3536E+02  0.8168E+02  0.8148E+02
     -5.169  0.3695E+02  0.3155E+02  0.8371E+02  0.8322E+02
     -5.114  0.3196E+02  0.3633E+02  0.8547E+02  0.8522E+02
     -5.059  0.3349E+02  0.3328E+02  0.8731E+02  0.8705E+02
     -5.004  0.2424E+02  0.2536E+02  0.8864E+02  0.8844E+02
     -4.949  0.2846E+02  0.2672E+02  0.9020E+02  0.8991E+02
     -4.894  0.3993E+02  0.3484E+02  0.9240E+02  0.9182E+02
     -4.839  0.2347E+02  0.3147E+02  0.9369E+02  0.9355E+02
     -4.784  0.2355E+02  0.2118E+02  0.9498E+02  0.9472E+02
     -4.729  0.3445E+02  0.3823E+02  0.9688E+02  0.9682E+02
     -4.674  0.2903E+02  0.2581E+02  0.9847E+02  0.9824E+02
     -4.619  0.1752E+02  0.1890E+02  0.9944E+02  0.9928E+02
     -4.564  0.3460E+02  0.3572E+02  0.1013E+03  0.1012E+03
     -4.509  0.2169E+02  0.1779E+02  0.1025E+03  0.1022E+03
     -4.454  0.1853E+02  0.1738E+02  0.1036E+03  0.1032E+03
     -4.399  0.2636E+02  0.3316E+02  0.1050E+03  0.1050E+03
     -4.344  0.3311E+02  0.2961E+02  0.1068E+03  0.1066E+03
     -4.289  0.2726E+02  0.2140E+02  0.1083E+03  0.1078E+03
     -4.234  0.2710E+02  0.3202E+02  0.1098E+03  0.1096E+03
     -4.179  0.2674E+02  0.2606E+02  0.1113E+03  0.1110E+03
     -4.124  0.3921E+02  0.4184E+02  0.1134E+03  0.1133E+03
     -4.069  0.2467E+02  0.2143E+02  0.1148E+03  0.1145E+03
     -4.015  0.1611E+02  0.1915E+02  0.1157E+03  0.1155E+03
     -3.960  0.2375E+02  0.2192E+02  0.1170E+03  0.1167E+03
     -3.905  0.2973E+02  0.3043E+02  0.1186E+03  0.1184E+03
     -3.850  0.2113E+02  0.1931E+02  0.1198E+03  0.1195E+03
     -3.795  0.4752E+01  0.9768E+01  0.1200E+03  0.1200E+03
     -3.740  0.2761E+02  0.2387E+02  0.1216E+03  0.1213E+03
     -3.685  0.2728E+02  0.2648E+02  0.1231E+03  0.1228E+03
     -3.630  0.3540E+02  0.3421E+02  0.1250E+03  0.1247E+03
     -3.575  0.1891E+02  0.2352E+02  0.1260E+03  0.1259E+03
     -3.520  0.3457E+02  0.3200E+02  0.1279E+03  0.1277E+03
     -3.465  0.3014E+02  0.3285E+02  0.1296E+03  0.1295E+03
     -3.410  0.2852E+02  0.2914E+02  0.1312E+03  0.1311E+03
     -3.355  0.1928E+02  0.1658E+02  0.1322E+03  0.1320E+03
     -3.300  0.3131E+02  0.3068E+02  0.1340E+03  0.1337E+03
     -3.245  0.3266E+02  0.3309E+02  0.1357E+03  0.1355E+03
     -3.190  0.2011E+02  0.2074E+02  0.1369E+03  0.1367E+03
     -3.135  0.3582E+02  0.3610E+02  0.1388E+03  0.1387E+03
     -3.080  0.3091E+02  0.2810E+02  0.1405E+03  0.1402E+03
     -3.025  0.4400E+02  0.4231E+02  0.1429E+03  0.1425E+03
     -2.970  0.4299E+02  0.4856E+02  0.1453E+03  0.1452E+03
     -2.915  0.2208E+02  0.1589E+02  0.1465E+03  0.1461E+03
     -2.860  0.2396E+02  0.3206E+02  0.1478E+03  0.1478E+03
     -2.805  0.2640E+02  0.2138E+02  0.1493E+03  0.1490E+03
     -2.750  0.2479E+02  0.2777E+02  0.1506E+03  0.1505E+03
     -2.695  0.2065E+02  0.2056E+02  0.1518E+03  0.1517E+03
     -2.640  0.2988E+02  0.2676E+02  0.1534E+03  0.1531E+03
     -2.585  0.2152E+02  0.2529E+02  0.1546E+03  0.1545E+03
     -2.530  0.3460E+02  0.3116E+02  0.1565E+03  0.1562E+03
     -2.475  0.3891E+02  0.4125E+02  0.1587E+03  0.1585E+03
     -2.420  0.1964E+02  0.1749E+02  0.1597E+03  0.1595E+03
     -2.365  0.3106E+02  0.2880E+02  0.1614E+03  0.1611E+03
     -2.310  0.2484E+02  0.2960E+02  0.1628E+03  0.1627E+03
     -2.255  0.8314E+01  0.7270E+01  0.1633E+03  0.1631E+03
     -2.200  0.2493E+02  0.2505E+02  0.1646E+03  0.1645E+03
     -2.145  0.3327E+02  0.3076E+02  0.1665E+03  0.1661E+03
     -2.090  0.2290E+02  0.2691E+02  0.1677E+03  0.1676E+03
     -2.035  0.3354E+02  0.3166E+02  0.1696E+03  0.1694E+03
     -1.980  0.3087E+02  0.3166E+02  0.1713E+03  0.1711E+03
     -1.925  0.1129E+02  0.1333E+02  0.1719E+03  0.1718E+03
     -1.870  0.1752E+02  0.1395E+02  0.1728E+03  0.1726E+03
     -1.815  0.2950E+02  0.3160E+02  0.1745E+03  0.1743E+03
     -1.760  0.3627E+01  0.4776E+01  0.1747E+03  0.1746E+03
     -1.705  0.2806E+02  0.2385E+02  0.1762E+03  0.1759E+03
     -1.650  0.1439E+02  0.1921E+02  0.1770E+03  0.1770E+03
     -1.596  0.1190E+02  0.8713E+01  0.1777E+03  0.1775E+03
     -1.541  0.1275E+02  0.1582E+02  0.1784E+03  0.1783E+03
     -1.486  0.3242E+02  0.2997E+02  0.1801E+03  0.1800E+03
     -1.431  0.1268E+02  0.1565E+02  0.1808E+03  0.1808E+03
     -1.376  0.1440E+02  0.1214E+02  0.1816E+03  0.1815E+03
     -1.321  0.2062E+02  0.1772E+02  0.1828E+03  0.1825E+03
     -1.266  0.1595E+02  0.1803E+02  0.1836E+03  0.1835E+03
     -1.211  0.3613E+02  0.3588E+02  0.1856E+03  0.1854E+03
     -1.156  0.1767E+02  0.1863E+02  0.1866E+03  0.1865E+03
     -1.101  0.1645E+02  0.1644E+02  0.1875E+03  0.1874E+03
     -1.046  0.2176E+02  0.2105E+02  0.1887E+03  0.1885E+03
     -0.991  0.1996E+02  0.2134E+02  0.1898E+03  0.1897E+03
     -0.936  0.1659E+02  0.1342E+02  0.1907E+03  0.1904E+03
     -0.881  0.4189E+02  0.4598E+02  0.1930E+03  0.1930E+03
     -0.826  0.1222E+02  0.1218E+02  0.1937E+03  0.1936E+03
     -0.771  0.1654E+02  0.1228E+02  0.1946E+03  0.1943E+03
     -0.716  0.3003E+02  0.3021E+02  0.1962E+03  0.1960E+03
     -0.661  0.2864E+02  0.3092E+02  0.1978E+03  0.1977E+03
     -0.606  0.1270E+02  0.1512E+02  0.1985E+03  0.1985E+03
     -0.551  0.1733E+02  0.1537E+02  0.1995E+03  0.1993E+03
     -0.496  0.4779E+02  0.4321E+02  0.2021E+03  0.2017E+03
     -0.441  0.1730E+02  0.2001E+02  0.2030E+03  0.2028E+03
     -0.386  0.3932E+02  0.3991E+02  0.2052E+03  0.2050E+03
     -0.331  0.3266E+02  0.3074E+02  0.2070E+03  0.2067E+03
     -0.276  0.5043E+02  0.4987E+02  0.2098E+03  0.2094E+03
     -0.221  0.4022E+02  0.4268E+02  0.2120E+03  0.2118E+03
     -0.166  0.3836E+02  0.3473E+02  0.2141E+03  0.2137E+03
     -0.111  0.4422E+02  0.4517E+02  0.2165E+03  0.2162E+03
     -0.056  0.5534E+02  0.5024E+02  0.2196E+03  0.2189E+03
     -0.001  0.3544E+02  0.4006E+02  0.2215E+03  0.2212E+03
      0.054  0.6243E+02  0.6086E+02  0.2249E+03  0.2245E+03
      0.109  0.4422E+02  0.4644E+02  0.2274E+03  0.2271E+03
      0.164  0.3934E+02  0.4165E+02  0.2295E+03  0.2293E+03
      0.219  0.4986E+02  0.5183E+02  0.2323E+03  0.2322E+03
      0.274  0.6129E+02  0.5186E+02  0.2357E+03  0.2350E+03
      0.329  0.4000E+02  0.4232E+02  0.2378E+03  0.2374E+03
      0.384  0.7620E+02  0.7362E+02  0.2420E+03  0.2414E+03
      0.439  0.6331E+02  0.6640E+02  0.2455E+03  0.2451E+03
      0.494  0.3560E+02  0.3930E+02  0.2475E+03  0.2472E+03
      0.549  0.5754E+02  0.5456E+02  0.2506E+03  0.2502E+03
      0.604  0.5351E+02  0.5045E+02  0.2536E+03  0.2530E+03
      0.659  0.6056E+02  0.6224E+02  0.2569E+03  0.2564E+03
      0.714  0.6518E+02  0.6878E+02  0.2605E+03  0.2602E+03
      0.769  0.6519E+02  0.5705E+02  0.2641E+03  0.2633E+03
      0.823  0.5850E+02  0.5691E+02  0.2673E+03  0.2665E+03
      0.878  0.5807E+02  0.6387E+02  0.2705E+03  0.2700E+03
      0.933  0.5785E+02  0.6154E+02  0.2737E+03  0.2734E+03
      0.988  0.6599E+02  0.6557E+02  0.2773E+03  0.2770E+03
      1.043  0.6820E+02  0.6704E+02  0.2810E+03  0.2807E+03
      1.098  0.5216E+02  0.4926E+02  0.2839E+03  0.2834E+03
      1.153  0.6526E+02  0.7108E+02  0.2875E+03  0.2873E+03
      1.208  0.5962E+02  0.5655E+02  0.2908E+03  0.2904E+03
      1.263  0.4314E+02  0.4576E+02  0.2932E+03  0.2929E+03
      1.318  0.6007E+02  0.5444E+02  0.2965E+03  0.2959E+03
      1.373  0.4679E+02  0.4962E+02  0.2990E+03  0.2986E+03
      1.428  0.6299E+02  0.6062E+02  0.3025E+03  0.3019E+03
      1.483  0.6032E+02  0.6339E+02  0.3058E+03  0.3054E+03
      1.538  0.3463E+02  0.3623E+02  0.3077E+03  0.3074E+03
      1.593  0.7245E+02  0.6726E+02  0.3117E+03  0.3111E+03
      1.648  0.3225E+02  0.3415E+02  0.3135E+03  0.3130E+03
      1.703  0.5869E+02  0.5788E+02  0.3167E+03  0.3162E+03
      1.758  0.5611E+02  0.5743E+02  0.3198E+03  0.3193E+03
      1.813  0.3761E+02  0.4265E+02  0.3218E+03  0.3217E+03
      1.868  0.3880E+02  0.3115E+02  0.3240E+03  0.3234E+03
      1.923  0.4356E+02  0.5084E+02  0.3264E+03  0.3262E+03
      1.978  0.5469E+02  0.5069E+02  0.3294E+03  0.3290E+03
      2.033  0.4318E+02  0.4094E+02  0.3318E+03  0.3312E+03
      2.088  0.5046E+02  0.5564E+02  0.3345E+03  0.3343E+03
      2.143  0.4751E+02  0.4406E+02  0.3371E+03  0.3367E+03
      2.198  0.4581E+02  0.4916E+02  0.3397E+03  0.3394E+03
      2.253  0.5578E+02  0.5223E+02  0.3427E+03  0.3423E+03
      2.308  0.3419E+02  0.3746E+02  0.3446E+03  0.3443E+03
      2.363  0.5404E+02  0.4842E+02  0.3476E+03  0.3470E+03
      2.418  0.4364E+02  0.4892E+02  0.3500E+03  0.3497E+03
      2.473  0.3910E+02  0.3397E+02  0.3521E+03  0.3516E+03
      2.528  0.5874E+02  0.5713E+02  0.3554E+03  0.3547E+03
      2.583  0.4106E+02  0.4441E+02  0.3576E+03  0.3571E+03
      2.638  0.6373E+02  0.5345E+02  0.3611E+03  0.3601E+03
      2.693  0.4701E+02  0.5857E+02  0.3637E+03  0.3633E+03
      2.748  0.4015E+02  0.3790E+02  0.3659E+03  0.3654E+03
      2.803  0.2604E+02  0.2469E+02  0.3673E+03  0.3667E+03
      2.858  0.4528E+02  0.4411E+02  0.3698E+03  0.3692E+03
      2.913  0.2940E+02  0.3141E+02  0.3714E+03  0.3709E+03
      2.968  0.1804E+02  0.2241E+02  0.3724E+03  0.3721E+03
      3.023  0.5317E+02  0.4272E+02  0.3754E+03  0.3745E+03
      3.078  0.4544E+02  0.5537E+02  0.3779E+03  0.3775E+03
      3.133  0.2743E+02  0.3006E+02  0.3794E+03  0.3792E+03
      3.188  0.5481E+02  0.4855E+02  0.3824E+03  0.3818E+03
      3.242  0.4313E+02  0.3576E+02  0.3847E+03  0.3838E+03
      3.297  0.3485E+02  0.4270E+02  0.3867E+03  0.3862E+03
      3.352  0.4523E+02  0.4519E+02  0.3892E+03  0.3886E+03
      3.407  0.4347E+02  0.4619E+02  0.3915E+03  0.3912E+03
      3.462  0.2081E+02  0.1883E+02  0.3927E+03  0.3922E+03
      3.517  0.5763E+02  0.5939E+02  0.3959E+03  0.3955E+03
      3.572  0.4014E+02  0.3758E+02  0.3981E+03  0.3975E+03
      3.627  0.4662E+02  0.3567E+02  0.4006E+03  0.3995E+03
      3.682  0.5358E+02  0.6338E+02  0.4036E+03  0.4030E+03
      3.737  0.4498E+02  0.4362E+02  0.4060E+03  0.4054E+03
      3.792  0.3953E+02  0.4485E+02  0.4082E+03  0.4079E+03
      3.847  0.2512E+02  0.2820E+02  0.4096E+03  0.4094E+03
      3.902  0.3077E+02  0.3011E+02  0.4113E+03  0.4111E+03
      3.957  0.3746E+02  0.2841E+02  0.4133E+03  0.4126E+03
      4.012  0.3610E+02  0.3703E+02  0.4153E+03  0.4147E+03
      4.067  0.3710E+02  0.3950E+02  0.4174E+03  0.4168E+03
      4.122  0.4016E+02  0.4392E+02  0.4196E+03  0.4192E+03
      4.177  0.4354E+02  0.3681E+02  0.4220E+03  0.4213E+03
      4.232  0.4363E+02  0.5302E+02  0.4244E+03  0.4242E+03
      4.287  0.1365E+02  0.1569E+02  0.4251E+03  0.4250E+03
      4.342  0.1780E+02  0.1288E+02  0.4261E+03  0.4258E+03
      4.397  0.5030E+02  0.4615E+02  0.4289E+03  0.4283E+03
      4.452  0.2751E+02  0.3494E+02  0.4304E+03  0.4302E+03
      4.507  0.3552E+02  0.3090E+02  0.4323E+03  0.4319E+03
      4.562  0.6094E+02  0.5189E+02  0.4357E+03  0.4348E+03
      4.617  0.2510E+02  0.3306E+02  0.4371E+03  0.4366E+03
      4.672  0.3193E+02  0.3368E+02  0.4388E+03  0.4384E+03
      4.727  0.4634E+02  0.5162E+02  0.4414E+03  0.4413E+03
      4.782  0.4995E+02  0.4433E+02  0.4441E+03  0.4437E+03
      4.837  0.2606E+02  0.3233E+02  0.4455E+03  0.4455E+03
      4.892  0.5229E+02  0.4804E+02  0.4484E+03  0.4481E+03
      4.947  0.4790E+02  0.4964E+02  0.4511E+03  0.4509E+03
      5.002  0.5669E+02  0.5335E+02  0.4542E+03  0.4538E+03
      5.057  0.2835E+02  0.3136E+02  0.4557E+03  0.4555E+03
      5.112  0.6455E+02  0.6535E+02  0.4593E+03  0.4591E+03
      5.167  0.3882E+02  0.3220E+02  0.4614E+03  0.4609E+03
      5.222  0.4097E+02  0.4398E+02  0.4637E+03  0.4633E+03
      5.277  0.6132E+01  0.1287E+02  0.4640E+03  0.4640E+03
      5.332  0.0000E+00  0.0000E+00  0.4640E+03  0.4640E+03
      5.387  0.0000E+00  0.0000E+00  0.4640E+03  0.4640E+03
      5.442  0.0000E+00  0.0000E+00  0.4640E+03  0.4640E+03
      5.497  0.0000E+00  0.0000E+00  0.4640E+03  0.4640E+03
      5.552  0.0000E+00  0.0000E+00  0.4640E+03  0.4640E+03
      5.607  0.0000E+00  0.0000E+00  0.4640E+03  0.4640E+03
      5.661  0.0000E+00  0.0000E+00  0.4640E+03  0.4640E+03
      5.716  0.0000E+00  0.0000E+00  0.4640E+03  0.4640E+03
      5.771  0.0000E+00  0.0000E+00  0.4640E+03  0.4640E+03
      5.826  0.0000E+00  0.0000E+00  0.4640E+03  0.4640E+03
      5.881  0.0000E+00  0.0000E+00  0.4640E+03  0.4640E+03
      5.936  0.0000E+00  0.0000E+00  0.4640E+03  0.4640E+03
      5.991  0.0000E+00  0.0000E+00  0.4640E+03  0.4640E+03
