Si and Ge interface calculation         
           1
    12.144086    0.000000    0.000000
     2.428817   17.848089    0.000000
     0.000000    0.000000   12.615248
   Si   Ge
    72    84
Direct configuration=     1
   0.74189818  0.60300934  0.00000000
   0.10300946  0.29745364  0.08787771
   0.46412075  0.99189788  0.17575546
   0.82523179  0.68634224  0.26363316
   0.18634296  0.38078648  0.35151079
   0.54745436  0.07523072  0.43938857
   0.40856481  0.26967594  0.00000002
   0.76967609  0.96412021  0.08787773
   0.13078737  0.65856451  0.17575546
   0.49189842  0.35300887  0.26363316
   0.85300970  0.04745311  0.35151091
   0.21412086  0.74189746  0.43938857
   0.07523150  0.93634260  0.00000003
   0.43634275  0.63078690  0.08787773
   0.79745394  0.32523107  0.17575546
   0.15856504  0.01967549  0.26363316
   0.51967633  0.71411979  0.35151079
   0.88078761  0.40856397  0.43938866
   0.07523149  0.68634272  0.00000003
   0.43634275  0.38078702  0.08787771
   0.79745394  0.07523129  0.17575541
   0.15856516  0.76967561  0.26363313
   0.51967633  0.46411991  0.35151085
   0.88078773  0.15856415  0.43938848
   0.74189812  0.35300928  0.00000002
   0.10300934  0.04745356  0.08787776
   0.46412051  0.74189782  0.17575543
   0.82523167  0.43634224  0.26363313
   0.18634296  0.13078636  0.35151085
   0.54745412  0.82523072  0.43938854
   0.40856487  0.01967591  0.00000002
   0.76967609  0.71412015  0.08787773
   0.13078737  0.40856439  0.17575550
   0.49189854  0.10300887  0.26363325
   0.85300970  0.79745317  0.35151085
   0.21412086  0.49189723  0.43938866
   0.90856487  0.76967603  0.00000006
   0.26967621  0.46412036  0.08787776
   0.63078737  0.15856457  0.17575546
   0.99189842  0.85300893  0.26363316
   0.35300994  0.54745322  0.35151091
   0.71412086  0.24189752  0.43938857
   0.57523155  0.43634263  0.00000003
   0.93634272  0.13078690  0.08787773
   0.29745400  0.82523119  0.17575546
   0.65856516  0.51967555  0.26363316
   0.01967645  0.21411985  0.35151079
   0.38078761  0.90856409  0.43938866
   0.24189815  0.10300927  0.00000002
   0.60300940  0.79745352  0.08787776
   0.96412063  0.49189776  0.17575546
   0.32523179  0.18634218  0.26363316
   0.68634296  0.88078642  0.35151091
   0.04745412  0.57523072  0.43938857
   0.24189815  0.85300934  0.00000003
   0.60300934  0.54745364  0.08787775
   0.96412063  0.24189791  0.17575546
   0.32523179  0.93634224  0.26363316
   0.68634307  0.63078654  0.35151085
   0.04745436  0.32523084  0.43938857
   0.90856487  0.51967597  0.00000004
   0.26967609  0.21412030  0.08787777
   0.63078737  0.90856457  0.17575546
   0.99189854  0.60300893  0.26363313
   0.35300970  0.29745322  0.35151085
   0.71412110  0.99189746  0.43938866
   0.57523149  0.18634261  0.00000002
   0.93634278  0.88078690  0.08787777
   0.29745400  0.57523114  0.17575546
   0.65856516  0.26967555  0.26363313
   0.01967621  0.96411979  0.35151085
   0.38078761  0.65856409  0.43938866
   0.46308631  0.85714287  0.43938863
   0.96308637  0.85714281  0.66363317
   0.46308637  0.85714281  0.88787770
   0.89165783  0.71428573  0.43938863
   0.39165783  0.71428567  0.66363317
   0.89165795  0.71428561  0.88787770
   0.32022911  0.57142854  0.43938863
   0.82022911  0.57142848  0.66363317
   0.32022929  0.57142848  0.88787770
   0.74880058  0.42857146  0.43938863
   0.24880064  0.42857137  0.66363317
   0.74880075  0.42857131  0.88787770
   0.17737199  0.28571430  0.43938863
   0.67737198  0.28571418  0.66363317
   0.17737210  0.28571415  0.88787770
   0.60594338  0.14285713  0.43938863
   0.10594344  0.14285706  0.66363317
   0.60594356  0.14285699  0.88787770
   0.03451485  0.00000000  0.43938863
   0.53451490  0.99999994  0.66363317
   0.03451490  0.99999988  0.88787770
   0.10594344  0.89285713  0.55151087
   0.60594344  0.89285708  0.77575547
   0.10594368  0.89285701  0.00000000
   0.53451490  0.75000006  0.55151087
   0.03451502  0.75000000  0.77575547
   0.53451502  0.74999994  0.00000000
   0.96308643  0.60714287  0.55151087
   0.46308649  0.60714281  0.77575547
   0.96308661  0.60714275  0.00000000
   0.39165774  0.46428570  0.55151087
   0.89165783  0.46428564  0.77575547
   0.39165783  0.46428558  0.00000000
   0.82022923  0.32142860  0.55151087
   0.32022929  0.32142854  0.77575547
   0.82022929  0.32142845  0.00000000
   0.24880064  0.17857142  0.55151087
   0.74880075  0.17857133  0.77575547
   0.24880075  0.17857124  0.00000000
   0.67737204  0.03571428  0.55151087
   0.17737210  0.03571422  0.77575547
   0.67737210  0.03571417  0.00000000
   0.74880052  0.92857146  0.43938863
   0.24880052  0.92857140  0.66363317
   0.74880064  0.92857134  0.88787770
   0.17737196  0.78571427  0.43938863
   0.67737204  0.78571421  0.66363317
   0.17737210  0.78571415  0.88787770
   0.60594350  0.64285713  0.43938863
   0.10594356  0.64285701  0.66363317
   0.60594356  0.64285701  0.88787770
   0.03451483  0.49999997  0.43938863
   0.53451484  0.49999988  0.66363317
   0.03451502  0.49999982  0.88787770
   0.46308631  0.35714287  0.43938863
   0.96308637  0.35714275  0.66363317
   0.46308649  0.35714272  0.88787770
   0.89165771  0.21428572  0.43938863
   0.39165783  0.21428563  0.66363317
   0.89165783  0.21428561  0.88787770
   0.32022917  0.07142855  0.43938863
   0.82022923  0.07142848  0.66363317
   0.32022929  0.07142843  0.88787770
   0.39165774  0.96428585  0.55151087
   0.89165783  0.96428579  0.77575547
   0.39165783  0.96428573  0.00000000
   0.82022917  0.82142860  0.55151087
   0.32022929  0.82142854  0.77575547
   0.82022929  0.82142848  0.00000000
   0.24880064  0.67857146  0.55151087
   0.74880075  0.67857140  0.77575547
   0.24880075  0.67857134  0.00000000
   0.67737204  0.53571433  0.55151087
   0.17737210  0.53571427  0.77575547
   0.67737222  0.53571421  0.00000000
   0.10594332  0.39285713  0.55151087
   0.60594344  0.39285708  0.77575547
   0.10594344  0.39285701  0.00000000
   0.53451484  0.24999995  0.55151087
   0.03451490  0.24999992  0.77575547
   0.53451490  0.24999981  0.00000000
   0.96308631  0.10714287  0.55151087
   0.46308649  0.10714281  0.77575547
   0.96308661  0.10714272  0.00000000
