 120 120   0   0
  0.1220453E+02  0.1629300E-08  0.1629300E-08  0.7401785E-09  0.5000000E-15
  1.000000000000000E-004
  CAR 
 Si and Ge interface calculation         
      8.77376634    -14.40601625  301      5.04425130      1.00000000
    -14.406  0.0000E+00  0.0000E+00  0.0000E+00  0.0000E+00
    -14.329  0.0000E+00  0.0000E+00  0.0000E+00  0.0000E+00
    -14.251  0.0000E+00  0.0000E+00  0.0000E+00  0.0000E+00
    -14.174  0.0000E+00  0.0000E+00  0.0000E+00  0.0000E+00
    -14.097  0.0000E+00  0.0000E+00  0.0000E+00  0.0000E+00
    -14.020  0.0000E+00  0.0000E+00  0.0000E+00  0.0000E+00
    -13.942  0.0000E+00  0.0000E+00  0.0000E+00  0.0000E+00
    -13.865  0.0000E+00  0.0000E+00  0.0000E+00  0.0000E+00
    -13.788  0.0000E+00  0.0000E+00  0.0000E+00  0.0000E+00
    -13.711  0.0000E+00  0.0000E+00  0.0000E+00  0.0000E+00
    -13.633  0.0000E+00  0.0000E+00  0.0000E+00  0.0000E+00
    -13.556  0.0000E+00  0.0000E+00  0.0000E+00  0.0000E+00
    -13.479  0.0000E+00  0.0000E+00  0.0000E+00  0.0000E+00
    -13.402  0.1699E-11  0.2794E-15  0.1313E-12  0.2159E-16
    -13.324  0.3070E+01  0.2871E+01  0.2372E+00  0.2218E+00
    -13.247  0.1709E+02  0.1724E+02  0.1557E+01  0.1555E+01
    -13.170  0.5727E+01  0.5751E+01  0.2000E+01  0.2000E+01
    -13.092  0.1754E+02  0.1618E+02  0.3355E+01  0.3250E+01
    -13.015  0.1116E+02  0.1148E+02  0.4222E+01  0.4222E+01
    -12.938  0.1444E+02  0.1437E+02  0.5338E+01  0.5332E+01
    -12.861  0.2007E+02  0.1996E+02  0.6889E+01  0.6876E+01
    -12.783  0.2941E+01  0.2878E+01  0.7116E+01  0.7111E+01
    -12.706  0.5837E+01  0.5754E+01  0.7567E+01  0.7556E+01
    -12.629  0.1998E+02  0.2013E+02  0.9111E+01  0.9111E+01
    -12.552  0.2013E+02  0.2011E+02  0.1067E+02  0.1066E+02
    -12.474  0.1780E+01  0.2263E+00  0.1080E+02  0.1068E+02
    -12.397  0.1835E+02  0.1991E+02  0.1222E+02  0.1222E+02
    -12.320  0.5881E+01  0.5745E+01  0.1268E+02  0.1267E+02
    -12.243  0.1085E+02  0.8714E+01  0.1351E+02  0.1334E+02
    -12.165  0.1726E+02  0.1915E+02  0.1490E+02  0.1482E+02
    -12.088  0.1272E+02  0.1025E+02  0.1588E+02  0.1568E+02
    -12.011  0.1723E+02  0.2067E+02  0.1733E+02  0.1728E+02
    -11.934  0.1163E+02  0.1109E+02  0.1823E+02  0.1819E+02
    -11.856  0.8322E+01  0.5958E+01  0.1888E+02  0.1868E+02
    -11.779  0.2054E+02  0.2248E+02  0.2046E+02  0.2042E+02
    -11.702  0.6636E+01  0.5862E+01  0.2098E+02  0.2090E+02
    -11.624  0.1036E+02  0.1138E+02  0.2178E+02  0.2178E+02
    -11.547  0.1687E+02  0.1375E+02  0.2308E+02  0.2284E+02
    -11.470  0.1014E+02  0.8701E+01  0.2389E+02  0.2371E+02
    -11.393  0.1150E+02  0.1529E+02  0.2489E+02  0.2489E+02
    -11.315  0.5640E+01  0.4390E+01  0.2532E+02  0.2523E+02
    -11.238  0.1898E+02  0.1609E+02  0.2680E+02  0.2658E+02
    -11.161  0.0000E+00  0.3527E+01  0.2689E+02  0.2689E+02
    -11.084  0.3246E+01  0.1128E+01  0.2714E+02  0.2698E+02
    -11.006  0.1053E+02  0.1325E+02  0.2800E+02  0.2800E+02
    -10.929  0.0000E+00  0.0000E+00  0.2800E+02  0.2800E+02
    -10.852  0.2847E+01  0.2510E+01  0.2822E+02  0.2819E+02
    -10.775  0.6339E+01  0.5604E+01  0.2871E+02  0.2866E+02
    -10.697  0.1636E+02  0.1515E+02  0.2998E+02  0.2984E+02
    -10.620  0.9419E+01  0.8004E+01  0.3073E+02  0.3053E+02
    -10.543  0.3330E+02  0.3625E+02  0.3334E+02  0.3333E+02
    -10.465  0.1847E+02  0.1746E+02  0.3476E+02  0.3468E+02
    -10.388  0.1594E+02  0.1568E+02  0.3599E+02  0.3590E+02
    -10.311  0.5886E-01  0.1326E-02  0.3600E+02  0.3600E+02
    -10.234  0.9968E+01  0.8771E+01  0.3677E+02  0.3668E+02
    -10.156  0.2449E+02  0.2574E+02  0.3867E+02  0.3867E+02
    -10.079  0.6213E+01  0.5770E+01  0.3915E+02  0.3911E+02
    -10.002  0.1572E+02  0.1464E+02  0.4036E+02  0.4024E+02
     -9.925  0.1466E+02  0.1218E+02  0.4149E+02  0.4118E+02
     -9.847  0.2381E+02  0.2775E+02  0.4333E+02  0.4333E+02
     -9.770  0.3111E+00  0.3193E-01  0.4336E+02  0.4334E+02
     -9.693  0.1049E+02  0.9064E+01  0.4417E+02  0.4404E+02
     -9.616  0.1517E+02  0.1679E+02  0.4534E+02  0.4533E+02
     -9.538  0.1177E+02  0.1126E+02  0.4625E+02  0.4620E+02
     -9.461  0.1687E+02  0.1681E+02  0.4755E+02  0.4752E+02
     -9.384  0.1278E+02  0.1162E+02  0.4854E+02  0.4845E+02
     -9.306  0.1024E+02  0.1128E+02  0.4933E+02  0.4933E+02
     -9.229  0.2256E+02  0.2034E+02  0.5108E+02  0.5090E+02
     -9.152  0.9977E+00  0.2223E+01  0.5119E+02  0.5112E+02
     -9.075  0.2015E+02  0.1807E+02  0.5274E+02  0.5251E+02
     -8.997  0.2109E+02  0.2117E+02  0.5439E+02  0.5420E+02
     -8.920  0.1694E+02  0.1592E+02  0.5576E+02  0.5550E+02
     -8.843  0.1250E+02  0.1357E+02  0.5678E+02  0.5655E+02
     -8.766  0.1497E+02  0.1877E+02  0.5800E+02  0.5800E+02
     -8.688  0.2045E+02  0.1980E+02  0.5958E+02  0.5953E+02
     -8.611  0.8303E+01  0.8605E+01  0.6022E+02  0.6022E+02
     -8.534  0.3004E+01  0.1946E+00  0.6045E+02  0.6024E+02
     -8.457  0.2939E+02  0.2652E+02  0.6273E+02  0.6229E+02
     -8.379  0.6949E+01  0.1241E+02  0.6334E+02  0.6325E+02
     -8.302  0.2938E+02  0.2629E+02  0.6562E+02  0.6528E+02
     -8.225  0.1961E+02  0.1487E+02  0.6721E+02  0.6649E+02
     -8.147  0.3768E+02  0.4392E+02  0.7029E+02  0.6991E+02
     -8.070  0.3634E+02  0.3795E+02  0.7315E+02  0.7286E+02
     -7.993  0.1049E+02  0.1194E+02  0.7399E+02  0.7380E+02
     -7.916  0.7066E+01  0.9230E+01  0.7460E+02  0.7455E+02
     -7.838  0.2041E+02  0.1741E+02  0.7617E+02  0.7590E+02
     -7.761  0.1675E+02  0.2090E+02  0.7756E+02  0.7754E+02
     -7.684  0.1084E+02  0.8614E+01  0.7839E+02  0.7822E+02
     -7.607  0.1135E+02  0.1281E+02  0.7932E+02  0.7925E+02
     -7.529  0.7824E+01  0.4917E+01  0.7994E+02  0.7964E+02
     -7.452  0.5708E+01  0.1036E+02  0.8044E+02  0.8044E+02
     -7.375  0.2782E+01  0.7508E+00  0.8066E+02  0.8050E+02
     -7.298  0.1819E+02  0.1912E+02  0.8208E+02  0.8198E+02
     -7.220  0.4699E+01  0.5714E+01  0.8244E+02  0.8244E+02
     -7.143  0.5752E+01  0.5752E+01  0.8289E+02  0.8289E+02
     -7.066  0.7013E+01  0.5962E+01  0.8343E+02  0.8335E+02
     -6.988  0.4848E+01  0.5602E+01  0.8381E+02  0.8378E+02
     -6.911  0.1034E+02  0.9868E+01  0.8460E+02  0.8454E+02
     -6.834  0.7737E+01  0.7421E+01  0.8521E+02  0.8512E+02
     -6.757  0.7135E+01  0.6444E+01  0.8578E+02  0.8566E+02
     -6.679  0.8317E+01  0.9306E+01  0.8645E+02  0.8638E+02
     -6.602  0.5607E+01  0.6292E+01  0.8689E+02  0.8689E+02
     -6.525  0.1417E+02  0.1001E+02  0.8798E+02  0.8766E+02
     -6.448  0.1281E+02  0.1638E+02  0.8904E+02  0.8900E+02
     -6.370  0.5753E+01  0.5186E+01  0.8948E+02  0.8941E+02
     -6.293  0.6603E+01  0.6003E+01  0.9001E+02  0.8989E+02
     -6.216  0.1419E+02  0.1456E+02  0.9114E+02  0.9101E+02
     -6.139  0.2967E+02  0.2963E+02  0.9344E+02  0.9332E+02
     -6.061  0.2255E+02  0.2153E+02  0.9521E+02  0.9499E+02
     -5.984  0.1516E+02  0.1713E+02  0.9641E+02  0.9632E+02
     -5.907  0.1291E+02  0.1147E+02  0.9741E+02  0.9728E+02
     -5.829  0.1884E+02  0.1811E+02  0.9888E+02  0.9868E+02
     -5.752  0.9035E+01  0.9587E+01  0.9961E+02  0.9943E+02
     -5.675  0.2444E+02  0.2467E+02  0.1015E+03  0.1014E+03
     -5.598  0.1061E+02  0.1295E+02  0.1024E+03  0.1024E+03
     -5.520  0.1767E+02  0.1544E+02  0.1038E+03  0.1036E+03
     -5.443  0.2750E+02  0.2846E+02  0.1060E+03  0.1058E+03
     -5.366  0.1772E+02  0.1417E+02  0.1073E+03  0.1070E+03
     -5.289  0.2866E+02  0.2869E+02  0.1096E+03  0.1092E+03
     -5.211  0.2010E+02  0.2418E+02  0.1112E+03  0.1111E+03
     -5.134  0.2719E+02  0.2242E+02  0.1133E+03  0.1129E+03
     -5.057  0.3555E+02  0.3559E+02  0.1161E+03  0.1157E+03
     -4.980  0.3091E+02  0.3143E+02  0.1186E+03  0.1182E+03
     -4.902  0.2936E+02  0.3046E+02  0.1209E+03  0.1206E+03
     -4.825  0.3629E+02  0.3601E+02  0.1237E+03  0.1234E+03
     -4.748  0.2038E+02  0.2158E+02  0.1253E+03  0.1251E+03
     -4.671  0.2583E+02  0.2599E+02  0.1274E+03  0.1272E+03
     -4.593  0.3084E+02  0.2952E+02  0.1297E+03  0.1295E+03
     -4.516  0.2879E+02  0.2850E+02  0.1320E+03  0.1318E+03
     -4.439  0.2150E+02  0.2151E+02  0.1337E+03  0.1335E+03
     -4.361  0.2643E+02  0.2404E+02  0.1357E+03  0.1354E+03
     -4.284  0.3447E+02  0.3468E+02  0.1385E+03  0.1381E+03
     -4.207  0.2725E+02  0.2718E+02  0.1407E+03  0.1403E+03
     -4.130  0.1991E+02  0.2268E+02  0.1422E+03  0.1421E+03
     -4.052  0.2779E+02  0.2609E+02  0.1444E+03  0.1441E+03
     -3.975  0.3001E+02  0.2802E+02  0.1468E+03  0.1463E+03
     -3.898  0.2408E+02  0.2585E+02  0.1488E+03  0.1484E+03
     -3.821  0.2974E+02  0.2674E+02  0.1511E+03  0.1505E+03
     -3.743  0.3165E+02  0.3525E+02  0.1536E+03  0.1533E+03
     -3.666  0.3048E+02  0.3037E+02  0.1560E+03  0.1557E+03
     -3.589  0.3179E+02  0.3073E+02  0.1584E+03  0.1582E+03
     -3.512  0.2177E+02  0.2204E+02  0.1602E+03  0.1599E+03
     -3.434  0.2921E+02  0.2647E+02  0.1624E+03  0.1620E+03
     -3.357  0.2516E+02  0.2636E+02  0.1644E+03  0.1641E+03
     -3.280  0.2509E+02  0.2569E+02  0.1664E+03  0.1662E+03
     -3.202  0.2576E+02  0.2624E+02  0.1684E+03  0.1682E+03
     -3.125  0.1700E+02  0.1624E+02  0.1698E+03  0.1695E+03
     -3.048  0.2763E+02  0.2861E+02  0.1720E+03  0.1718E+03
     -2.971  0.2725E+02  0.2556E+02  0.1741E+03  0.1738E+03
     -2.893  0.3215E+02  0.3015E+02  0.1766E+03  0.1763E+03
     -2.816  0.3020E+02  0.2943E+02  0.1789E+03  0.1786E+03
     -2.739  0.3438E+02  0.3258E+02  0.1816E+03  0.1812E+03
     -2.662  0.3123E+02  0.3230E+02  0.1841E+03  0.1838E+03
     -2.584  0.3129E+02  0.3132E+02  0.1866E+03  0.1862E+03
     -2.507  0.2628E+02  0.2687E+02  0.1887E+03  0.1883E+03
     -2.430  0.2580E+02  0.2584E+02  0.1907E+03  0.1904E+03
     -2.353  0.2005E+02  0.2288E+02  0.1923E+03  0.1923E+03
     -2.275  0.2073E+02  0.1843E+02  0.1939E+03  0.1937E+03
     -2.198  0.3095E+02  0.3087E+02  0.1964E+03  0.1961E+03
     -2.121  0.2229E+02  0.2178E+02  0.1981E+03  0.1979E+03
     -2.043  0.3019E+02  0.3009E+02  0.2005E+03  0.2002E+03
     -1.966  0.3390E+02  0.3214E+02  0.2031E+03  0.2027E+03
     -1.889  0.3409E+02  0.3542E+02  0.2059E+03  0.2055E+03
     -1.812  0.3613E+02  0.3318E+02  0.2088E+03  0.2081E+03
     -1.734  0.2748E+02  0.3172E+02  0.2110E+03  0.2106E+03
     -1.657  0.4191E+02  0.4516E+02  0.2143E+03  0.2142E+03
     -1.580  0.2990E+02  0.2728E+02  0.2167E+03  0.2164E+03
     -1.503  0.3409E+02  0.3365E+02  0.2193E+03  0.2190E+03
     -1.425  0.3486E+02  0.3440E+02  0.2221E+03  0.2217E+03
     -1.348  0.3364E+02  0.3162E+02  0.2247E+03  0.2242E+03
     -1.271  0.3125E+02  0.3488E+02  0.2272E+03  0.2270E+03
     -1.194  0.3378E+02  0.3356E+02  0.2299E+03  0.2296E+03
     -1.116  0.3113E+02  0.3046E+02  0.2324E+03  0.2320E+03
     -1.039  0.3247E+02  0.3366E+02  0.2349E+03  0.2347E+03
     -0.962  0.3724E+02  0.3595E+02  0.2379E+03  0.2376E+03
     -0.884  0.2812E+02  0.2853E+02  0.2401E+03  0.2399E+03
     -0.807  0.4178E+02  0.3612E+02  0.2433E+03  0.2428E+03
     -0.730  0.3303E+02  0.3775E+02  0.2460E+03  0.2457E+03
     -0.653  0.3781E+02  0.3316E+02  0.2489E+03  0.2483E+03
     -0.575  0.3736E+02  0.3919E+02  0.2519E+03  0.2515E+03
     -0.498  0.3655E+02  0.3749E+02  0.2547E+03  0.2544E+03
     -0.421  0.4877E+02  0.4735E+02  0.2585E+03  0.2581E+03
     -0.344  0.3994E+02  0.3926E+02  0.2617E+03  0.2612E+03
     -0.266  0.3314E+02  0.3704E+02  0.2643E+03  0.2641E+03
     -0.189  0.3207E+02  0.3242E+02  0.2668E+03  0.2667E+03
     -0.112  0.3285E+02  0.2923E+02  0.2694E+03  0.2689E+03
     -0.035  0.3041E+02  0.3265E+02  0.2718E+03  0.2715E+03
      0.043  0.3722E+02  0.3818E+02  0.2748E+03  0.2745E+03
      0.120  0.3375E+02  0.3193E+02  0.2774E+03  0.2770E+03
      0.197  0.4122E+02  0.4298E+02  0.2807E+03  0.2803E+03
      0.275  0.3887E+02  0.3524E+02  0.2837E+03  0.2831E+03
      0.352  0.2989E+02  0.3516E+02  0.2861E+03  0.2859E+03
      0.429  0.3612E+02  0.3359E+02  0.2890E+03  0.2885E+03
      0.506  0.4317E+02  0.4483E+02  0.2924E+03  0.2920E+03
      0.584  0.4354E+02  0.4367E+02  0.2958E+03  0.2955E+03
      0.661  0.3790E+02  0.3477E+02  0.2988E+03  0.2982E+03
      0.738  0.3994E+02  0.4289E+02  0.3020E+03  0.3016E+03
      0.815  0.2629E+02  0.2735E+02  0.3041E+03  0.3038E+03
      0.893  0.4457E+02  0.4368E+02  0.3076E+03  0.3072E+03
      0.970  0.4835E+02  0.4446E+02  0.3113E+03  0.3107E+03
      1.047  0.3586E+02  0.3554E+02  0.3142E+03  0.3136E+03
      1.124  0.3601E+02  0.3927E+02  0.3172E+03  0.3166E+03
      1.202  0.3268E+02  0.3462E+02  0.3198E+03  0.3194E+03
      1.279  0.3849E+02  0.3696E+02  0.3228E+03  0.3223E+03
      1.356  0.2713E+02  0.2900E+02  0.3250E+03  0.3247E+03
      1.434  0.4182E+02  0.3853E+02  0.3283E+03  0.3277E+03
      1.511  0.3400E+02  0.3879E+02  0.3310E+03  0.3307E+03
      1.588  0.4297E+02  0.4209E+02  0.3344E+03  0.3340E+03
      1.665  0.3631E+02  0.3379E+02  0.3372E+03  0.3367E+03
      1.743  0.4279E+02  0.4041E+02  0.3406E+03  0.3399E+03
      1.820  0.4133E+02  0.4873E+02  0.3439E+03  0.3437E+03
      1.897  0.4738E+02  0.4500E+02  0.3476E+03  0.3472E+03
      1.974  0.4181E+02  0.3905E+02  0.3509E+03  0.3503E+03
      2.052  0.4139E+02  0.4293E+02  0.3542E+03  0.3538E+03
      2.129  0.3862E+02  0.3649E+02  0.3573E+03  0.3567E+03
      2.206  0.3654E+02  0.3944E+02  0.3602E+03  0.3598E+03
      2.283  0.5385E+02  0.4785E+02  0.3644E+03  0.3636E+03
      2.361  0.3837E+02  0.4190E+02  0.3675E+03  0.3669E+03
      2.438  0.3827E+02  0.3868E+02  0.3706E+03  0.3700E+03
      2.515  0.4224E+02  0.4544E+02  0.3739E+03  0.3735E+03
      2.592  0.3685E+02  0.3549E+02  0.3768E+03  0.3763E+03
      2.670  0.4290E+02  0.4241E+02  0.3802E+03  0.3796E+03
      2.747  0.4438E+02  0.4426E+02  0.3836E+03  0.3831E+03
      2.824  0.4819E+02  0.5173E+02  0.3874E+03  0.3871E+03
      2.902  0.4013E+02  0.4017E+02  0.3906E+03  0.3903E+03
      2.979  0.3987E+02  0.3449E+02  0.3937E+03  0.3931E+03
      3.056  0.4274E+02  0.4307E+02  0.3970E+03  0.3965E+03
      3.133  0.3667E+02  0.3643E+02  0.3999E+03  0.3994E+03
      3.211  0.3331E+02  0.3447E+02  0.4026E+03  0.4021E+03
      3.288  0.3461E+02  0.3622E+02  0.4054E+03  0.4050E+03
      3.365  0.3504E+02  0.3199E+02  0.4082E+03  0.4076E+03
      3.442  0.3837E+02  0.4136E+02  0.4113E+03  0.4108E+03
      3.520  0.3797E+02  0.3886E+02  0.4143E+03  0.4138E+03
      3.597  0.3016E+02  0.2835E+02  0.4166E+03  0.4161E+03
      3.674  0.3837E+02  0.3654E+02  0.4197E+03  0.4190E+03
      3.751  0.4967E+02  0.4752E+02  0.4236E+03  0.4227E+03
      3.829  0.3868E+02  0.4131E+02  0.4267E+03  0.4260E+03
      3.906  0.4821E+02  0.4572E+02  0.4305E+03  0.4295E+03
      3.983  0.3707E+02  0.3950E+02  0.4334E+03  0.4327E+03
      4.061  0.4209E+02  0.4273E+02  0.4367E+03  0.4360E+03
      4.138  0.4704E+02  0.4565E+02  0.4404E+03  0.4396E+03
      4.215  0.3831E+02  0.4125E+02  0.4436E+03  0.4428E+03
      4.292  0.4434E+02  0.3757E+02  0.4470E+03  0.4459E+03
      4.370  0.4243E+02  0.4900E+02  0.4505E+03  0.4497E+03
      4.447  0.4730E+02  0.4263E+02  0.4542E+03  0.4531E+03
      4.524  0.4079E+02  0.4750E+02  0.4574E+03  0.4569E+03
      4.601  0.2806E+02  0.2578E+02  0.4597E+03  0.4589E+03
      4.679  0.4336E+02  0.4004E+02  0.4631E+03  0.4621E+03
      4.756  0.3605E+02  0.3635E+02  0.4660E+03  0.4650E+03
      4.833  0.4557E+02  0.4715E+02  0.4696E+03  0.4687E+03
      4.910  0.4995E+02  0.4523E+02  0.4735E+03  0.4722E+03
      4.988  0.5255E+02  0.4865E+02  0.4777E+03  0.4760E+03
      5.065  0.3727E+02  0.4982E+02  0.4807E+03  0.4799E+03
      5.142  0.4099E+02  0.3708E+02  0.4840E+03  0.4828E+03
      5.220  0.3337E+02  0.4086E+02  0.4866E+03  0.4861E+03
      5.297  0.4207E+02  0.3478E+02  0.4899E+03  0.4888E+03
      5.374  0.3771E+02  0.4262E+02  0.4929E+03  0.4921E+03
      5.451  0.4617E+02  0.4403E+02  0.4966E+03  0.4956E+03
      5.529  0.4131E+02  0.4464E+02  0.4998E+03  0.4991E+03
      5.606  0.4086E+02  0.3441E+02  0.5030E+03  0.5019E+03
      5.683  0.4548E+02  0.4775E+02  0.5066E+03  0.5057E+03
      5.760  0.3465E+02  0.3660E+02  0.5094E+03  0.5087E+03
      5.838  0.4146E+02  0.4064E+02  0.5126E+03  0.5119E+03
      5.915  0.3720E+02  0.3430E+02  0.5155E+03  0.5147E+03
      5.992  0.3829E+02  0.3747E+02  0.5186E+03  0.5176E+03
      6.069  0.3650E+02  0.3960E+02  0.5215E+03  0.5208E+03
      6.147  0.3907E+02  0.3676E+02  0.5246E+03  0.5236E+03
      6.224  0.2868E+02  0.3347E+02  0.5268E+03  0.5263E+03
      6.301  0.3381E+02  0.3360E+02  0.5295E+03  0.5289E+03
      6.379  0.3844E+02  0.3895E+02  0.5325E+03  0.5320E+03
      6.456  0.3632E+02  0.3571E+02  0.5353E+03  0.5348E+03
      6.533  0.3982E+02  0.3723E+02  0.5385E+03  0.5377E+03
      6.610  0.3048E+02  0.2861E+02  0.5409E+03  0.5400E+03
      6.688  0.3071E+02  0.3845E+02  0.5434E+03  0.5430E+03
      6.765  0.3911E+02  0.3503E+02  0.5464E+03  0.5458E+03
      6.842  0.2392E+02  0.2549E+02  0.5483E+03  0.5478E+03
      6.919  0.3298E+02  0.3168E+02  0.5509E+03  0.5503E+03
      6.997  0.3319E+02  0.3359E+02  0.5535E+03  0.5530E+03
      7.074  0.3482E+02  0.3450E+02  0.5563E+03  0.5557E+03
      7.151  0.3931E+02  0.3765E+02  0.5594E+03  0.5586E+03
      7.228  0.3312E+02  0.3287E+02  0.5620E+03  0.5612E+03
      7.306  0.3750E+02  0.3840E+02  0.5650E+03  0.5642E+03
      7.383  0.3417E+02  0.3413E+02  0.5677E+03  0.5669E+03
      7.460  0.3550E+02  0.4142E+02  0.5705E+03  0.5701E+03
      7.538  0.3520E+02  0.2783E+02  0.5733E+03  0.5723E+03
      7.615  0.2174E+02  0.3198E+02  0.5751E+03  0.5747E+03
      7.692  0.9763E+01  0.1201E+02  0.5759E+03  0.5757E+03
      7.769  0.1375E+01  0.4115E+01  0.5760E+03  0.5760E+03
      7.847  0.0000E+00  0.0000E+00  0.5760E+03  0.5760E+03
      7.924  0.0000E+00  0.0000E+00  0.5760E+03  0.5760E+03
      8.001  0.0000E+00  0.0000E+00  0.5760E+03  0.5760E+03
      8.078  0.0000E+00  0.0000E+00  0.5760E+03  0.5760E+03
      8.156  0.0000E+00  0.0000E+00  0.5760E+03  0.5760E+03
      8.233  0.0000E+00  0.0000E+00  0.5760E+03  0.5760E+03
      8.310  0.0000E+00  0.0000E+00  0.5760E+03  0.5760E+03
      8.387  0.0000E+00  0.0000E+00  0.5760E+03  0.5760E+03
      8.465  0.0000E+00  0.0000E+00  0.5760E+03  0.5760E+03
      8.542  0.0000E+00  0.0000E+00  0.5760E+03  0.5760E+03
      8.619  0.0000E+00  0.0000E+00  0.5760E+03  0.5760E+03
      8.697  0.0000E+00  0.0000E+00  0.5760E+03  0.5760E+03
      8.774  0.0000E+00  0.0000E+00  0.5760E+03  0.5760E+03
