 vasp.6.4.3 19Mar24 (build Oct 22 2024 11:23:12) complex                        
  
 executed on             LinuxIFC date 2025.04.30  10:01:27
 running   16 mpi-ranks, on    1 nodes
 distrk:  each k-point on   16 cores,    1 groups
 distr:  one band on NCORE=  16 cores,    1 groups


--------------------------------------------------------------------------------------------------------


 INCAR:
   SYSTEM = Si011 and Ge011 interface calculation
   ISTART = 0
   ICHARG = 2
   LWAVE = .FALSE.
   LREAL = AUTO
   ENCUT = 700
   ENAUG = 900
   ADDGRID = .TRUE.
   LMAXMIX = 6
   LASPH = .TRUE.
   LMIXTAU = .TRUE.
   NCORE = 16
   NELM = 100
   NBANDS = 116
   EDIFF = 1d-7
   AMIX = 0.6
   ISMEAR = 0
   SIGMA = 0.01
   NELECT = 192
   ISPIN = 2
   NUPDOWN = 1
   LVTOT = .FALSE.
   LVHAR = .TRUE.

 POTCAR:    PAW_PBE Si 05Jan2001                  
 POTCAR:    PAW_PBE Ge 05Jan2001                  
 -----------------------------------------------------------------------------
|                                                                             |
|           W    W    AA    RRRRR   N    N  II  N    N   GGGG   !!!           |
|           W    W   A  A   R    R  NN   N  II  NN   N  G    G  !!!           |
|           W    W  A    A  R    R  N N  N  II  N N  N  G       !!!           |
|           W WW W  AAAAAA  RRRRR   N  N N  II  N  N N  G  GGG   !            |
|           WW  WW  A    A  R   R   N   NN  II  N   NN  G    G                |
|           W    W  A    A  R    R  N    N  II  N    N   GGGG   !!!           |
|                                                                             |
|     You use a magnetic or noncollinear calculation, but did not specify     |
|     the initial magnetic moment with the MAGMOM tag. Note that a            |
|     default of 0.021 will be used for all atoms. This ferromagnetic         |
|     setup may break the symmetry of the crystal, in particular it may       |
|     rule out finding an antiferromagnetic solution. Thence, we              |
|     recommend setting the initial magnetic moment manually or verifying     |
|     carefully that this magnetic setup is desired.                          |
|                                                                             |
 -----------------------------------------------------------------------------

 -----------------------------------------------------------------------------
|                                                                             |
|           W    W    AA    RRRRR   N    N  II  N    N   GGGG   !!!           |
|           W    W   A  A   R    R  NN   N  II  NN   N  G    G  !!!           |
|           W    W  A    A  R    R  N N  N  II  N N  N  G       !!!           |
|           W WW W  AAAAAA  RRRRR   N  N N  II  N  N N  G  GGG   !            |
|           WW  WW  A    A  R   R   N   NN  II  N   NN  G    G                |
|           W    W  A    A  R    R  N    N  II  N    N   GGGG   !!!           |
|                                                                             |
|     For optimal performance we recommend to set                             |
|       NCORE = 2 up to number-of-cores-per-socket                            |
|     NCORE specifies how many cores store one orbital (NPAR=cpu/NCORE).      |
|     This setting can greatly improve the performance of VASP for DFT.       |
|     The default, NCORE=1 might be grossly inefficient on modern             |
|     multi-core architectures or massively parallel machines. Do your        |
|     own testing! More info at https://www.vasp.at/wiki/index.php/NCORE      |
|     Unfortunately you need to use the default for GW and RPA                |
|     calculations (for HF NCORE is supported but not extensively tested      |
|     yet).                                                                   |
|                                                                             |
 -----------------------------------------------------------------------------

 POTCAR:    PAW_PBE Si 05Jan2001                  
   VRHFIN =Si: s2p2                                                                                 
   LEXCH  = PE                                                                                      
   EATOM  =   103.0669 eV,    7.5752 Ry                                                             
                                                                                                    
   TITEL  = PAW_PBE Si 05Jan2001                                                                    
   LULTRA =        F    use ultrasoft PP ?                                                          
   IUNSCR =        1    unscreen: 0-lin 1-nonlin 2-no                                               
   RPACOR =    1.500    partial core radius                                                         
   POMASS =   28.085; ZVAL   =    4.000    mass and valenz                                          
   RCORE  =    1.900    outmost cutoff radius                                                       
   RWIGS  =    2.480; RWIGS  =    1.312    wigner-seitz radius (au A)                               
   ENMAX  =  245.345; ENMIN  =  184.009 eV                                                          
   ICORE  =        2    local potential                                                             
   LCOR   =        T    correct aug charges                                                         
   LPAW   =        T    paw PP                                                                      
   EAUG   =  322.069                                                                                
   DEXC   =    0.000                                                                                
   RMAX   =    1.950    core radius for proj-oper                                                   
   RAUG   =    1.300    factor for augmentation sphere                                              
   RDEP   =    1.993    radius for radial grids                                                     
   RDEPT  =    1.837    core radius for aug-charge                                                  
                                                                                                    
   Atomic configuration                                                                             
    6 entries                                                                                       
     n  l   j            E        occ.                                                              
     1  0  0.50     -1785.8828   2.0000                                                             
     2  0  0.50      -139.4969   2.0000                                                             
     2  1  1.50       -95.5546   6.0000                                                             
     3  0  0.50       -10.8127   2.0000                                                             
     3  1  0.50        -4.0811   2.0000                                                             
     3  2  1.50        -4.0817   0.0000                                                             
   Description                                                                                      
     l       E           TYP  RCUT    TYP  RCUT                                                     
     0    -10.8127223     23  1.900                                                                 
     0     -7.6451159     23  1.900                                                                 
     1     -4.0811372     23  1.900                                                                 
     1      2.4879257     23  1.900                                                                 
     2     -4.0817478      7  1.900                                                                 
  local pseudopotential read in
  partial core-charges read in
  partial kinetic energy density read in
  atomic valenz-charges read in
  non local Contribution for L=           0  read in
    real space projection operators read in
  non local Contribution for L=           0  read in
    real space projection operators read in
  non local Contribution for L=           1  read in
    real space projection operators read in
  non local Contribution for L=           1  read in
    real space projection operators read in
    PAW grid and wavefunctions read in
 
   number of l-projection  operators is LMAX  =           4
   number of lm-projection operators is LMMAX =           8
 
 POTCAR:    PAW_PBE Ge 05Jan2001                  
   VRHFIN =Ge: s2p2                                                                                 
   LEXCH  = PE                                                                                      
   EATOM  =   104.9960 eV,    7.7170 Ry                                                             
                                                                                                    
   TITEL  = PAW_PBE Ge 05Jan2001                                                                    
   LULTRA =        F    use ultrasoft PP ?                                                          
   IUNSCR =        1    unscreen: 0-lin 1-nonlin 2-no                                               
   RPACOR =    2.170    partial core radius                                                         
   POMASS =   72.610; ZVAL   =    4.000    mass and valenz                                          
   RCORE  =    2.300    outmost cutoff radius                                                       
   RWIGS  =    2.300; RWIGS  =    1.217    wigner-seitz radius (au A)                               
   ENMAX  =  173.807; ENMIN  =  130.355 eV                                                          
   ICORE  =        3    local potential                                                             
   LCOR   =        T    correct aug charges                                                         
   LPAW   =        T    paw PP                                                                      
   EAUG   =  385.843                                                                                
   DEXC   =    0.000                                                                                
   RMAX   =    2.342    core radius for proj-oper                                                   
   RAUG   =    1.300    factor for augmentation sphere                                              
   RDEP   =    2.318    radius for radial grids                                                     
   RDEPT  =    2.103    core radius for aug-charge                                                  
                                                                                                    
   Atomic configuration                                                                             
   10 entries                                                                                       
     n  l   j            E        occ.                                                              
     1  0  0.50    -10959.8463   2.0000                                                             
     2  0  0.50     -1371.6056   2.0000                                                             
     2  1  1.50     -1198.4791   6.0000                                                             
     3  0  0.50      -168.4733   2.0000                                                             
     3  1  1.50      -115.6019   6.0000                                                             
     3  2  2.50       -29.3106  10.0000                                                             
     4  0  0.50       -11.7309   2.0000                                                             
     4  1  0.50        -3.8952   2.0000                                                             
     4  2  1.50        -4.0817   0.0000                                                             
     4  3  2.50        -4.0817   0.0000                                                             
   Description                                                                                      
     l       E           TYP  RCUT    TYP  RCUT                                                     
     0    -11.7309493     23  2.300                                                                 
     0     -7.4578696     23  2.300                                                                 
     1     -3.8952261     23  2.300                                                                 
     1      6.1178114     23  2.300                                                                 
     2     -4.0817478     23  2.300                                                                 
     3     -1.3605826      7  2.300                                                                 
  local pseudopotential read in
  partial core-charges read in
  partial kinetic energy density read in
  atomic valenz-charges read in
  non local Contribution for L=           0  read in
    real space projection operators read in
  non local Contribution for L=           0  read in
    real space projection operators read in
  non local Contribution for L=           1  read in
    real space projection operators read in
  non local Contribution for L=           1  read in
    real space projection operators read in
  non local Contribution for L=           2  read in
    real space projection operators read in
    PAW grid and wavefunctions read in
 
   number of l-projection  operators is LMAX  =           5
   number of lm-projection operators is LMMAX =          13
 
 Optimization of the real space projectors (new method)

 maximal supplied QI-value         = 19.84
 optimisation between [QCUT,QGAM] = [ 13.49, 26.99] = [ 50.98,203.92] Ry 
 Optimized for a Real-space Cutoff    1.07 Angstroem

   l    n(q)    QCUT    max X(q) W(low)/X(q) W(high)/X(q)  e(spline) 
   0      9    13.493   159.560    0.22E-03    0.15E-03    0.72E-07
   0      9    13.493   115.863    0.21E-03    0.15E-03    0.71E-07
   1      8    13.493    88.339    0.15E-03    0.11E-03    0.13E-06
   1      8    13.493    48.592    0.15E-03    0.10E-03    0.13E-06
 Optimization of the real space projectors (new method)

 maximal supplied QI-value         = 16.25
 optimisation between [QCUT,QGAM] = [ 13.49, 26.98] = [ 50.95,203.80] Ry 
 Optimized for a Real-space Cutoff    1.25 Angstroem

   l    n(q)    QCUT    max X(q) W(low)/X(q) W(high)/X(q)  e(spline) 
   0     10    13.489    65.336    0.91E-04    0.11E-03    0.34E-06
   0     10    13.489    52.220    0.89E-04    0.11E-03    0.34E-06
   1     10    13.489    36.409    0.22E-03    0.27E-03    0.14E-06
   1     10    13.489    21.334    0.21E-03    0.27E-03    0.14E-06
   2      9    13.489     4.673    0.11E-03    0.12E-03    0.19E-06
  PAW_PBE Si 05Jan2001                  :
 energy of atom  1       EATOM= -103.0669
 kinetic energy error for atom=    0.0003 (will be added to EATOM!!)
  PAW_PBE Ge 05Jan2001                  :
 energy of atom  2       EATOM= -104.9960
 kinetic energy error for atom=    0.0001 (will be added to EATOM!!)
 
 
 POSCAR: fcc Si+fcc Ge
  positions in direct lattice
  No initial velocities read in


 exchange-correlation table for PE
   RHO(1)=    0.500       N(1)  =     2000
   RHO(2)=  100.500       N(2)  =     4000
 


--------------------------------------------------------------------------------------------------------


 ion  position               nearest neighbor table
   1  0.361  0.771  0.905-  42 2.37  48 2.37  41 2.43  30 2.47
   2  0.250  0.750  0.080-  30 2.37  14 2.37  20 2.37  15 2.37
   3  0.500  0.500  0.160-  16 2.37  15 2.37  21 2.37  20 2.37
   4  0.750  0.250  0.239-  21 2.37  16 2.37  22 2.37  17 2.37
   5  0.000  0.000  0.319-  18 2.37  17 2.37  23 2.37  22 2.37
   6  0.611  0.521  0.493-  37 2.37  43 2.37  44 2.43  25 2.47
   7  0.500  0.500  0.000-  20 2.37  30 2.37  13 2.37  48 2.47
   8  0.750  0.250  0.080-  13 2.37  20 2.37  14 2.37  21 2.37
   9  0.000  0.000  0.160-  22 2.37  21 2.37  15 2.37  14 2.37
  10  0.250  0.750  0.239-  15 2.37  22 2.37  16 2.37  23 2.37
  11  0.500  0.500  0.319-  25 2.37  23 2.37  17 2.37  16 2.37
  12  0.750  0.250  0.399-  17 2.37  25 2.37  18 2.37  43 2.47
  13  0.000  0.250  0.000-   8 2.37   7 2.37  36 2.37  19 2.47  42 2.95
  14  0.250  0.000  0.080-  36 2.37   8 2.37   2 2.37   9 2.37
  15  0.500  0.750  0.160-  10 2.37   9 2.37   3 2.37   2 2.37
  16  0.750  0.500  0.239-   3 2.37   4 2.37  10 2.37  11 2.37
  17  0.000  0.250  0.319-  12 2.37  11 2.37   5 2.37   4 2.37
  18  0.250  0.000  0.399-   5 2.37  12 2.37  31 2.37  24 2.47  37 2.95
  19  0.861  0.271  0.905-  42 2.37  48 2.37  47 2.43  13 2.47
  20  0.750  0.500  0.080-   7 2.37   2 2.37   8 2.37   3 2.37
  21  0.000  0.250  0.160-   4 2.37   3 2.37   9 2.37   8 2.37
  22  0.250  0.000  0.239-   9 2.37   4 2.37  10 2.37   5 2.37
  23  0.500  0.750  0.319-  31 2.37  11 2.37   5 2.37  10 2.37
  24  0.111  0.021  0.493-  37 2.37  43 2.37  38 2.43  18 2.47
  25  0.750  0.500  0.399-  11 2.37  12 2.37  31 2.37   6 2.47
  26  0.861  0.271  0.576-  38 2.37  44 2.37  43 2.43  39 2.43
  27  0.611  0.521  0.658-  39 2.37  45 2.37  44 2.43  40 2.43
  28  0.361  0.771  0.741-  40 2.37  46 2.37  41 2.43  45 2.43
  29  0.111  0.021  0.823-  41 2.37  47 2.37  46 2.43  42 2.43
  30  0.500  0.750  0.000-   2 2.37   7 2.37  36 2.37   1 2.47
  31  0.250  0.750  0.399-  23 2.37  18 2.37  25 2.37  37 2.47
  32  0.361  0.771  0.576-  38 2.37  44 2.37  37 2.43  45 2.43
  33  0.111  0.021  0.658-  39 2.37  45 2.37  38 2.43  46 2.43
  34  0.861  0.271  0.741-  40 2.37  46 2.37  47 2.43  39 2.43
  35  0.611  0.521  0.823-  41 2.37  47 2.37  40 2.43  48 2.43
  36  0.000  0.000  0.000-  14 2.37  13 2.37  30 2.37  42 2.47
  37  0.111  0.771  0.493-  24 2.37   6 2.37  32 2.43  31 2.47  18 2.95
  38  0.861  0.021  0.576-  26 2.37  32 2.37  33 2.43  24 2.43
  39  0.611  0.271  0.658-  27 2.37  33 2.37  26 2.43  34 2.43
  40  0.361  0.521  0.741-  28 2.37  34 2.37  35 2.43  27 2.43
  41  0.111  0.771  0.823-  29 2.37  35 2.37   1 2.43  28 2.43
  42  0.861  0.021  0.905-  19 2.37   1 2.37  29 2.43  36 2.47  13 2.95
  43  0.611  0.271  0.493-   6 2.37  24 2.37  26 2.43  12 2.47
  44  0.361  0.521  0.576-  32 2.37  26 2.37   6 2.43  27 2.43
  45  0.111  0.771  0.658-  33 2.37  27 2.37  32 2.43  28 2.43
  46  0.861  0.021  0.741-  34 2.37  28 2.37  29 2.43  33 2.43
  47  0.611  0.271  0.823-  35 2.37  29 2.37  19 2.43  34 2.43
  48  0.361  0.521  0.905-   1 2.37  19 2.37  35 2.43   7 2.47
 
  LATTYP: Found a simple orthorhombic cell.
 ALAT       =     5.4800000000
 B/A-ratio  =     1.4142135624
 C/A-ratio  =     4.4330153022
  
  Lattice vectors:
  
 A1 = (   5.4800000000,   0.0000000000,   0.0000000000)
 A2 = (   0.0000000000,   7.7498903220,   0.0000000000)
 A3 = (   0.0000000000,   0.0000000000,  24.2929238560)


Analysis of symmetry for initial positions (statically):
=====================================================================
 Subroutine PRICEL returns:
 Original cell was already a primitive cell.
 

 Routine SETGRP: Setting up the symmetry group for a 
 simple orthorhombic supercell.


 Subroutine GETGRP returns: Found  1 space group operations
 (whereof  1 operations were pure point group operations)
 out of a pool of  8 trial point group operations.


The static configuration has the point symmetry C_1 .


Analysis of symmetry for dynamics (positions and initial velocities):
=====================================================================
 Subroutine PRICEL returns:
 Original cell was already a primitive cell.
 

 Routine SETGRP: Setting up the symmetry group for a 
 simple orthorhombic supercell.


 Subroutine GETGRP returns: Found  1 space group operations
 (whereof  1 operations were pure point group operations)
 out of a pool of  8 trial point group operations.


The dynamic configuration has the point symmetry C_1 .


Analysis of structural, dynamic, and magnetic symmetry:
=====================================================================
 Subroutine PRICEL returns:
 Original cell was already a primitive cell.
 

 Routine SETGRP: Setting up the symmetry group for a 
 simple orthorhombic supercell.


 Subroutine GETGRP returns: Found  1 space group operations
 (whereof  1 operations were pure point group operations)
 out of a pool of  8 trial point group operations.


The overall configuration has the point symmetry C_1 .


 Subroutine INISYM returns: Found  1 space group operations
 (whereof  1 operations are pure point group operations),
 and found     1 'primitive' translations


----------------------------------------------------------------------------------------

                                     Primitive cell                                     

  volume of cell :    1031.7059

  direct lattice vectors                    reciprocal lattice vectors
     5.480000000  0.000000000  0.000000000     0.182481752  0.129034084  0.000000000
    -5.480000000  7.749890322  0.000000000     0.000000000  0.129034084  0.000000000
     0.000000000  0.000000000 24.292923856     0.000000000  0.000000000  0.041164250

  length of vectors
     5.480000000  9.491638426 24.292923856     0.223493590  0.129034084  0.041164250

  position of ions in fractional coordinates (direct lattice)
     0.361111111  0.771276596  0.905322224
     0.250000000  0.750000000  0.079754606
     0.500000000  0.500000000  0.159509213
     0.750000000  0.250000000  0.239263819
     0.000000000  0.000000000  0.319018426
     0.611111111  0.521276596  0.493450808
     0.500000000  0.500000000  0.000000000
     0.750000000  0.250000000  0.079754606
     0.000000000  0.000000000  0.159509213
     0.250000000  0.750000000  0.239263819
     0.500000000  0.500000000  0.319018426
     0.750000000  0.250000000  0.398773032
     1.000000000  0.250000000  0.000000000
     0.250000000  0.000000000  0.079754606
     0.500000000  0.750000000  0.159509213
     0.750000000  0.500000000  0.239263819
     1.000000000  0.250000000  0.319018426
     0.250000000  0.000000000  0.398773032
     0.861111111  0.271276596  0.905322224
     0.750000000  0.500000000  0.079754606
     1.000000000  0.250000000  0.159509213
     0.250000000  0.000000000  0.239263819
     0.500000000  0.750000000  0.319018426
     0.111111111  0.021276596  0.493450808
     0.750000000  0.500000000  0.398773032
     0.861111111  0.271276596  0.575825091
     0.611111111  0.521276596  0.658199374
     0.361111111  0.771276596  0.740573658
     0.111111111  0.021276596  0.822947941
     0.500000000  0.750000000  0.000000000
     0.250000000  0.750000000  0.398773032
     0.361111111  0.771276596  0.575825091
     0.111111111  0.021276596  0.658199374
     0.861111111  0.271276596  0.740573658
     0.611111111  0.521276596  0.822947941
     0.000000000  0.000000000  0.000000000
     0.111111111  0.771276596  0.493450808
     0.861111111  0.021276596  0.575825091
     0.611111111  0.271276596  0.658199374
     0.361111111  0.521276596  0.740573658
     0.111111111  0.771276596  0.822947941
     0.861111111  0.021276596  0.905322224
     0.611111111  0.271276596  0.493450808
     0.361111111  0.521276596  0.575825091
     0.111111111  0.771276596  0.658199374
     0.861111111  0.021276596  0.740573658
     0.611111111  0.271276596  0.822947941
     0.361111111  0.521276596  0.905322224

  ion indices of the primitive-cell ions
   primitive index   ion index
                 1           1
                 2           2
                 3           3
                 4           4
                 5           5
                 6           6
                 7           7
                 8           8
                 9           9
                10          10
                11          11
                12          12
                13          13
                14          14
                15          15
                16          16
                17          17
                18          18
                19          19
                20          20
                21          21
                22          22
                23          23
                24          24
                25          25
                26          26
                27          27
                28          28
                29          29
                30          30
                31          31
                32          32
                33          33
                34          34
                35          35
                36          36
                37          37
                38          38
                39          39
                40          40
                41          41
                42          42
                43          43
                44          44
                45          45
                46          46
                47          47
                48          48

----------------------------------------------------------------------------------------

 
 
 KPOINTS: Automatic KPOINTS generated             

Automatic generation of k-mesh.
 Grid dimensions read from file:
 generate k-points for:    7    4    1

 Generating k-lattice:

  Cartesian coordinates                     Fractional coordinates (reciprocal lattice)
     0.026068822  0.018433441  0.000000000     0.142857143  0.000000000  0.000000000
     0.000000000  0.032258521  0.000000000     0.000000000  0.250000000  0.000000000
     0.000000000  0.000000000  0.041164250     0.000000000  0.000000000  1.000000000

  Length of vectors
     0.031927656  0.032258521  0.041164250

  Shift w.r.t. Gamma in fractional coordinates (k-lattice)
     0.000000000  0.000000000  0.000000000

 -----------------------------------------------------------------------------
|                                                                             |
|           W    W    AA    RRRRR   N    N  II  N    N   GGGG   !!!           |
|           W    W   A  A   R    R  NN   N  II  NN   N  G    G  !!!           |
|           W    W  A    A  R    R  N N  N  II  N N  N  G       !!!           |
|           W WW W  AAAAAA  RRRRR   N  N N  II  N  N N  G  GGG   !            |
|           WW  WW  A    A  R   R   N   NN  II  N   NN  G    G                |
|           W    W  A    A  R    R  N    N  II  N    N   GGGG   !!!           |
|                                                                             |
|     Your reciprocal lattice and k-lattice belong to different lattice       |
|     classes:                                                                |
|                                                                             |
|        The reciprocal lattice is simple orthorhombic,                       |
|        whereas your k-lattice is simple monoclinic.                         |
|                                                                             |
|     Results are often still useful ...                                      |
|                                                                             |
 -----------------------------------------------------------------------------

 WARNING: IBZKPT: internal override: KBLOWUP is changed to .FALSE.
      ... skipping the blow-up phase ...

 
 Subroutine IBZKPT returns following result:
 ===========================================
 
 Found     15 irreducible k-points:
 
 Following reciprocal coordinates:
            Coordinates               Weight
  0.000000  0.000000  0.000000      1.000000
  0.142857  0.000000  0.000000      2.000000
  0.285714  0.000000  0.000000      2.000000
  0.428571  0.000000  0.000000      2.000000
  0.000000  0.250000  0.000000      2.000000
  0.142857  0.250000  0.000000      2.000000
  0.285714  0.250000  0.000000      2.000000
  0.428571  0.250000  0.000000      2.000000
 -0.428571  0.250000  0.000000      2.000000
 -0.285714  0.250000  0.000000      2.000000
 -0.142857  0.250000  0.000000      2.000000
  0.000000  0.500000  0.000000      1.000000
  0.142857  0.500000  0.000000      2.000000
  0.285714  0.500000  0.000000      2.000000
  0.428571  0.500000  0.000000      2.000000
 
 Following cartesian coordinates:
            Coordinates               Weight
  0.000000  0.000000  0.000000      1.000000
  0.026069  0.018433  0.000000      2.000000
  0.052138  0.036867  0.000000      2.000000
  0.078206  0.055300  0.000000      2.000000
  0.000000  0.032259  0.000000      2.000000
  0.026069  0.050692  0.000000      2.000000
  0.052138  0.069125  0.000000      2.000000
  0.078206  0.087559  0.000000      2.000000
 -0.078206 -0.023042  0.000000      2.000000
 -0.052138 -0.004608  0.000000      2.000000
 -0.026069  0.013825  0.000000      2.000000
  0.000000  0.064517  0.000000      1.000000
  0.026069  0.082950  0.000000      2.000000
  0.052138  0.101384  0.000000      2.000000
  0.078206  0.119817  0.000000      2.000000
 


--------------------------------------------------------------------------------------------------------




 Dimension of arrays:
   k-points           NKPTS =     15   k-points in BZ     NKDIM =     15   number of bands    NBANDS=    116
   number of dos      NEDOS =    301   number of ions     NIONS =     48
   non local maximal  LDIM  =      5   non local SUM 2l+1 LMDIM =     13
   total plane-waves  NPLWV = 368640
   max r-space proj   IRMAX =   2945   max aug-charges    IRDMAX= 155541
   dimension x,y,z NGX =    36 NGY =   64 NGZ =  160
   dimension x,y,z NGXF=    72 NGYF=  128 NGZF=  320
   support grid    NGXF=   144 NGYF=  256 NGZF=  640
   ions per type =              24  24
   NGX,Y,Z   is equivalent  to a cutoff of  10.92, 11.21, 10.95 a.u.
   NGXF,Y,Z  is equivalent  to a cutoff of  21.84, 22.42, 21.90 a.u.

 SYSTEM =  Si011 and Ge011 interface calculation   
 POSCAR =  fcc Si+fcc Ge                           

 Startparameter for this run:
   NWRITE =      2    write-flag & timer
   PREC   = normal    normal or accurate (medium, high low for compatibility)
   ISTART =      0    job   : 0-new  1-cont  2-samecut
   ICHARG =      2    charge: 1-file 2-atom 10-const
   ISPIN  =      2    spin polarized calculation?
   LNONCOLLINEAR =      F non collinear calculations
   LSORBIT =      F    spin-orbit coupling
   INIWAV =      1    electr: 0-lowe 1-rand  2-diag
   LASPH  =      T    aspherical Exc in radial PAW
 Electronic Relaxation 1
   ENCUT  =  700.0 eV  51.45 Ry    7.17 a.u.  11.82 20.48 52.41*2*pi/ulx,y,z
   ENINI  =  700.0     initial cutoff
   ENAUG  =  900.0 eV  augmentation charge cutoff
   NELM   =    100;   NELMIN=  2; NELMDL= -5     # of ELM steps 
   EDIFF  = 0.1E-06   stopping-criterion for ELM
   LREAL  =      T    real-space projection
   NLSPLINE    = F    spline interpolate recip. space projectors
   LCOMPAT=      F    compatible to vasp.4.4
   GGA_COMPAT  = T    GGA compatible to vasp.4.4-vasp.4.6
   LMAXPAW     = -100 max onsite density
   LMAXMIX     =    6 max onsite mixed and CHGCAR
   VOSKOWN=      0    Vosko Wilk Nusair interpolation
   ROPT   =   -0.00050  -0.00050
 Ionic relaxation
   EDIFFG = 0.1E-05   stopping-criterion for IOM
   NSW    =      0    number of steps for IOM
   NBLOCK =      1;   KBLOCK =      1    inner block; outer block 
   IBRION =     -1    ionic relax: 0-MD 1-quasi-New 2-CG
   NFREE  =      0    steps in history (QN), initial steepest desc. (CG)
   ISIF   =      2    stress and relaxation
   IWAVPR =     10    prediction:  0-non 1-charg 2-wave 3-comb
   ISYM   =      2    0-nonsym 1-usesym 2-fastsym
   LCORR  =      T    Harris-Foulkes like correction to forces

   POTIM  = 0.5000    time-step for ionic-motion
   TEIN   =    0.0    initial temperature
   TEBEG  =    0.0;   TEEND  =   0.0 temperature during run
   SMASS  =  -3.00    Nose mass-parameter (am)
   estimated Nose-frequenzy (Omega)   =  0.10E-29 period in steps = 0.13E+47 mass=  -0.686E-27a.u.
   SCALEE = 1.0000    scale energy and forces
   NPACO  =    256;   APACO  = 10.0  distance and # of slots for P.C.
   PSTRESS=    0.0 pullay stress

  Mass of Ions in am
   POMASS =  28.09 72.61
  Ionic Valenz
   ZVAL   =   4.00  4.00
  Atomic Wigner-Seitz radii
   RWIGS  =  -1.00 -1.00
  virtual crystal weights 
   VCA    =   1.00  1.00
   NELECT =     192.0000    total number of electrons
   NUPDOWN=       1.0000    fix difference up-down

 DOS related values:
   EMIN   =  10.00;   EMAX   =-10.00  energy-range for DOS
   EFERMI =   0.00;   METHOD = LEGACY      
   ISMEAR =     0;   SIGMA  =   0.01  broadening in eV -4-tet -1-fermi 0-gaus

 Electronic relaxation 2 (details)
   IALGO  =     38    algorithm
   LDIAG  =      T    sub-space diagonalisation (order eigenvalues)
   LSUBROT=      F    optimize rotation matrix (better conditioning)
   TURBO    =      0    0=normal 1=particle mesh
   IRESTART =      0    0=no restart 2=restart with 2 vectors
   NREBOOT  =      0    no. of reboots
   NMIN     =      0    reboot dimension
   EREF     =   0.00    reference energy to select bands
   IMIX   =      4    mixing-type and parameters
     AMIX     =   0.60;   BMIX     =  1.00
     AMIX_MAG =   2.40;   BMIX_MAG =  1.00
     AMIN     =   0.10
     WC   =   100.;   INIMIX=   1;  MIXPRE=   1;  MAXMIX= -45

 Intra band minimization:
   WEIMIN = 0.0000     energy-eigenvalue tresh-hold
   EBREAK =  0.22E-09  absolut break condition
   DEPER  =   0.30     relativ break condition  

   TIME   =   0.40     timestep for ELM

  volume/ion in A,a.u.               =      21.49       145.05
  Fermi-wavevector in a.u.,A,eV,Ry     =   0.934666  1.766263 11.886066  0.873601
  Thomas-Fermi vector in A             =   2.061495
 
 Write flags
   LWAVE        =      F    write WAVECAR
   LDOWNSAMPLE  =      F    k-point downsampling of WAVECAR
   LCHARG       =      T    write CHGCAR
   LVTOT        =      F    write LOCPOT, total local potential
   LVHAR        =      T    write LOCPOT, Hartree potential only
   WRT_POTENTIAL=  hartree ionic  ! write potential to hdf5 file
   LELF         =      F    write electronic localiz. function (ELF)
   LORBIT       =      0    0 simple, 1 ext, 2 COOP (PROOUT), +10 PAW based schemes


 Dipole corrections
   LMONO      =      F    monopole corrections only (constant potential shift)
   LDIPOL     =      F    correct potential (dipole corrections)
   IDIPOL     =      0    1-x, 2-y, 3-z, 4-all directions 
   EPSILON    =  1.0000000 bulk dielectric constant
   LVACPOTAV  =      F  vacuum potentials using an averaging scheme for the charge density
   VACPOTFLAT =  0.1000000 required flatness to determine vacuum potential
 Exchange correlation treatment:
   GGA     = PE    functional components
   XC_C    = 1    coefficients multiplying the functional components
   LIBXC   =     F    Libxc                    
   VOSKOWN =     0    Vosko Wilk Nusair interpolation
   LHFCALC =     F    Hartree Fock is set to
   LHFONE  =     F    Hartree Fock one center treatment
   AEXX    =    0.0000 exact exchange contribution

 Parameters of functionals:
   PE:
     No parameter
 
 Van der Waals corrections
   IVDW    =     0    specifies the selected vdW correction

 Linear response parameters
   LEPSILON=     F    determine dielectric tensor
   LRPA    =     F    only Hartree local field effects (RPA)
   LNABLA  =     F    use nabla operator in PAW spheres
   LVEL    =     F    velocity operator in full k-point grid
   CSHIFT  =0.1000    complex shift for real part using Kramers Kronig
   OMEGAMAX=  -1.0    maximum frequency
   DEG_THRESHOLD= 0.2000000E-02 threshold for treating states as degnerate
   RTIME   =   -0.100 relaxation time in fs
  (WPLASMAI=    0.000 imaginary part of plasma frequency in eV, 0.658/RTIME)
   DFIELD  = 0.0000000 0.0000000 0.0000000 field for delta impulse in time
 
  Optional k-point grid parameters
   LKPOINTS_OPT  =     F    use optional k-point grid
   KPOINTS_OPT_MODE=     1    mode for optional k-point grid
 
 Orbital magnetization related:
   ORBITALMAG=     F  switch on orbital magnetization
   LCHIMAG   =     F  perturbation theory with respect to B field
   DQ        =  0.001000  dq finite difference perturbation B field
   LLRAUG    =     F  two centre corrections for induced B field
   LBONE     =     F  B-component reconstruction in AE one-centre
   LVGVCALC  =     T  calculate vGv susceptibility
   LVGVAPPL  =     F  apply vGv susceptibility instead of pGv for G=0

 Random number generation:
   RANDOM_GENERATOR = DEFAULT
   PCG_SEED         = not used


--------------------------------------------------------------------------------------------------------


 Static calculation
 charge density and potential will be updated during run
 spin polarized calculation
 Variant of blocked Davidson
 Davidson routine will perform the subspace rotation
 perform sub-space diagonalisation
    after iterative eigenvector-optimisation
 modified Broyden-mixing scheme, WC =      100.0
 initial mixing is a Kerker type mixing with AMIX =  0.6000 and BMIX =      1.0000
 Hartree-type preconditioning will be used
 using additional bands           20
 real space projection scheme for non local part
 use partial core corrections
 calculate Harris-corrections to forces 
   (improved forces if not selfconsistent)
 use gradient corrections 
 use of overlap-Matrix (Vanderbilt PP)
 Gauss-broadening in eV      SIGMA  =   0.01


--------------------------------------------------------------------------------------------------------


  energy-cutoff  :      700.00
  volume of cell :     1031.71
      direct lattice vectors                 reciprocal lattice vectors
     5.480000000  0.000000000  0.000000000     0.182481752  0.129034084  0.000000000
    -5.480000000  7.749890322  0.000000000     0.000000000  0.129034084  0.000000000
     0.000000000  0.000000000 24.292923856     0.000000000  0.000000000  0.041164250

  length of vectors
     5.480000000  9.491638426 24.292923856     0.223493590  0.129034084  0.041164250


 
 k-points in units of 2pi/SCALE and weight: Automatic KPOINTS generated             
   0.00000000  0.00000000  0.00000000       0.036
   0.02606882  0.01843344  0.00000000       0.071
   0.05213764  0.03686688  0.00000000       0.071
   0.07820647  0.05530032  0.00000000       0.071
   0.00000000  0.03225852  0.00000000       0.071
   0.02606882  0.05069196  0.00000000       0.071
   0.05213764  0.06912540  0.00000000       0.071
   0.07820647  0.08755884  0.00000000       0.071
  -0.07820647 -0.02304180  0.00000000       0.071
  -0.05213764 -0.00460836  0.00000000       0.071
  -0.02606882  0.01382508  0.00000000       0.071
   0.00000000  0.06451704  0.00000000       0.036
   0.02606882  0.08295048  0.00000000       0.071
   0.05213764  0.10138392  0.00000000       0.071
   0.07820647  0.11981736  0.00000000       0.071
 
 k-points in reciprocal lattice and weights: Automatic KPOINTS generated             
   0.00000000  0.00000000  0.00000000       0.036
   0.14285714  0.00000000  0.00000000       0.071
   0.28571429  0.00000000  0.00000000       0.071
   0.42857143  0.00000000  0.00000000       0.071
   0.00000000  0.25000000  0.00000000       0.071
   0.14285714  0.25000000  0.00000000       0.071
   0.28571429  0.25000000  0.00000000       0.071
   0.42857143  0.25000000  0.00000000       0.071
  -0.42857143  0.25000000  0.00000000       0.071
  -0.28571429  0.25000000  0.00000000       0.071
  -0.14285714  0.25000000  0.00000000       0.071
   0.00000000  0.50000000  0.00000000       0.036
   0.14285714  0.50000000  0.00000000       0.071
   0.28571429  0.50000000  0.00000000       0.071
   0.42857143  0.50000000  0.00000000       0.071
 
 position of ions in fractional coordinates (direct lattice) 
   0.36111111  0.77127660  0.90532222
   0.25000000  0.75000000  0.07975461
   0.50000000  0.50000000  0.15950921
   0.75000000  0.25000000  0.23926382
   0.00000000  0.00000000  0.31901843
   0.61111111  0.52127660  0.49345081
   0.50000000  0.50000000  0.00000000
   0.75000000  0.25000000  0.07975461
   0.00000000  0.00000000  0.15950921
   0.25000000  0.75000000  0.23926382
   0.50000000  0.50000000  0.31901843
   0.75000000  0.25000000  0.39877303
   0.00000000  0.25000000  0.00000000
   0.25000000  0.00000000  0.07975461
   0.50000000  0.75000000  0.15950921
   0.75000000  0.50000000  0.23926382
   0.00000000  0.25000000  0.31901843
   0.25000000  0.00000000  0.39877303
   0.86111111  0.27127660  0.90532222
   0.75000000  0.50000000  0.07975461
   0.00000000  0.25000000  0.15950921
   0.25000000  0.00000000  0.23926382
   0.50000000  0.75000000  0.31901843
   0.11111111  0.02127660  0.49345081
   0.75000000  0.50000000  0.39877303
   0.86111111  0.27127660  0.57582509
   0.61111111  0.52127660  0.65819937
   0.36111111  0.77127660  0.74057366
   0.11111111  0.02127660  0.82294794
   0.50000000  0.75000000  0.00000000
   0.25000000  0.75000000  0.39877303
   0.36111111  0.77127660  0.57582509
   0.11111111  0.02127660  0.65819937
   0.86111111  0.27127660  0.74057366
   0.61111111  0.52127660  0.82294794
   0.00000000  0.00000000  0.00000000
   0.11111111  0.77127660  0.49345081
   0.86111111  0.02127660  0.57582509
   0.61111111  0.27127660  0.65819937
   0.36111111  0.52127660  0.74057366
   0.11111111  0.77127660  0.82294794
   0.86111111  0.02127660  0.90532222
   0.61111111  0.27127660  0.49345081
   0.36111111  0.52127660  0.57582509
   0.11111111  0.77127660  0.65819937
   0.86111111  0.02127660  0.74057366
   0.61111111  0.27127660  0.82294794
   0.36111111  0.52127660  0.90532222
 
 position of ions in cartesian coordinates  (Angst):
  -2.24770686  5.97730903 21.99292385
  -2.74000000  5.81241774  1.93747257
   0.00000000  3.87494516  3.87494517
   2.74000000  1.93747258  5.81241774
   0.00000000  0.00000000  7.74989033
   0.49229314  4.03983645 11.98736291
   0.00000000  3.87494516  0.00000000
   2.74000000  1.93747258  1.93747257
   0.00000000  0.00000000  3.87494517
  -2.74000000  5.81241774  5.81241774
   0.00000000  3.87494516  7.74989033
   2.74000000  1.93747258  9.68736290
  -1.37000000  1.93747258  0.00000000
   1.37000000  0.00000000  1.93747257
  -1.37000000  5.81241774  3.87494517
   1.37000000  3.87494516  5.81241774
  -1.37000000  1.93747258  7.74989033
   1.37000000  0.00000000  9.68736290
   3.23229314  2.10236387 21.99292385
   1.37000000  3.87494516  1.93747257
  -1.37000000  1.93747258  3.87494517
   1.37000000  0.00000000  5.81241774
  -1.37000000  5.81241774  7.74989033
   0.49229314  0.16489129 11.98736291
   1.37000000  3.87494516  9.68736290
   3.23229314  2.10236387 13.98847509
   0.49229314  4.03983645 15.98958727
  -2.24770686  5.97730903 17.99069948
   0.49229314  0.16489129 19.99181167
  -1.37000000  5.81241774  0.00000000
  -2.74000000  5.81241774  9.68736290
  -2.24770686  5.97730903 13.98847509
   0.49229314  0.16489129 15.98958727
   3.23229314  2.10236387 17.99069948
   0.49229314  4.03983645 19.99181167
   0.00000000  0.00000000  0.00000000
  -3.61770686  5.97730903 11.98736291
   4.60229314  0.16489129 13.98847509
   1.86229314  2.10236387 15.98958727
  -0.87770686  4.03983645 17.99069948
  -3.61770686  5.97730903 19.99181167
   4.60229314  0.16489129 21.99292385
   1.86229314  2.10236387 11.98736291
  -0.87770686  4.03983645 13.98847509
  -3.61770686  5.97730903 15.98958727
   4.60229314  0.16489129 17.99069948
   1.86229314  2.10236387 19.99181167
  -0.87770686  4.03983645 21.99292385
 


--------------------------------------------------------------------------------------------------------


 k-point     1 :   0.0000 0.0000 0.0000  plane waves:   43447
 k-point     2 :   0.1429 0.0000 0.0000  plane waves:   43387
 k-point     3 :   0.2857 0.0000 0.0000  plane waves:   43368
 k-point     4 :   0.4286 0.0000 0.0000  plane waves:   43430
 k-point     5 :   0.0000 0.2500 0.0000  plane waves:   43363
 k-point     6 :   0.1429 0.2500 0.0000  plane waves:   43351
 k-point     7 :   0.2857 0.2500 0.0000  plane waves:   43387
 k-point     8 :   0.4286 0.2500 0.0000  plane waves:   43438
 k-point     9 :  -0.4286 0.2500 0.0000  plane waves:   43393
 k-point    10 :  -0.2857 0.2500 0.0000  plane waves:   43399
 k-point    11 :  -0.1429 0.2500 0.0000  plane waves:   43387
 k-point    12 :   0.0000 0.5000 0.0000  plane waves:   43334
 k-point    13 :   0.1429 0.5000 0.0000  plane waves:   43336
 k-point    14 :   0.2857 0.5000 0.0000  plane waves:   43400
 k-point    15 :   0.4286 0.5000 0.0000  plane waves:   43366

 maximum and minimum number of plane-waves per node :      2742     2689

 maximum number of plane-waves:     43447
 maximum index in each direction: 
   IXMAX=   12   IYMAX=   20   IZMAX=   52
   IXMIN=  -12   IYMIN=  -20   IZMIN=  -52


 real space projection operators:
  total allocation   :       9544.03 KBytes
  max/ min on nodes  :        806.14        517.34


 parallel 3D FFT for wavefunctions:
    minimum data exchange during FFTs selected (reduces bandwidth)
 parallel 3D FFT for charge:
    minimum data exchange during FFTs selected (reduces bandwidth)


 total amount of memory used by VASP MPI-rank0   233711. kBytes
=======================================================================

   base      :      30000. kBytes
   nonlr-proj:       3357. kBytes
   fftplans  :      28146. kBytes
   grid      :      18929. kBytes
   one-center:         48. kBytes
   wavefun   :     153231. kBytes
 
     INWAV:  cpu time      0.0001: real time      0.0003
 Broyden mixing: mesh for mixing (old mesh)
   NGX = 23   NGY = 41   NGZ =105
  (NGX  = 72   NGY  =128   NGZ  =320)
  gives a total of  99015 points

 initial charge density was supplied:
 charge density of overlapping atoms calculated
 number of electron     192.0000000 magnetization       1.0000000
 keeping initial charge density in first step


--------------------------------------------------------------------------------------------------------


 Maximum index for non-local projection operator          396
 Maximum index for augmentation-charges         9583 (set IRDMAX)


--------------------------------------------------------------------------------------------------------


 First call to EWALD:  gamma=   0.175
 Maximum number of real-space cells 6x 3x 1
 Maximum number of reciprocal cells 2x 3x 6

    FEWALD:  cpu time      0.0021: real time      0.0021


--------------------------------------- Ionic step        1  -------------------------------------------




--------------------------------------- Iteration      1(   1)  ---------------------------------------


    POTLOK:  cpu time      0.2687: real time      0.2710
    SETDIJ:  cpu time      1.6372: real time      1.6454
     EDDAV:  cpu time     23.4138: real time     23.6112
       DOS:  cpu time      0.0017: real time      0.0017
    --------------------------------------------
      LOOP:  cpu time     25.3213: real time     25.5293

 eigenvalue-minimisations  :  6960
 total energy-change (2. order) : 0.8134664E+03  (-0.8597263E+04)
 number of electron     192.0000000 magnetization       1.0000000
 augmentation part      192.0000000 magnetization       1.0000000

 Free energy of the ion-electron system (eV)
  ---------------------------------------------------
  alpha Z        PSCENC =       251.00599010
  Ewald energy   TEWEN  =     -5238.14925023
  -Hartree energ DENC   =      -382.53801856
  -exchange      EXHF   =         0.00000000
  -V(xc)+E(xc)   XCENC  =      -403.03556174
  PAW double counting   =      4230.45410297    -3460.51340012
  entropy T*S    EENTRO =        -0.00036353
  eigenvalues    EBANDS =       822.74214327
  atomic energy  EATOM  =      4993.50080470
  Solvation  Ediel_sol  =         0.00000000
  ---------------------------------------------------
  free energy    TOTEN  =       813.46644687 eV

  energy without entropy =      813.46681040  energy(sigma->0) =      813.46662864


--------------------------------------------------------------------------------------------------------




--------------------------------------- Iteration      1(   2)  ---------------------------------------


     EDDAV:  cpu time     26.3450: real time     26.5618
       DOS:  cpu time      0.0017: real time      0.0017
    --------------------------------------------
      LOOP:  cpu time     26.3467: real time     26.5635

 eigenvalue-minimisations  :  8152
 total energy-change (2. order) :-0.9549279E+03  (-0.9195225E+03)
 number of electron     192.0000000 magnetization       1.0000000
 augmentation part      192.0000000 magnetization       1.0000000

 Free energy of the ion-electron system (eV)
  ---------------------------------------------------
  alpha Z        PSCENC =       251.00599010
  Ewald energy   TEWEN  =     -5238.14925023
  -Hartree energ DENC   =      -382.53801856
  -exchange      EXHF   =         0.00000000
  -V(xc)+E(xc)   XCENC  =      -403.03556174
  PAW double counting   =      4230.45410297    -3460.51340012
  entropy T*S    EENTRO =        -0.00024619
  eigenvalues    EBANDS =      -132.18586299
  atomic energy  EATOM  =      4993.50080470
  Solvation  Ediel_sol  =         0.00000000
  ---------------------------------------------------
  free energy    TOTEN  =      -141.46144205 eV

  energy without entropy =     -141.46119586  energy(sigma->0) =     -141.46131896


--------------------------------------------------------------------------------------------------------




--------------------------------------- Iteration      1(   3)  ---------------------------------------


     EDDAV:  cpu time     27.4744: real time     27.6958
       DOS:  cpu time      0.0017: real time      0.0017
    --------------------------------------------
      LOOP:  cpu time     27.4761: real time     27.6975

 eigenvalue-minimisations  :  8568
 total energy-change (2. order) :-0.8762262E+02  (-0.8541043E+02)
 number of electron     192.0000000 magnetization       1.0000000
 augmentation part      192.0000000 magnetization       1.0000000

 Free energy of the ion-electron system (eV)
  ---------------------------------------------------
  alpha Z        PSCENC =       251.00599010
  Ewald energy   TEWEN  =     -5238.14925023
  -Hartree energ DENC   =      -382.53801856
  -exchange      EXHF   =         0.00000000
  -V(xc)+E(xc)   XCENC  =      -403.03556174
  PAW double counting   =      4230.45410297    -3460.51340012
  entropy T*S    EENTRO =        -0.00056583
  eigenvalues    EBANDS =      -219.80816043
  atomic energy  EATOM  =      4993.50080470
  Solvation  Ediel_sol  =         0.00000000
  ---------------------------------------------------
  free energy    TOTEN  =      -229.08405913 eV

  energy without entropy =     -229.08349330  energy(sigma->0) =     -229.08377621


--------------------------------------------------------------------------------------------------------




--------------------------------------- Iteration      1(   4)  ---------------------------------------


     EDDAV:  cpu time     26.7485: real time     26.9645
       DOS:  cpu time      0.0018: real time      0.0018
    --------------------------------------------
      LOOP:  cpu time     26.7502: real time     26.9663

 eigenvalue-minimisations  :  8296
 total energy-change (2. order) :-0.2857821E+01  (-0.2828462E+01)
 number of electron     192.0000000 magnetization       1.0000000
 augmentation part      192.0000000 magnetization       1.0000000

 Free energy of the ion-electron system (eV)
  ---------------------------------------------------
  alpha Z        PSCENC =       251.00599010
  Ewald energy   TEWEN  =     -5238.14925023
  -Hartree energ DENC   =      -382.53801856
  -exchange      EXHF   =         0.00000000
  -V(xc)+E(xc)   XCENC  =      -403.03556174
  PAW double counting   =      4230.45410297    -3460.51340012
  entropy T*S    EENTRO =        -0.00051300
  eigenvalues    EBANDS =      -222.66603443
  atomic energy  EATOM  =      4993.50080470
  Solvation  Ediel_sol  =         0.00000000
  ---------------------------------------------------
  free energy    TOTEN  =      -231.94188030 eV

  energy without entropy =     -231.94136730  energy(sigma->0) =     -231.94162380


--------------------------------------------------------------------------------------------------------




--------------------------------------- Iteration      1(   5)  ---------------------------------------


     EDDAV:  cpu time     28.4277: real time     28.6584
       DOS:  cpu time      0.0018: real time      0.0018
    CHARGE:  cpu time      1.7130: real time      1.7235
    MIXING:  cpu time      0.0082: real time      0.0082
    --------------------------------------------
      LOOP:  cpu time     30.1507: real time     30.3919

 eigenvalue-minimisations  :  8984
 total energy-change (2. order) :-0.1001987E+00  (-0.9992907E-01)
 number of electron     191.9999999 magnetization       1.0000000
 augmentation part      -21.4336535 magnetization      -0.0786341

 Broyden mixing:
  rms(total) = 0.19534E+01    rms(broyden)= 0.19534E+01
  rms(prec ) = 0.20150E+01
  weight for this iteration     100.00

 Free energy of the ion-electron system (eV)
  ---------------------------------------------------
  alpha Z        PSCENC =       251.00599010
  Ewald energy   TEWEN  =     -5238.14925023
  -Hartree energ DENC   =      -382.53801856
  -exchange      EXHF   =         0.00000000
  -V(xc)+E(xc)   XCENC  =      -403.03556174
  PAW double counting   =      4230.45410297    -3460.51340012
  entropy T*S    EENTRO =        -0.00055569
  eigenvalues    EBANDS =      -222.76619049
  atomic energy  EATOM  =      4993.50080470
  Solvation  Ediel_sol  =         0.00000000
  ---------------------------------------------------
  free energy    TOTEN  =      -232.04207905 eV

  energy without entropy =     -232.04152336  energy(sigma->0) =     -232.04180120


--------------------------------------------------------------------------------------------------------




--------------------------------------- Iteration      1(   6)  ---------------------------------------


    POTLOK:  cpu time      0.2663: real time      0.2689
    SETDIJ:  cpu time      1.6507: real time      1.6588
     EDDAV:  cpu time     27.0034: real time     27.2260
       DOS:  cpu time      0.0017: real time      0.0017
    CHARGE:  cpu time      1.7190: real time      1.7296
    MIXING:  cpu time      0.0080: real time      0.0081
    --------------------------------------------
      LOOP:  cpu time     30.6492: real time     30.8932

 eigenvalue-minimisations  :  8368
 total energy-change (2. order) : 0.3612570E+01  (-0.5762088E+00)
 number of electron     191.9999999 magnetization       1.0000000
 augmentation part      -21.2236799 magnetization      -0.0810110

 Broyden mixing:
  rms(total) = 0.89135E+00    rms(broyden)= 0.89135E+00
  rms(prec ) = 0.91684E+00
  weight for this iteration     100.00

 eigenvalues of (default mixing * dielectric matrix)
  average eigenvalue GAMMA=   1.7340
  1.7340

 Free energy of the ion-electron system (eV)
  ---------------------------------------------------
  alpha Z        PSCENC =       251.00599010
  Ewald energy   TEWEN  =     -5238.14925023
  -Hartree energ DENC   =      -435.05015071
  -exchange      EXHF   =         0.00000000
  -V(xc)+E(xc)   XCENC  =      -395.17597603
  PAW double counting   =      8785.26933740    -8019.26154610
  entropy T*S    EENTRO =        -0.00080233
  eigenvalues    EBANDS =      -170.56791593
  atomic energy  EATOM  =      4993.50080470
  Solvation  Ediel_sol  =         0.00000000
  ---------------------------------------------------
  free energy    TOTEN  =      -228.42950912 eV

  energy without entropy =     -228.42870679  energy(sigma->0) =     -228.42910796


--------------------------------------------------------------------------------------------------------




--------------------------------------- Iteration      1(   7)  ---------------------------------------


    POTLOK:  cpu time      0.2662: real time      0.2690
    SETDIJ:  cpu time      1.6499: real time      1.6583
     EDDAV:  cpu time     27.0901: real time     27.3089
       DOS:  cpu time      0.0018: real time      0.0018
    CHARGE:  cpu time      1.7156: real time      1.7258
    MIXING:  cpu time      0.0084: real time      0.0084
    --------------------------------------------
      LOOP:  cpu time     30.7321: real time     30.9722

 eigenvalue-minimisations  :  8408
 total energy-change (2. order) : 0.1288776E+00  (-0.3860744E+00)
 number of electron     191.9999999 magnetization       1.0000000
 augmentation part      -21.1287714 magnetization      -0.0792044

 Broyden mixing:
  rms(total) = 0.28518E+00    rms(broyden)= 0.28518E+00
  rms(prec ) = 0.37186E+00
  weight for this iteration     100.00

 eigenvalues of (default mixing * dielectric matrix)
  average eigenvalue GAMMA=   1.2167
  1.8509  0.5825

 Free energy of the ion-electron system (eV)
  ---------------------------------------------------
  alpha Z        PSCENC =       251.00599010
  Ewald energy   TEWEN  =     -5238.14925023
  -Hartree energ DENC   =      -468.30770938
  -exchange      EXHF   =         0.00000000
  -V(xc)+E(xc)   XCENC  =      -389.11415788
  PAW double counting   =     13957.11707453   -13193.99676000
  entropy T*S    EENTRO =        -0.00083003
  eigenvalues    EBANDS =      -140.35579336
  atomic energy  EATOM  =      4993.50080470
  Solvation  Ediel_sol  =         0.00000000
  ---------------------------------------------------
  free energy    TOTEN  =      -228.30063155 eV

  energy without entropy =     -228.29980152  energy(sigma->0) =     -228.30021654


--------------------------------------------------------------------------------------------------------




--------------------------------------- Iteration      1(   8)  ---------------------------------------


    POTLOK:  cpu time      0.2647: real time      0.2668
    SETDIJ:  cpu time      1.6513: real time      1.6594
     EDDAV:  cpu time     27.5247: real time     27.7439
       DOS:  cpu time      0.0018: real time      0.0018
    CHARGE:  cpu time      1.7197: real time      1.7302
    MIXING:  cpu time      0.0088: real time      0.0088
    --------------------------------------------
      LOOP:  cpu time     31.1709: real time     31.4108

 eigenvalue-minimisations  :  8592
 total energy-change (2. order) : 0.1250473E+00  (-0.1300419E+00)
 number of electron     191.9999999 magnetization       1.0000000
 augmentation part      -21.0730980 magnetization      -0.0831527

 Broyden mixing:
  rms(total) = 0.97135E-01    rms(broyden)= 0.97135E-01
  rms(prec ) = 0.10345E+00
  weight for this iteration     100.00

 eigenvalues of (default mixing * dielectric matrix)
  average eigenvalue GAMMA=   1.1899
  1.9098  1.1202  0.5398

 Free energy of the ion-electron system (eV)
  ---------------------------------------------------
  alpha Z        PSCENC =       251.00599010
  Ewald energy   TEWEN  =     -5238.14925023
  -Hartree energ DENC   =      -471.22256591
  -exchange      EXHF   =         0.00000000
  -V(xc)+E(xc)   XCENC  =      -388.63208952
  PAW double counting   =     14964.66557990   -14201.80216979
  entropy T*S    EENTRO =        -0.00058284
  eigenvalues    EBANDS =      -137.54130070
  atomic energy  EATOM  =      4993.50080470
  Solvation  Ediel_sol  =         0.00000000
  ---------------------------------------------------
  free energy    TOTEN  =      -228.17558428 eV

  energy without entropy =     -228.17500144  energy(sigma->0) =     -228.17529286


--------------------------------------------------------------------------------------------------------




--------------------------------------- Iteration      1(   9)  ---------------------------------------


    POTLOK:  cpu time      0.2645: real time      0.2666
    SETDIJ:  cpu time      1.6500: real time      1.6580
     EDDAV:  cpu time     25.9226: real time     26.1307
       DOS:  cpu time      0.0017: real time      0.0017
    CHARGE:  cpu time      1.7190: real time      1.7293
    MIXING:  cpu time      0.0086: real time      0.0087
    --------------------------------------------
      LOOP:  cpu time     29.5665: real time     29.7950

 eigenvalue-minimisations  :  7960
 total energy-change (2. order) :-0.8780413E-02  (-0.2349067E-01)
 number of electron     191.9999999 magnetization       1.0000000
 augmentation part      -21.0933551 magnetization      -0.0848189

 Broyden mixing:
  rms(total) = 0.66547E-01    rms(broyden)= 0.66547E-01
  rms(prec ) = 0.68009E-01
  weight for this iteration     100.00

 eigenvalues of (default mixing * dielectric matrix)
  average eigenvalue GAMMA=   1.1883
  1.7038  1.7038  0.8709  0.4745

 Free energy of the ion-electron system (eV)
  ---------------------------------------------------
  alpha Z        PSCENC =       251.00599010
  Ewald energy   TEWEN  =     -5238.14925023
  -Hartree energ DENC   =      -468.79070509
  -exchange      EXHF   =         0.00000000
  -V(xc)+E(xc)   XCENC  =      -388.78640154
  PAW double counting   =     15352.98129280   -14590.06865434
  entropy T*S    EENTRO =        -0.00061719
  eigenvalues    EBANDS =      -139.87682391
  atomic energy  EATOM  =      4993.50080470
  Solvation  Ediel_sol  =         0.00000000
  ---------------------------------------------------
  free energy    TOTEN  =      -228.18436469 eV

  energy without entropy =     -228.18374750  energy(sigma->0) =     -228.18405609


--------------------------------------------------------------------------------------------------------




--------------------------------------- Iteration      1(  10)  ---------------------------------------


    POTLOK:  cpu time      0.2623: real time      0.2660
    SETDIJ:  cpu time      1.6500: real time      1.6583
     EDDAV:  cpu time     26.9215: real time     27.1414
       DOS:  cpu time      0.0018: real time      0.0018
    CHARGE:  cpu time      1.7186: real time      1.7294
    MIXING:  cpu time      0.0090: real time      0.0091
    --------------------------------------------
      LOOP:  cpu time     30.5632: real time     30.8058

 eigenvalue-minimisations  :  8352
 total energy-change (2. order) :-0.3251976E-02  (-0.5658689E-02)
 number of electron     191.9999999 magnetization       1.0000000
 augmentation part      -21.0925888 magnetization      -0.0795412

 Broyden mixing:
  rms(total) = 0.34757E-01    rms(broyden)= 0.34757E-01
  rms(prec ) = 0.42108E-01
  weight for this iteration     100.00

 eigenvalues of (default mixing * dielectric matrix)
  average eigenvalue GAMMA=   1.1136
  1.7599  1.7599  1.0754  0.4865  0.4865

 Free energy of the ion-electron system (eV)
  ---------------------------------------------------
  alpha Z        PSCENC =       251.00599010
  Ewald energy   TEWEN  =     -5238.14925023
  -Hartree energ DENC   =      -466.91813752
  -exchange      EXHF   =         0.00000000
  -V(xc)+E(xc)   XCENC  =      -388.99434192
  PAW double counting   =     15431.50879119   -14668.50818684
  entropy T*S    EENTRO =        -0.00077706
  eigenvalues    EBANDS =      -141.63250909
  atomic energy  EATOM  =      4993.50080470
  Solvation  Ediel_sol  =         0.00000000
  ---------------------------------------------------
  free energy    TOTEN  =      -228.18761667 eV

  energy without entropy =     -228.18683961  energy(sigma->0) =     -228.18722814


--------------------------------------------------------------------------------------------------------




--------------------------------------- Iteration      1(  11)  ---------------------------------------


    POTLOK:  cpu time      0.2636: real time      0.2663
    SETDIJ:  cpu time      1.6425: real time      1.6518
     EDDAV:  cpu time     27.2580: real time     27.5214
       DOS:  cpu time      0.0018: real time      0.0018
    CHARGE:  cpu time      1.7202: real time      1.7324
    MIXING:  cpu time      0.0097: real time      0.0098
    --------------------------------------------
      LOOP:  cpu time     30.8957: real time     31.1835

 eigenvalue-minimisations  :  8488
 total energy-change (2. order) : 0.6663696E-03  (-0.1500554E-02)
 number of electron     191.9999999 magnetization       1.0000000
 augmentation part      -21.0881569 magnetization      -0.0815877

 Broyden mixing:
  rms(total) = 0.20947E-01    rms(broyden)= 0.20947E-01
  rms(prec ) = 0.21624E-01
  weight for this iteration     100.00

 eigenvalues of (default mixing * dielectric matrix)
  average eigenvalue GAMMA=   1.0705
  1.6193  1.6193  1.4774  0.7507  0.4782  0.4782

 Free energy of the ion-electron system (eV)
  ---------------------------------------------------
  alpha Z        PSCENC =       251.00599010
  Ewald energy   TEWEN  =     -5238.14925023
  -Hartree energ DENC   =      -466.68358975
  -exchange      EXHF   =         0.00000000
  -V(xc)+E(xc)   XCENC  =      -389.03210890
  PAW double counting   =     15399.69678311   -14636.67789642
  entropy T*S    EENTRO =        -0.00065736
  eigenvalues    EBANDS =      -141.84702556
  atomic energy  EATOM  =      4993.50080470
  Solvation  Ediel_sol  =         0.00000000
  ---------------------------------------------------
  free energy    TOTEN  =      -228.18695030 eV

  energy without entropy =     -228.18629294  energy(sigma->0) =     -228.18662162


--------------------------------------------------------------------------------------------------------




--------------------------------------- Iteration      1(  12)  ---------------------------------------


    POTLOK:  cpu time      0.2652: real time      0.2680
    SETDIJ:  cpu time      1.6447: real time      1.6545
     EDDAV:  cpu time     27.9497: real time     28.2212
       DOS:  cpu time      0.0017: real time      0.0017
    CHARGE:  cpu time      1.7260: real time      1.7383
    MIXING:  cpu time      0.0095: real time      0.0096
    --------------------------------------------
      LOOP:  cpu time     31.5968: real time     31.8934

 eigenvalue-minimisations  :  8744
 total energy-change (2. order) :-0.3386394E-03  (-0.2818327E-03)
 number of electron     191.9999999 magnetization       1.0000000
 augmentation part      -21.0892474 magnetization      -0.0814992

 Broyden mixing:
  rms(total) = 0.12132E-01    rms(broyden)= 0.12132E-01
  rms(prec ) = 0.13242E-01
  weight for this iteration     100.00

 eigenvalues of (default mixing * dielectric matrix)
  average eigenvalue GAMMA=   1.1022
  1.7264  1.7264  1.6572  0.9314  0.6059  0.6059  0.4621

 Free energy of the ion-electron system (eV)
  ---------------------------------------------------
  alpha Z        PSCENC =       251.00599010
  Ewald energy   TEWEN  =     -5238.14925023
  -Hartree energ DENC   =      -466.82346951
  -exchange      EXHF   =         0.00000000
  -V(xc)+E(xc)   XCENC  =      -389.01023166
  PAW double counting   =     15378.69087022   -14615.67997849
  entropy T*S    EENTRO =        -0.00064233
  eigenvalues    EBANDS =      -141.72138174
  atomic energy  EATOM  =      4993.50080470
  Solvation  Ediel_sol  =         0.00000000
  ---------------------------------------------------
  free energy    TOTEN  =      -228.18728894 eV

  energy without entropy =     -228.18664661  energy(sigma->0) =     -228.18696777


--------------------------------------------------------------------------------------------------------




--------------------------------------- Iteration      1(  13)  ---------------------------------------


    POTLOK:  cpu time      0.2637: real time      0.2661
    SETDIJ:  cpu time      1.6454: real time      1.6554
     EDDAV:  cpu time     28.8186: real time     29.1046
       DOS:  cpu time      0.0017: real time      0.0018
    CHARGE:  cpu time      1.7250: real time      1.7373
    MIXING:  cpu time      0.0102: real time      0.0103
    --------------------------------------------
      LOOP:  cpu time     32.4646: real time     32.7756

 eigenvalue-minimisations  :  9072
 total energy-change (2. order) :-0.2360558E-03  (-0.3931487E-03)
 number of electron     191.9999999 magnetization       1.0000000
 augmentation part      -21.0900284 magnetization      -0.0813433

 Broyden mixing:
  rms(total) = 0.77948E-02    rms(broyden)= 0.77948E-02
  rms(prec ) = 0.12979E-01
  weight for this iteration     100.00

 eigenvalues of (default mixing * dielectric matrix)
  average eigenvalue GAMMA=   1.0924
  1.8979  1.8979  1.7258  1.0159  0.7570  0.5041  0.5041  0.4369

 Free energy of the ion-electron system (eV)
  ---------------------------------------------------
  alpha Z        PSCENC =       251.00599010
  Ewald energy   TEWEN  =     -5238.14925023
  -Hartree energ DENC   =      -466.84389273
  -exchange      EXHF   =         0.00000000
  -V(xc)+E(xc)   XCENC  =      -388.99811186
  PAW double counting   =     15367.33801222   -14604.33154714
  entropy T*S    EENTRO =        -0.00063467
  eigenvalues    EBANDS =      -141.70889538
  atomic energy  EATOM  =      4993.50080470
  Solvation  Ediel_sol  =         0.00000000
  ---------------------------------------------------
  free energy    TOTEN  =      -228.18752499 eV

  energy without entropy =     -228.18689032  energy(sigma->0) =     -228.18720766


--------------------------------------------------------------------------------------------------------




--------------------------------------- Iteration      1(  14)  ---------------------------------------


    POTLOK:  cpu time      0.2635: real time      0.2662
    SETDIJ:  cpu time      1.6462: real time      1.6549
     EDDAV:  cpu time     29.5029: real time     29.7441
       DOS:  cpu time      0.0018: real time      0.0018
    CHARGE:  cpu time      1.7234: real time      1.7342
    MIXING:  cpu time      0.0109: real time      0.0110
    --------------------------------------------
      LOOP:  cpu time     33.1487: real time     33.4122

 eigenvalue-minimisations  :  9320
 total energy-change (2. order) : 0.1107107E-03  (-0.2654614E-03)
 number of electron     191.9999999 magnetization       1.0000000
 augmentation part      -21.0901169 magnetization      -0.0814681

 Broyden mixing:
  rms(total) = 0.29079E-02    rms(broyden)= 0.29079E-02
  rms(prec ) = 0.43511E-02
  weight for this iteration     100.00

 eigenvalues of (default mixing * dielectric matrix)
  average eigenvalue GAMMA=   1.0364
  1.8852  1.8230  1.8230  0.9310  0.9310  0.5702  0.5702  0.4674  0.3266

 Free energy of the ion-electron system (eV)
  ---------------------------------------------------
  alpha Z        PSCENC =       251.00599010
  Ewald energy   TEWEN  =     -5238.14925023
  -Hartree energ DENC   =      -466.84159873
  -exchange      EXHF   =         0.00000000
  -V(xc)+E(xc)   XCENC  =      -388.99386256
  PAW double counting   =     15369.09250149   -14606.08772524
  entropy T*S    EENTRO =        -0.00065581
  eigenvalues    EBANDS =      -141.71361802
  atomic energy  EATOM  =      4993.50080470
  Solvation  Ediel_sol  =         0.00000000
  ---------------------------------------------------
  free energy    TOTEN  =      -228.18741428 eV

  energy without entropy =     -228.18675847  energy(sigma->0) =     -228.18708638


--------------------------------------------------------------------------------------------------------




--------------------------------------- Iteration      1(  15)  ---------------------------------------


    POTLOK:  cpu time      0.2647: real time      0.2674
    SETDIJ:  cpu time      1.6476: real time      1.6559
     EDDAV:  cpu time     27.5913: real time     27.8165
       DOS:  cpu time      0.0018: real time      0.0018
    CHARGE:  cpu time      1.7203: real time      1.7310
    MIXING:  cpu time      0.0106: real time      0.0107
    --------------------------------------------
      LOOP:  cpu time     31.2363: real time     31.4834

 eigenvalue-minimisations  :  8600
 total energy-change (2. order) :-0.2673551E-06  (-0.3069987E-04)
 number of electron     191.9999999 magnetization       1.0000000
 augmentation part      -21.0901960 magnetization      -0.0816379

 Broyden mixing:
  rms(total) = 0.19363E-02    rms(broyden)= 0.19363E-02
  rms(prec ) = 0.20173E-02
  weight for this iteration     100.00

 eigenvalues of (default mixing * dielectric matrix)
  average eigenvalue GAMMA=   0.9909
  1.9778  1.7570  1.7570  0.9581  0.9581  0.6172  0.6172  0.5031  0.4611  0.3030

 Free energy of the ion-electron system (eV)
  ---------------------------------------------------
  alpha Z        PSCENC =       251.00599010
  Ewald energy   TEWEN  =     -5238.14925023
  -Hartree energ DENC   =      -466.85417586
  -exchange      EXHF   =         0.00000000
  -V(xc)+E(xc)   XCENC  =      -388.99199113
  PAW double counting   =     15375.79033985   -14612.78647384
  entropy T*S    EENTRO =        -0.00065254
  eigenvalues    EBANDS =      -141.70200560
  atomic energy  EATOM  =      4993.50080470
  Solvation  Ediel_sol  =         0.00000000
  ---------------------------------------------------
  free energy    TOTEN  =      -228.18741455 eV

  energy without entropy =     -228.18676201  energy(sigma->0) =     -228.18708828


--------------------------------------------------------------------------------------------------------




--------------------------------------- Iteration      1(  16)  ---------------------------------------


    POTLOK:  cpu time      0.2636: real time      0.2660
    SETDIJ:  cpu time      1.6364: real time      1.6450
     EDDAV:  cpu time     26.1934: real time     26.4008
       DOS:  cpu time      0.0018: real time      0.0018
    CHARGE:  cpu time      1.7196: real time      1.7305
    MIXING:  cpu time      0.0115: real time      0.0116
    --------------------------------------------
      LOOP:  cpu time     29.8263: real time     30.0557

 eigenvalue-minimisations  :  8056
 total energy-change (2. order) :-0.8521367E-05  (-0.6170262E-05)
 number of electron     191.9999999 magnetization       1.0000000
 augmentation part      -21.0902910 magnetization      -0.0816698

 Broyden mixing:
  rms(total) = 0.12213E-02    rms(broyden)= 0.12213E-02
  rms(prec ) = 0.13461E-02
  weight for this iteration     100.00

 eigenvalues of (default mixing * dielectric matrix)
  average eigenvalue GAMMA=   1.0065
  2.0029  1.8086  1.8086  1.1464  0.9217  0.9217  0.6700  0.5428  0.4930  0.4353
  0.3206

 Free energy of the ion-electron system (eV)
  ---------------------------------------------------
  alpha Z        PSCENC =       251.00599010
  Ewald energy   TEWEN  =     -5238.14925023
  -Hartree energ DENC   =      -466.87067553
  -exchange      EXHF   =         0.00000000
  -V(xc)+E(xc)   XCENC  =      -388.99068560
  PAW double counting   =     15377.21042891   -14614.20708227
  entropy T*S    EENTRO =        -0.00065250
  eigenvalues    EBANDS =      -141.68630067
  atomic energy  EATOM  =      4993.50080470
  Solvation  Ediel_sol  =         0.00000000
  ---------------------------------------------------
  free energy    TOTEN  =      -228.18742307 eV

  energy without entropy =     -228.18677057  energy(sigma->0) =     -228.18709682


--------------------------------------------------------------------------------------------------------




--------------------------------------- Iteration      1(  17)  ---------------------------------------


    POTLOK:  cpu time      0.2640: real time      0.2663
    SETDIJ:  cpu time      1.6329: real time      1.6417
     EDDAV:  cpu time     27.8358: real time     28.0537
       DOS:  cpu time      0.0018: real time      0.0018
    CHARGE:  cpu time      1.7219: real time      1.7327
    MIXING:  cpu time      0.0122: real time      0.0123
    --------------------------------------------
      LOOP:  cpu time     31.4686: real time     31.7086

 eigenvalue-minimisations  :  8704
 total energy-change (2. order) :-0.1137698E-05  (-0.8984143E-06)
 number of electron     191.9999999 magnetization       1.0000000
 augmentation part      -21.0902201 magnetization      -0.0816575

 Broyden mixing:
  rms(total) = 0.79056E-03    rms(broyden)= 0.79055E-03
  rms(prec ) = 0.80228E-03
  weight for this iteration     100.00

 eigenvalues of (default mixing * dielectric matrix)
  average eigenvalue GAMMA=   1.0221
  2.1025  1.8975  1.8975  1.2853  1.0420  1.0420  0.6107  0.6107  0.5064  0.5064
  0.4459  0.3187

 Free energy of the ion-electron system (eV)
  ---------------------------------------------------
  alpha Z        PSCENC =       251.00599010
  Ewald energy   TEWEN  =     -5238.14925023
  -Hartree energ DENC   =      -466.89434006
  -exchange      EXHF   =         0.00000000
  -V(xc)+E(xc)   XCENC  =      -388.98925043
  PAW double counting   =     15376.51749844   -14613.51459587
  entropy T*S    EENTRO =        -0.00065230
  eigenvalues    EBANDS =      -141.66362857
  atomic energy  EATOM  =      4993.50080470
  Solvation  Ediel_sol  =         0.00000000
  ---------------------------------------------------
  free energy    TOTEN  =      -228.18742421 eV

  energy without entropy =     -228.18677191  energy(sigma->0) =     -228.18709806


--------------------------------------------------------------------------------------------------------




--------------------------------------- Iteration      1(  18)  ---------------------------------------


    POTLOK:  cpu time      0.2645: real time      0.2670
    SETDIJ:  cpu time      1.6344: real time      1.6428
     EDDAV:  cpu time     25.9302: real time     26.1405
       DOS:  cpu time      0.0017: real time      0.0017
    CHARGE:  cpu time      1.7205: real time      1.7309
    MIXING:  cpu time      0.0119: real time      0.0120
    --------------------------------------------
      LOOP:  cpu time     29.5633: real time     29.7950

 eigenvalue-minimisations  :  7952
 total energy-change (2. order) :-0.1004352E-05  (-0.3556499E-06)
 number of electron     191.9999999 magnetization       1.0000000
 augmentation part      -21.0901757 magnetization      -0.0816149

 Broyden mixing:
  rms(total) = 0.60370E-03    rms(broyden)= 0.60369E-03
  rms(prec ) = 0.61383E-03
  weight for this iteration     100.00

 eigenvalues of (default mixing * dielectric matrix)
  average eigenvalue GAMMA=   1.0366
  2.4214  1.7532  1.7054  1.7054  1.0604  1.0604  0.7253  0.7253  0.5438  0.5438
  0.4669  0.4463  0.3186

 Free energy of the ion-electron system (eV)
  ---------------------------------------------------
  alpha Z        PSCENC =       251.00599010
  Ewald energy   TEWEN  =     -5238.14925023
  -Hartree energ DENC   =      -466.89680085
  -exchange      EXHF   =         0.00000000
  -V(xc)+E(xc)   XCENC  =      -388.98945096
  PAW double counting   =     15376.48091016   -14613.47779895
  entropy T*S    EENTRO =        -0.00065251
  eigenvalues    EBANDS =      -141.66117667
  atomic energy  EATOM  =      4993.50080470
  Solvation  Ediel_sol  =         0.00000000
  ---------------------------------------------------
  free energy    TOTEN  =      -228.18742521 eV

  energy without entropy =     -228.18677270  energy(sigma->0) =     -228.18709896


--------------------------------------------------------------------------------------------------------




--------------------------------------- Iteration      1(  19)  ---------------------------------------


    POTLOK:  cpu time      0.2634: real time      0.2662
    SETDIJ:  cpu time      1.6341: real time      1.6422
     EDDAV:  cpu time     25.9531: real time     26.1558
       DOS:  cpu time      0.0018: real time      0.0018
    CHARGE:  cpu time      1.7188: real time      1.7291
    MIXING:  cpu time      0.0124: real time      0.0125
    --------------------------------------------
      LOOP:  cpu time     29.5837: real time     29.8075

 eigenvalue-minimisations  :  7968
 total energy-change (2. order) :-0.2378574E-06  (-0.7138870E-07)
[...]
     61       1.6798      1.00000
     62       1.8067      1.00000
     63       1.9417      1.00000
     64       1.9738      1.00000
     65       1.9877      1.00000
     66       2.1465      1.00000
     67       2.2427      1.00000
     68       2.2518      1.00000
     69       2.4026      1.00000
     70       2.4082      1.00000
     71       2.4163      1.00000
     72       2.4879      1.00000
     73       2.4930      1.00000
     74       2.5384      1.00000
     75       2.6589      1.00000
     76       2.7294      1.00000
     77       2.7478      1.00000
     78       2.8479      1.00000
     79       2.9067      1.00000
     80       2.9210      1.00000
     81       2.9910      1.00000
     82       3.0321      1.00000
     83       3.0366      1.00000
     84       3.0403      1.00000
     85       3.2185      1.00000
     86       3.2350      1.00000
     87       3.2836      1.00000
     88       3.5436      1.00000
     89       3.6537      1.00000
     90       3.7630      1.00000
     91       3.8131      1.00000
     92       3.8653      1.00000
     93       3.8870      1.00000
     94       3.9740      1.00000
     95       3.9776      1.00000
     96       4.0717      1.00000
     97       4.9072      0.00000
     98       4.9195      0.00000
     99       5.1079      0.00000
    100       5.3794      0.00000
    101       5.4254      0.00000
    102       5.5276      0.00000
    103       6.0517      0.00000
    104       6.1024      0.00000
    105       6.1350      0.00000
    106       6.2268      0.00000
    107       6.2985      0.00000
    108       6.3896      0.00000
    109       6.5600      0.00000
    110       6.5695      0.00000
    111       6.6531      0.00000
    112       6.6786      0.00000
    113       6.8287      0.00000
    114       6.9172      0.00000
    115       7.0101      0.00000
    116       7.1901      0.00000


--------------------------------------------------------------------------------------------------------


 soft charge-density along one line, spin component           1
         0         1         2         3         4         5         6         7         8         9
 total charge-density along one line
 
 soft charge-density along one line, spin component           2
         0         1         2         3         4         5         6         7         8         9
 total charge-density along one line
 
 pseudopotential strength for first ion, spin component:           1
 18.600  25.952  -0.001  -0.000  -0.007  -0.001  -0.001  -0.012
 25.952  36.213  -0.001  -0.000  -0.009  -0.002  -0.001  -0.017
 -0.001  -0.001   4.205  -0.000   0.000   7.837  -0.000   0.000
 -0.000  -0.000  -0.000   4.204   0.000  -0.000   7.835   0.001
 -0.007  -0.009   0.000   0.000   4.205   0.000   0.001   7.837
 -0.001  -0.002   7.837  -0.000   0.000  14.618  -0.000   0.001
 -0.001  -0.001  -0.000   7.835   0.001  -0.000  14.613   0.001
 -0.012  -0.017   0.000   0.001   7.837   0.001   0.001  14.617
 pseudopotential strength for first ion, spin component:           2
 18.595  25.945  -0.000  -0.000  -0.007  -0.001  -0.001  -0.012
 25.945  36.204  -0.000  -0.000  -0.009  -0.001  -0.001  -0.017
 -0.000  -0.000   4.203  -0.000  -0.000   7.833  -0.000  -0.000
 -0.000  -0.000  -0.000   4.202   0.001  -0.000   7.832   0.001
 -0.007  -0.009  -0.000   0.001   4.202  -0.000   0.001   7.832
 -0.001  -0.001   7.833  -0.000  -0.000  14.610  -0.001  -0.000
 -0.001  -0.001  -0.000   7.832   0.001  -0.001  14.607   0.003
 -0.012  -0.017  -0.000   0.001   7.832  -0.000   0.003  14.608
 total augmentation occupancy for first ion, spin component:           1
  5.097  -1.872  -0.036  -0.059   0.677   0.012   0.012  -0.237
 -1.872   0.863   0.032   0.013  -0.442  -0.009   0.001   0.128
 -0.036   0.032   2.718  -0.012  -0.024  -0.597   0.010   0.005
 -0.059   0.013  -0.012   2.686   0.453   0.010  -0.590  -0.165
  0.677  -0.442  -0.024   0.453   2.459   0.005  -0.165  -0.507
  0.012  -0.009  -0.597   0.010   0.005   0.143  -0.004  -0.001
  0.012   0.001   0.010  -0.590  -0.165  -0.004   0.141   0.051
 -0.237   0.128   0.005  -0.165  -0.507  -0.001   0.051   0.118
 total augmentation occupancy for first ion, spin component:           2
  0.059  -0.034  -0.002   0.001   0.003   0.001  -0.000  -0.001
 -0.034   0.022   0.000  -0.001  -0.003  -0.000   0.000   0.001
 -0.002   0.000   0.038   0.004   0.009  -0.006  -0.000  -0.001
  0.001  -0.001   0.004   0.019  -0.011  -0.000  -0.004   0.001
  0.003  -0.003   0.009  -0.011   0.051  -0.001   0.001  -0.007
  0.001  -0.000  -0.006  -0.000  -0.001   0.001   0.000   0.000
 -0.000   0.000  -0.000  -0.004   0.001   0.000   0.001   0.000
 -0.001   0.001  -0.001   0.001  -0.007   0.000   0.000   0.001


------------------------ aborting loop because EDIFF is reached ----------------------------------------


    CHARGE:  cpu time      1.7128: real time      1.7230
    FORLOC:  cpu time      0.0354: real time      0.0356
    FORNL :  cpu time      7.9263: real time      7.9867
    STRESS:  cpu time     24.1221: real time     24.3100
    FORCOR:  cpu time      0.2878: real time      0.2900
    FORHAR:  cpu time      0.0577: real time      0.0581
    MIXING:  cpu time      0.0163: real time      0.0164
    OFIELD:  cpu time      0.0000: real time      0.0000

  FORCE on cell =-STRESS in cart. coord.  units (eV):
  Direction    XX          YY          ZZ          XY          YZ          ZX
  --------------------------------------------------------------------------------------
  Alpha Z   251.00599   251.00599   251.00599
  Ewald   -1967.63053 -1551.27632 -1719.26942    -9.48017    -0.00000     0.00000
  Hartree    71.24732   252.30536   143.33942    -2.14654    -0.00011    -0.00013
  E(xc)    -638.59529  -639.48514  -637.11318    -0.02188     0.00020    -0.00031
  Local    -413.60369 -1007.20235  -719.57360    10.81938     0.00027     0.00101
  n-local  1415.80845  1432.88468  1417.08339    -0.25840     0.01112     0.01620
  augment  -111.94808  -112.54200  -110.80701     0.02065    -0.00020     0.00053
  Kinetic  1428.13191  1419.83178  1397.36949     0.84143     0.00116     0.00467
  Fock        0.00000     0.00000     0.00000     0.00000     0.00000     0.00000
  -------------------------------------------------------------------------------------
  Total      34.41608    45.52200    22.03509    -0.22554     0.01244     0.02197
  in kB      53.44611    70.69294    34.21917    -0.35025     0.01933     0.03412
  external pressure =       52.79 kB  Pullay stress =        0.00 kB


 VOLUME and BASIS-vectors are now :
 -----------------------------------------------------------------------------
  energy-cutoff  :      700.00
  volume of cell :     1031.71
      direct lattice vectors                 reciprocal lattice vectors
     5.480000000  0.000000000  0.000000000     0.182481752  0.129034084  0.000000000
    -5.480000000  7.749890322  0.000000000     0.000000000  0.129034084  0.000000000
     0.000000000  0.000000000 24.292923856     0.000000000  0.000000000  0.041164250

  length of vectors
     5.480000000  9.491638426 24.292923856     0.223493590  0.129034084  0.041164250


 FORCES acting on ions
    electron-ion (+dipol)            ewald-force                    non-local-force                 convergence-correction
 -----------------------------------------------------------------------------------------------
   0.335E+02 -.710E+00 0.177E+01   -.311E+02 0.866E+00 -.202E+01   -.239E+01 -.102E+00 0.622E+00   -.284E-04 0.621E-05 -.968E-04
   0.308E+01 0.650E-01 0.182E+02   -.269E+01 -.187E-01 -.188E+02   -.827E+00 -.401E-01 0.100E+01   -.322E-05 0.710E-05 -.911E-05
   -.277E+00 -.260E-01 0.575E+01   0.270E+00 -.397E-03 -.572E+01   -.150E+00 0.153E-01 -.168E+00   0.816E-05 0.383E-06 0.187E-04
   -.303E+00 -.229E-01 -.575E+01   0.270E+00 -.397E-03 0.572E+01   -.131E+00 0.116E-01 0.167E+00   0.892E-05 -.247E-05 0.298E-04
   0.334E+01 0.429E-01 -.178E+02   -.269E+01 -.187E-01 0.188E+02   -.726E+00 0.744E-03 -.891E+00   -.881E-05 -.416E-05 0.448E-04
   0.335E+02 -.700E+00 -.177E+01   -.311E+02 0.866E+00 0.202E+01   -.239E+01 -.108E+00 -.611E+00   -.720E-05 0.519E-05 0.912E-04
   -.324E+02 0.281E+00 0.200E+02   0.299E+02 -.863E+00 -.190E+02   0.221E+01 -.161E-01 -.120E+01   0.179E-04 -.262E-05 -.564E-04
   0.335E+01 0.455E-01 0.178E+02   -.269E+01 -.187E-01 -.188E+02   -.735E+00 -.142E-02 0.886E+00   -.336E-05 -.722E-05 -.107E-04
   -.332E+00 -.224E-02 0.574E+01   0.270E+00 -.397E-03 -.572E+01   -.106E+00 -.421E-02 -.165E+00   0.855E-05 -.462E-06 0.145E-04
   -.307E+00 -.396E-02 -.574E+01   0.270E+00 -.397E-03 0.572E+01   -.125E+00 -.255E-03 0.168E+00   0.973E-05 0.260E-05 0.340E-04
   0.309E+01 0.688E-01 -.182E+02   -.269E+01 -.187E-01 0.188E+02   -.833E+00 -.427E-01 -.994E+00   -.501E-05 0.551E-05 0.481E-04
   -.324E+02 0.281E+00 -.200E+02   0.299E+02 -.863E+00 0.190E+02   0.223E+01 -.173E-01 0.121E+01   0.581E-05 0.870E-07 0.742E-04
   0.120E+02 0.617E+00 0.100E+02   -.110E+02 0.110E+00 -.854E+01   -.208E+01 -.116E+00 -.608E+00   -.125E-04 -.621E-05 -.529E-04
   0.363E+00 -.368E-01 0.222E+02   0.112E+01 0.381E-02 -.205E+02   -.861E+00 0.740E-01 -.131E+01   0.222E-05 0.130E-05 -.630E-05
   0.293E+00 -.612E-02 0.549E+01   -.112E+00 0.908E-04 -.552E+01   -.166E+00 0.160E-01 0.624E-01   -.724E-05 0.503E-05 0.192E-04
   0.260E+00 -.709E-02 -.551E+01   -.112E+00 0.908E-04 0.552E+01   -.141E+00 0.184E-01 -.381E-01   -.594E-05 0.322E-05 0.299E-04
   -.470E-01 0.257E-01 -.217E+02   0.112E+01 0.381E-02 0.205E+02   -.775E+00 0.411E-01 0.122E+01   0.234E-05 -.349E-05 0.453E-04
   0.120E+02 0.615E+00 -.100E+02   -.110E+02 0.110E+00 0.854E+01   -.208E+01 -.117E+00 0.607E+00   0.545E-06 -.797E-05 0.756E-04
   0.338E+02 -.706E+00 0.210E+01   -.311E+02 0.866E+00 -.202E+01   -.250E+01 -.130E+00 0.756E+00   -.257E-04 -.614E-05 -.953E-04
   -.756E-01 0.265E-01 0.217E+02   0.112E+01 0.381E-02 -.205E+02   -.751E+00 0.413E-01 -.122E+01   0.187E-05 -.182E-05 -.942E-05
   0.295E+00 0.201E-01 0.553E+01   -.112E+00 0.908E-04 -.552E+01   -.163E+00 -.665E-02 0.252E-01   -.695E-05 -.513E-05 0.157E-04
   0.329E+00 0.205E-01 -.551E+01   -.112E+00 0.908E-04 0.552E+01   -.189E+00 -.979E-02 -.473E-01   -.680E-05 -.351E-05 0.278E-04
   0.335E+00 -.363E-01 -.222E+02   0.112E+01 0.381E-02 0.205E+02   -.838E+00 0.739E-01 0.132E+01   -.806E-06 0.188E-05 0.457E-04
   0.338E+02 -.717E+00 -.209E+01   -.311E+02 0.866E+00 0.202E+01   -.251E+01 -.116E+00 -.765E+00   -.468E-05 -.661E-05 0.915E-04
   0.109E+02 -.280E+00 -.953E+01   -.110E+02 0.110E+00 0.854E+01   -.124E+01 -.198E+00 -.874E-01   0.404E-06 0.647E-05 0.705E-04
   -.461E+00 -.395E-01 0.505E+01   -.224E-01 0.165E-01 -.572E+01   0.736E-01 -.201E-01 0.626E+00   0.343E-05 -.274E-05 0.523E-04
   0.270E+01 -.520E-02 0.145E+01   -.267E+01 0.309E-03 -.146E+01   -.327E+00 -.685E-02 -.918E-01   0.126E-05 -.729E-06 -.375E-05
   0.269E+01 -.848E-02 -.145E+01   -.267E+01 0.309E-03 0.146E+01   -.327E+00 -.143E-01 0.101E+00   0.139E-05 0.872E-06 -.528E-04
   -.449E+00 -.392E-01 -.507E+01   -.224E-01 0.165E-01 0.572E+01   0.719E-01 -.948E-02 -.625E+00   0.313E-05 0.288E-05 -.829E-04
   0.109E+02 -.283E+00 0.953E+01   -.110E+02 0.110E+00 -.854E+01   -.125E+01 -.200E+00 0.924E-01   -.116E-04 0.535E-05 -.498E-04
   -.308E+02 0.123E+01 -.194E+02   0.299E+02 -.863E+00 0.190E+02   0.121E+01 0.688E-01 0.585E+00   0.110E-05 0.117E-05 0.726E-04
   -.463E+00 -.379E-01 0.508E+01   -.224E-01 0.165E-01 -.572E+01   0.803E-01 -.175E-01 0.609E+00   0.146E-05 0.174E-05 0.470E-04
   0.272E+01 -.197E-01 0.146E+01   -.267E+01 0.309E-03 -.146E+01   -.340E+00 -.385E-02 -.103E+00   0.139E-05 0.996E-06 -.538E-05
   0.272E+01 -.169E-01 -.146E+01   -.267E+01 0.309E-03 0.146E+01   -.348E+00 -.102E-01 0.111E+00   0.447E-06 -.449E-06 -.519E-04
   -.474E+00 -.389E-01 -.505E+01   -.224E-01 0.165E-01 0.572E+01   0.842E-01 -.850E-02 -.633E+00   0.416E-05 -.283E-05 -.870E-04
   -.308E+02 0.123E+01 0.194E+02   0.299E+02 -.863E+00 -.190E+02   0.122E+01 0.687E-01 -.592E+00   0.122E-04 0.248E-05 -.535E-04
   -.130E+02 -.754E-01 -.113E+02   0.122E+02 -.110E+00 0.123E+02   0.143E+01 0.164E+00 0.250E+00   0.105E-05 0.481E-05 0.933E-04
   -.199E+01 0.279E-01 0.762E+01   0.147E+01 -.338E-02 -.731E+01   0.958E+00 -.882E-01 -.650E+00   -.561E-05 -.154E-05 0.487E-04
   -.265E+01 0.350E-01 0.124E+01   0.253E+01 -.704E-04 -.130E+01   0.608E+00 -.252E-01 0.940E-01   0.160E-05 -.327E-06 -.372E-05
   -.263E+01 0.350E-01 -.124E+01   0.253E+01 -.704E-04 0.130E+01   0.597E+00 -.283E-01 -.794E-01   0.635E-07 -.244E-05 -.523E-04
   -.194E+01 0.147E-01 -.758E+01   0.147E+01 -.338E-02 0.731E+01   0.921E+00 -.647E-01 0.614E+00   -.368E-06 0.374E-05 -.784E-04
   -.130E+02 -.785E-01 0.113E+02   0.122E+02 -.110E+00 -.123E+02   0.144E+01 0.159E+00 -.267E+00   0.516E-05 0.363E-05 -.103E-03
   -.128E+02 -.723E-01 -.117E+02   0.122E+02 -.110E+00 0.123E+02   0.145E+01 0.172E-01 0.285E+00   0.954E-06 -.293E-05 0.955E-04
   -.193E+01 0.157E-01 0.758E+01   0.147E+01 -.338E-02 -.731E+01   0.916E+00 -.759E-01 -.620E+00   -.447E-05 0.282E-05 0.497E-04
   -.264E+01 0.354E-01 0.125E+01   0.253E+01 -.704E-04 -.130E+01   0.598E+00 -.282E-01 0.804E-01   0.131E-05 0.167E-06 -.735E-05
   -.265E+01 0.353E-01 -.124E+01   0.253E+01 -.704E-04 0.130E+01   0.610E+00 -.278E-01 -.877E-01   -.256E-06 0.219E-05 -.495E-04
   -.198E+01 0.288E-01 -.762E+01   0.147E+01 -.338E-02 0.731E+01   0.954E+00 -.796E-01 0.646E+00   -.941E-06 -.327E-05 -.807E-04
   -.128E+02 -.712E-01 0.117E+02   0.122E+02 -.110E+00 -.123E+02   0.144E+01 0.102E-01 -.311E+00   0.692E-05 -.247E-05 -.103E-03
 -----------------------------------------------------------------------------------------------
   0.623E+01 0.765E+00 0.252E-02   0.178E-14 -.409E-13 0.711E-14   -.617E+01 -.955E+00 -.329E-01   -.362E-04 0.272E-06 0.344E-04
 
 
 POSITION                                       TOTAL-FORCE (eV/Angst)
 -----------------------------------------------------------------------------------
     -2.24771      5.97731     21.99292         0.073467      0.058416      0.370523
     -2.74000      5.81242      1.93747        -0.433800      0.010142      0.404142
      0.00000      3.87495      3.87495        -0.158295     -0.007214     -0.135528
      2.74000      1.93747      5.81242        -0.165312     -0.007742      0.134559
      0.00000      0.00000      7.74989        -0.079882      0.028849      0.102937
      0.49229      4.03984     11.98736         0.061837      0.062054     -0.362605
      0.00000      3.87495      0.00000        -0.243672     -0.594524     -0.185336
      2.74000      1.93747      1.93747        -0.078499      0.029260     -0.101352
      0.00000      0.00000      3.87495        -0.168378     -0.002894     -0.138392
     -2.74000      5.81242      5.81242        -0.162738     -0.000658      0.143353
      0.00000      3.87495      7.74989        -0.430108      0.011312     -0.400463
      2.74000      1.93747      9.68736        -0.250358     -0.595439      0.191881
     -1.37000      1.93747      0.00000        -1.093213      0.614005      0.899354
      1.37000      0.00000      1.93747         0.619479      0.044885      0.400347
     -1.37000      5.81242      3.87495         0.014055      0.013940      0.023326
      1.37000      3.87495      5.81242         0.006549      0.015327     -0.021848
     -1.37000      1.93747      7.74989         0.295984      0.074646      0.014049
      1.37000      0.00000      9.68736        -1.091513      0.611250     -0.896035
      3.23229      2.10236     21.99292         0.206818      0.033000      0.831801
      1.37000      3.87495      1.93747         0.290772      0.075578     -0.014411
     -1.37000      1.93747      3.87495         0.019601      0.017462      0.031167
      1.37000      0.00000      5.81242         0.027324      0.014767     -0.028785
     -1.37000      5.81242      7.74989         0.614623      0.045378     -0.397061
      0.49229      0.16489     11.98736         0.201223      0.036549     -0.830083
      1.37000      3.87495      9.68736        -1.329759     -0.364320     -1.078546
      3.23229      2.10236     13.98848        -0.411264     -0.039072     -0.047283
      0.49229      4.03984     15.98959        -0.296891     -0.007797     -0.099859
     -2.24771      5.97731     17.99070        -0.300602     -0.018541      0.111832
      0.49229      0.16489     19.99181        -0.400600     -0.028217      0.025213
     -1.37000      5.81242      0.00000        -1.328136     -0.368953      1.077063
     -2.74000      5.81242      9.68736         0.348379      0.443557      0.146359
     -2.24771      5.97731     13.98848        -0.406318     -0.034978     -0.035918
      0.49229      0.16489     15.98959        -0.286949     -0.019317     -0.105664
      3.23229      2.10236     17.99070        -0.294547     -0.022818      0.115923
      0.49229      4.03984     19.99181        -0.412934     -0.026928      0.039928
      0.00000      0.00000      0.00000         0.346317      0.443594     -0.146120
     -3.61771      5.97731     11.98736         0.645548     -0.017876      1.299461
      4.60229      0.16489     13.98848         0.442777     -0.059735     -0.347664
      1.86229      2.10236     15.98959         0.488049      0.013644      0.035016
     -0.87771      4.03984     17.99070         0.493481      0.010604     -0.026155
     -3.61771      5.97731     19.99181         0.454701     -0.049424      0.348877
      4.60229      0.16489     21.99292         0.642490     -0.025804     -1.319236
      1.86229      2.10236     11.98736         0.829201     -0.161349      0.939734
     -0.87771      4.03984     13.98848         0.457761     -0.059615     -0.353927
     -3.61771      5.97731     15.98959         0.487574      0.011019      0.032283
      4.60229      0.16489     17.99070         0.484048      0.011442     -0.031781
      1.86229      2.10236     19.99181         0.442337     -0.050198      0.344305
     -0.87771      4.03984     21.99292         0.829372     -0.167268     -0.959382
 -----------------------------------------------------------------------------------
    total drift:                                0.054283     -0.189640     -0.030342


--------------------------------------------------------------------------------------------------------



  FREE ENERGIE OF THE ION-ELECTRON SYSTEM (eV)
  ---------------------------------------------------
  free  energy   TOTEN  =      -228.18742687 eV

  energy  without entropy=     -228.18677381  energy(sigma->0) =     -228.18710034
 


--------------------------------------------------------------------------------------------------------


    POTLOK:  cpu time      1.9075: real time      1.9173


--------------------------------------------------------------------------------------------------------


     LOOP+:  cpu time    747.0881: real time    753.4126
    4ORBIT:  cpu time      0.0000: real time      0.0000

 total amount of memory used by VASP MPI-rank0   233711. kBytes
=======================================================================

   base      :      30000. kBytes
   nonlr-proj:       3357. kBytes
   fftplans  :      28146. kBytes
   grid      :      18929. kBytes
   one-center:         48. kBytes
   wavefun   :     153231. kBytes
 
  
  
 General timing and accounting informations for this job:
 ========================================================
  
                  Total CPU time used (sec):      773.299
                            User time (sec):      733.763
                          System time (sec):       39.535
                         Elapsed time (sec):      781.377
  
                   Maximum memory used (kb):      476500.
                   Average memory used (kb):          N/A
  
                          Minor page faults:       188144
                          Major page faults:           29
                 Voluntary context switches:         1307
