  48  48   0   0
  0.2323126E+02  0.8001338E-09  0.1265123E-08  0.1161174E-08  0.5000000E-15
  1.000000000000000E-004
  CAR 
 Si and Ge interface calculation         
      6.66024278    -12.21344428  301      3.46074658      1.00000000
    -12.213  0.0000E+00  0.0000E+00  0.0000E+00  0.0000E+00
    -12.151  0.0000E+00  0.0000E+00  0.0000E+00  0.0000E+00
    -12.088  0.0000E+00  0.0000E+00  0.0000E+00  0.0000E+00
    -12.025  0.0000E+00  0.0000E+00  0.0000E+00  0.0000E+00
    -11.962  0.0000E+00  0.0000E+00  0.0000E+00  0.0000E+00
    -11.899  0.0000E+00  0.0000E+00  0.0000E+00  0.0000E+00
    -11.836  0.0000E+00  0.0000E+00  0.0000E+00  0.0000E+00
    -11.773  0.0000E+00  0.0000E+00  0.0000E+00  0.0000E+00
    -11.710  0.0000E+00  0.0000E+00  0.0000E+00  0.0000E+00
    -11.647  0.0000E+00  0.0000E+00  0.0000E+00  0.0000E+00
    -11.584  0.0000E+00  0.0000E+00  0.0000E+00  0.0000E+00
    -11.521  0.0000E+00  0.0000E+00  0.0000E+00  0.0000E+00
    -11.458  0.0000E+00  0.0000E+00  0.0000E+00  0.0000E+00
    -11.396  0.3603E-07  0.6672E-13  0.2267E-08  0.4197E-14
    -11.333  0.7941E+01  0.7056E+01  0.4996E+00  0.4439E+00
    -11.270  0.1465E+01  0.9005E+00  0.5921E+00  0.5006E+00
    -11.207  0.1443E+02  0.1589E+02  0.1500E+01  0.1500E+01
    -11.144  0.0000E+00  0.0000E+00  0.1500E+01  0.1500E+01
    -11.081  0.0000E+00  0.0000E+00  0.1500E+01  0.1500E+01
    -11.018  0.4693E+00  0.9891E-03  0.1530E+01  0.1500E+01
    -10.955  0.1543E+02  0.1589E+02  0.2500E+01  0.2500E+01
    -10.892  0.0000E+00  0.0000E+00  0.2500E+01  0.2500E+01
    -10.829  0.0000E+00  0.0000E+00  0.2500E+01  0.2500E+01
    -10.766  0.0000E+00  0.0000E+00  0.2500E+01  0.2500E+01
    -10.704  0.1300E+01  0.5960E-02  0.2582E+01  0.2500E+01
    -10.641  0.1460E+02  0.1589E+02  0.3500E+01  0.3500E+01
    -10.578  0.3795E-06  0.9125E-12  0.3500E+01  0.3500E+01
    -10.515  0.7946E+01  0.7481E+01  0.4000E+01  0.3971E+01
    -10.452  0.0000E+00  0.4669E+00  0.4000E+01  0.4000E+01
    -10.389  0.0000E+00  0.0000E+00  0.4000E+01  0.4000E+01
    -10.326  0.0000E+00  0.0000E+00  0.4000E+01  0.4000E+01
    -10.263  0.0000E+00  0.0000E+00  0.4000E+01  0.4000E+01
    -10.200  0.0000E+00  0.0000E+00  0.4000E+01  0.4000E+01
    -10.137  0.0000E+00  0.0000E+00  0.4000E+01  0.4000E+01
    -10.074  0.0000E+00  0.0000E+00  0.4000E+01  0.4000E+01
    -10.012  0.0000E+00  0.0000E+00  0.4000E+01  0.4000E+01
     -9.949  0.6276E-02  0.0000E+00  0.4000E+01  0.4000E+01
     -9.886  0.7941E+01  0.1059E+01  0.4500E+01  0.4067E+01
     -9.823  0.4072E-03  0.6889E+01  0.4500E+01  0.4500E+01
     -9.760  0.1589E+02  0.4327E+00  0.5500E+01  0.4527E+01
     -9.697  0.0000E+00  0.1546E+02  0.5500E+01  0.5500E+01
     -9.634  0.0000E+00  0.0000E+00  0.5500E+01  0.5500E+01
     -9.571  0.0000E+00  0.0000E+00  0.5500E+01  0.5500E+01
     -9.508  0.0000E+00  0.0000E+00  0.5500E+01  0.5500E+01
     -9.445  0.4279E-06  0.0000E+00  0.5500E+01  0.5500E+01
     -9.382  0.1587E+02  0.1595E-01  0.6499E+01  0.5501E+01
     -9.319  0.0000E+00  0.1588E+02  0.6500E+01  0.6500E+01
     -9.257  0.0000E+00  0.0000E+00  0.6500E+01  0.6500E+01
     -9.194  0.0000E+00  0.0000E+00  0.6500E+01  0.6500E+01
     -9.131  0.0000E+00  0.0000E+00  0.6500E+01  0.6500E+01
     -9.068  0.0000E+00  0.0000E+00  0.6500E+01  0.6500E+01
     -9.005  0.0000E+00  0.0000E+00  0.6500E+01  0.6500E+01
     -8.942  0.0000E+00  0.0000E+00  0.6500E+01  0.6500E+01
     -8.879  0.9804E-16  0.0000E+00  0.6500E+01  0.6500E+01
     -8.816  0.7462E+01  0.3799E-02  0.6969E+01  0.6500E+01
     -8.753  0.1391E+02  0.1946E+02  0.7844E+01  0.7724E+01
     -8.690  0.5033E+01  0.4636E+01  0.8161E+01  0.8018E+01
     -8.627  0.1302E+02  0.1089E+02  0.8980E+01  0.8703E+01
     -8.565  0.6092E+01  0.7910E+01  0.9363E+01  0.9200E+01
     -8.502  0.7545E+01  0.9831E+01  0.9838E+01  0.9819E+01
     -8.439  0.5223E+01  0.5518E+01  0.1017E+02  0.1017E+02
     -8.376  0.8959E+01  0.4710E+01  0.1073E+02  0.1046E+02
     -8.313  0.1260E+02  0.1381E+02  0.1152E+02  0.1133E+02
     -8.250  0.1257E+02  0.1456E+02  0.1232E+02  0.1225E+02
     -8.187  0.8150E+01  0.7966E+01  0.1283E+02  0.1275E+02
     -8.124  0.1205E+02  0.1160E+02  0.1359E+02  0.1348E+02
     -8.061  0.7422E+01  0.6205E+01  0.1405E+02  0.1387E+02
     -7.998  0.5637E+01  0.6843E+01  0.1441E+02  0.1430E+02
     -7.935  0.3769E+01  0.4388E+01  0.1465E+02  0.1458E+02
     -7.872  0.3681E+01  0.3123E+01  0.1488E+02  0.1478E+02
     -7.810  0.5147E+01  0.4524E+01  0.1520E+02  0.1506E+02
     -7.747  0.1877E+02  0.1776E+02  0.1638E+02  0.1618E+02
     -7.684  0.1233E+02  0.1436E+02  0.1716E+02  0.1708E+02
     -7.621  0.1562E+02  0.1350E+02  0.1814E+02  0.1793E+02
     -7.558  0.1612E+02  0.1807E+02  0.1916E+02  0.1907E+02
     -7.495  0.3319E+01  0.3571E+01  0.1936E+02  0.1929E+02
     -7.432  0.1507E+02  0.9290E+01  0.2031E+02  0.1988E+02
     -7.369  0.1405E+02  0.1914E+02  0.2120E+02  0.2108E+02
     -7.306  0.9513E+01  0.1022E+02  0.2180E+02  0.2172E+02
     -7.243  0.1658E+02  0.1756E+02  0.2284E+02  0.2283E+02
     -7.180  0.1741E+02  0.1436E+02  0.2393E+02  0.2374E+02
     -7.118  0.1636E+02  0.1601E+02  0.2496E+02  0.2474E+02
     -7.055  0.1560E+02  0.1785E+02  0.2595E+02  0.2587E+02
     -6.992  0.1726E+02  0.1187E+02  0.2703E+02  0.2661E+02
     -6.929  0.1866E+02  0.2050E+02  0.2821E+02  0.2790E+02
     -6.866  0.1454E+02  0.1724E+02  0.2912E+02  0.2899E+02
     -6.803  0.1719E+02  0.1782E+02  0.3020E+02  0.3011E+02
     -6.740  0.9608E+01  0.1005E+02  0.3081E+02  0.3074E+02
     -6.677  0.1029E+02  0.6597E+01  0.3146E+02  0.3116E+02
     -6.614  0.1347E+02  0.1647E+02  0.3230E+02  0.3219E+02
     -6.551  0.1198E+02  0.9362E+01  0.3306E+02  0.3278E+02
     -6.488  0.1537E+02  0.1496E+02  0.3402E+02  0.3373E+02
     -6.426  0.4928E+01  0.9642E+01  0.3433E+02  0.3433E+02
     -6.363  0.5320E+01  0.5308E+01  0.3467E+02  0.3467E+02
     -6.300  0.9414E+01  0.6653E+01  0.3526E+02  0.3509E+02
     -6.237  0.9981E+01  0.1200E+02  0.3589E+02  0.3584E+02
     -6.174  0.2104E+02  0.9532E+01  0.3721E+02  0.3644E+02
     -6.111  0.2952E+02  0.3894E+02  0.3907E+02  0.3889E+02
     -6.048  0.8000E+01  0.7601E+01  0.3957E+02  0.3937E+02
     -5.985  0.1748E+02  0.1644E+02  0.4067E+02  0.4040E+02
     -5.922  0.1808E+02  0.1831E+02  0.4181E+02  0.4156E+02
     -5.859  0.9359E+01  0.9821E+01  0.4240E+02  0.4217E+02
     -5.796  0.9416E+01  0.1057E+02  0.4299E+02  0.4284E+02
     -5.733  0.5103E+01  0.5337E+01  0.4331E+02  0.4318E+02
     -5.671  0.5633E+01  0.6615E+01  0.4367E+02  0.4359E+02
     -5.608  0.1454E+02  0.1441E+02  0.4458E+02  0.4450E+02
     -5.545  0.1119E+02  0.9809E+01  0.4529E+02  0.4512E+02
     -5.482  0.8982E+01  0.1096E+02  0.4585E+02  0.4581E+02
     -5.419  0.1574E+02  0.7507E+01  0.4684E+02  0.4628E+02
     -5.356  0.7214E+01  0.1378E+02  0.4730E+02  0.4715E+02
     -5.293  0.1841E+02  0.1400E+02  0.4846E+02  0.4803E+02
     -5.230  0.7820E+01  0.1442E+02  0.4895E+02  0.4893E+02
     -5.167  0.1276E+02  0.9713E+01  0.4975E+02  0.4955E+02
     -5.104  0.7545E+01  0.8925E+01  0.5023E+02  0.5011E+02
     -5.041  0.1493E+02  0.9449E+01  0.5117E+02  0.5070E+02
     -4.979  0.1442E+02  0.1619E+02  0.5207E+02  0.5172E+02
     -4.916  0.1416E+02  0.1173E+02  0.5297E+02  0.5246E+02
     -4.853  0.2377E+02  0.2685E+02  0.5446E+02  0.5415E+02
     -4.790  0.1599E+02  0.1591E+02  0.5547E+02  0.5515E+02
     -4.727  0.9249E+01  0.1062E+02  0.5605E+02  0.5582E+02
     -4.664  0.9465E+01  0.1140E+02  0.5665E+02  0.5654E+02
     -4.601  0.3706E+01  0.4750E+01  0.5688E+02  0.5683E+02
     -4.538  0.2216E+02  0.1740E+02  0.5827E+02  0.5793E+02
     -4.475  0.2323E+02  0.2221E+02  0.5974E+02  0.5933E+02
     -4.412  0.1213E+02  0.1688E+02  0.6050E+02  0.6039E+02
     -4.349  0.3746E+01  0.2709E+01  0.6074E+02  0.6056E+02
     -4.286  0.1277E+02  0.1199E+02  0.6154E+02  0.6131E+02
     -4.224  0.1230E+02  0.1337E+02  0.6231E+02  0.6215E+02
     -4.161  0.7653E+01  0.6141E+01  0.6280E+02  0.6254E+02
     -4.098  0.2148E+02  0.1962E+02  0.6415E+02  0.6378E+02
     -4.035  0.1425E+02  0.1509E+02  0.6504E+02  0.6473E+02
     -3.972  0.1239E+02  0.1588E+02  0.6582E+02  0.6572E+02
     -3.909  0.1167E+02  0.1130E+02  0.6656E+02  0.6644E+02
     -3.846  0.2143E+02  0.1952E+02  0.6791E+02  0.6766E+02
     -3.783  0.1235E+02  0.1388E+02  0.6868E+02  0.6854E+02
     -3.720  0.8490E+01  0.6856E+01  0.6922E+02  0.6897E+02
     -3.657  0.1911E+02  0.1986E+02  0.7042E+02  0.7022E+02
     -3.594  0.2528E+02  0.2030E+02  0.7201E+02  0.7150E+02
     -3.532  0.1081E+02  0.1675E+02  0.7269E+02  0.7255E+02
     -3.469  0.1331E+02  0.1057E+02  0.7353E+02  0.7322E+02
     -3.406  0.1126E+02  0.1093E+02  0.7424E+02  0.7390E+02
     -3.343  0.1044E+02  0.1189E+02  0.7489E+02  0.7465E+02
     -3.280  0.1055E+02  0.1207E+02  0.7556E+02  0.7541E+02
     -3.217  0.1038E+02  0.1176E+02  0.7621E+02  0.7615E+02
     -3.154  0.8251E+01  0.8408E+01  0.7673E+02  0.7668E+02
     -3.091  0.1100E+02  0.9040E+01  0.7742E+02  0.7725E+02
     -3.028  0.1306E+02  0.1149E+02  0.7825E+02  0.7797E+02
     -2.965  0.7860E+01  0.1061E+02  0.7874E+02  0.7864E+02
     -2.902  0.8581E+01  0.9158E+01  0.7928E+02  0.7922E+02
     -2.840  0.8904E+01  0.7955E+01  0.7984E+02  0.7972E+02
     -2.777  0.1282E+02  0.9725E+01  0.8065E+02  0.8033E+02
     -2.714  0.7808E+01  0.9565E+01  0.8114E+02  0.8093E+02
     -2.651  0.1730E+02  0.1279E+02  0.8223E+02  0.8174E+02
     -2.588  0.1230E+02  0.1573E+02  0.8300E+02  0.8273E+02
     -2.525  0.6696E+01  0.8631E+01  0.8342E+02  0.8327E+02
     -2.462  0.1021E+02  0.8253E+01  0.8406E+02  0.8379E+02
     -2.399  0.1401E+02  0.1473E+02  0.8495E+02  0.8472E+02
     -2.336  0.1266E+02  0.1449E+02  0.8574E+02  0.8563E+02
     -2.273  0.6443E+01  0.6839E+01  0.8615E+02  0.8606E+02
     -2.210  0.1187E+02  0.7126E+01  0.8690E+02  0.8651E+02
     -2.147  0.1008E+02  0.1333E+02  0.8753E+02  0.8735E+02
     -2.085  0.5581E+01  0.6577E+01  0.8788E+02  0.8776E+02
     -2.022  0.9492E+01  0.6312E+01  0.8848E+02  0.8816E+02
     -1.959  0.1155E+02  0.1250E+02  0.8920E+02  0.8894E+02
     -1.896  0.1266E+02  0.1580E+02  0.9000E+02  0.8994E+02
     -1.833  0.4606E+01  0.5416E+01  0.9029E+02  0.9028E+02
     -1.770  0.9053E+01  0.3010E+01  0.9086E+02  0.9047E+02
     -1.707  0.7683E+01  0.1310E+02  0.9135E+02  0.9129E+02
     -1.644  0.1778E+02  0.1168E+02  0.9246E+02  0.9203E+02
     -1.581  0.1679E+02  0.2033E+02  0.9352E+02  0.9331E+02
     -1.518  0.5848E+01  0.9173E+01  0.9389E+02  0.9388E+02
     -1.455  0.4988E+01  0.2892E+01  0.9420E+02  0.9406E+02
     -1.393  0.1311E+02  0.1107E+02  0.9503E+02  0.9476E+02
     -1.330  0.7775E+01  0.1160E+02  0.9552E+02  0.9549E+02
     -1.267  0.6358E+01  0.3625E+01  0.9592E+02  0.9572E+02
     -1.204  0.5602E+01  0.5803E+01  0.9627E+02  0.9609E+02
     -1.141  0.1077E+02  0.8206E+01  0.9695E+02  0.9660E+02
     -1.078  0.7745E+01  0.1136E+02  0.9743E+02  0.9732E+02
     -1.015  0.8143E+01  0.6365E+01  0.9795E+02  0.9772E+02
     -0.952  0.2469E+02  0.2697E+02  0.9950E+02  0.9941E+02
     -0.889  0.1051E+02  0.9436E+01  0.1002E+03  0.1000E+03
     -0.826  0.2315E+01  0.3562E+01  0.1003E+03  0.1002E+03
     -0.763  0.1276E+02  0.1071E+02  0.1011E+03  0.1009E+03
     -0.700  0.1433E+02  0.1231E+02  0.1020E+03  0.1017E+03
     -0.638  0.1166E+02  0.1546E+02  0.1027E+03  0.1027E+03
     -0.575  0.2136E+02  0.1822E+02  0.1041E+03  0.1038E+03
     -0.512  0.1690E+02  0.2026E+02  0.1052E+03  0.1051E+03
     -0.449  0.3339E+02  0.1974E+02  0.1073E+03  0.1063E+03
     -0.386  0.3150E+02  0.3891E+02  0.1092E+03  0.1088E+03
     -0.323  0.2193E+02  0.2234E+02  0.1106E+03  0.1102E+03
     -0.260  0.1566E+02  0.1919E+02  0.1116E+03  0.1114E+03
     -0.197  0.1896E+02  0.1753E+02  0.1128E+03  0.1125E+03
     -0.134  0.3373E+02  0.2767E+02  0.1149E+03  0.1142E+03
     -0.071  0.2519E+02  0.3422E+02  0.1165E+03  0.1164E+03
     -0.008  0.2341E+02  0.1472E+02  0.1180E+03  0.1173E+03
      0.054  0.2541E+02  0.2723E+02  0.1196E+03  0.1190E+03
      0.117  0.2435E+02  0.2805E+02  0.1211E+03  0.1208E+03
      0.180  0.2655E+02  0.2524E+02  0.1228E+03  0.1224E+03
      0.243  0.2031E+02  0.2057E+02  0.1241E+03  0.1237E+03
      0.306  0.3039E+02  0.3070E+02  0.1260E+03  0.1256E+03
      0.369  0.2812E+02  0.2574E+02  0.1277E+03  0.1272E+03
      0.432  0.3012E+02  0.2475E+02  0.1296E+03  0.1288E+03
      0.495  0.2562E+02  0.3296E+02  0.1312E+03  0.1308E+03
      0.558  0.2467E+02  0.2225E+02  0.1328E+03  0.1322E+03
      0.621  0.3374E+02  0.3562E+02  0.1349E+03  0.1345E+03
      0.684  0.1586E+02  0.2021E+02  0.1359E+03  0.1358E+03
      0.746  0.1872E+02  0.1563E+02  0.1371E+03  0.1367E+03
      0.809  0.2014E+02  0.2181E+02  0.1384E+03  0.1381E+03
      0.872  0.2062E+02  0.2010E+02  0.1397E+03  0.1394E+03
      0.935  0.3090E+02  0.3074E+02  0.1416E+03  0.1413E+03
      0.998  0.2830E+02  0.2805E+02  0.1434E+03  0.1431E+03
      1.061  0.2730E+02  0.2360E+02  0.1451E+03  0.1446E+03
      1.124  0.1833E+02  0.2206E+02  0.1463E+03  0.1460E+03
      1.187  0.3440E+02  0.3288E+02  0.1484E+03  0.1480E+03
      1.250  0.2230E+02  0.1962E+02  0.1498E+03  0.1493E+03
      1.313  0.3388E+02  0.3843E+02  0.1520E+03  0.1517E+03
      1.376  0.2751E+02  0.2234E+02  0.1537E+03  0.1531E+03
      1.439  0.2617E+02  0.3019E+02  0.1553E+03  0.1550E+03
      1.501  0.2009E+02  0.2291E+02  0.1566E+03  0.1564E+03
      1.564  0.2660E+02  0.2597E+02  0.1583E+03  0.1581E+03
      1.627  0.1969E+02  0.1758E+02  0.1595E+03  0.1592E+03
      1.690  0.2537E+02  0.2362E+02  0.1611E+03  0.1607E+03
      1.753  0.2121E+02  0.2466E+02  0.1625E+03  0.1622E+03
      1.816  0.2323E+02  0.2068E+02  0.1639E+03  0.1635E+03
      1.879  0.2449E+02  0.2896E+02  0.1655E+03  0.1653E+03
      1.942  0.1529E+02  0.1208E+02  0.1664E+03  0.1661E+03
      2.005  0.1374E+02  0.1775E+02  0.1673E+03  0.1672E+03
      2.068  0.1847E+02  0.1376E+02  0.1684E+03  0.1681E+03
      2.131  0.1600E+02  0.1841E+02  0.1695E+03  0.1692E+03
      2.193  0.1988E+02  0.1649E+02  0.1707E+03  0.1703E+03
      2.256  0.2856E+02  0.3085E+02  0.1725E+03  0.1722E+03
      2.319  0.1694E+02  0.1292E+02  0.1736E+03  0.1730E+03
      2.382  0.1047E+02  0.1625E+02  0.1742E+03  0.1740E+03
      2.445  0.1653E+02  0.1592E+02  0.1753E+03  0.1750E+03
      2.508  0.1976E+02  0.1472E+02  0.1765E+03  0.1760E+03
      2.571  0.1678E+02  0.2075E+02  0.1776E+03  0.1773E+03
      2.634  0.1841E+02  0.1557E+02  0.1787E+03  0.1783E+03
      2.697  0.2161E+02  0.1387E+02  0.1801E+03  0.1791E+03
      2.760  0.8843E+01  0.2135E+02  0.1806E+03  0.1805E+03
      2.823  0.1300E+02  0.1157E+02  0.1815E+03  0.1812E+03
      2.886  0.2438E+02  0.1450E+02  0.1830E+03  0.1821E+03
      2.948  0.1921E+02  0.2216E+02  0.1842E+03  0.1835E+03
      3.011  0.1281E+02  0.1665E+02  0.1850E+03  0.1846E+03
      3.074  0.1694E+02  0.9716E+01  0.1861E+03  0.1852E+03
      3.137  0.1449E+02  0.2203E+02  0.1870E+03  0.1866E+03
      3.200  0.1607E+02  0.1313E+02  0.1880E+03  0.1874E+03
      3.263  0.1771E+02  0.2074E+02  0.1891E+03  0.1887E+03
      3.326  0.1043E+02  0.8875E+01  0.1898E+03  0.1892E+03
      3.389  0.1224E+02  0.1346E+02  0.1905E+03  0.1901E+03
      3.452  0.1275E+02  0.1293E+02  0.1913E+03  0.1909E+03
      3.515  0.2218E+02  0.1076E+02  0.1927E+03  0.1916E+03
      3.578  0.1569E+02  0.2400E+02  0.1937E+03  0.1931E+03
      3.640  0.1151E+02  0.1292E+02  0.1944E+03  0.1939E+03
      3.703  0.2523E+02  0.2150E+02  0.1960E+03  0.1953E+03
      3.766  0.1585E+02  0.1946E+02  0.1970E+03  0.1965E+03
      3.829  0.8081E+01  0.1107E+02  0.1975E+03  0.1972E+03
      3.892  0.1645E+02  0.1198E+02  0.1986E+03  0.1979E+03
      3.955  0.1738E+02  0.1977E+02  0.1997E+03  0.1992E+03
      4.018  0.2207E+02  0.2038E+02  0.2011E+03  0.2005E+03
      4.081  0.2304E+02  0.2383E+02  0.2025E+03  0.2020E+03
      4.144  0.1599E+02  0.1848E+02  0.2035E+03  0.2031E+03
      4.207  0.9792E+01  0.1101E+02  0.2041E+03  0.2038E+03
      4.270  0.1776E+02  0.1392E+02  0.2052E+03  0.2047E+03
      4.332  0.2918E+02  0.2213E+02  0.2071E+03  0.2061E+03
      4.395  0.1833E+02  0.2653E+02  0.2082E+03  0.2078E+03
      4.458  0.1220E+02  0.1765E+02  0.2090E+03  0.2089E+03
      4.521  0.1237E+02  0.6273E+01  0.2098E+03  0.2093E+03
      4.584  0.3856E+02  0.2485E+02  0.2122E+03  0.2108E+03
      4.647  0.1548E+02  0.3153E+02  0.2132E+03  0.2128E+03
      4.710  0.2297E+02  0.1642E+02  0.2146E+03  0.2138E+03
      4.773  0.2120E+02  0.2294E+02  0.2160E+03  0.2153E+03
      4.836  0.3160E+02  0.3220E+02  0.2180E+03  0.2173E+03
      4.899  0.1433E+02  0.2068E+02  0.2189E+03  0.2186E+03
      4.962  0.1383E+02  0.8360E+01  0.2197E+03  0.2191E+03
      5.025  0.1813E+02  0.2329E+02  0.2209E+03  0.2206E+03
      5.087  0.2721E+02  0.2523E+02  0.2226E+03  0.2222E+03
      5.150  0.1958E+02  0.1629E+02  0.2238E+03  0.2232E+03
      5.213  0.3016E+02  0.3038E+02  0.2257E+03  0.2251E+03
      5.276  0.2261E+02  0.2332E+02  0.2271E+03  0.2266E+03
      5.339  0.1868E+02  0.2391E+02  0.2283E+03  0.2281E+03
      5.402  0.9140E+01  0.7473E+01  0.2289E+03  0.2286E+03
      5.465  0.1694E+02  0.1688E+02  0.2300E+03  0.2296E+03
      5.528  0.1398E+02  0.1655E+02  0.2308E+03  0.2307E+03
      5.591  0.9631E+01  0.8337E+01  0.2314E+03  0.2312E+03
      5.654  0.5320E+01  0.7590E+01  0.2318E+03  0.2317E+03
      5.717  0.9992E-01  0.1608E+01  0.2318E+03  0.2318E+03
      5.779  0.1769E+01  0.7191E+00  0.2319E+03  0.2318E+03
      5.842  0.1763E+01  0.2813E+01  0.2320E+03  0.2320E+03
      5.905  0.0000E+00  0.0000E+00  0.2320E+03  0.2320E+03
      5.968  0.0000E+00  0.0000E+00  0.2320E+03  0.2320E+03
      6.031  0.0000E+00  0.0000E+00  0.2320E+03  0.2320E+03
      6.094  0.0000E+00  0.0000E+00  0.2320E+03  0.2320E+03
      6.157  0.0000E+00  0.0000E+00  0.2320E+03  0.2320E+03
      6.220  0.0000E+00  0.0000E+00  0.2320E+03  0.2320E+03
      6.283  0.0000E+00  0.0000E+00  0.2320E+03  0.2320E+03
      6.346  0.0000E+00  0.0000E+00  0.2320E+03  0.2320E+03
      6.409  0.0000E+00  0.0000E+00  0.2320E+03  0.2320E+03
      6.472  0.0000E+00  0.0000E+00  0.2320E+03  0.2320E+03
      6.534  0.0000E+00  0.0000E+00  0.2320E+03  0.2320E+03
      6.597  0.0000E+00  0.0000E+00  0.2320E+03  0.2320E+03
      6.660  0.0000E+00  0.0000E+00  0.2320E+03  0.2320E+03
