  48  48   0   0
  0.2323126E+02  0.8001338E-09  0.1265123E-08  0.1161174E-08  0.5000000E-15
  1.000000000000000E-004
  CAR 
 Si and Ge interface calculation         
      6.63164137    -11.19258493  301      3.36525313      1.00000000
    -11.193  0.0000E+00  0.0000E+00  0.0000E+00  0.0000E+00
    -11.133  0.0000E+00  0.0000E+00  0.0000E+00  0.0000E+00
    -11.074  0.0000E+00  0.0000E+00  0.0000E+00  0.0000E+00
    -11.014  0.0000E+00  0.0000E+00  0.0000E+00  0.0000E+00
    -10.955  0.0000E+00  0.0000E+00  0.0000E+00  0.0000E+00
    -10.896  0.0000E+00  0.0000E+00  0.0000E+00  0.0000E+00
    -10.836  0.0000E+00  0.0000E+00  0.0000E+00  0.0000E+00
    -10.777  0.0000E+00  0.0000E+00  0.0000E+00  0.0000E+00
    -10.717  0.0000E+00  0.0000E+00  0.0000E+00  0.0000E+00
    -10.658  0.0000E+00  0.0000E+00  0.0000E+00  0.0000E+00
    -10.598  0.0000E+00  0.0000E+00  0.0000E+00  0.0000E+00
    -10.539  0.0000E+00  0.0000E+00  0.0000E+00  0.0000E+00
    -10.480  0.0000E+00  0.0000E+00  0.0000E+00  0.0000E+00
    -10.420  0.4204E-07  0.5191E-16  0.2498E-08  0.3084E-17
    -10.361  0.6993E+01  0.9463E+00  0.4155E+00  0.5622E-01
    -10.301  0.1421E+01  0.7469E+01  0.5000E+00  0.5000E+00
    -10.242  0.2606E+01  0.8336E-02  0.6549E+00  0.5005E+00
    -10.183  0.2263E+02  0.2330E+02  0.2000E+01  0.1885E+01
    -10.123  0.6931E-02  0.1929E+01  0.2000E+01  0.2000E+01
    -10.064  0.1450E+02  0.1163E+01  0.2861E+01  0.2069E+01
    -10.004  0.2332E+01  0.1567E+02  0.3000E+01  0.3000E+01
     -9.945  0.0000E+00  0.0000E+00  0.3000E+01  0.3000E+01
     -9.885  0.4406E-11  0.0000E+00  0.3000E+01  0.3000E+01
     -9.826  0.6829E+01  0.1983E+00  0.3406E+01  0.3012E+01
     -9.767  0.1000E+02  0.1663E+02  0.4000E+01  0.4000E+01
     -9.707  0.1254E-05  0.8305E-15  0.4000E+01  0.4000E+01
     -9.648  0.1645E+02  0.6161E+01  0.4978E+01  0.4366E+01
     -9.588  0.3711E+00  0.1067E+02  0.5000E+01  0.5000E+01
     -9.529  0.0000E+00  0.0000E+00  0.5000E+01  0.5000E+01
     -9.470  0.0000E+00  0.0000E+00  0.5000E+01  0.5000E+01
     -9.410  0.0000E+00  0.0000E+00  0.5000E+01  0.5000E+01
     -9.351  0.0000E+00  0.0000E+00  0.5000E+01  0.5000E+01
     -9.291  0.0000E+00  0.0000E+00  0.5000E+01  0.5000E+01
     -9.232  0.1260E-07  0.0000E+00  0.5000E+01  0.5000E+01
     -9.173  0.1321E+02  0.1559E+01  0.5785E+01  0.5093E+01
     -9.113  0.3621E+01  0.1527E+02  0.6000E+01  0.6000E+01
     -9.054  0.2337E-01  0.3037E-07  0.6001E+01  0.6000E+01
     -8.994  0.1681E+02  0.1589E+02  0.7000E+01  0.6944E+01
     -8.935  0.0000E+00  0.9370E+00  0.7000E+01  0.7000E+01
     -8.875  0.0000E+00  0.0000E+00  0.7000E+01  0.7000E+01
     -8.816  0.6682E-05  0.4261E-09  0.7000E+01  0.7000E+01
     -8.757  0.1959E+01  0.1843E+01  0.7116E+01  0.7109E+01
     -8.697  0.4582E+01  0.4407E+01  0.7389E+01  0.7371E+01
     -8.638  0.7696E+01  0.5652E+01  0.7846E+01  0.7707E+01
     -8.578  0.1382E+02  0.1563E+02  0.8667E+01  0.8636E+01
     -8.519  0.1476E+02  0.6637E+01  0.9544E+01  0.9031E+01
     -8.460  0.7296E+01  0.1531E+02  0.9977E+01  0.9940E+01
     -8.400  0.3184E+01  0.3788E+01  0.1017E+02  0.1017E+02
     -8.341  0.1175E-04  0.2526E-01  0.1017E+02  0.1017E+02
     -8.281  0.8953E+01  0.6189E+01  0.1070E+02  0.1053E+02
     -8.222  0.1093E+02  0.9488E+01  0.1135E+02  0.1110E+02
     -8.162  0.7496E+01  0.1132E+02  0.1179E+02  0.1177E+02
     -8.103  0.8406E+01  0.7249E+01  0.1229E+02  0.1220E+02
     -8.044  0.2729E+01  0.2392E+01  0.1246E+02  0.1234E+02
     -7.984  0.2857E+01  0.4504E+01  0.1262E+02  0.1261E+02
     -7.925  0.1004E+02  0.9550E+01  0.1322E+02  0.1318E+02
     -7.865  0.1069E+02  0.9707E+01  0.1386E+02  0.1376E+02
     -7.806  0.3680E+01  0.2989E+01  0.1408E+02  0.1393E+02
     -7.747  0.1399E+02  0.1376E+02  0.1491E+02  0.1475E+02
     -7.687  0.1476E+02  0.1334E+02  0.1578E+02  0.1554E+02
     -7.628  0.4761E+01  0.7744E+01  0.1607E+02  0.1600E+02
     -7.568  0.1359E+02  0.7840E+01  0.1687E+02  0.1647E+02
     -7.509  0.2672E+02  0.2567E+02  0.1846E+02  0.1799E+02
     -7.449  0.1707E+02  0.1896E+02  0.1948E+02  0.1912E+02
     -7.390  0.1141E+02  0.1457E+02  0.2015E+02  0.1999E+02
     -7.331  0.1447E+02  0.1113E+02  0.2101E+02  0.2065E+02
     -7.271  0.1318E+02  0.1524E+02  0.2180E+02  0.2155E+02
     -7.212  0.1940E+02  0.2006E+02  0.2295E+02  0.2275E+02
     -7.152  0.1473E+02  0.1516E+02  0.2382E+02  0.2365E+02
     -7.093  0.8395E+01  0.4951E+01  0.2432E+02  0.2394E+02
     -7.034  0.2497E+02  0.1797E+02  0.2581E+02  0.2501E+02
     -6.974  0.3351E+02  0.4006E+02  0.2780E+02  0.2739E+02
     -6.915  0.1407E+02  0.1807E+02  0.2863E+02  0.2846E+02
     -6.855  0.1845E+02  0.1344E+02  0.2973E+02  0.2926E+02
     -6.796  0.2236E+02  0.2596E+02  0.3106E+02  0.3080E+02
     -6.737  0.1774E+02  0.1510E+02  0.3211E+02  0.3170E+02
     -6.677  0.7756E+01  0.1346E+02  0.3257E+02  0.3250E+02
     -6.618  0.2264E+02  0.1900E+02  0.3392E+02  0.3363E+02
     -6.558  0.1497E+02  0.1655E+02  0.3481E+02  0.3461E+02
     -6.499  0.1023E+02  0.1137E+02  0.3542E+02  0.3529E+02
     -6.439  0.1322E+02  0.1200E+02  0.3620E+02  0.3600E+02
     -6.380  0.1425E+02  0.1296E+02  0.3705E+02  0.3677E+02
     -6.321  0.7649E+01  0.9585E+01  0.3750E+02  0.3734E+02
     -6.261  0.9210E+01  0.9881E+01  0.3805E+02  0.3793E+02
     -6.202  0.1606E+02  0.1130E+02  0.3900E+02  0.3860E+02
     -6.142  0.1590E+02  0.1619E+02  0.3995E+02  0.3956E+02
     -6.083  0.7403E+01  0.1393E+02  0.4039E+02  0.4039E+02
     -6.024  0.6681E+01  0.4017E+01  0.4079E+02  0.4063E+02
     -5.964  0.1097E+02  0.9656E+01  0.4144E+02  0.4120E+02
     -5.905  0.6836E+01  0.7563E+01  0.4184E+02  0.4165E+02
     -5.845  0.4886E+01  0.6305E+01  0.4213E+02  0.4203E+02
     -5.786  0.1569E+02  0.1389E+02  0.4307E+02  0.4285E+02
     -5.726  0.9106E+01  0.8118E+01  0.4361E+02  0.4333E+02
     -5.667  0.1405E+02  0.1585E+02  0.4444E+02  0.4427E+02
     -5.608  0.1741E+02  0.1563E+02  0.4548E+02  0.4520E+02
     -5.548  0.8552E+01  0.9259E+01  0.4598E+02  0.4575E+02
     -5.489  0.7985E+01  0.9100E+01  0.4646E+02  0.4629E+02
     -5.429  0.5456E+01  0.6046E+01  0.4678E+02  0.4665E+02
     -5.370  0.1359E+02  0.1349E+02  0.4759E+02  0.4746E+02
     -5.311  0.7845E+01  0.7343E+01  0.4806E+02  0.4789E+02
     -5.251  0.1669E+02  0.1336E+02  0.4905E+02  0.4869E+02
     -5.192  0.5499E+01  0.8260E+01  0.4938E+02  0.4918E+02
     -5.132  0.1047E+02  0.1043E+02  0.5000E+02  0.4980E+02
     -5.073  0.1423E+02  0.1289E+02  0.5084E+02  0.5056E+02
     -5.014  0.7966E+01  0.9337E+01  0.5132E+02  0.5112E+02
     -4.954  0.8847E+01  0.7340E+01  0.5184E+02  0.5155E+02
     -4.895  0.4797E+01  0.8417E+01  0.5213E+02  0.5205E+02
     -4.835  0.7725E+01  0.7466E+01  0.5259E+02  0.5250E+02
     -4.776  0.6845E+01  0.3986E+01  0.5299E+02  0.5273E+02
     -4.716  0.1393E+02  0.1160E+02  0.5382E+02  0.5342E+02
     -4.657  0.3266E+02  0.3407E+02  0.5576E+02  0.5545E+02
     -4.598  0.1044E+02  0.1126E+02  0.5638E+02  0.5612E+02
     -4.538  0.1582E+02  0.1397E+02  0.5732E+02  0.5695E+02
     -4.479  0.7911E+01  0.1004E+02  0.5779E+02  0.5754E+02
     -4.419  0.5433E+01  0.8656E+01  0.5811E+02  0.5806E+02
     -4.360  0.8827E+01  0.5950E+01  0.5864E+02  0.5841E+02
     -4.301  0.1617E+02  0.1226E+02  0.5960E+02  0.5914E+02
     -4.241  0.2812E+02  0.2554E+02  0.6127E+02  0.6066E+02
     -4.182  0.1483E+02  0.2023E+02  0.6215E+02  0.6186E+02
     -4.122  0.1881E+02  0.1937E+02  0.6327E+02  0.6301E+02
     -4.063  0.1597E+02  0.1594E+02  0.6422E+02  0.6396E+02
     -4.003  0.2314E+02  0.1779E+02  0.6559E+02  0.6501E+02
     -3.944  0.1376E+02  0.2113E+02  0.6641E+02  0.6627E+02
     -3.885  0.1948E+02  0.1798E+02  0.6757E+02  0.6734E+02
     -3.825  0.1827E+02  0.1566E+02  0.6865E+02  0.6827E+02
     -3.766  0.9150E+01  0.1233E+02  0.6920E+02  0.6900E+02
     -3.706  0.1219E+02  0.1098E+02  0.6992E+02  0.6965E+02
     -3.647  0.8454E+01  0.8677E+01  0.7042E+02  0.7017E+02
     -3.588  0.2725E+02  0.2320E+02  0.7204E+02  0.7155E+02
     -3.528  0.9726E+01  0.1699E+02  0.7262E+02  0.7256E+02
     -3.469  0.1357E+02  0.8464E+01  0.7343E+02  0.7306E+02
     -3.409  0.1457E+02  0.1754E+02  0.7429E+02  0.7410E+02
     -3.350  0.1583E+02  0.1372E+02  0.7523E+02  0.7492E+02
     -3.291  0.2290E+02  0.2507E+02  0.7659E+02  0.7641E+02
     -3.231  0.1617E+02  0.1291E+02  0.7756E+02  0.7718E+02
     -3.172  0.8076E+01  0.1302E+02  0.7804E+02  0.7795E+02
     -3.112  0.5927E+01  0.6402E+01  0.7839E+02  0.7833E+02
     -3.053  0.3675E+01  0.2399E+01  0.7861E+02  0.7847E+02
     -2.993  0.1036E+02  0.9823E+01  0.7922E+02  0.7906E+02
     -2.934  0.6902E+01  0.9314E+01  0.7963E+02  0.7961E+02
     -2.875  0.7811E+01  0.6707E+01  0.8010E+02  0.8001E+02
     -2.815  0.6015E+01  0.6425E+01  0.8045E+02  0.8039E+02
     -2.756  0.1090E+02  0.1031E+02  0.8110E+02  0.8100E+02
     -2.696  0.6602E+01  0.6532E+01  0.8149E+02  0.8139E+02
     -2.637  0.5880E+01  0.5655E+01  0.8184E+02  0.8173E+02
     -2.578  0.1238E+02  0.1069E+02  0.8258E+02  0.8236E+02
     -2.518  0.1159E+02  0.9945E+01  0.8327E+02  0.8295E+02
     -2.459  0.1376E+02  0.1499E+02  0.8408E+02  0.8384E+02
     -2.399  0.8713E+01  0.9454E+01  0.8460E+02  0.8440E+02
     -2.340  0.8607E+01  0.6763E+01  0.8511E+02  0.8481E+02
     -2.280  0.6506E+01  0.9186E+01  0.8550E+02  0.8535E+02
     -2.221  0.5659E+01  0.6221E+01  0.8584E+02  0.8572E+02
     -2.162  0.1460E+02  0.8962E+01  0.8670E+02  0.8625E+02
     -2.102  0.1258E+02  0.1970E+02  0.8745E+02  0.8742E+02
     -2.043  0.8982E+01  0.4922E+01  0.8798E+02  0.8772E+02
     -1.983  0.6820E+01  0.9363E+01  0.8839E+02  0.8827E+02
     -1.924  0.4663E+01  0.6619E+01  0.8867E+02  0.8867E+02
     -1.865  0.5599E+01  0.4168E+01  0.8900E+02  0.8891E+02
     -1.805  0.9685E+01  0.7151E+01  0.8958E+02  0.8934E+02
     -1.746  0.3712E+01  0.7378E+01  0.8980E+02  0.8978E+02
     -1.686  0.8271E+01  0.5101E+01  0.9029E+02  0.9008E+02
     -1.627  0.8241E+01  0.1058E+02  0.9078E+02  0.9071E+02
     -1.568  0.2749E+01  0.1336E+01  0.9094E+02  0.9079E+02
     -1.508  0.3781E+01  0.3786E+01  0.9116E+02  0.9101E+02
     -1.449  0.3046E+01  0.5363E+01  0.9135E+02  0.9133E+02
     -1.389  0.5282E+01  0.4623E+01  0.9166E+02  0.9161E+02
     -1.330  0.6708E+01  0.5825E+01  0.9206E+02  0.9195E+02
     -1.270  0.4631E+01  0.6235E+01  0.9233E+02  0.9232E+02
     -1.211  0.9316E+01  0.3585E+01  0.9289E+02  0.9254E+02
     -1.152  0.7661E+01  0.1340E+02  0.9334E+02  0.9333E+02
     -1.092  0.1475E+02  0.1240E+02  0.9422E+02  0.9407E+02
     -1.033  0.1632E+02  0.1401E+02  0.9519E+02  0.9490E+02
     -0.973  0.2255E+02  0.2072E+02  0.9653E+02  0.9613E+02
     -0.914  0.1823E+02  0.2370E+02  0.9761E+02  0.9754E+02
     -0.855  0.6842E+01  0.3105E+01  0.9802E+02  0.9773E+02
     -0.795  0.2308E+02  0.2210E+02  0.9939E+02  0.9904E+02
     -0.736  0.2649E+02  0.2111E+02  0.1010E+03  0.1003E+03
     -0.676  0.1100E+02  0.1679E+02  0.1016E+03  0.1013E+03
     -0.617  0.2455E+02  0.2358E+02  0.1031E+03  0.1027E+03
     -0.557  0.1738E+02  0.1804E+02  0.1041E+03  0.1038E+03
     -0.498  0.2422E+02  0.2398E+02  0.1055E+03  0.1052E+03
     -0.439  0.2463E+02  0.2159E+02  0.1070E+03  0.1065E+03
     -0.379  0.2842E+02  0.2909E+02  0.1087E+03  0.1082E+03
     -0.320  0.3520E+02  0.3687E+02  0.1108E+03  0.1104E+03
     -0.260  0.2625E+02  0.1880E+02  0.1124E+03  0.1115E+03
     -0.201  0.2098E+02  0.2924E+02  0.1136E+03  0.1132E+03
     -0.142  0.2520E+02  0.2541E+02  0.1151E+03  0.1148E+03
     -0.082  0.2651E+02  0.2106E+02  0.1167E+03  0.1160E+03
     -0.023  0.2200E+02  0.2698E+02  0.1180E+03  0.1176E+03
      0.037  0.2284E+02  0.1899E+02  0.1193E+03  0.1187E+03
      0.096  0.3064E+02  0.2779E+02  0.1212E+03  0.1204E+03
      0.156  0.1869E+02  0.2744E+02  0.1223E+03  0.1220E+03
      0.215  0.2070E+02  0.1641E+02  0.1235E+03  0.1230E+03
      0.274  0.2105E+02  0.2623E+02  0.1247E+03  0.1246E+03
      0.334  0.2266E+02  0.1857E+02  0.1261E+03  0.1257E+03
      0.393  0.2442E+02  0.2570E+02  0.1275E+03  0.1272E+03
      0.453  0.1929E+02  0.2259E+02  0.1287E+03  0.1285E+03
      0.512  0.3047E+02  0.2163E+02  0.1305E+03  0.1298E+03
      0.571  0.2761E+02  0.3289E+02  0.1321E+03  0.1318E+03
      0.631  0.2854E+02  0.2845E+02  0.1338E+03  0.1335E+03
      0.690  0.3284E+02  0.2545E+02  0.1358E+03  0.1350E+03
      0.750  0.2478E+02  0.3435E+02  0.1373E+03  0.1370E+03
      0.809  0.2696E+02  0.2552E+02  0.1389E+03  0.1385E+03
      0.868  0.3141E+02  0.2962E+02  0.1407E+03  0.1403E+03
      0.928  0.2993E+02  0.2581E+02  0.1425E+03  0.1418E+03
      0.987  0.3560E+02  0.3612E+02  0.1446E+03  0.1440E+03
      1.047  0.2112E+02  0.2534E+02  0.1459E+03  0.1455E+03
      1.106  0.3064E+02  0.3112E+02  0.1477E+03  0.1473E+03
      1.166  0.3108E+02  0.3270E+02  0.1495E+03  0.1493E+03
      1.225  0.2593E+02  0.2350E+02  0.1511E+03  0.1507E+03
      1.284  0.1966E+02  0.2357E+02  0.1523E+03  0.1521E+03
      1.344  0.1316E+02  0.1134E+02  0.1530E+03  0.1527E+03
      1.403  0.2620E+02  0.2188E+02  0.1546E+03  0.1540E+03
      1.463  0.2055E+02  0.2515E+02  0.1558E+03  0.1555E+03
      1.522  0.2060E+02  0.1847E+02  0.1570E+03  0.1566E+03
      1.581  0.2085E+02  0.2035E+02  0.1583E+03  0.1578E+03
      1.641  0.1919E+02  0.1886E+02  0.1594E+03  0.1590E+03
      1.700  0.2216E+02  0.2125E+02  0.1607E+03  0.1602E+03
      1.760  0.2614E+02  0.2767E+02  0.1623E+03  0.1619E+03
      1.819  0.1956E+02  0.1709E+02  0.1634E+03  0.1629E+03
      1.879  0.1937E+02  0.2461E+02  0.1646E+03  0.1643E+03
      1.938  0.2123E+02  0.1683E+02  0.1659E+03  0.1653E+03
      1.997  0.2709E+02  0.2119E+02  0.1675E+03  0.1666E+03
      2.057  0.2555E+02  0.3263E+02  0.1690E+03  0.1685E+03
      2.116  0.1650E+02  0.1841E+02  0.1700E+03  0.1696E+03
      2.176  0.3294E+02  0.2379E+02  0.1719E+03  0.1710E+03
      2.235  0.2072E+02  0.2553E+02  0.1732E+03  0.1726E+03
      2.294  0.1978E+02  0.2228E+02  0.1743E+03  0.1739E+03
      2.354  0.1885E+02  0.2005E+02  0.1755E+03  0.1751E+03
      2.413  0.1488E+02  0.1473E+02  0.1763E+03  0.1760E+03
      2.473  0.8360E+01  0.1193E+02  0.1768E+03  0.1767E+03
      2.532  0.2161E+02  0.1434E+02  0.1781E+03  0.1775E+03
      2.591  0.2207E+02  0.1632E+02  0.1794E+03  0.1785E+03
      2.651  0.3025E+02  0.2560E+02  0.1812E+03  0.1800E+03
      2.710  0.2311E+02  0.3209E+02  0.1826E+03  0.1819E+03
      2.770  0.7689E+01  0.1314E+02  0.1831E+03  0.1827E+03
      2.829  0.9828E+01  0.6340E+01  0.1836E+03  0.1831E+03
      2.889  0.1337E+02  0.1826E+02  0.1844E+03  0.1842E+03
      2.948  0.1786E+02  0.1531E+02  0.1855E+03  0.1851E+03
      3.007  0.8800E+01  0.1189E+02  0.1860E+03  0.1858E+03
      3.067  0.1377E+02  0.1024E+02  0.1868E+03  0.1864E+03
      3.126  0.1597E+02  0.1320E+02  0.1878E+03  0.1872E+03
      3.186  0.2077E+02  0.2070E+02  0.1890E+03  0.1884E+03
      3.245  0.1049E+02  0.1681E+02  0.1896E+03  0.1894E+03
      3.304  0.1692E+02  0.8513E+01  0.1906E+03  0.1899E+03
      3.364  0.1762E+02  0.1827E+02  0.1917E+03  0.1910E+03
      3.423  0.2079E+02  0.1607E+02  0.1929E+03  0.1919E+03
      3.483  0.8747E+01  0.2164E+02  0.1934E+03  0.1932E+03
      3.542  0.1014E+02  0.6854E+01  0.1941E+03  0.1936E+03
      3.602  0.1872E+02  0.1578E+02  0.1952E+03  0.1946E+03
      3.661  0.1769E+02  0.1688E+02  0.1962E+03  0.1956E+03
      3.720  0.2027E+02  0.2203E+02  0.1974E+03  0.1969E+03
      3.780  0.1698E+02  0.1725E+02  0.1984E+03  0.1979E+03
      3.839  0.1273E+02  0.1656E+02  0.1992E+03  0.1989E+03
      3.899  0.8876E+01  0.1126E+02  0.1997E+03  0.1996E+03
      3.958  0.1876E+02  0.1263E+02  0.2008E+03  0.2003E+03
      4.017  0.1559E+02  0.2126E+02  0.2018E+03  0.2016E+03
      4.077  0.1341E+02  0.8035E+01  0.2025E+03  0.2020E+03
      4.136  0.1622E+02  0.1818E+02  0.2035E+03  0.2031E+03
      4.196  0.1678E+02  0.1612E+02  0.2045E+03  0.2041E+03
      4.255  0.9982E+01  0.1072E+02  0.2051E+03  0.2047E+03
      4.314  0.1382E+02  0.1265E+02  0.2059E+03  0.2055E+03
      4.374  0.9766E+01  0.1258E+02  0.2065E+03  0.2062E+03
      4.433  0.2222E+02  0.2186E+02  0.2078E+03  0.2075E+03
      4.493  0.7574E+01  0.9159E+01  0.2083E+03  0.2081E+03
      4.552  0.1349E+02  0.1048E+02  0.2091E+03  0.2087E+03
      4.612  0.1360E+02  0.1576E+02  0.2099E+03  0.2096E+03
      4.671  0.2069E+02  0.1669E+02  0.2111E+03  0.2106E+03
      4.730  0.2274E+02  0.2293E+02  0.2125E+03  0.2120E+03
      4.790  0.1498E+02  0.1649E+02  0.2134E+03  0.2130E+03
      4.849  0.1117E+02  0.1293E+02  0.2140E+03  0.2137E+03
      4.909  0.3236E+02  0.2958E+02  0.2159E+03  0.2155E+03
      4.968  0.1600E+02  0.1961E+02  0.2169E+03  0.2166E+03
      5.027  0.1349E+02  0.1182E+02  0.2177E+03  0.2174E+03
      5.087  0.2496E+02  0.1920E+02  0.2192E+03  0.2185E+03
      5.146  0.2023E+02  0.2857E+02  0.2204E+03  0.2202E+03
      5.206  0.2817E+02  0.2131E+02  0.2221E+03  0.2215E+03
      5.265  0.2995E+02  0.2852E+02  0.2238E+03  0.2232E+03
      5.325  0.2097E+02  0.2727E+02  0.2251E+03  0.2248E+03
      5.384  0.2215E+02  0.1663E+02  0.2264E+03  0.2258E+03
      5.443  0.1346E+02  0.2261E+02  0.2272E+03  0.2271E+03
      5.503  0.2694E+02  0.1958E+02  0.2288E+03  0.2283E+03
      5.562  0.2246E+02  0.2322E+02  0.2301E+03  0.2296E+03
      5.622  0.1722E+02  0.1947E+02  0.2311E+03  0.2308E+03
      5.681  0.7660E+01  0.1266E+02  0.2316E+03  0.2316E+03
      5.740  0.4345E+01  0.2384E+01  0.2319E+03  0.2317E+03
      5.800  0.1146E+01  0.3242E+01  0.2319E+03  0.2319E+03
      5.859  0.1156E+01  0.1868E+01  0.2320E+03  0.2320E+03
      5.919  0.0000E+00  0.0000E+00  0.2320E+03  0.2320E+03
      5.978  0.0000E+00  0.0000E+00  0.2320E+03  0.2320E+03
      6.038  0.0000E+00  0.0000E+00  0.2320E+03  0.2320E+03
      6.097  0.0000E+00  0.0000E+00  0.2320E+03  0.2320E+03
      6.156  0.0000E+00  0.0000E+00  0.2320E+03  0.2320E+03
      6.216  0.0000E+00  0.0000E+00  0.2320E+03  0.2320E+03
      6.275  0.0000E+00  0.0000E+00  0.2320E+03  0.2320E+03
      6.335  0.0000E+00  0.0000E+00  0.2320E+03  0.2320E+03
      6.394  0.0000E+00  0.0000E+00  0.2320E+03  0.2320E+03
      6.453  0.0000E+00  0.0000E+00  0.2320E+03  0.2320E+03
      6.513  0.0000E+00  0.0000E+00  0.2320E+03  0.2320E+03
      6.572  0.0000E+00  0.0000E+00  0.2320E+03  0.2320E+03
      6.632  0.0000E+00  0.0000E+00  0.2320E+03  0.2320E+03
