 vasp.6.4.3 19Mar24 (build Oct 22 2024 11:23:12) complex                        
  
 executed on             LinuxIFC date 2025.06.03  23:19:29
 running   64 mpi-ranks, on    4 nodes
 distrk:  each k-point on   64 cores,    1 groups
 distr:  one band on NCORE=  16 cores,    4 groups


--------------------------------------------------------------------------------------------------------


 INCAR:
   SYSTEM = Si and Ge interface calculation
   ISTART = 0
   ICHARG = 2
   LWAVE = .FALSE.
   LREAL = AUTO
   ENCUT = 700
   ENAUG = 900
   ADDGRID = .TRUE.
   LMAXMIX = 6
   LASPH = .TRUE.
   LMIXTAU = .TRUE.
   NCORE = 16
   NELM = 100
   NBANDS = 116
   EDIFF = 1d-7
   AMIX = 0.6
   ISMEAR = 0
   SIGMA = 0.01
   NELECT = 192
   ISPIN = 2
   NUPDOWN = 1
   LVTOT = .FALSE.
   LVHAR = .TRUE.

 POTCAR:    PAW_PBE Ge 05Jan2001                  
 -----------------------------------------------------------------------------
|                                                                             |
|           W    W    AA    RRRRR   N    N  II  N    N   GGGG   !!!           |
|           W    W   A  A   R    R  NN   N  II  NN   N  G    G  !!!           |
|           W    W  A    A  R    R  N N  N  II  N N  N  G       !!!           |
|           W WW W  AAAAAA  RRRRR   N  N N  II  N  N N  G  GGG   !            |
|           WW  WW  A    A  R   R   N   NN  II  N   NN  G    G                |
|           W    W  A    A  R    R  N    N  II  N    N   GGGG   !!!           |
|                                                                             |
|     You use a magnetic or noncollinear calculation, but did not specify     |
|     the initial magnetic moment with the MAGMOM tag. Note that a            |
|     default of 0.021 will be used for all atoms. This ferromagnetic         |
|     setup may break the symmetry of the crystal, in particular it may       |
|     rule out finding an antiferromagnetic solution. Thence, we              |
|     recommend setting the initial magnetic moment manually or verifying     |
|     carefully that this magnetic setup is desired.                          |
|                                                                             |
 -----------------------------------------------------------------------------

 POTCAR:    PAW_PBE Ge 05Jan2001                  
   VRHFIN =Ge: s2p2                                                                                 
   LEXCH  = PE                                                                                      
   EATOM  =   104.9960 eV,    7.7170 Ry                                                             
                                                                                                    
   TITEL  = PAW_PBE Ge 05Jan2001                                                                    
   LULTRA =        F    use ultrasoft PP ?                                                          
   IUNSCR =        1    unscreen: 0-lin 1-nonlin 2-no                                               
   RPACOR =    2.170    partial core radius                                                         
   POMASS =   72.610; ZVAL   =    4.000    mass and valenz                                          
   RCORE  =    2.300    outmost cutoff radius                                                       
   RWIGS  =    2.300; RWIGS  =    1.217    wigner-seitz radius (au A)                               
   ENMAX  =  173.807; ENMIN  =  130.355 eV                                                          
   ICORE  =        3    local potential                                                             
   LCOR   =        T    correct aug charges                                                         
   LPAW   =        T    paw PP                                                                      
   EAUG   =  385.843                                                                                
   DEXC   =    0.000                                                                                
   RMAX   =    2.342    core radius for proj-oper                                                   
   RAUG   =    1.300    factor for augmentation sphere                                              
   RDEP   =    2.318    radius for radial grids                                                     
   RDEPT  =    2.103    core radius for aug-charge                                                  
                                                                                                    
   Atomic configuration                                                                             
   10 entries                                                                                       
     n  l   j            E        occ.                                                              
     1  0  0.50    -10959.8463   2.0000                                                             
     2  0  0.50     -1371.6056   2.0000                                                             
     2  1  1.50     -1198.4791   6.0000                                                             
     3  0  0.50      -168.4733   2.0000                                                             
     3  1  1.50      -115.6019   6.0000                                                             
     3  2  2.50       -29.3106  10.0000                                                             
     4  0  0.50       -11.7309   2.0000                                                             
     4  1  0.50        -3.8952   2.0000                                                             
     4  2  1.50        -4.0817   0.0000                                                             
     4  3  2.50        -4.0817   0.0000                                                             
   Description                                                                                      
     l       E           TYP  RCUT    TYP  RCUT                                                     
     0    -11.7309493     23  2.300                                                                 
     0     -7.4578696     23  2.300                                                                 
     1     -3.8952261     23  2.300                                                                 
     1      6.1178114     23  2.300                                                                 
     2     -4.0817478     23  2.300                                                                 
     3     -1.3605826      7  2.300                                                                 
  local pseudopotential read in
  partial core-charges read in
  partial kinetic energy density read in
  atomic valenz-charges read in
  non local Contribution for L=           0  read in
    real space projection operators read in
  non local Contribution for L=           0  read in
    real space projection operators read in
  non local Contribution for L=           1  read in
    real space projection operators read in
  non local Contribution for L=           1  read in
    real space projection operators read in
  non local Contribution for L=           2  read in
    real space projection operators read in
    PAW grid and wavefunctions read in
 
   number of l-projection  operators is LMAX  =           5
   number of lm-projection operators is LMMAX =          13
 
 Optimization of the real space projectors (new method)

 maximal supplied QI-value         = 16.25
 optimisation between [QCUT,QGAM] = [ 13.49, 26.98] = [ 50.95,203.80] Ry 
 Optimized for a Real-space Cutoff    1.25 Angstroem

   l    n(q)    QCUT    max X(q) W(low)/X(q) W(high)/X(q)  e(spline) 
   0     10    13.489    65.336    0.91E-04    0.11E-03    0.34E-06
   0     10    13.489    52.220    0.89E-04    0.11E-03    0.34E-06
   1     10    13.489    36.409    0.22E-03    0.27E-03    0.14E-06
   1     10    13.489    21.334    0.21E-03    0.27E-03    0.14E-06
   2      9    13.489     4.673    0.11E-03    0.12E-03    0.19E-06
  PAW_PBE Ge 05Jan2001                  :
 energy of atom  1       EATOM= -104.9960
 kinetic energy error for atom=    0.0001 (will be added to EATOM!!)
 
 
 POSCAR: Ge+Ge
  positions in direct lattice
  No initial velocities read in


 exchange-correlation table for PE
   RHO(1)=    0.500       N(1)  =     2000
   RHO(2)=  100.500       N(2)  =     4000
 


--------------------------------------------------------------------------------------------------------


 ion  position               nearest neighbor table
   1  0.661  0.661  0.000-  45 2.12  10 2.45  28 2.45  39 2.53  48 2.62
   2  0.494  0.494  0.244-  10 2.45  31 2.45  11 2.45  29 2.45
   3  0.328  0.328  0.487-  32 2.45  11 2.45  12 2.45  30 2.45
   4  0.328  0.328  0.000-  16 2.45  31 2.45  42 2.58
   5  0.161  0.161  0.244-  32 2.45  34 2.45  17 2.45  16 2.45
   6  0.994  0.994  0.487-  35 2.45  17 2.45  33 2.45  18 2.45  37 2.62
   7  0.994  0.994  0.000-  47 2.43  34 2.45  13 2.45
   8  0.828  0.828  0.244-  13 2.45  35 2.45  14 2.45  28 2.45
   9  0.661  0.661  0.487-  14 2.45  36 2.45  15 2.45  29 2.45
  10  0.411  0.661  0.122-  22 2.45   2 2.45   1 2.45  26 2.45  45 2.60
  11  0.244  0.494  0.365-  23 2.45   3 2.45   2 2.45  27 2.45
  12  0.078  0.328  0.609-  24 2.45   3 2.45  46 2.53
  13  0.744  0.994  0.122-   8 2.45   7 2.45  20 2.45  25 2.45
  14  0.578  0.828  0.365-  21 2.45  26 2.45   9 2.45   8 2.45
  15  0.411  0.661  0.609-  27 2.45   9 2.45  41 2.47
  16  0.078  0.328  0.122-   4 2.45  23 2.45   5 2.45  19 2.45
  17  0.911  0.161  0.365-  24 2.45   6 2.45   5 2.45  20 2.45
  18  0.744  0.994  0.609-  40 2.14   6 2.45  21 2.45  43 2.58  37 2.64
  19  0.828  0.328  0.000-  31 2.45  16 2.45  39 2.58
  20  0.661  0.161  0.244-  31 2.45  13 2.45  17 2.45  32 2.45
  21  0.494  0.994  0.487-  14 2.45  32 2.45  18 2.45  33 2.45  40 2.62
  22  0.161  0.661  0.000-  48 2.12  10 2.45  28 2.45  42 2.53  45 2.62
  23  0.994  0.494  0.244-  28 2.45  11 2.45  16 2.45  29 2.45
  24  0.828  0.328  0.487-  12 2.45  17 2.45  29 2.45  30 2.45
  25  0.494  0.994  0.000-  44 2.43  34 2.45  13 2.45
  26  0.328  0.828  0.244-  34 2.45  14 2.45  35 2.45  10 2.45
  27  0.161  0.661  0.487-  15 2.45  36 2.45  11 2.45  35 2.45
  28  0.911  0.661  0.122-  23 2.45  22 2.45   1 2.45   8 2.45  48 2.60
  29  0.744  0.494  0.365-  24 2.45  23 2.45   2 2.45   9 2.45
  30  0.578  0.328  0.609-  24 2.45   3 2.45  43 2.53
  31  0.578  0.328  0.122-   2 2.45  19 2.45  20 2.45   4 2.45
  32  0.411  0.161  0.365-   3 2.45   5 2.45  21 2.45  20 2.45
  33  0.244  0.994  0.609-  37 2.14   6 2.45  21 2.45  46 2.58  40 2.64
  34  0.244  0.994  0.122-  26 2.45  25 2.45   5 2.45   7 2.45
  35  0.078  0.828  0.365-   6 2.45   8 2.45  26 2.45  27 2.45
  36  0.911  0.661  0.609-   9 2.45  27 2.45  38 2.47
  37  0.002  0.053  0.703-  33 2.14  46 2.45  43 2.45  47 2.45   6 2.62  18 2.64
  38  0.891  0.775  0.784-  47 2.45  44 2.45  48 2.45  36 2.47
  39  0.780  0.497  0.865-  48 2.45  45 2.45   1 2.53  19 2.58
  40  0.502  0.053  0.703-  18 2.14  43 2.45  46 2.45  44 2.45  21 2.62  33 2.64
  41  0.391  0.775  0.784-  44 2.45  47 2.45  45 2.45  15 2.47
  42  0.280  0.497  0.865-  45 2.45  48 2.45  22 2.53   4 2.58
  43  0.696  0.164  0.744-  40 2.45  37 2.45  30 2.53  18 2.58
  44  0.585  0.886  0.825-  25 2.43  41 2.45  38 2.45  40 2.45
  45  0.474  0.608  0.906-   1 2.12  42 2.45  39 2.45  41 2.45  10 2.60  22 2.62
  46  0.196  0.164  0.744-  37 2.45  40 2.45  12 2.53  33 2.58
  47  0.085  0.886  0.825-   7 2.43  38 2.45  41 2.45  37 2.45
  48  0.974  0.608  0.906-  22 2.12  39 2.45  42 2.45  38 2.45  28 2.60   1 2.62
 
  LATTYP: Found a base centered orthorhombic cell.
 ALAT       =     8.0013380050
 B/A-ratio  =     2.9999998809
 C/A-ratio  =     1.4512252725
  
  Lattice vectors:
  
 A1 = (   4.0006690020, -12.0020065310,   0.0000000000)
 A2 = (   4.0006690030,  12.0020065310,   0.0000000000)
 A3 = (   0.0000000000,   0.0000000000,  11.6117439270)


Analysis of symmetry for initial positions (statically):
=====================================================================
 Subroutine PRICEL returns following result:
 
  LATTYP: Found a simple orthorhombic cell.
 ALAT       =     4.0006685304
 B/A-ratio  =     2.9024508876
 C/A-ratio  =     3.0000002349
  
  Lattice vectors:
  
 A1 = (  -4.0006685304,   0.0000000000,   0.0000000000)
 A2 = (   0.0000000000,   0.0000000000,  11.6117439270)
 A3 = (   0.0000004726,  12.0020065310,   0.0000000000)
 
   2 primitive cells build up your supercell.
 

 Routine SETGRP: Setting up the symmetry group for a 
 base centered orthorhombic supercell.


 Subroutine GETGRP returns: Found  1 space group operations
 (whereof  1 operations were pure point group operations)
 out of a pool of  8 trial point group operations.


The static configuration has the point symmetry C_1 .


Analysis of symmetry for dynamics (positions and initial velocities):
=====================================================================
 Subroutine PRICEL returns following result:
 
  LATTYP: Found a simple orthorhombic cell.
 ALAT       =     4.0006685304
 B/A-ratio  =     2.9024508876
 C/A-ratio  =     3.0000002349
  
  Lattice vectors:
  
 A1 = (  -4.0006685304,   0.0000000000,   0.0000000000)
 A2 = (   0.0000000000,   0.0000000000,  11.6117439270)
 A3 = (   0.0000004726,  12.0020065310,   0.0000000000)
 
   2 primitive cells build up your supercell.
 

 Routine SETGRP: Setting up the symmetry group for a 
 base centered orthorhombic supercell.


 Subroutine GETGRP returns: Found  1 space group operations
 (whereof  1 operations were pure point group operations)
 out of a pool of  8 trial point group operations.


The dynamic configuration has the point symmetry C_1 .


Analysis of structural, dynamic, and magnetic symmetry:
=====================================================================
 Subroutine PRICEL returns following result:
 
  LATTYP: Found a simple orthorhombic cell.
 ALAT       =     4.0006685304
 B/A-ratio  =     2.9024508876
 C/A-ratio  =     3.0000002349
  
  Lattice vectors:
  
 A1 = (  -4.0006685304,   0.0000000000,   0.0000000000)
 A2 = (   0.0000000000,   0.0000000000,  11.6117439270)
 A3 = (   0.0000004726,  12.0020065310,   0.0000000000)
 
   2 primitive cells build up your supercell.
 

 Routine SETGRP: Setting up the symmetry group for a 
 base centered orthorhombic supercell.


 Subroutine GETGRP returns: Found  1 space group operations
 (whereof  1 operations were pure point group operations)
 out of a pool of  8 trial point group operations.


The overall configuration has the point symmetry C_1 .


 Subroutine INISYM returns: Found  1 space group operations
 (whereof  1 operations are pure point group operations),
 and found     2 'primitive' translations


----------------------------------------------------------------------------------------

                                     Primitive cell                                     

  volume of cell :     557.5501

  direct lattice vectors                    reciprocal lattice vectors
    -4.000668530  0.000000000  0.000000000    -0.249958224  0.000000010  0.000000000
     0.000000000  0.000000000 11.611743927     0.000000000  0.000000000  0.086119708
     0.000000473 12.002006531  0.000000000     0.000000000  0.083319401  0.000000000

  length of vectors
     4.000668530 11.611743927 12.002006531     0.249958224  0.086119708  0.083319401

  position of ions in fractional coordinates (direct lattice)
     0.017083490  0.000000000  0.660972118
     0.517083677  0.243624032  0.494305462
     0.017083540  0.487248093  0.327638775
     0.017083480  0.000000000  0.327638835
     0.517083548  0.243624032  0.160972178
     0.017083766  0.487248093  0.994305491
     0.017083528  0.000000000  0.994305491
     0.517083330  0.243624032  0.827638865
     0.017083668  0.487248093  0.660972178
     0.517083666  0.121812016  0.660972059
     0.017083440  0.365436077  0.494305402
     0.517083658  0.609060168  0.327638716
     0.517083351  0.121812016  0.994305491
     0.017083627  0.365436077  0.827638865
     0.517083669  0.609060168  0.660972118
     0.517083419  0.121812016  0.327638835
     0.017083401  0.365436077  0.160972148
     0.517083648  0.609060168  0.994305432
     0.943086983  0.703019977  0.052827001
     0.443086950  0.784228027  0.775049150
     0.943087155  0.865436077  0.497271299
     0.443087086  0.743624032  0.163938016
     0.943087261  0.824832082  0.886160195
     0.443087466  0.906040132  0.608382344

  ion indices of the primitive-cell ions
   primitive index   ion index
                 1           1
                 2           2
                 3          24
                 4          19
                 5          20
                 6          21
                 7          25
                 8           8
                 9           9
                10          10
                11          29
                12          30
                13          13
                14          14
                15          36
                16          31
                17          17
                18          18
                19          40
                20          38
                21          39
                22          43
                23          44
                24          45

----------------------------------------------------------------------------------------

 
 
 KPOINTS: Automatic KPOINTS generated             

Automatic generation of k-mesh.
 Grid dimensions read from file:
 generate k-points for:    4    3    3

 Generating k-lattice:

  Cartesian coordinates                     Fractional coordinates (reciprocal lattice)
     0.031244774 -0.010414925  0.000000000     0.250000000  0.000000000  0.000000000
     0.000000000  0.027773134  0.000000000     0.000000000  0.333333333  0.000000000
     0.000000000  0.000000000  0.028706569     0.000000000  0.000000000  0.333333333

  Length of vectors
     0.032934884  0.027773134  0.028706569

  Shift w.r.t. Gamma in fractional coordinates (k-lattice)
     0.000000000  0.000000000  0.000000000

 -----------------------------------------------------------------------------
|                                                                             |
|           W    W    AA    RRRRR   N    N  II  N    N   GGGG   !!!           |
|           W    W   A  A   R    R  NN   N  II  NN   N  G    G  !!!           |
|           W    W  A    A  R    R  N N  N  II  N N  N  G       !!!           |
|           W WW W  AAAAAA  RRRRR   N  N N  II  N  N N  G  GGG   !            |
|           WW  WW  A    A  R   R   N   NN  II  N   NN  G    G                |
|           W    W  A    A  R    R  N    N  II  N    N   GGGG   !!!           |
|                                                                             |
|     Your reciprocal lattice and k-lattice belong to different lattice       |
|     classes:                                                                |
|                                                                             |
|        The reciprocal lattice is base centered orthorhombic,                |
|        whereas your k-lattice is simple monoclinic.                         |
|                                                                             |
|     Results are often still useful ...                                      |
|                                                                             |
 -----------------------------------------------------------------------------

 WARNING: IBZKPT: internal override: KBLOWUP is changed to .FALSE.
      ... skipping the blow-up phase ...

 
 Subroutine IBZKPT returns following result:
 ===========================================
 
 Found     19 irreducible k-points:
 
 Following reciprocal coordinates:
            Coordinates               Weight
  0.000000  0.000000  0.000000      1.000000
  0.250000  0.000000  0.000000      2.000000
  0.500000  0.000000  0.000000      1.000000
  0.000000  0.333333  0.000000      2.000000
  0.250000  0.333333  0.000000      2.000000
  0.500000  0.333333  0.000000      2.000000
 -0.250000  0.333333  0.000000      2.000000
  0.000000  0.000000  0.333333      2.000000
  0.250000  0.000000  0.333333      2.000000
  0.500000  0.000000  0.333333      2.000000
 -0.250000 -0.000000  0.333333      2.000000
  0.000000  0.333333  0.333333      2.000000
  0.250000  0.333333  0.333333      2.000000
  0.500000  0.333333  0.333333      2.000000
 -0.250000  0.333333  0.333333      2.000000
  0.000000 -0.333333  0.333333      2.000000
  0.250000 -0.333333  0.333333      2.000000
  0.500000 -0.333333  0.333333      2.000000
 -0.250000 -0.333333  0.333333      2.000000
 
 Following cartesian coordinates:
            Coordinates               Weight
  0.000000  0.000000  0.000000      1.000000
  0.031245 -0.010415  0.000000      2.000000
  0.062490 -0.020830  0.000000      1.000000
  0.000000  0.027773  0.000000      2.000000
  0.031245  0.017358  0.000000      2.000000
  0.062490  0.006943  0.000000      2.000000
 -0.031245  0.038188  0.000000      2.000000
  0.000000  0.000000  0.028707      2.000000
  0.031245 -0.010415  0.028707      2.000000
  0.062490 -0.020830  0.028707      2.000000
 -0.031245  0.010415  0.028707      2.000000
  0.000000  0.027773  0.028707      2.000000
  0.031245  0.017358  0.028707      2.000000
  0.062490  0.006943  0.028707      2.000000
 -0.031245  0.038188  0.028707      2.000000
  0.000000 -0.027773  0.028707      2.000000
  0.031245 -0.038188  0.028707      2.000000
  0.062490 -0.048603  0.028707      2.000000
 -0.031245 -0.017358  0.028707      2.000000
 


--------------------------------------------------------------------------------------------------------




 Dimension of arrays:
   k-points           NKPTS =     19   k-points in BZ     NKDIM =     19   number of bands    NBANDS=    116
   number of dos      NEDOS =    301   number of ions     NIONS =     48
   non local maximal  LDIM  =      5   non local SUM 2l+1 LMDIM =     13
   total plane-waves  NPLWV = 362880
   max r-space proj   IRMAX =   2687   max aug-charges    IRDMAX= 141678
   dimension x,y,z NGX =    54 NGY =   84 NGZ =   80
   dimension x,y,z NGXF=   108 NGYF=  168 NGZF=  160
   support grid    NGXF=   216 NGYF=  336 NGZF=  320
   ions per type =              48
   NGX,Y,Z   is equivalent  to a cutoff of  11.22, 11.04, 11.45 a.u.
   NGXF,Y,Z  is equivalent  to a cutoff of  22.44, 22.08, 22.91 a.u.

 SYSTEM =  Si and Ge interface calculation         
 POSCAR =  Ge+Ge                                   

 Startparameter for this run:
   NWRITE =      2    write-flag & timer
   PREC   = normal    normal or accurate (medium, high low for compatibility)
   ISTART =      0    job   : 0-new  1-cont  2-samecut
   ICHARG =      2    charge: 1-file 2-atom 10-const
   ISPIN  =      2    spin polarized calculation?
   LNONCOLLINEAR =      F non collinear calculations
   LSORBIT =      F    spin-orbit coupling
   INIWAV =      1    electr: 0-lowe 1-rand  2-diag
   LASPH  =      T    aspherical Exc in radial PAW
 Electronic Relaxation 1
   ENCUT  =  700.0 eV  51.45 Ry    7.17 a.u.  17.26 27.29 25.05*2*pi/ulx,y,z
   ENINI  =  700.0     initial cutoff
   ENAUG  =  900.0 eV  augmentation charge cutoff
   NELM   =    100;   NELMIN=  2; NELMDL= -5     # of ELM steps 
   EDIFF  = 0.1E-06   stopping-criterion for ELM
   LREAL  =      T    real-space projection
   NLSPLINE    = F    spline interpolate recip. space projectors
   LCOMPAT=      F    compatible to vasp.4.4
   GGA_COMPAT  = T    GGA compatible to vasp.4.4-vasp.4.6
   LMAXPAW     = -100 max onsite density
   LMAXMIX     =    6 max onsite mixed and CHGCAR
   VOSKOWN=      0    Vosko Wilk Nusair interpolation
   ROPT   =   -0.00050
 Ionic relaxation
   EDIFFG = 0.1E-05   stopping-criterion for IOM
   NSW    =      0    number of steps for IOM
   NBLOCK =      1;   KBLOCK =      1    inner block; outer block 
   IBRION =     -1    ionic relax: 0-MD 1-quasi-New 2-CG
   NFREE  =      0    steps in history (QN), initial steepest desc. (CG)
   ISIF   =      2    stress and relaxation
   IWAVPR =     10    prediction:  0-non 1-charg 2-wave 3-comb
   ISYM   =      2    0-nonsym 1-usesym 2-fastsym
   LCORR  =      T    Harris-Foulkes like correction to forces

   POTIM  = 0.5000    time-step for ionic-motion
   TEIN   =    0.0    initial temperature
   TEBEG  =    0.0;   TEEND  =   0.0 temperature during run
   SMASS  =  -3.00    Nose mass-parameter (am)
   estimated Nose-frequenzy (Omega)   =  0.10E-29 period in steps = 0.13E+47 mass=  -0.146E-26a.u.
   SCALEE = 1.0000    scale energy and forces
   NPACO  =    256;   APACO  = 10.0  distance and # of slots for P.C.
   PSTRESS=    0.0 pullay stress

  Mass of Ions in am
   POMASS =  72.61
  Ionic Valenz
   ZVAL   =   4.00
  Atomic Wigner-Seitz radii
   RWIGS  =  -1.00
  virtual crystal weights 
   VCA    =   1.00
   NELECT =     192.0000    total number of electrons
   NUPDOWN=       1.0000    fix difference up-down

 DOS related values:
   EMIN   =  10.00;   EMAX   =-10.00  energy-range for DOS
   EFERMI =   0.00;   METHOD = LEGACY      
   ISMEAR =     0;   SIGMA  =   0.01  broadening in eV -4-tet -1-fermi 0-gaus

 Electronic relaxation 2 (details)
   IALGO  =     38    algorithm
   LDIAG  =      T    sub-space diagonalisation (order eigenvalues)
   LSUBROT=      F    optimize rotation matrix (better conditioning)
   TURBO    =      0    0=normal 1=particle mesh
   IRESTART =      0    0=no restart 2=restart with 2 vectors
   NREBOOT  =      0    no. of reboots
   NMIN     =      0    reboot dimension
   EREF     =   0.00    reference energy to select bands
   IMIX   =      4    mixing-type and parameters
     AMIX     =   0.60;   BMIX     =  1.00
     AMIX_MAG =   2.40;   BMIX_MAG =  1.00
     AMIN     =   0.10
     WC   =   100.;   INIMIX=   1;  MIXPRE=   1;  MAXMIX= -45

 Intra band minimization:
   WEIMIN = 0.0000     energy-eigenvalue tresh-hold
   EBREAK =  0.22E-09  absolut break condition
   DEPER  =   0.30     relativ break condition  

   TIME   =   0.40     timestep for ELM

  volume/ion in A,a.u.               =      23.23       156.77
  Fermi-wavevector in a.u.,A,eV,Ry     =   0.910760  1.721087 11.285811  0.829484
  Thomas-Fermi vector in A             =   2.034960
 
 Write flags
   LWAVE        =      F    write WAVECAR
   LDOWNSAMPLE  =      F    k-point downsampling of WAVECAR
   LCHARG       =      T    write CHGCAR
   LVTOT        =      F    write LOCPOT, total local potential
   LVHAR        =      T    write LOCPOT, Hartree potential only
   WRT_POTENTIAL=  hartree ionic  ! write potential to hdf5 file
   LELF         =      F    write electronic localiz. function (ELF)
   LORBIT       =      0    0 simple, 1 ext, 2 COOP (PROOUT), +10 PAW based schemes


 Dipole corrections
   LMONO      =      F    monopole corrections only (constant potential shift)
   LDIPOL     =      F    correct potential (dipole corrections)
   IDIPOL     =      0    1-x, 2-y, 3-z, 4-all directions 
   EPSILON    =  1.0000000 bulk dielectric constant
   LVACPOTAV  =      F  vacuum potentials using an averaging scheme for the charge density
   VACPOTFLAT =  0.1000000 required flatness to determine vacuum potential
 Exchange correlation treatment:
   GGA     = PE    functional components
   XC_C    = 1    coefficients multiplying the functional components
   LIBXC   =     F    Libxc                    
   VOSKOWN =     0    Vosko Wilk Nusair interpolation
   LHFCALC =     F    Hartree Fock is set to
   LHFONE  =     F    Hartree Fock one center treatment
   AEXX    =    0.0000 exact exchange contribution

 Parameters of functionals:
   PE:
     No parameter
 
 Van der Waals corrections
   IVDW    =     0    specifies the selected vdW correction

 Linear response parameters
   LEPSILON=     F    determine dielectric tensor
   LRPA    =     F    only Hartree local field effects (RPA)
   LNABLA  =     F    use nabla operator in PAW spheres
   LVEL    =     F    velocity operator in full k-point grid
   CSHIFT  =0.1000    complex shift for real part using Kramers Kronig
   OMEGAMAX=  -1.0    maximum frequency
   DEG_THRESHOLD= 0.2000000E-02 threshold for treating states as degnerate
   RTIME   =   -0.100 relaxation time in fs
  (WPLASMAI=    0.000 imaginary part of plasma frequency in eV, 0.658/RTIME)
   DFIELD  = 0.0000000 0.0000000 0.0000000 field for delta impulse in time
 
  Optional k-point grid parameters
   LKPOINTS_OPT  =     F    use optional k-point grid
   KPOINTS_OPT_MODE=     1    mode for optional k-point grid
 
 Orbital magnetization related:
   ORBITALMAG=     F  switch on orbital magnetization
   LCHIMAG   =     F  perturbation theory with respect to B field
   DQ        =  0.001000  dq finite difference perturbation B field
   LLRAUG    =     F  two centre corrections for induced B field
   LBONE     =     F  B-component reconstruction in AE one-centre
   LVGVCALC  =     T  calculate vGv susceptibility
   LVGVAPPL  =     F  apply vGv susceptibility instead of pGv for G=0

 Random number generation:
   RANDOM_GENERATOR = DEFAULT
   PCG_SEED         = not used


--------------------------------------------------------------------------------------------------------


 Static calculation
 charge density and potential will be updated during run
 spin polarized calculation
 Variant of blocked Davidson
 Davidson routine will perform the subspace rotation
 perform sub-space diagonalisation
    after iterative eigenvector-optimisation
 modified Broyden-mixing scheme, WC =      100.0
 initial mixing is a Kerker type mixing with AMIX =  0.6000 and BMIX =      1.0000
 Hartree-type preconditioning will be used
 using additional bands           20
 real space projection scheme for non local part
 use partial core corrections
 calculate Harris-corrections to forces 
   (improved forces if not selfconsistent)
 use gradient corrections 
 use of overlap-Matrix (Vanderbilt PP)
 Gauss-broadening in eV      SIGMA  =   0.01


--------------------------------------------------------------------------------------------------------


  energy-cutoff  :      700.00
  volume of cell :     1115.10
      direct lattice vectors                 reciprocal lattice vectors
     8.001338005  0.000000000  0.000000000     0.124979097 -0.041659701  0.000000000
     4.000669003 12.002006531  0.000000000     0.000000000  0.083319401  0.000000000
     0.000000000  0.000000000 11.611743927     0.000000000  0.000000000  0.086119708

  length of vectors
     8.001338005 12.651225760 11.611743927     0.131739536  0.083319401  0.086119708


 
 k-points in units of 2pi/SCALE and weight: Automatic KPOINTS generated             
   0.00000000  0.00000000  0.00000000       0.028
   0.03124477 -0.01041493  0.00000000       0.056
   0.06248955 -0.02082985  0.00000000       0.028
   0.00000000  0.02777313  0.00000000       0.056
   0.03124477  0.01735821  0.00000000       0.056
   0.06248955  0.00694328  0.00000000       0.056
  -0.03124477  0.03818806  0.00000000       0.056
   0.00000000  0.00000000  0.02870657       0.056
   0.03124477 -0.01041493  0.02870657       0.056
   0.06248955 -0.02082985  0.02870657       0.056
  -0.03124477  0.01041493  0.02870657       0.056
   0.00000000  0.02777313  0.02870657       0.056
   0.03124477  0.01735821  0.02870657       0.056
   0.06248955  0.00694328  0.02870657       0.056
  -0.03124477  0.03818806  0.02870657       0.056
   0.00000000 -0.02777313  0.02870657       0.056
   0.03124477 -0.03818806  0.02870657       0.056
   0.06248955 -0.04860298  0.02870657       0.056
  -0.03124477 -0.01735821  0.02870657       0.056
 
 k-points in reciprocal lattice and weights: Automatic KPOINTS generated             
   0.00000000  0.00000000  0.00000000       0.028
   0.25000000  0.00000000  0.00000000       0.056
   0.50000000  0.00000000  0.00000000       0.028
   0.00000000  0.33333333  0.00000000       0.056
   0.25000000  0.33333333  0.00000000       0.056
   0.50000000  0.33333333  0.00000000       0.056
  -0.25000000  0.33333333  0.00000000       0.056
   0.00000000  0.00000000  0.33333333       0.056
   0.25000000  0.00000000  0.33333333       0.056
   0.50000000  0.00000000  0.33333333       0.056
  -0.25000000 -0.00000000  0.33333333       0.056
   0.00000000  0.33333333  0.33333333       0.056
   0.25000000  0.33333333  0.33333333       0.056
   0.50000000  0.33333333  0.33333333       0.056
  -0.25000000  0.33333333  0.33333333       0.056
   0.00000000 -0.33333333  0.33333333       0.056
   0.25000000 -0.33333333  0.33333333       0.056
   0.50000000 -0.33333333  0.33333333       0.056
  -0.25000000 -0.33333333  0.33333333       0.056
 
 position of ions in fractional coordinates (direct lattice) 
   0.66097212  0.66097212  0.00000000
   0.49430537  0.49430546  0.24362403
   0.32763863  0.32763877  0.48724809
   0.32763880  0.32763880  0.00000000
   0.16097209  0.16097215  0.24362403
   0.99430531  0.99430549  0.48724809
   0.99430549  0.99430549  0.00000000
   0.82763880  0.82763886  0.24362403
   0.66097200  0.66097218  0.48724809
   0.41097209  0.66097206  0.12181202
   0.24430537  0.49430540  0.36543608
   0.07763863  0.32763872  0.60906017
   0.74430549  0.99430549  0.12181202
   0.57763869  0.82763886  0.36543608
   0.41097194  0.66097212  0.60906017
   0.07763884  0.32763884  0.12181202
   0.91097212  0.16097215  0.36543608
   0.74430537  0.99430543  0.60906017
   0.82763875  0.32763884  0.00000000
   0.66097206  0.16097218  0.24362403
   0.49430531  0.99430549  0.48724809
   0.16097221  0.66097212  0.00000000
   0.99430549  0.49430549  0.24362403
   0.82763875  0.32763877  0.48724809
   0.49430543  0.99430549  0.00000000
   0.32763872  0.82763886  0.24362403
   0.16097200  0.66097212  0.48724809
   0.91097230  0.66097206  0.12181202
   0.74430549  0.49430540  0.36543608
   0.57763875  0.32763872  0.60906017
   0.57763880  0.32763884  0.12181202
   0.41097203  0.16097215  0.36543608
   0.24430528  0.99430543  0.60906017
   0.24430548  0.99430549  0.12181202
   0.07763872  0.82763886  0.36543608
   0.91097200  0.66097212  0.60906017
   0.00204301  0.05282700  0.70301998
   0.89093184  0.77504915  0.78422803
   0.77982068  0.49727130  0.86543608
   0.50204295  0.05282700  0.70301998
   0.39093182  0.77504909  0.78422803
   0.27982068  0.49727130  0.86543608
   0.69648737  0.16393802  0.74362403
   0.58537620  0.88616020  0.82483208
   0.47426504  0.60838234  0.90604013
   0.19648738  0.16393802  0.74362403
   0.08537624  0.88616020  0.82483208
   0.97426510  0.60838228  0.90604013
 
 position of ions in cartesian coordinates  (Angst):
   7.93299199  7.93299168  0.00000000
   5.93265690  5.93265738  2.82889987
   3.93232168  3.93232272  5.65780008
   3.93232323  3.93232308  0.00000000
   1.93198838  1.93198877  2.82889987
  11.93366005 11.93366100  5.65780008
  11.93366147 11.93366100  0.00000000
   9.93332698  9.93332706  2.82889987
   7.93299128  7.93299240  5.65780008
   5.93265702  7.93299097  1.41444994
   3.93232216  5.93265666  4.24335015
   1.93198694  3.93232201  7.07225071
   9.93332697 11.93366100  1.41444994
   7.93299152  9.93332706  4.24335015
   5.93265607  7.93299168  7.07225071
   1.93198915  3.93232344  1.41444994
   7.93299211  1.93198877  4.24335015
   9.93332578 11.93366029  7.07225071
   7.93299188  3.93232344  0.00000000
   5.93265726  1.93198913  2.82889987
   7.93299104 11.93366100  5.65780008
   3.93232371  7.93299168  0.00000000
   9.93332697  5.93265773  2.82889987
   7.93299164  3.93232272  5.65780008
   7.93299200 11.93366100  0.00000000
   5.93265726  9.93332706  2.82889987
   3.93232204  7.93299168  5.65780008
   9.93332769  7.93299097  1.41444994
   7.93299211  5.93265666  4.24335015
   5.93265690  3.93232201  7.07225071
   5.93265785  3.93232344  1.41444994
   3.93232240  1.93198877  4.24335015
   5.93265607 11.93366029  7.07225071
   5.93265786 11.93366100  1.41444994
   3.93232282  9.93332706  4.24335015
   9.93332554  7.93299168  7.07225071
   0.22769015  0.63403001  8.16328795
  10.22936194  9.30214496  9.10625503
   8.22902672  5.96825338 10.04922211
   4.22835867  0.63403001  8.16328795
   6.22869246  9.30214424  9.10625503
   4.22835772  5.96825338 10.04922211
   6.22869258  1.96758514  8.63477184
   8.22902648 10.63570045  9.57773892
   6.22869127  7.30180887 10.52070600
   2.22802370  1.96758514  8.63477184
   4.22835778 10.63570045  9.57773892
  10.22936051  7.30180816 10.52070600
 


--------------------------------------------------------------------------------------------------------


 k-point     1 :   0.0000 0.0000 0.0000  plane waves:   46857
 k-point     2 :   0.2500 0.0000 0.0000  plane waves:   46856
 k-point     3 :   0.5000 0.0000 0.0000  plane waves:   46868
 k-point     4 :   0.0000 0.3333 0.0000  plane waves:   46920
 k-point     5 :   0.2500 0.3333 0.0000  plane waves:   46846
 k-point     6 :   0.5000 0.3333 0.0000  plane waves:   46891
 k-point     7 :  -0.2500 0.3333 0.0000  plane waves:   46924
 k-point     8 :   0.0000 0.0000 0.3333  plane waves:   46898
 k-point     9 :   0.2500 0.0000 0.3333  plane waves:   46875
 k-point    10 :   0.5000 0.0000 0.3333  plane waves:   46898
 k-point    11 :  -0.2500-0.0000 0.3333  plane waves:   46875
 k-point    12 :   0.0000 0.3333 0.3333  plane waves:   46880
 k-point    13 :   0.2500 0.3333 0.3333  plane waves:   46898
 k-point    14 :   0.5000 0.3333 0.3333  plane waves:   46910
 k-point    15 :  -0.2500 0.3333 0.3333  plane waves:   46898
 k-point    16 :   0.0000-0.3333 0.3333  plane waves:   46880
 k-point    17 :   0.2500-0.3333 0.3333  plane waves:   46898
 k-point    18 :   0.5000-0.3333 0.3333  plane waves:   46910
 k-point    19 :  -0.2500-0.3333 0.3333  plane waves:   46898

 maximum and minimum number of plane-waves per node :      2973     2893

 maximum number of plane-waves:     46924
 maximum index in each direction: 
   IXMAX=   17   IYMAX=   27   IZMAX=   25
   IXMIN=  -17   IYMIN=  -27   IZMIN=  -25


 real space projection operators:
  total allocation   :      12470.45 KBytes
  max/ min on nodes  :        938.03        673.05


 parallel 3D FFT for wavefunctions:
    minimum data exchange during FFTs selected (reduces bandwidth)
 parallel 3D FFT for charge:
    minimum data exchange during FFTs selected (reduces bandwidth)


 total amount of memory used by VASP MPI-rank0   100330. kBytes
=======================================================================

   base      :      30000. kBytes
   nonlr-proj:       3333. kBytes
   fftplans  :       8408. kBytes
   grid      :       6069. kBytes
   one-center:         48. kBytes
   wavefun   :      52472. kBytes
 
     INWAV:  cpu time      0.0000: real time      0.0001
 Broyden mixing: mesh for mixing (old mesh)
   NGX = 35   NGY = 55   NGZ = 51
  (NGX  =108   NGY  =168   NGZ  =160)
  gives a total of  98175 points

 initial charge density was supplied:
 charge density of overlapping atoms calculated
 number of electron     192.0000000 magnetization       1.0000000
 keeping initial charge density in first step


--------------------------------------------------------------------------------------------------------


 Maximum index for non-local projection operator          371
 Maximum index for augmentation-charges         5170 (set IRDMAX)


--------------------------------------------------------------------------------------------------------


 First call to EWALD:  gamma=   0.171
 Maximum number of real-space cells 4x 2x 3
 Maximum number of reciprocal cells 2x 3x 3

    FEWALD:  cpu time      0.0021: real time      0.0021


--------------------------------------- Ionic step        1  -------------------------------------------




--------------------------------------- Iteration      1(   1)  ---------------------------------------


    POTLOK:  cpu time      0.1086: real time      0.1096
    SETDIJ:  cpu time      0.7650: real time      0.7682
     EDDAV:  cpu time      9.3135: real time      9.3875
       DOS:  cpu time      0.0029: real time      0.0029
    --------------------------------------------
      LOOP:  cpu time     10.1900: real time     10.2683

 eigenvalue-minimisations  :  8816
 total energy-change (2. order) : 0.9607868E+03  (-0.8398333E+04)
 number of electron     192.0000000 magnetization       1.0000000
 augmentation part      192.0000000 magnetization       1.0000000

 Free energy of the ion-electron system (eV)
  ---------------------------------------------------
  alpha Z        PSCENC =       394.91412864
  Ewald energy   TEWEN  =     -4962.94068836
  -Hartree energ DENC   =      -532.93777098
  -exchange      EXHF   =         0.00000000
  -V(xc)+E(xc)   XCENC  =      -360.37193683
  PAW double counting   =      4230.96766597    -3535.56392164
  entropy T*S    EENTRO =        -0.00041172
  eigenvalues    EBANDS =       686.91602340
  atomic energy  EATOM  =      5039.80367324
  Solvation  Ediel_sol  =         0.00000000
  ---------------------------------------------------
  free energy    TOTEN  =       960.78676171 eV

  energy without entropy =      960.78717343  energy(sigma->0) =      960.78696757


--------------------------------------------------------------------------------------------------------




--------------------------------------- Iteration      1(   2)  ---------------------------------------


     EDDAV:  cpu time     10.2723: real time     10.3568
       DOS:  cpu time      0.0021: real time      0.0021
    --------------------------------------------
      LOOP:  cpu time     10.2744: real time     10.3589

 eigenvalue-minimisations  : 10272
 total energy-change (2. order) :-0.1047107E+04  (-0.1012467E+04)
 number of electron     192.0000000 magnetization       1.0000000
 augmentation part      192.0000000 magnetization       1.0000000

 Free energy of the ion-electron system (eV)
  ---------------------------------------------------
  alpha Z        PSCENC =       394.91412864
  Ewald energy   TEWEN  =     -4962.94068836
  -Hartree energ DENC   =      -532.93777098
  -exchange      EXHF   =         0.00000000
  -V(xc)+E(xc)   XCENC  =      -360.37193683
  PAW double counting   =      4230.96766597    -3535.56392164
  entropy T*S    EENTRO =        -0.00081095
  eigenvalues    EBANDS =      -360.19051886
  atomic energy  EATOM  =      5039.80367324
  Solvation  Ediel_sol  =         0.00000000
  ---------------------------------------------------
  free energy    TOTEN  =       -86.32017978 eV

  energy without entropy =      -86.31936883  energy(sigma->0) =      -86.31977431


--------------------------------------------------------------------------------------------------------




--------------------------------------- Iteration      1(   3)  ---------------------------------------


     EDDAV:  cpu time     10.7939: real time     10.8874
       DOS:  cpu time      0.0022: real time      0.0022
    --------------------------------------------
      LOOP:  cpu time     10.7961: real time     10.8896

 eigenvalue-minimisations  : 10840
 total energy-change (2. order) :-0.1067543E+03  (-0.1029921E+03)
 number of electron     192.0000000 magnetization       1.0000000
 augmentation part      192.0000000 magnetization       1.0000000

 Free energy of the ion-electron system (eV)
  ---------------------------------------------------
  alpha Z        PSCENC =       394.91412864
  Ewald energy   TEWEN  =     -4962.94068836
  -Hartree energ DENC   =      -532.93777098
  -exchange      EXHF   =         0.00000000
  -V(xc)+E(xc)   XCENC  =      -360.37193683
  PAW double counting   =      4230.96766597    -3535.56392164
  entropy T*S    EENTRO =        -0.00111357
  eigenvalues    EBANDS =      -466.94454949
  atomic energy  EATOM  =      5039.80367324
  Solvation  Ediel_sol  =         0.00000000
  ---------------------------------------------------
  free energy    TOTEN  =      -193.07451304 eV

  energy without entropy =     -193.07339947  energy(sigma->0) =     -193.07395625


--------------------------------------------------------------------------------------------------------




--------------------------------------- Iteration      1(   4)  ---------------------------------------


     EDDAV:  cpu time     10.4543: real time     10.5402
       DOS:  cpu time      0.0023: real time      0.0023
    --------------------------------------------
      LOOP:  cpu time     10.4566: real time     10.5426

 eigenvalue-minimisations  : 10536
 total energy-change (2. order) :-0.3938326E+01  (-0.3855274E+01)
 number of electron     192.0000000 magnetization       1.0000000
 augmentation part      192.0000000 magnetization       1.0000000

 Free energy of the ion-electron system (eV)
  ---------------------------------------------------
  alpha Z        PSCENC =       394.91412864
  Ewald energy   TEWEN  =     -4962.94068836
  -Hartree energ DENC   =      -532.93777098
  -exchange      EXHF   =         0.00000000
  -V(xc)+E(xc)   XCENC  =      -360.37193683
  PAW double counting   =      4230.96766597    -3535.56392164
  entropy T*S    EENTRO =        -0.00119792
  eigenvalues    EBANDS =      -470.88279150
  atomic energy  EATOM  =      5039.80367324
  Solvation  Ediel_sol  =         0.00000000
  ---------------------------------------------------
  free energy    TOTEN  =      -197.01283939 eV

  energy without entropy =     -197.01164147  energy(sigma->0) =     -197.01224043


--------------------------------------------------------------------------------------------------------




--------------------------------------- Iteration      1(   5)  ---------------------------------------


     EDDAV:  cpu time     11.1574: real time     11.2465
       DOS:  cpu time      0.0022: real time      0.0022
    CHARGE:  cpu time      0.5633: real time      0.5667
    MIXING:  cpu time      0.0030: real time      0.0030
    --------------------------------------------
      LOOP:  cpu time     11.7258: real time     11.8184

 eigenvalue-minimisations  : 11384
 total energy-change (2. order) :-0.1468223E+00  (-0.1459768E+00)
 number of electron     191.9999998 magnetization       1.0000000
 augmentation part      -32.0822200 magnetization      -0.0949084

 Broyden mixing:
  rms(total) = 0.14336E+01    rms(broyden)= 0.14336E+01
  rms(prec ) = 0.16254E+01
  weight for this iteration     100.00

 Free energy of the ion-electron system (eV)
  ---------------------------------------------------
  alpha Z        PSCENC =       394.91412864
  Ewald energy   TEWEN  =     -4962.94068836
  -Hartree energ DENC   =      -532.93777098
  -exchange      EXHF   =         0.00000000
  -V(xc)+E(xc)   XCENC  =      -360.37193683
  PAW double counting   =      4230.96766597    -3535.56392164
  entropy T*S    EENTRO =        -0.00116924
  eigenvalues    EBANDS =      -471.02964244
  atomic energy  EATOM  =      5039.80367324
  Solvation  Ediel_sol  =         0.00000000
  ---------------------------------------------------
  free energy    TOTEN  =      -197.15966165 eV

  energy without entropy =     -197.15849242  energy(sigma->0) =     -197.15907703


--------------------------------------------------------------------------------------------------------




--------------------------------------- Iteration      1(   6)  ---------------------------------------


    POTLOK:  cpu time      0.0904: real time      0.0924
    SETDIJ:  cpu time      0.7510: real time      0.7542
     EDDAV:  cpu time     10.2638: real time     10.3488
       DOS:  cpu time      0.0019: real time      0.0019
    CHARGE:  cpu time      0.5630: real time      0.5665
    MIXING:  cpu time      0.0023: real time      0.0023
    --------------------------------------------
      LOOP:  cpu time     11.6725: real time     11.7661

 eigenvalue-minimisations  : 10144
 total energy-change (2. order) : 0.2070521E+01  (-0.4314871E+00)
 number of electron     191.9999998 magnetization       1.0000000
 augmentation part      -31.8108895 magnetization      -0.0904169

 Broyden mixing:
  rms(total) = 0.67021E+00    rms(broyden)= 0.67021E+00
  rms(prec ) = 0.74548E+00
  weight for this iteration     100.00

 eigenvalues of (default mixing * dielectric matrix)
  average eigenvalue GAMMA=   1.7290
  1.7290

 Free energy of the ion-electron system (eV)
  ---------------------------------------------------
  alpha Z        PSCENC =       394.91412864
  Ewald energy   TEWEN  =     -4962.94068836
  -Hartree energ DENC   =      -573.03380207
  -exchange      EXHF   =         0.00000000
  -V(xc)+E(xc)   XCENC  =      -354.09460119
  PAW double counting   =      7035.80753143    -6344.71559818
  entropy T*S    EENTRO =        -0.00068134
  eigenvalues    EBANDS =      -430.82910261
  atomic energy  EATOM  =      5039.80367324
  Solvation  Ediel_sol  =         0.00000000
  ---------------------------------------------------
  free energy    TOTEN  =      -195.08914044 eV

  energy without entropy =     -195.08845910  energy(sigma->0) =     -195.08879977


--------------------------------------------------------------------------------------------------------




--------------------------------------- Iteration      1(   7)  ---------------------------------------


    POTLOK:  cpu time      0.0895: real time      0.0917
    SETDIJ:  cpu time      0.7520: real time      0.7557
     EDDAV:  cpu time     10.2735: real time     10.3567
       DOS:  cpu time      0.0021: real time      0.0022
    CHARGE:  cpu time      0.5633: real time      0.5667
    MIXING:  cpu time      0.0022: real time      0.0022
    --------------------------------------------
      LOOP:  cpu time     11.6826: real time     11.7751

 eigenvalue-minimisations  : 10272
 total energy-change (2. order) : 0.1349700E+00  (-0.1680934E+00)
 number of electron     191.9999998 magnetization       1.0000000
 augmentation part      -31.7467181 magnetization      -0.0909059

 Broyden mixing:
  rms(total) = 0.20729E+00    rms(broyden)= 0.20729E+00
  rms(prec ) = 0.30296E+00
  weight for this iteration     100.00

 eigenvalues of (default mixing * dielectric matrix)
  average eigenvalue GAMMA=   1.2641
  1.8564  0.6719

 Free energy of the ion-electron system (eV)
  ---------------------------------------------------
  alpha Z        PSCENC =       394.91412864
  Ewald energy   TEWEN  =     -4962.94068836
  -Hartree energ DENC   =      -587.76737683
  -exchange      EXHF   =         0.00000000
  -V(xc)+E(xc)   XCENC  =      -349.72466177
  PAW double counting   =      9675.15424861    -8986.96443666
  entropy T*S    EENTRO =        -0.00070205
  eigenvalues    EBANDS =      -417.42835529
  atomic energy  EATOM  =      5039.80367324
  Solvation  Ediel_sol  =         0.00000000
  ---------------------------------------------------
  free energy    TOTEN  =      -194.95417048 eV

  energy without entropy =     -194.95346843  energy(sigma->0) =     -194.95381946


--------------------------------------------------------------------------------------------------------




--------------------------------------- Iteration      1(   8)  ---------------------------------------


    POTLOK:  cpu time      0.0894: real time      0.0901
    SETDIJ:  cpu time      0.7521: real time      0.7552
     EDDAV:  cpu time     10.2866: real time     10.3670
       DOS:  cpu time      0.0022: real time      0.0022
    CHARGE:  cpu time      0.5747: real time      0.5780
    MIXING:  cpu time      0.0025: real time      0.0025
    --------------------------------------------
      LOOP:  cpu time     11.7074: real time     11.7950

 eigenvalue-minimisations  : 10224
 total energy-change (2. order) : 0.7978056E-01  (-0.4736551E-01)
 number of electron     191.9999998 magnetization       1.0000000
 augmentation part      -31.6835065 magnetization      -0.0897706

 Broyden mixing:
  rms(total) = 0.61914E-01    rms(broyden)= 0.61914E-01
  rms(prec ) = 0.69329E-01
  weight for this iteration     100.00

 eigenvalues of (default mixing * dielectric matrix)
  average eigenvalue GAMMA=   1.1683
  1.8925  1.0139  0.5984

 Free energy of the ion-electron system (eV)
  ---------------------------------------------------
  alpha Z        PSCENC =       394.91412864
  Ewald energy   TEWEN  =     -4962.94068836
  -Hartree energ DENC   =      -594.39870552
  -exchange      EXHF   =         0.00000000
  -V(xc)+E(xc)   XCENC  =      -348.71561216
  PAW double counting   =     10477.07338717    -9789.64279821
  entropy T*S    EENTRO =        -0.00075557
  eigenvalues    EBANDS =      -410.96701915
  atomic energy  EATOM  =      5039.80367324
  Solvation  Ediel_sol  =         0.00000000
  ---------------------------------------------------
  free energy    TOTEN  =      -194.87438992 eV

  energy without entropy =     -194.87363435  energy(sigma->0) =     -194.87401214


--------------------------------------------------------------------------------------------------------




--------------------------------------- Iteration      1(   9)  ---------------------------------------


    POTLOK:  cpu time      0.0888: real time      0.0907
    SETDIJ:  cpu time      0.7522: real time      0.7553
     EDDAV:  cpu time     10.6912: real time     10.7757
       DOS:  cpu time      0.0023: real time      0.0023
    CHARGE:  cpu time      0.5661: real time      0.5704
    MIXING:  cpu time      0.0025: real time      0.0026
    --------------------------------------------
      LOOP:  cpu time     12.1031: real time     12.1971

 eigenvalue-minimisations  : 10688
 total energy-change (2. order) :-0.8799944E-02  (-0.1111315E-01)
 number of electron     191.9999998 magnetization       1.0000000
 augmentation part      -31.6673486 magnetization      -0.0961890

 Broyden mixing:
  rms(total) = 0.39159E-01    rms(broyden)= 0.39159E-01
  rms(prec ) = 0.50378E-01
  weight for this iteration     100.00

 eigenvalues of (default mixing * dielectric matrix)
  average eigenvalue GAMMA=   1.1439
  1.9308  1.4583  0.6333  0.5530

 Free energy of the ion-electron system (eV)
  ---------------------------------------------------
  alpha Z        PSCENC =       394.91412864
  Ewald energy   TEWEN  =     -4962.94068836
  -Hartree energ DENC   =      -593.92526807
  -exchange      EXHF   =         0.00000000
  -V(xc)+E(xc)   XCENC  =      -348.67227425
  PAW double counting   =     10666.28675644    -9978.95910821
  entropy T*S    EENTRO =        -0.00082322
  eigenvalues    EBANDS =      -411.38958607
  atomic energy  EATOM  =      5039.80367324
  Solvation  Ediel_sol  =         0.00000000
  ---------------------------------------------------
  free energy    TOTEN  =      -194.88318987 eV

  energy without entropy =     -194.88236664  energy(sigma->0) =     -194.88277825


--------------------------------------------------------------------------------------------------------




--------------------------------------- Iteration      1(  10)  ---------------------------------------


    POTLOK:  cpu time      0.0885: real time      0.0908
    SETDIJ:  cpu time      0.7526: real time      0.7557
     EDDAV:  cpu time     10.1480: real time     10.2273
       DOS:  cpu time      0.0024: real time      0.0024
    CHARGE:  cpu time      0.5643: real time      0.5676
    MIXING:  cpu time      0.0024: real time      0.0024
    --------------------------------------------
      LOOP:  cpu time     11.5581: real time     11.6462

 eigenvalue-minimisations  : 10088
 total energy-change (2. order) :-0.3293798E-03  (-0.1837393E-02)
 number of electron     191.9999998 magnetization       1.0000000
 augmentation part      -31.6746254 magnetization      -0.0900200

 Broyden mixing:
  rms(total) = 0.20377E-01    rms(broyden)= 0.20377E-01
  rms(prec ) = 0.21573E-01
  weight for this iteration     100.00

 eigenvalues of (default mixing * dielectric matrix)
  average eigenvalue GAMMA=   1.1133
  2.0122  1.6749  0.7747  0.5524  0.5524

 Free energy of the ion-electron system (eV)
  ---------------------------------------------------
  alpha Z        PSCENC =       394.91412864
  Ewald energy   TEWEN  =     -4962.94068836
  -Hartree energ DENC   =      -593.15862748
  -exchange      EXHF   =         0.00000000
  -V(xc)+E(xc)   XCENC  =      -348.68135183
  PAW double counting   =     10727.90446376   -10040.59063700
  entropy T*S    EENTRO =        -0.00071454
  eigenvalues    EBANDS =      -412.13376569
  atomic energy  EATOM  =      5039.80367324
  Solvation  Ediel_sol  =         0.00000000
  ---------------------------------------------------
  free energy    TOTEN  =      -194.88351925 eV

  energy without entropy =     -194.88280471  energy(sigma->0) =     -194.88316198


--------------------------------------------------------------------------------------------------------




--------------------------------------- Iteration      1(  11)  ---------------------------------------


    POTLOK:  cpu time      0.0881: real time      0.0901
    SETDIJ:  cpu time      0.7594: real time      0.7626
     EDDAV:  cpu time     10.4423: real time     10.5290
       DOS:  cpu time      0.0026: real time      0.0026
    CHARGE:  cpu time      0.5663: real time      0.5697
    MIXING:  cpu time      0.0025: real time      0.0026
    --------------------------------------------
      LOOP:  cpu time     11.8613: real time     11.9566

 eigenvalue-minimisations  : 10376
 total energy-change (2. order) :-0.8560565E-03  (-0.4688138E-03)
 number of electron     191.9999998 magnetization       1.0000000
 augmentation part      -31.6767169 magnetization      -0.0918836

 Broyden mixing:
  rms(total) = 0.91263E-02    rms(broyden)= 0.91263E-02
  rms(prec ) = 0.11684E-01
  weight for this iteration     100.00

 eigenvalues of (default mixing * dielectric matrix)
  average eigenvalue GAMMA=   1.0722
  2.0301  1.6701  0.9338  0.6614  0.6614  0.4764

 Free energy of the ion-electron system (eV)
  ---------------------------------------------------
  alpha Z        PSCENC =       394.91412864
  Ewald energy   TEWEN  =     -4962.94068836
  -Hartree energ DENC   =      -592.91514025
  -exchange      EXHF   =         0.00000000
  -V(xc)+E(xc)   XCENC  =      -348.68523848
  PAW double counting   =     10759.14882582   -10071.84127348
  entropy T*S    EENTRO =        -0.00066823
  eigenvalues    EBANDS =      -412.36799420
  atomic energy  EATOM  =      5039.80367324
  Solvation  Ediel_sol  =         0.00000000
  ---------------------------------------------------
  free energy    TOTEN  =      -194.88437530 eV

  energy without entropy =     -194.88370707  energy(sigma->0) =     -194.88404119


--------------------------------------------------------------------------------------------------------




--------------------------------------- Iteration      1(  12)  ---------------------------------------


    POTLOK:  cpu time      0.0917: real time      0.0924
    SETDIJ:  cpu time      0.7612: real time      0.7643
     EDDAV:  cpu time     10.1354: real time     10.2178
       DOS:  cpu time      0.0022: real time      0.0022
    CHARGE:  cpu time      0.5711: real time      0.5745
    MIXING:  cpu time      0.0048: real time      0.0048
    --------------------------------------------
      LOOP:  cpu time     11.5663: real time     11.6560

 eigenvalue-minimisations  : 10128
 total energy-change (2. order) :-0.2312538E-04  (-0.9566606E-04)
 number of electron     191.9999998 magnetization       1.0000000
 augmentation part      -31.6751029 magnetization      -0.0913200

 Broyden mixing:
  rms(total) = 0.37353E-02    rms(broyden)= 0.37353E-02
  rms(prec ) = 0.40358E-02
  weight for this iteration     100.00

 eigenvalues of (default mixing * dielectric matrix)
  average eigenvalue GAMMA=   1.0293
  2.0130  1.6213  1.0921  0.7366  0.7366  0.5352  0.4701

 Free energy of the ion-electron system (eV)
  ---------------------------------------------------
  alpha Z        PSCENC =       394.91412864
  Ewald energy   TEWEN  =     -4962.94068836
  -Hartree energ DENC   =      -593.04314830
  -exchange      EXHF   =         0.00000000
  -V(xc)+E(xc)   XCENC  =      -348.68248934
  PAW double counting   =     10763.91897060   -10076.61360476
  entropy T*S    EENTRO =        -0.00069860
  eigenvalues    EBANDS =      -412.24054155
  atomic energy  EATOM  =      5039.80367324
  Solvation  Ediel_sol  =         0.00000000
  ---------------------------------------------------
  free energy    TOTEN  =      -194.88439843 eV

  energy without entropy =     -194.88369983  energy(sigma->0) =     -194.88404913


--------------------------------------------------------------------------------------------------------




--------------------------------------- Iteration      1(  13)  ---------------------------------------


    POTLOK:  cpu time      0.0888: real time      0.0904
    SETDIJ:  cpu time      0.7602: real time      0.7634
     EDDAV:  cpu time     10.2992: real time     10.3801
       DOS:  cpu time      0.0023: real time      0.0023
    CHARGE:  cpu time      0.5620: real time      0.5654
    MIXING:  cpu time      0.0030: real time      0.0030
    --------------------------------------------
      LOOP:  cpu time     11.7154: real time     11.8045

 eigenvalue-minimisations  : 10304
 total energy-change (2. order) :-0.4198149E-04  (-0.2191708E-04)
 number of electron     191.9999998 magnetization       1.0000000
 augmentation part      -31.6747148 magnetization      -0.0907822

 Broyden mixing:
  rms(total) = 0.13287E-02    rms(broyden)= 0.13287E-02
  rms(prec ) = 0.16851E-02
  weight for this iteration     100.00

 eigenvalues of (default mixing * dielectric matrix)
  average eigenvalue GAMMA=   1.0200
  2.0299  1.6434  1.1867  0.9057  0.6940  0.6940  0.5352  0.4715

 Free energy of the ion-electron system (eV)
  ---------------------------------------------------
  alpha Z        PSCENC =       394.91412864
  Ewald energy   TEWEN  =     -4962.94068836
  -Hartree energ DENC   =      -593.06950209
  -exchange      EXHF   =         0.00000000
  -V(xc)+E(xc)   XCENC  =      -348.68197622
  PAW double counting   =     10764.34225703   -10077.03625383
  entropy T*S    EENTRO =        -0.00070112
  eigenvalues    EBANDS =      -412.21537770
  atomic energy  EATOM  =      5039.80367324
  Solvation  Ediel_sol  =         0.00000000
  ---------------------------------------------------
  free energy    TOTEN  =      -194.88444041 eV

  energy without entropy =     -194.88373929  energy(sigma->0) =     -194.88408985


--------------------------------------------------------------------------------------------------------




--------------------------------------- Iteration      1(  14)  ---------------------------------------


    POTLOK:  cpu time      0.0885: real time      0.0902
    SETDIJ:  cpu time      0.7677: real time      0.7708
     EDDAV:  cpu time     10.2289: real time     10.3129
       DOS:  cpu time      0.0022: real time      0.0022
    CHARGE:  cpu time      0.5670: real time      0.5704
    MIXING:  cpu time      0.0030: real time      0.0030
    --------------------------------------------
      LOOP:  cpu time     11.6573: real time     11.7496

 eigenvalue-minimisations  : 10176
 total energy-change (2. order) :-0.4826303E-05  (-0.2339135E-05)
 number of electron     191.9999998 magnetization       1.0000000
 augmentation part      -31.6747055 magnetization      -0.0908846

 Broyden mixing:
  rms(total) = 0.67466E-03    rms(broyden)= 0.67461E-03
  rms(prec ) = 0.79252E-03
  weight for this iteration     100.00

 eigenvalues of (default mixing * dielectric matrix)
  average eigenvalue GAMMA=   1.0140
  2.0698  1.7054  1.3695  1.0213  0.7063  0.7063  0.4709  0.5448  0.5318

 Free energy of the ion-electron system (eV)
  ---------------------------------------------------
  alpha Z        PSCENC =       394.91412864
  Ewald energy   TEWEN  =     -4962.94068836
  -Hartree energ DENC   =      -593.07282654
  -exchange      EXHF   =         0.00000000
  -V(xc)+E(xc)   XCENC  =      -348.68113141
  PAW double counting   =     10765.39371502   -10078.08713963
  entropy T*S    EENTRO =        -0.00069831
  eigenvalues    EBANDS =      -412.21347788
  atomic energy  EATOM  =      5039.80367324
  Solvation  Ediel_sol  =         0.00000000
  ---------------------------------------------------
  free energy    TOTEN  =      -194.88444524 eV

  energy without entropy =     -194.88374692  energy(sigma->0) =     -194.88409608


--------------------------------------------------------------------------------------------------------




--------------------------------------- Iteration      1(  15)  ---------------------------------------


    POTLOK:  cpu time      0.0901: real time      0.0918
    SETDIJ:  cpu time      0.7609: real time      0.7641
     EDDAV:  cpu time     10.2589: real time     10.3424
       DOS:  cpu time      0.0024: real time      0.0024
    CHARGE:  cpu time      0.5626: real time      0.5657
    MIXING:  cpu time      0.0027: real time      0.0027
    --------------------------------------------
      LOOP:  cpu time     11.6776: real time     11.7693

 eigenvalue-minimisations  : 10280
 total energy-change (2. order) :-0.1316600E-05  (-0.5816749E-06)
 number of electron     191.9999998 magnetization       1.0000000
 augmentation part      -31.6745992 magnetization      -0.0908335

 Broyden mixing:
  rms(total) = 0.33416E-03    rms(broyden)= 0.33405E-03
  rms(prec ) = 0.36305E-03
  weight for this iteration     100.00

 eigenvalues of (default mixing * dielectric matrix)
  average eigenvalue GAMMA=   1.0136
  2.0877  1.7327  1.5008  0.9194  0.9194  0.7281  0.7281  0.5653  0.4645  0.4895

 Free energy of the ion-electron system (eV)
  ---------------------------------------------------
  alpha Z        PSCENC =       394.91412864
  Ewald energy   TEWEN  =     -4962.94068836
  -Hartree energ DENC   =      -593.08046318
  -exchange      EXHF   =         0.00000000
  -V(xc)+E(xc)   XCENC  =      -348.68045594
  PAW double counting   =     10765.67411367   -10078.36707544
  entropy T*S    EENTRO =        -0.00069762
  eigenvalues    EBANDS =      -412.20698156
  atomic energy  EATOM  =      5039.80367324
  Solvation  Ediel_sol  =         0.00000000
  ---------------------------------------------------
  free energy    TOTEN  =      -194.88444655 eV

  energy without entropy =     -194.88374894  energy(sigma->0) =     -194.88409774


--------------------------------------------------------------------------------------------------------




--------------------------------------- Iteration      1(  16)  ---------------------------------------


    POTLOK:  cpu time      0.0898: real time      0.0915
    SETDIJ:  cpu time      0.7550: real time      0.7581
     EDDAV:  cpu time     10.0834: real time     10.1649
       DOS:  cpu time      0.0022: real time      0.0023
    CHARGE:  cpu time      0.5641: real time      0.5675
    MIXING:  cpu time      0.0030: real time      0.0031
    --------------------------------------------
      LOOP:  cpu time     11.4975: real time     11.5873

 eigenvalue-minimisations  :  9968
 total energy-change (2. order) :-0.4695539E-07  (-0.1043683E-06)
 number of electron     191.9999998 magnetization       1.0000000
 augmentation part      -31.6745442 magnetization      -0.0908507

 Broyden mixing:
  rms(total) = 0.10451E-03    rms(broyden)= 0.10416E-03
  rms(prec ) = 0.12606E-03
  weight for this iteration     100.00

 eigenvalues of (default mixing * dielectric matrix)
  average eigenvalue GAMMA=   0.9922
  2.0884  1.7478  1.5095  0.9796  0.9796  0.7177  0.7177  0.6715  0.5424  0.4646
  0.4951

 Free energy of the ion-electron system (eV)
  ---------------------------------------------------
  alpha Z        PSCENC =       394.91412864
  Ewald energy   TEWEN  =     -4962.94068836
  -Hartree energ DENC   =      -593.08511364
  -exchange      EXHF   =         0.00000000
  -V(xc)+E(xc)   XCENC  =      -348.68013021
  PAW double counting   =     10765.59725652   -10078.28989384
  entropy T*S    EENTRO =        -0.00069771
  eigenvalues    EBANDS =      -412.20298124
  atomic energy  EATOM  =      5039.80367324
  Solvation  Ediel_sol  =         0.00000000
  ---------------------------------------------------
  free energy    TOTEN  =      -194.88444660 eV

  energy without entropy =     -194.88374889  energy(sigma->0) =     -194.88409774


--------------------------------------------------------------------------------------------------------




--------------------------------------- Iteration      1(  17)  ---------------------------------------


    POTLOK:  cpu time      0.0915: real time      0.0927
    SETDIJ:  cpu time      0.7559: real time      0.7591
     EDDAV:  cpu time      7.2558: real time      7.3137
       DOS:  cpu time      0.0022: real time      0.0022
    CHARGE:  cpu time      0.5589: real time      0.5623
    MIXING:  cpu time      0.0033: real time      0.0034
    --------------------------------------------
      LOOP:  cpu time      8.6677: real time      8.7333

 eigenvalue-minimisations  :  6152
 total energy-change (2. order) : 0.1134640E-06  (-0.1517097E-07)
 number of electron     191.9999998 magnetization       1.0000000
 augmentation part      -31.6745384 magnetization      -0.0908557

 Broyden mixing:
  rms(total) = 0.67923E-04    rms(broyden)= 0.67391E-04
  rms(prec ) = 0.74537E-04
  weight for this iteration     100.00

 eigenvalues of (default mixing * dielectric matrix)
  average eigenvalue GAMMA=   0.9974
  2.1115  1.8072  1.5160  1.1104  1.1104  0.7253  0.7253  0.7903  0.6164  0.5065
  0.4632  0.4858

 Free energy of the ion-electron system (eV)
  ---------------------------------------------------
  alpha Z        PSCENC =       394.91412864
  Ewald energy   TEWEN  =     -4962.94068836
  -Hartree energ DENC   =      -593.08604208
  -exchange      EXHF   =         0.00000000
  -V(xc)+E(xc)   XCENC  =      -348.67997245
  PAW double counting   =     10765.54203243   -10078.23449232
  entropy T*S    EENTRO =        -0.00069765
  eigenvalues    EBANDS =      -412.20238794
  atomic energy  EATOM  =      5039.80367324
  Solvation  Ediel_sol  =         0.00000000
  ---------------------------------------------------
  free energy    TOTEN  =      -194.88444649 eV

  energy without entropy =     -194.88374884  energy(sigma->0) =     -194.88409766


--------------------------------------------------------------------------------------------------------




--------------------------------------- Iteration      1(  18)  ---------------------------------------


    POTLOK:  cpu time      0.0897: real time      0.0904
    SETDIJ:  cpu time      0.7546: real time      0.7577
     EDDAV:  cpu time      6.9576: real time      7.0127
       DOS:  cpu time      0.0021: real time      0.0021
    --------------------------------------------
      LOOP:  cpu time      7.8040: real time      7.8629

 eigenvalue-minimisations  :  5744
 total energy-change (2. order) : 0.6920163E-07  (-0.5097677E-08)
 number of electron     191.9999998 magnetization       1.0000000
 augmentation part      -31.6745384 magnetization      -0.0908557

 Free energy of the ion-electron system (eV)
  ---------------------------------------------------
  alpha Z        PSCENC =       394.91412864
  Ewald energy   TEWEN  =     -4962.94068836
  -Hartree energ DENC   =      -593.08686610
  -exchange      EXHF   =         0.00000000
  -V(xc)+E(xc)   XCENC  =      -348.67982758
  PAW double counting   =     10765.51019709   -10078.20254041
  entropy T*S    EENTRO =        -0.00069755
  eigenvalues    EBANDS =      -412.20182538
  atomic energy  EATOM  =      5039.80367324
  Solvation  Ediel_sol  =         0.00000000
  ---------------------------------------------------
  free energy    TOTEN  =      -194.88444642 eV

  energy without entropy =     -194.88374887  energy(sigma->0) =     -194.88409764


--------------------------------------------------------------------------------------------------------




 average (electrostatic) potential at core
  the test charge radii are     1.1631
  (the norm of the test charge is              1.0000)
       1 -33.5339       2 -33.3184       3 -33.1809       4 -33.1121       5 -33.2337
       6 -33.5321       7 -33.2446       8 -33.4288       9 -33.2575      10 -33.5503
      11 -33.2369      12 -33.1013      13 -33.2664      14 -33.4308      15 -33.2444
      16 -33.1690      17 -33.3136      18 -33.5263      19 -33.1121      20 -33.2337
      21 -33.5321      22 -33.5339      23 -33.3184      24 -33.1809      25 -33.2446
      26 -33.4288      27 -33.2575      28 -33.5503      29 -33.2369      30 -33.1013
      31 -33.1689      32 -33.3136      33 -33.5263      34 -33.2664      35 -33.4308
      36 -33.2444      37 -33.7227      38 -33.4744      39 -33.2224      40 -33.7227
      41 -33.4744      42 -33.2224      43 -33.2307      44 -33.4717      45 -33.7326
      46 -33.2307      47 -33.4717      48 -33.7326
 
 
 
 E-fermi :   3.3653     XC(G=0):  -9.0362     alpha+bet : -8.9231

 val. band max:        3.4198973158   @ k =   0.0000   0.0000   0.3333
 cond. band min:       3.3799306999   @ k =  -0.2500  -0.0000   0.3333
 fundamental gap:     -0.0399666160
 Fermi energy:         3.4281189237

 spin component 1

 k-point     1 :       0.0000    0.0000    0.0000
  band No.  band energies     occupation 
      1     -10.3824      1.00000
      2     -10.1998      1.00000
      3      -8.7467      1.00000
      4      -8.6151      1.00000
      5      -8.5274      1.00000
      6      -8.1855      1.00000
      7      -8.0297      1.00000
      8      -7.9619      1.00000
      9      -7.5843      1.00000
     10      -7.5667      1.00000
     11      -7.5006      1.00000
     12      -7.3712      1.00000
     13      -7.0395      1.00000
     14      -7.0369      1.00000
     15      -6.8688      1.00000
     16      -6.8041      1.00000
     17      -6.7879      1.00000
     18      -6.4339      1.00000
     19      -6.2010      1.00000
     20      -6.0504      1.00000
     21      -6.0369      1.00000
     22      -5.6026      1.00000
     23      -5.3978      1.00000
     24      -5.3971      1.00000
     25      -5.2622      1.00000
     26      -5.2058      1.00000
     27      -5.0053      1.00000
     28      -4.9795      1.00000
     29      -4.8606      1.00000
     30      -4.4104      1.00000
     31      -4.2892      1.00000
     32      -4.1893      1.00000
     33      -4.1553      1.00000
     34      -3.8736      1.00000
     35      -3.8697      1.00000
     36      -3.6017      1.00000
     37      -3.4699      1.00000
     38      -3.4662      1.00000
     39      -3.2792      1.00000
     40      -3.2683      1.00000
     41      -3.2618      1.00000
     42      -2.4370      1.00000
     43      -2.2769      1.00000
     44      -2.1647      1.00000
     45      -1.4222      1.00000
     46      -1.3110      1.00000
     47      -1.0686      1.00000
     48      -1.0478      1.00000
     49      -1.0107      1.00000
     50      -0.7480      1.00000
     51      -0.7381      1.00000
     52      -0.5590      1.00000
     53      -0.3190      1.00000
     54      -0.2802      1.00000
     55      -0.2689      1.00000
     56      -0.2669      1.00000
     57      -0.1147      1.00000
     58      -0.1069      1.00000
     59      -0.0993      1.00000
     60       0.0791      1.00000
     61       0.3517      1.00000
     62       0.3772      1.00000
     63       0.4195      1.00000
     64       0.4239      1.00000
     65       0.7073      1.00000
     66       0.7718      1.00000
     67       0.7753      1.00000
     68       0.7924      1.00000
     69       0.8303      1.00000
     70       0.8323      1.00000
     71       0.8604      1.00000
     72       1.0682      1.00000
     73       1.0896      1.00000
     74       1.2578      1.00000
     75       1.2796      1.00000
     76       1.3546      1.00000
     77       1.4307      1.00000
     78       1.4700      1.00000
     79       1.6032      1.00000
     80       1.6824      1.00000
     81       1.8113      1.00000
     82       1.9787      1.00000
     83       1.9792      1.00000
     84       2.0152      1.00000
     85       2.1046      1.00000
     86       2.2309      1.00000
     87       2.2390      1.00000
     88       2.4390      1.00000
     89       2.5715      1.00000
     90       2.6672      1.00000
     91       2.6990      1.00000
     92       2.8555      1.00000
     93       2.9442      1.00000
     94       2.9566      1.00000
     95       3.1270      1.00000
     96       3.2351      1.00000
     97       3.2585      1.00000
     98       3.4283      0.48939
     99       3.5181      0.00000
    100       3.8734      0.00000
    101       3.8794      0.00000
    102       3.9218      0.00000
    103       3.9375      0.00000
    104       4.4107      0.00000
    105       4.4202      0.00000
    106       4.4967      0.00000
    107       4.5314      0.00000
    108       4.5881      0.00000
    109       4.6898      0.00000
    110       4.7364      0.00000
    111       4.8488      0.00000
    112       4.8891      0.00000
    113       4.9696      0.00000
    114       4.9817      0.00000
    115       5.2050      0.00000
    116       5.2193      0.00000

 k-point     2 :       0.2500    0.0000    0.0000
  band No.  band energies     occupation 
      1     -10.2434      1.00000
      2     -10.0634      1.00000
      3      -9.1843      1.00000
      4      -9.0269      1.00000
      5      -8.6145      1.00000
      6      -8.1408      1.00000
      7      -7.8849      1.00000
      8      -7.7804      1.00000
      9      -7.6610      1.00000
     10      -7.4783      1.00000
     11      -7.4633      1.00000
     12      -7.2473      1.00000
     13      -7.0963      1.00000
     14      -7.0012      1.00000
     15      -6.7528      1.00000
     16      -6.7472      1.00000
     17      -6.6716      1.00000
     18      -6.4026      1.00000
     19      -6.3044      1.00000
     20      -6.2862      1.00000
     21      -6.0005      1.00000
     22      -5.8208      1.00000
     23      -5.4824      1.00000
     24      -5.3668      1.00000
     25      -5.2894      1.00000
     26      -4.9583      1.00000
     27      -4.8406      1.00000
     28      -4.7794      1.00000
     29      -4.5813      1.00000
     30      -4.4829      1.00000
     31      -4.2643      1.00000
     32      -4.2293      1.00000
     33      -4.1249      1.00000
     34      -4.0168      1.00000
     35      -3.7212      1.00000
     36      -3.7126      1.00000
     37      -3.3549      1.00000
     38      -3.3281      1.00000
     39      -2.9660      1.00000
     40      -2.7772      1.00000
     41      -2.6335      1.00000
     42      -2.5149      1.00000
     43      -2.5112      1.00000
     44      -2.1618      1.00000
     45      -2.0061      1.00000
     46      -1.8818      1.00000
     47      -1.3712      1.00000
     48      -1.2177      1.00000
     49      -1.0164      1.00000
     50      -0.8072      1.00000
     51      -0.6677      1.00000
     52      -0.6207      1.00000
     53      -0.5470      1.00000
     54      -0.4078      1.00000
     55      -0.2633      1.00000
     56      -0.2404      1.00000
     57      -0.1470      1.00000
     58      -0.1013      1.00000
     59       0.0273      1.00000
     60       0.0976      1.00000
     61       0.1285      1.00000
     62       0.3214      1.00000
     63       0.3614      1.00000
     64       0.4354      1.00000
     65       0.5071      1.00000
     66       0.5756      1.00000
     67       0.6531      1.00000
     68       0.7314      1.00000
     69       0.7635      1.00000
     70       0.8482      1.00000
     71       0.8883      1.00000
     72       0.9916      1.00000
     73       1.0269      1.00000
[...]
 total charge-density along one line
 
 pseudopotential strength for first ion, spin component:           1
 14.717  18.368  -0.044  -0.012  -0.036  -0.079  -0.022  -0.065
 18.368  22.940  -0.056  -0.016  -0.045  -0.101  -0.028  -0.082
 -0.044  -0.056   3.272   0.003   0.003   5.578   0.005   0.006
 -0.012  -0.016   0.003   3.273   0.004   0.005   5.580   0.007
 -0.036  -0.045   0.003   0.004   3.285   0.006   0.007   5.601
 -0.079  -0.101   5.578   0.005   0.006   9.566   0.010   0.010
 -0.022  -0.028   0.005   5.580   0.007   0.010   9.571   0.013
 -0.065  -0.082   0.006   0.007   5.601   0.010   0.013   9.608
  0.008   0.010  -0.011  -0.002  -0.016  -0.020  -0.003  -0.028
  0.008   0.010  -0.004  -0.014  -0.002  -0.007  -0.026  -0.003
 -0.007  -0.008   0.007  -0.004   0.006   0.012  -0.007   0.011
  0.010   0.012  -0.002  -0.013  -0.010  -0.003  -0.024  -0.018
  0.016   0.020   0.010  -0.003  -0.013   0.019  -0.005  -0.024
 pseudopotential strength for first ion, spin component:           2
 14.713  18.363  -0.044  -0.012  -0.036  -0.080  -0.021  -0.065
 18.363  22.934  -0.056  -0.015  -0.045  -0.101  -0.027  -0.082
 -0.044  -0.056   3.270   0.003   0.003   5.574   0.006   0.006
 -0.012  -0.015   0.003   3.272   0.004   0.006   5.578   0.007
 -0.036  -0.045   0.003   0.004   3.284   0.006   0.007   5.599
 -0.080  -0.101   5.574   0.006   0.006   9.559   0.011   0.010
 -0.021  -0.027   0.006   5.578   0.007   0.011   9.566   0.013
 -0.065  -0.082   0.006   0.007   5.599   0.010   0.013   9.604
  0.008   0.010  -0.011  -0.002  -0.016  -0.020  -0.003  -0.029
  0.008   0.010  -0.004  -0.014  -0.002  -0.007  -0.026  -0.003
 -0.006  -0.008   0.007  -0.004   0.006   0.012  -0.006   0.011
  0.010   0.013  -0.002  -0.013  -0.010  -0.003  -0.024  -0.017
  0.017   0.022   0.010  -0.003  -0.013   0.019  -0.005  -0.024
 total augmentation occupancy for first ion, spin component:           1
  4.331  -1.646  -0.522  -0.197  -0.452   0.139   0.084   0.129   0.049   0.084  -0.034   0.085   0.175
 -1.646   1.009   0.447   0.077   0.310  -0.100  -0.056  -0.085  -0.029  -0.045   0.035  -0.041  -0.112
 -0.522   0.447   1.748   0.294   0.117  -0.275  -0.091  -0.035  -0.047  -0.092   0.047  -0.022   0.053
 -0.197   0.077   0.294   2.234   0.261  -0.088  -0.403  -0.065  -0.020  -0.099  -0.011  -0.086   0.052
 -0.452   0.310   0.117   0.261   2.684  -0.033  -0.067  -0.571  -0.106  -0.015   0.034   0.003  -0.080
  0.139  -0.100  -0.275  -0.088  -0.033   0.052   0.025   0.009   0.009   0.020  -0.007   0.004  -0.007
  0.084  -0.056  -0.091  -0.403  -0.067   0.025   0.085   0.018   0.005   0.022   0.004   0.018  -0.008
  0.129  -0.085  -0.035  -0.065  -0.571   0.009   0.018   0.135   0.026   0.004  -0.006   0.006   0.017
  0.049  -0.029  -0.047  -0.020  -0.106   0.009   0.005   0.026   0.027   0.006  -0.003   0.013   0.002
  0.084  -0.045  -0.092  -0.099  -0.015   0.020   0.022   0.004   0.006   0.023   0.002   0.004  -0.007
 -0.034   0.035   0.047  -0.011   0.034  -0.007   0.004  -0.006  -0.003   0.002   0.023   0.003  -0.013
  0.085  -0.041  -0.022  -0.086   0.003   0.004   0.018   0.006   0.013   0.004   0.003   0.064   0.004
  0.175  -0.112   0.053   0.052  -0.080  -0.007  -0.008   0.017   0.002  -0.007  -0.013   0.004   0.047
 total augmentation occupancy for first ion, spin component:           2
  0.015  -0.012   0.000   0.002   0.001   0.000  -0.000  -0.000   0.000  -0.000  -0.001   0.001   0.001
 -0.012   0.014   0.001  -0.005  -0.001  -0.000   0.000  -0.000  -0.001  -0.000   0.001  -0.002  -0.002
  0.000   0.001   0.026  -0.007  -0.002  -0.002   0.000   0.000   0.001  -0.000  -0.002   0.001   0.000
  0.002  -0.005  -0.007   0.013  -0.004   0.000  -0.001   0.000  -0.000  -0.000   0.001  -0.001   0.000
  0.001  -0.001  -0.002  -0.004   0.008   0.000   0.000  -0.001   0.000   0.000  -0.000   0.001   0.000
  0.000  -0.000  -0.002   0.000   0.000   0.000  -0.000  -0.000  -0.000   0.000   0.000   0.000   0.000
 -0.000   0.000   0.000  -0.001   0.000  -0.000   0.000  -0.000  -0.000   0.000  -0.000   0.000  -0.000
 -0.000  -0.000   0.000   0.000  -0.001  -0.000  -0.000   0.000  -0.000  -0.000   0.000  -0.000   0.000
  0.000  -0.001   0.001  -0.000   0.000  -0.000  -0.000  -0.000   0.000   0.000  -0.000   0.000   0.000
 -0.000  -0.000  -0.000  -0.000   0.000   0.000   0.000  -0.000   0.000   0.000   0.000   0.000   0.000
 -0.001   0.001  -0.002   0.001  -0.000   0.000  -0.000   0.000  -0.000   0.000   0.000  -0.000  -0.000
  0.001  -0.002   0.001  -0.001   0.001   0.000   0.000  -0.000   0.000   0.000  -0.000   0.001   0.000
  0.001  -0.002   0.000   0.000   0.000   0.000  -0.000   0.000   0.000   0.000  -0.000   0.000   0.001


------------------------ aborting loop because EDIFF is reached ----------------------------------------


    CHARGE:  cpu time      0.5580: real time      0.5614
    FORLOC:  cpu time      0.0081: real time      0.0081
    FORNL :  cpu time      2.7550: real time      2.7752
    STRESS:  cpu time      8.3045: real time      8.3693
    FORCOR:  cpu time      0.0903: real time      0.0907
    FORHAR:  cpu time      0.0166: real time      0.0167
    MIXING:  cpu time      0.0028: real time      0.0029
    OFIELD:  cpu time      0.0000: real time      0.0000

  FORCE on cell =-STRESS in cart. coord.  units (eV):
  Direction    XX          YY          ZZ          XY          YZ          ZX
  --------------------------------------------------------------------------------------
  Alpha Z   394.91413   394.91413   394.91413
  Ewald   -1213.85090 -1987.39736 -1761.71936    -1.67936   -90.80575     0.56233
  Hartree   394.87599    55.43877   142.77441    -0.12119  -121.25053    -0.01060
  E(xc)    -665.28835  -661.36714  -662.29595     0.03869    -0.84201    -0.03537
  Local   -1316.27738  -240.54414  -539.17242     1.62789   231.45581    -0.29340
  n-local   980.56897   941.65823   951.71553    -0.30256     7.37117     0.34584
  augment    60.04261    59.58082    59.85978     0.00430     0.85024     0.02452
  Kinetic  1454.62636  1466.61180  1471.52191     0.23598   -14.28615     0.04837
  Fock        0.00000     0.00000     0.00000     0.00000     0.00000     0.00000
  -------------------------------------------------------------------------------------
  Total      89.61142    28.89511    57.59802    -0.19626    12.49278     0.64168
  in kB     128.75379    41.51652    82.75690    -0.28199    17.94964     0.92196
  external pressure =       84.34 kB  Pullay stress =        0.00 kB


 VOLUME and BASIS-vectors are now :
 -----------------------------------------------------------------------------
  energy-cutoff  :      700.00
  volume of cell :     1115.10
      direct lattice vectors                 reciprocal lattice vectors
     8.001338005  0.000000000  0.000000000     0.124979097 -0.041659701  0.000000000
     4.000669003 12.002006531  0.000000000     0.000000000  0.083319401  0.000000000
     0.000000000  0.000000000 11.611743927     0.000000000  0.000000000  0.086119708

  length of vectors
     8.001338005 12.651225760 11.611743927     0.131739536  0.083319401  0.086119708


 FORCES acting on ions
    electron-ion (+dipol)            ewald-force                    non-local-force                 convergence-correction
 -----------------------------------------------------------------------------------------------
   -.104E+02 -.142E+02 -.138E+02   0.120E+02 0.162E+02 0.142E+02   0.243E+01 0.704E+00 0.284E+01   0.128E-04 0.332E-04 0.610E-04
   -.295E-01 0.942E+01 -.669E+01   -.419E-01 -.981E+01 0.682E+01   0.311E-01 0.371E+00 0.495E-01   -.255E-05 -.110E-03 0.135E-03
   -.320E+00 -.147E+02 -.166E+02   0.161E+00 0.146E+02 0.172E+02   0.948E-01 0.754E-01 -.325E+00   0.369E-05 0.636E-04 -.253E-04
   0.143E+01 0.305E+02 0.348E+02   -.125E+01 -.309E+02 -.356E+02   -.238E-01 0.323E+00 0.149E+00   0.268E-05 -.116E-03 0.244E-04
   0.761E-01 -.550E+01 0.137E+02   0.969E-02 0.567E+01 -.135E+02   0.113E-01 -.143E+00 -.190E+00   0.215E-05 0.378E-04 -.248E-04
   0.120E+01 0.364E+01 0.203E+02   -.146E+01 -.333E+01 -.212E+02   -.249E-01 -.218E+00 -.438E+00   -.476E-05 0.686E-05 -.107E-03
   0.232E+01 -.329E+02 0.391E+01   -.217E+01 0.339E+02 -.382E+01   -.813E-01 -.405E+00 0.149E+00   -.447E-05 0.112E-03 0.954E-04
   -.243E-01 -.328E+01 0.133E+00   -.180E-01 0.379E+01 -.128E-01   0.644E-01 -.231E+00 -.626E-01   0.244E-05 0.673E-04 0.684E-04
   -.413E+00 0.155E+02 -.122E+02   0.182E+00 -.154E+02 0.125E+02   0.124E+00 -.661E-01 0.886E-01   0.263E-05 -.767E-04 -.891E-05
   0.122E+01 -.276E+01 -.209E+02   -.150E+01 0.247E+01 0.218E+02   -.328E-02 0.223E+00 0.493E+00   -.153E-05 0.187E-04 0.162E-03
   0.724E-01 0.528E+01 -.136E+02   0.931E-02 -.543E+01 0.134E+02   0.288E-01 0.163E+00 0.194E+00   0.337E-05 -.597E-04 0.852E-04
   0.162E+01 -.328E+02 -.338E+02   -.142E+01 0.333E+02 0.345E+02   -.269E-01 -.185E+00 -.210E+00   0.120E-05 0.644E-04 -.316E-04
   -.412E+00 -.156E+02 0.117E+02   0.190E+00 0.155E+02 -.120E+02   0.137E+00 0.736E-01 -.981E-01   0.112E-05 0.113E-03 0.433E-04
   -.465E-01 0.347E+01 -.523E+00   -.144E-01 -.399E+01 0.416E+00   0.922E-01 0.266E+00 0.472E-01   0.125E-05 -.153E-04 -.924E-06
   0.217E+01 0.325E+02 -.530E+01   -.202E+01 -.335E+02 0.533E+01   -.271E-01 0.570E+00 -.131E-01   -.824E-05 -.916E-04 -.115E-03
   -.311E+00 0.139E+02 0.172E+02   0.151E+00 -.139E+02 -.178E+02   0.115E+00 -.660E-01 0.385E+00   0.177E-05 -.119E-03 0.658E-04
   -.222E-01 -.941E+01 0.705E+01   -.466E-01 0.977E+01 -.718E+01   0.384E-01 -.338E+00 -.429E-01   -.351E-05 0.771E-04 -.840E-04
   -.101E+02 0.146E+02 0.129E+02   0.115E+02 -.168E+02 -.131E+02   0.226E+01 -.540E+00 -.262E+01   0.107E-04 0.125E-04 -.665E-04
   0.143E+01 0.305E+02 0.348E+02   -.125E+01 -.309E+02 -.356E+02   -.238E-01 0.323E+00 0.149E+00   -.630E-05 -.116E-03 0.243E-04
   0.761E-01 -.550E+01 0.137E+02   0.970E-02 0.567E+01 -.135E+02   0.113E-01 -.143E+00 -.190E+00   -.123E-05 0.412E-04 -.263E-04
   0.120E+01 0.364E+01 0.203E+02   -.146E+01 -.333E+01 -.212E+02   -.249E-01 -.218E+00 -.438E+00   -.450E-06 0.107E-04 -.106E-03
   -.104E+02 -.142E+02 -.138E+02   0.120E+02 0.162E+02 0.142E+02   0.243E+01 0.704E+00 0.284E+01   0.146E-04 0.322E-04 0.616E-04
   -.294E-01 0.942E+01 -.669E+01   -.420E-01 -.981E+01 0.682E+01   0.311E-01 0.371E+00 0.495E-01   0.319E-05 -.107E-03 0.138E-03
   -.320E+00 -.147E+02 -.166E+02   0.161E+00 0.146E+02 0.172E+02   0.948E-01 0.754E-01 -.325E+00   -.205E-06 0.620E-04 -.236E-04
   0.232E+01 -.329E+02 0.391E+01   -.217E+01 0.339E+02 -.382E+01   -.813E-01 -.405E+00 0.149E+00   -.292E-05 0.112E-03 0.943E-04
   -.244E-01 -.328E+01 0.133E+00   -.179E-01 0.379E+01 -.128E-01   0.644E-01 -.231E+00 -.626E-01   -.185E-05 0.655E-04 0.672E-04
   -.413E+00 0.155E+02 -.122E+02   0.182E+00 -.154E+02 0.125E+02   0.124E+00 -.661E-01 0.886E-01   0.228E-05 -.778E-04 -.116E-04
   0.122E+01 -.276E+01 -.209E+02   -.150E+01 0.247E+01 0.218E+02   -.328E-02 0.223E+00 0.493E+00   -.136E-05 0.203E-04 0.160E-03
   0.724E-01 0.528E+01 -.136E+02   0.923E-02 -.543E+01 0.134E+02   0.288E-01 0.163E+00 0.194E+00   -.211E-05 -.608E-04 0.824E-04
   0.162E+01 -.328E+02 -.338E+02   -.142E+01 0.333E+02 0.345E+02   -.269E-01 -.185E+00 -.210E+00   -.405E-05 0.634E-04 -.322E-04
   -.311E+00 0.139E+02 0.172E+02   0.151E+00 -.139E+02 -.178E+02   0.115E+00 -.660E-01 0.385E+00   0.706E-06 -.120E-03 0.678E-04
   -.223E-01 -.941E+01 0.705E+01   -.465E-01 0.977E+01 -.718E+01   0.384E-01 -.338E+00 -.429E-01   0.409E-05 0.801E-04 -.835E-04
   -.101E+02 0.146E+02 0.129E+02   0.115E+02 -.168E+02 -.131E+02   0.226E+01 -.540E+00 -.262E+01   0.115E-04 0.119E-04 -.665E-04
   -.412E+00 -.156E+02 0.117E+02   0.190E+00 0.155E+02 -.120E+02   0.137E+00 0.736E-01 -.981E-01   0.118E-05 0.109E-03 0.423E-04
   -.465E-01 0.347E+01 -.523E+00   -.145E-01 -.399E+01 0.416E+00   0.922E-01 0.266E+00 0.472E-01   0.130E-05 -.180E-04 0.931E-06
   0.217E+01 0.325E+02 -.530E+01   -.202E+01 -.335E+02 0.533E+01   -.271E-01 0.570E+00 -.131E-01   -.194E-05 -.909E-04 -.115E-03
   0.977E+01 -.349E+02 -.320E+02   -.108E+02 0.355E+02 0.339E+02   -.216E+01 0.105E+01 0.129E+01   -.201E-04 0.963E-04 0.214E-04
   -.123E+01 0.457E+01 0.139E+02   0.125E+01 -.436E+01 -.141E+02   -.269E+00 0.318E+00 -.335E+00   -.431E-05 -.857E-05 -.994E-04
   -.294E+01 0.570E+02 0.503E+02   0.268E+01 -.577E+02 -.522E+02   0.926E-01 -.126E+01 0.968E+00   0.131E-04 -.190E-03 -.131E-03
   0.977E+01 -.349E+02 -.320E+02   -.108E+02 0.355E+02 0.339E+02   -.216E+01 0.105E+01 0.129E+01   -.163E-04 0.960E-04 0.216E-04
   -.123E+01 0.457E+01 0.139E+02   0.125E+01 -.436E+01 -.141E+02   -.269E+00 0.318E+00 -.335E+00   -.207E-05 -.905E-05 -.979E-04
   -.294E+01 0.570E+02 0.503E+02   0.268E+01 -.577E+02 -.522E+02   0.926E-01 -.126E+01 0.968E+00   0.139E-04 -.191E-03 -.132E-03
   -.297E+01 -.548E+02 -.504E+02   0.268E+01 0.554E+02 0.522E+02   0.110E+00 0.107E+01 -.924E+00   0.615E-05 0.145E-03 0.382E-04
   -.129E+01 -.380E+01 -.131E+02   0.134E+01 0.354E+01 0.134E+02   -.256E+00 -.340E+00 0.122E+00   -.360E-05 0.687E-04 0.230E-04
   0.102E+02 0.340E+02 0.331E+02   -.114E+02 -.346E+02 -.352E+02   -.236E+01 -.100E+01 -.150E+01   -.254E-04 -.810E-04 -.964E-04
   -.297E+01 -.548E+02 -.504E+02   0.268E+01 0.554E+02 0.522E+02   0.110E+00 0.107E+01 -.924E+00   0.875E-05 0.145E-03 0.388E-04
   -.129E+01 -.380E+01 -.131E+02   0.134E+01 0.354E+01 0.134E+02   -.256E+00 -.340E+00 0.122E+00   -.403E-05 0.685E-04 0.233E-04
   0.102E+02 0.340E+02 0.331E+02   -.114E+02 -.346E+02 -.352E+02   -.236E+01 -.100E+01 -.150E+01   -.260E-04 -.811E-04 -.977E-04
 -----------------------------------------------------------------------------------------------
   -.920E+00 -.695E+00 0.174E+00   -.497E-13 -.142E-13 0.497E-13   0.797E+00 0.822E+00 0.203E-01   -.227E-04 0.940E-04 0.633E-04
 
 
 POSITION                                       TOTAL-FORCE (eV/Angst)
 -----------------------------------------------------------------------------------
      7.93299      7.93299      0.00000         3.974536      2.731157      3.273405
      5.93266      5.93266      2.82890        -0.037796     -0.021276      0.174267
      3.93232      3.93232      5.65780        -0.061519      0.063050      0.233490
      3.93232      3.93232      0.00000         0.162809     -0.129189     -0.625241
      1.93199      1.93199      2.82890         0.099731      0.024521      0.024518
     11.93366     11.93366      5.65780        -0.286277      0.088217     -1.374181
     11.93366     11.93366      0.00000         0.072273      0.609368      0.231799
      9.93333      9.93333      2.82890         0.024637      0.271244      0.053105
      7.93299      7.93299      5.65780        -0.104999      0.077673      0.403156
      5.93266      7.93299      1.41445        -0.285674     -0.062549      1.454780
      3.93232      5.93266      4.24335         0.112984      0.006972     -0.027476
      1.93199      3.93232      7.07225         0.172786      0.281170      0.444361
      9.93333     11.93366      1.41445        -0.082493     -0.071938     -0.412712
      7.93299      9.93333      4.24335         0.033862     -0.260859     -0.063600
      5.93266      7.93299      7.07225         0.121666     -0.500982      0.012529
      1.93199      3.93232      1.41445        -0.043648     -0.056349     -0.204300
      7.93299      1.93199      4.24335        -0.027870      0.021370     -0.184841
      9.93333     11.93366      7.07225         3.646758     -2.654819     -2.806200
      7.93299      3.93232      0.00000         0.162809     -0.129189     -0.625241
      5.93266      1.93199      2.82890         0.099731      0.024521      0.024518
      7.93299     11.93366      5.65780        -0.286277      0.088217     -1.374181
      3.93232      7.93299      0.00000         3.974536      2.731157      3.273405
      9.93333      5.93266      2.82890        -0.037796     -0.021276      0.174267
      7.93299      3.93232      5.65780        -0.061519      0.063050      0.233490
      7.93299     11.93366      0.00000         0.072273      0.609368      0.231799
      5.93266      9.93333      2.82890         0.024637      0.271244      0.053105
      3.93232      7.93299      5.65780        -0.104999      0.077673      0.403156
      9.93333      7.93299      1.41445        -0.285674     -0.062549      1.454780
      7.93299      5.93266      4.24335         0.112984      0.006972     -0.027476
      5.93266      3.93232      7.07225         0.172786      0.281170      0.444361
      5.93266      3.93232      1.41445        -0.043648     -0.056349     -0.204300
      3.93232      1.93199      4.24335        -0.027870      0.021370     -0.184841
      5.93266     11.93366      7.07225         3.646758     -2.654819     -2.806200
      5.93266     11.93366      1.41445        -0.082493     -0.071938     -0.412712
      3.93232      9.93333      4.24335         0.033862     -0.260859     -0.063600
      9.93333      7.93299      7.07225         0.121666     -0.500982      0.012529
      0.22769      0.63403      8.16329        -3.155259      1.632599      3.192519
     10.22936      9.30214      9.10626        -0.244265      0.523726     -0.605102
      8.22903      5.96825     10.04922        -0.168617     -1.989012     -0.996727
      4.22836      0.63403      8.16329        -3.155259      1.632599      3.192519
      6.22869      9.30214      9.10626        -0.244265      0.523726     -0.605102
      4.22836      5.96825     10.04922        -0.168617     -1.989012     -0.996727
      6.22869      1.96759      8.63477        -0.176917      1.603559      0.932175
      8.22903     10.63570      9.57774        -0.208723     -0.598673      0.388435
      6.22869      7.30181     10.52071        -3.537987     -1.588981     -3.518158
      2.22802      1.96759      8.63477        -0.176917      1.603559      0.932175
      4.22836     10.63570      9.57774        -0.208723     -0.598673      0.388435
     10.22936      7.30181     10.52071        -3.537987     -1.588981     -3.518158
 -----------------------------------------------------------------------------------
    total drift:                               -0.122771      0.127415      0.194813


--------------------------------------------------------------------------------------------------------



  FREE ENERGIE OF THE ION-ELECTRON SYSTEM (eV)
  ---------------------------------------------------
  free  energy   TOTEN  =      -194.88444642 eV

  energy  without entropy=     -194.88374887  energy(sigma->0) =     -194.88409764
 


--------------------------------------------------------------------------------------------------------


    POTLOK:  cpu time      0.8533: real time      0.8569


--------------------------------------------------------------------------------------------------------


     LOOP+:  cpu time    217.4998: real time    219.4226
    4ORBIT:  cpu time      0.0000: real time      0.0000

 total amount of memory used by VASP MPI-rank0   100330. kBytes
=======================================================================

   base      :      30000. kBytes
   nonlr-proj:       3333. kBytes
   fftplans  :       8408. kBytes
   grid      :       6069. kBytes
   one-center:         48. kBytes
   wavefun   :      52472. kBytes
 
  
  
 General timing and accounting informations for this job:
 ========================================================
  
                  Total CPU time used (sec):      243.983
                            User time (sec):      228.678
                          System time (sec):       15.305
                         Elapsed time (sec):      247.445
  
                   Maximum memory used (kb):      356816.
                   Average memory used (kb):          N/A
  
                          Minor page faults:        84798
                          Major page faults:           26
                 Voluntary context switches:         1629
