<?xml version="1.0" encoding="ISO-8859-1"?>
<modeling>
 <generator>
  <i name="program" type="string">vasp </i>
  <i name="version" type="string">6.4.3  </i>
  <i name="subversion" type="string">19Mar24 (build Oct 22 2024 11:23:12) complex                          parallel </i>
  <i name="platform" type="string">LinuxIFC </i>
  <i name="date" type="string">2025 06 03 </i>
  <i name="time" type="string">23:19:29 </i>
 </generator>
 <incar>
  <i type="string" name="SYSTEM">Si and Ge interface calculation</i>
  <i type="int" name="ISTART">     0</i>
  <i type="logical" name="ADDGRID"> T  </i>
  <i type="int" name="ISPIN">     2</i>
  <i name="AMIX">      0.60000000</i>
  <i type="int" name="ICHARG">     2</i>
  <i type="int" name="NELM">   100</i>
  <i name="EDIFF">      0.00000010</i>
  <i name="ENCUT">    700.00000000</i>
  <i name="ENAUG">    900.00000000</i>
  <i type="int" name="NBANDS">   116</i>
  <i name="NUPDOWN">      1.00000000</i>
  <i name="NELECT">    192.00000000</i>
  <i type="string" name="LREAL">AUTO</i>
  <i type="int" name="ISMEAR">     0</i>
  <i name="SIGMA">      0.01000000</i>
  <i type="int" name="LMAXMIX">     6</i>
  <i type="logical" name="LWAVE"> F  </i>
  <i type="logical" name="LVTOT"> F  </i>
  <i type="logical" name="LVHAR"> T  </i>
  <i type="logical" name="LASPH"> T  </i>
  <i type="logical" name="LMIXTAU"> T  </i>
 </incar>
 <primitive_cell>
  <structure name="primitive_cell" >
   <crystal>
    <varray name="basis" >
     <v>      -4.00066853       0.00000000       0.00000000 </v>
     <v>       0.00000000       0.00000000      11.61174393 </v>
     <v>       0.00000047      12.00200653       0.00000000 </v>
    </varray>
    <i name="volume">    557.55007502 </i>
    <varray name="rec_basis" >
     <v>      -0.24995822       0.00000001       0.00000000 </v>
     <v>       0.00000000       0.00000000       0.08611971 </v>
     <v>       0.00000000       0.08331940       0.00000000 </v>
    </varray>
   </crystal>
   <varray name="positions" >
    <v>       0.01708349       0.00000000       0.66097212 </v>
    <v>       0.51708368       0.24362403       0.49430546 </v>
    <v>       0.01708354       0.48724809       0.32763877 </v>
    <v>       0.01708348       0.00000000       0.32763884 </v>
    <v>       0.51708355       0.24362403       0.16097218 </v>
    <v>       0.01708377       0.48724809       0.99430549 </v>
    <v>       0.01708353       0.00000000       0.99430549 </v>
    <v>       0.51708333       0.24362403       0.82763886 </v>
    <v>       0.01708367       0.48724809       0.66097218 </v>
    <v>       0.51708367       0.12181202       0.66097206 </v>
    <v>       0.01708344       0.36543608       0.49430540 </v>
    <v>       0.51708366       0.60906017       0.32763872 </v>
    <v>       0.51708335       0.12181202       0.99430549 </v>
    <v>       0.01708363       0.36543608       0.82763886 </v>
    <v>       0.51708367       0.60906017       0.66097212 </v>
    <v>       0.51708342       0.12181202       0.32763884 </v>
    <v>       0.01708340       0.36543608       0.16097215 </v>
    <v>       0.51708365       0.60906017       0.99430543 </v>
    <v>       0.94308698       0.70301998       0.05282700 </v>
    <v>       0.44308695       0.78422803       0.77504915 </v>
    <v>       0.94308715       0.86543608       0.49727130 </v>
    <v>       0.44308709       0.74362403       0.16393802 </v>
    <v>       0.94308726       0.82483208       0.88616020 </v>
    <v>       0.44308747       0.90604013       0.60838234 </v>
   </varray>
  </structure>
  <varray name="primitive_index" >
   <v type="int" >        1 </v>
   <v type="int" >        2 </v>
   <v type="int" >       24 </v>
   <v type="int" >       19 </v>
   <v type="int" >       20 </v>
   <v type="int" >       21 </v>
   <v type="int" >       25 </v>
   <v type="int" >        8 </v>
   <v type="int" >        9 </v>
   <v type="int" >       10 </v>
   <v type="int" >       29 </v>
   <v type="int" >       30 </v>
   <v type="int" >       13 </v>
   <v type="int" >       14 </v>
   <v type="int" >       36 </v>
   <v type="int" >       31 </v>
   <v type="int" >       17 </v>
   <v type="int" >       18 </v>
   <v type="int" >       40 </v>
   <v type="int" >       38 </v>
   <v type="int" >       39 </v>
   <v type="int" >       43 </v>
   <v type="int" >       44 </v>
   <v type="int" >       45 </v>
  </varray>
 </primitive_cell>
 <kpoints>
  <generation param="Gamma">
   <v type="int" name="divisions">       4        3        3 </v>
   <v name="usershift">      0.00000000       0.00000000       0.00000000 </v>
   <v name="genvec1">      0.25000000       0.00000000       0.00000000 </v>
   <v name="genvec2">      0.00000000       0.33333333       0.00000000 </v>
   <v name="genvec3">      0.00000000       0.00000000       0.33333333 </v>
   <v name="shift">      0.00000000       0.00000000       0.00000000 </v>
  </generation>
  <varray name="kpointlist" >
   <v>       0.00000000       0.00000000       0.00000000 </v>
   <v>       0.25000000       0.00000000       0.00000000 </v>
   <v>       0.50000000       0.00000000       0.00000000 </v>
   <v>       0.00000000       0.33333333       0.00000000 </v>
   <v>       0.25000000       0.33333333       0.00000000 </v>
   <v>       0.50000000       0.33333333       0.00000000 </v>
   <v>      -0.25000000       0.33333333       0.00000000 </v>
   <v>       0.00000000       0.00000000       0.33333333 </v>
   <v>       0.25000000       0.00000000       0.33333333 </v>
   <v>       0.50000000       0.00000000       0.33333333 </v>
   <v>      -0.25000000      -0.00000000       0.33333333 </v>
   <v>       0.00000000       0.33333333       0.33333333 </v>
   <v>       0.25000000       0.33333333       0.33333333 </v>
   <v>       0.50000000       0.33333333       0.33333333 </v>
   <v>      -0.25000000       0.33333333       0.33333333 </v>
   <v>       0.00000000      -0.33333333       0.33333333 </v>
   <v>       0.25000000      -0.33333333       0.33333333 </v>
   <v>       0.50000000      -0.33333333       0.33333333 </v>
   <v>      -0.25000000      -0.33333333       0.33333333 </v>
  </varray>
  <varray name="weights" >
   <v>       0.02777778 </v>
   <v>       0.05555556 </v>
   <v>       0.02777778 </v>
   <v>       0.05555556 </v>
   <v>       0.05555556 </v>
   <v>       0.05555556 </v>
   <v>       0.05555556 </v>
   <v>       0.05555556 </v>
   <v>       0.05555556 </v>
   <v>       0.05555556 </v>
   <v>       0.05555556 </v>
   <v>       0.05555556 </v>
   <v>       0.05555556 </v>
   <v>       0.05555556 </v>
   <v>       0.05555556 </v>
   <v>       0.05555556 </v>
   <v>       0.05555556 </v>
   <v>       0.05555556 </v>
   <v>       0.05555556 </v>
  </varray>
 </kpoints>
 <parameters>
  <separator name="general" >
   <i type="string" name="SYSTEM">Si and Ge interface calculation</i>
   <i type="logical" name="LCOMPAT"> F  </i>
  </separator>
  <separator name="electronic" >
   <i type="string" name="PREC">normal</i>
   <i name="ENMAX">    700.00000000</i>
   <i name="ENAUG">    900.00000000</i>
   <i name="EDIFF">      0.00000010</i>
   <i type="int" name="IALGO">    38</i>
   <i type="int" name="IWAVPR">    10</i>
   <i type="int" name="NBANDS">   116</i>
   <i type="int" name="NBANDSLOW">    -1</i>
   <i type="int" name="NBANDSHIGH">    -1</i>
   <i name="NELECT">    192.00000000</i>
   <i type="int" name="TURBO">     0</i>
   <i type="int" name="IRESTART">     0</i>
   <i type="int" name="NREBOOT">     0</i>
   <i type="int" name="NMIN">     0</i>
   <i name="EREF">      0.00000000</i>
   <separator name="electronic smearing" >
    <i type="int" name="ISMEAR">     0</i>
    <i name="SIGMA">      0.01000000</i>
    <i name="KSPACING">      0.50000000</i>
    <i type="logical" name="KGAMMA"> T  </i>
    <i type="logical" name="KBLOWUP"> F  </i>
   </separator>
   <separator name="electronic projectors" >
    <i type="logical" name="LREAL"> T  </i>
    <v name="ROPT">     -0.00050000</v>
    <i type="int" name="LMAXPAW">  -100</i>
    <i type="int" name="LMAXMIX">     6</i>
    <i type="logical" name="NLSPLINE"> F  </i>
   </separator>
   <separator name="electronic startup" >
    <i type="int" name="ISTART">     0</i>
    <i type="int" name="ICHARG">     2</i>
    <i type="int" name="INIWAV">     1</i>
   </separator>
   <separator name="electronic spin" >
    <i type="int" name="ISPIN">     2</i>
    <i type="logical" name="LNONCOLLINEAR"> F  </i>
    <v name="MAGMOM">      0.02083333      0.02083333      0.02083333      0.02083333      0.02083333      0.02083333      0.02083333      0.02083333      0.02083333      0.02083333      0.02083333      0.02083333      0.02083333      0.02083333      0.02083333      0.02083333      0.02083333      0.02083333      0.02083333      0.02083333
      0.02083333      0.02083333      0.02083333      0.02083333      0.02083333      0.02083333      0.02083333      0.02083333      0.02083333      0.02083333      0.02083333      0.02083333      0.02083333      0.02083333      0.02083333      0.02083333      0.02083333      0.02083333      0.02083333      0.02083333
      0.02083333      0.02083333      0.02083333      0.02083333      0.02083333      0.02083333      0.02083333      0.02083333</v>
    <i name="NUPDOWN">      1.00000000</i>
    <i type="logical" name="LSORBIT"> F  </i>
    <v name="SAXIS">      0.00000000      0.00000000      1.00000000</v>
    <i type="logical" name="LSPIRAL"> F  </i>
    <v name="QSPIRAL">      0.00000000      0.00000000      0.00000000</v>
    <i type="logical" name="LZEROZ"> F  </i>
   </separator>
   <separator name="electronic exchange-correlation" >
    <i type="logical" name="LASPH"> T  </i>
   </separator>
   <separator name="electronic convergence" >
    <i type="int" name="NELM">   100</i>
    <i type="int" name="NELMDL">    -5</i>
    <i type="int" name="NELMIN">     2</i>
    <i name="ENINI">    700.00000000</i>
    <separator name="electronic convergence detail" >
     <i type="logical" name="LDIAG"> T  </i>
     <i type="logical" name="LSUBROT"> F  </i>
     <i name="WEIMIN">      0.00000000</i>
     <i name="EBREAK">      0.00000000</i>
     <i name="DEPER">      0.30000000</i>
     <i type="int" name="NRMM">     4</i>
     <i name="TIME">      0.40000000</i>
    </separator>
   </separator>
   <separator name="electronic mixer" >
    <i name="AMIX">      0.60000000</i>
    <i name="BMIX">      1.00000000</i>
    <i name="AMIN">      0.10000000</i>
    <i name="AMIX_MAG">      2.40000000</i>
    <i name="BMIX_MAG">      1.00000000</i>
    <separator name="electronic mixer details" >
     <i type="int" name="IMIX">     4</i>
     <i type="logical" name="MIXFIRST"> F  </i>
     <i type="int" name="MAXMIX">   -45</i>
     <i name="WC">    100.00000000</i>
     <i type="int" name="INIMIX">     1</i>
     <i type="int" name="MIXPRE">     1</i>
     <i type="int" name="MREMOVE">     5</i>
    </separator>
   </separator>
   <separator name="electronic dipolcorrection" >
    <i type="logical" name="LDIPOL"> F  </i>
    <i type="logical" name="LMONO"> F  </i>
    <i type="int" name="IDIPOL">     0</i>
    <i name="EPSILON">      1.00000000</i>
    <v name="DIPOL">   -100.00000000   -100.00000000   -100.00000000</v>
    <i name="EFIELD">      0.00000000</i>
    <i type="logical" name="LVACPOTAV"> F  </i>
   </separator>
  </separator>
  <separator name="grids" >
   <i type="int" name="NGX">    54</i>
   <i type="int" name="NGY">    84</i>
   <i type="int" name="NGZ">    80</i>
   <i type="int" name="NGXF">   108</i>
   <i type="int" name="NGYF">   168</i>
   <i type="int" name="NGZF">   160</i>
   <i type="logical" name="ADDGRID"> T  </i>
  </separator>
  <separator name="ionic" >
   <i type="int" name="NSW">     0</i>
   <i type="int" name="IBRION">    -1</i>
   <i type="int" name="MDALGO">     0</i>
   <i type="int" name="ISIF">     2</i>
   <i name="PSTRESS">      0.00000000</i>
   <i name="EDIFFG">      0.00000100</i>
   <i type="int" name="NFREE">     0</i>
   <i name="POTIM">      0.50000000</i>
   <i name="SMASS">     -3.00000000</i>
   <i name="SCALEE">      1.00000000</i>
  </separator>
  <separator name="ionic md" >
   <i name="TEBEG">      0.00010000</i>
   <i name="TEEND">      0.00010000</i>
   <i type="int" name="NBLOCK">     1</i>
   <i type="int" name="KBLOCK">     1</i>
   <i type="int" name="NPACO">   256</i>
   <i name="APACO">     10.00000000</i>
  </separator>
  <separator name="symmetry" >
   <i type="int" name="ISYM">     2</i>
   <i name="SYMPREC">      0.00001000</i>
  </separator>
  <separator name="dos" >
   <i type="int" name="LORBIT">     0</i>
   <v name="RWIGS">     -1.00000000</v>
   <i type="int" name="NEDOS">   301</i>
   <i name="EMIN">     10.00000000</i>
   <i name="EMAX">    -10.00000000</i>
   <i name="EFERMI">      0.00000000</i>
  </separator>
  <separator name="writing" >
   <i type="int" name="NWRITE">     2</i>
   <i type="logical" name="LWAVE"> F  </i>
   <i type="logical" name="LDOWNSAMPLE"> F  </i>
   <i type="logical" name="LCHARG"> T  </i>
   <i type="logical" name="LPARD"> F  </i>
   <i type="logical" name="LVTOT"> F  </i>
   <i type="logical" name="LVHAR"> T  </i>
   <i type="logical" name="LELF"> F  </i>
   <i type="logical" name="LOPTICS"> F  </i>
   <v name="STM">      0.00000000      0.00000000      0.00000000      0.00000000      0.00000000      0.00000000      0.00000000</v>
  </separator>
  <separator name="performance" >
   <i type="int" name="NPAR">     4</i>
   <i type="int" name="NSIM">     4</i>
   <i type="int" name="NBLK">    -1</i>
   <i type="logical" name="LPLANE"> T  </i>
   <i type="logical" name="LSCALAPACK"> T  </i>
   <i type="logical" name="LSCAAWARE"> F  </i>
   <i type="logical" name="LSCALU"> F  </i>
   <i type="logical" name="LASYNC"> F  </i>
   <i type="logical" name="LORBITALREAL"> F  </i>
  </separator>
  <separator name="miscellaneous" >
   <i type="int" name="IDIOT">     3</i>
   <i type="int" name="PHON_NSTRUCT">    -1</i>
   <i type="logical" name="LMUSIC"> F  </i>
   <v name="POMASS">     72.61000000</v>
   <v name="DARWINR">      0.00000000</v>
   <v name="DARWINV">      1.00000000</v>
   <i type="logical" name="LCORR"> T  </i>
  </separator>
  <i type="logical" name="GGA_COMPAT"> T  </i>
  <i type="logical" name="LBERRY"> F  </i>
  <i type="int" name="ICORELEVEL">     0</i>
  <i type="logical" name="LDAU"> F  </i>
  <i type="int" name="I_CONSTRAINED_M">     0</i>
  <separator name="electronic exchange-correlation" >
   <i type="string" name="GGA    ">PE</i>
   <i type="string" name="XC_C">1</i>
   <i type="int" name="VOSKOWN">     0</i>
   <i type="logical" name="LHFCALC"> F  </i>
   <i type="string" name="PRECFOCK"></i>
   <i type="logical" name="LSYMGRAD"> F  </i>
   <i type="logical" name="LHFONE"> F  </i>
   <i type="logical" name="LRHFCALC"> F  </i>
   <i type="logical" name="LTHOMAS"> F  </i>
   <i type="logical" name="LMODELHF"> F  </i>
   <i type="logical" name="LFOCKACE"> F  </i>
   <i name="ENCUT4O">     -1.00000000</i>
   <i type="int" name="EXXOEP">     0</i>
   <i type="int" name="FOURORBIT">     0</i>
   <i name="AEXX">      0.00000000</i>
   <i name="HFALPHA">      0.00000000</i>
   <i name="MCALPHA">      0.00000000</i>
   <i name="ALDAX">      1.00000000</i>
   <i name="AGGAX">      1.00000000</i>
   <i name="AMGGAX">      1.00000000</i>
   <i name="ALDAC">      1.00000000</i>
   <i name="AGGAC">      1.00000000</i>
   <i name="AMGGAC">      1.00000000</i>
   <i type="int" name="NKREDX">     1</i>
   <i type="int" name="NKREDY">     1</i>
   <i type="int" name="NKREDZ">     1</i>
   <i type="logical" name="SHIFTRED"> F  </i>
   <i type="logical" name="ODDONLY"> F  </i>
   <i type="logical" name="EVENONLY"> F  </i>
   <i type="int" name="LMAXFOCK">     0</i>
   <i type="int" name="NMAXFOCKAE">     0</i>
   <i type="logical" name="LFOCKAEDFT"> F  </i>
   <i name="HFSCREEN">      0.00000000</i>
   <i name="HFSCREENC">      0.00000000</i>
   <i type="int" name="NBANDSGWLOW">     0</i>
  </separator>
  <separator name="vdW DFT" >
   <i type="logical" name="LUSE_VDW"> F  </i>
   <i type="int" name="IVDW_NL">    -1</i>
   <i type="logical" name="LSPIN_VDW"> F  </i>
   <i name="ZAB_VDW">     -0.84910000</i>
   <i name="GAMMA_VDW">      1.39626340</i>
   <i name="ALPHA_VDW">      0.00000000</i>
   <i name="PARAM1">      0.12340000</i>
   <i name="PARAM2">      1.00000000</i>
   <i name="BPARAM">      6.30000000</i>
   <i name="CPARAM">      0.00930000</i>
  </separator>
  <separator name="model GW" >
   <i type="int" name="MODEL_GW">     0</i>
   <i name="MODEL_EPS0">     13.93875352</i>
   <i name="MODEL_ALPHA">      1.00000000</i>
  </separator>
  <separator name="linear response parameters" >
   <i type="logical" name="LEPSILON"> F  </i>
   <i type="logical" name="LRPA"> F  </i>
   <i type="logical" name="LNABLA"> F  </i>
   <i type="logical" name="LVEL"> F  </i>
   <i name="CSHIFT">      0.10000000</i>
   <i name="OMEGAMAX">     -1.00000000</i>
   <i name="DEG_THRESHOLD">      0.00200000</i>
   <i name="RTIME">     -0.10000000</i>
   <i name="WPLASMAI">      0.00000000</i>
   <v name="DFIELD">      0.00000000      0.00000000      0.00000000</v>
   <v name="WPLASMA">      0.00000000      0.00000000      0.00000000      0.00000000      0.00000000      0.00000000      0.00000000      0.00000000      0.00000000</v>
  </separator>
  <separator name="orbital magnetization" >
   <i type="logical" name="NUCIND"> F  </i>
   <v name="MAGPOS">      0.00000000      0.00000000      0.00000000</v>
   <i type="logical" name="LNICSALL"> T  </i>
   <i type="logical" name="ORBITALMAG"> F  </i>
   <i type="logical" name="LMAGBLOCH"> F  </i>
   <i type="logical" name="LCHIMAG"> F  </i>
   <i type="logical" name="LGAUGE"> T  </i>
   <i type="int" name="MAGATOM">     0</i>
   <v name="MAGDIPOL">      0.00000000      0.00000000      0.00000000</v>
   <v name="AVECCONST">      0.00000000      0.00000000      0.00000000</v>
  </separator>
  <separator name="response functions" >
   <i type="logical" name="LALL_IN_ONE"> F  </i>
   <i type="int" name="IALL_IN_ONE">    -1</i>
   <i type="int" name="NBANDS_WAVE">    -1</i>
   <i type="logical" name="LFINITE_TEMPERATURE"> F  </i>
   <i type="logical" name="LADDER"> F  </i>
   <i type="logical" name="LRPAFORCE"> F  </i>
   <i type="logical" name="LFXC"> F  </i>
   <i type="logical" name="LHARTREE"> T  </i>
   <i type="int" name="IBSE">     0</i>
   <v type="int" name="KPOINT">    -1     0     0     0</v>
   <i type="logical" name="LTCTC"> F  </i>
   <i type="logical" name="LTCTE"> F  </i>
   <i type="logical" name="LTETE"> F  </i>
   <i type="logical" name="LTRIPLET"> F  </i>
   <i type="logical" name="LFXCEPS"> F  </i>
   <i type="logical" name="LFXHEG"> F  </i>
   <i type="int" name="NATURALO">     2</i>
   <i type="logical" name="LHOLEGF"> F  </i>
   <i type="logical" name="L2ORDER"> F  </i>
   <i type="logical" name="LDMP1"> F  </i>
   <i type="logical" name="LMP2LT"> F  </i>
   <i type="logical" name="LSMP2LT"> F  </i>
   <i type="logical" name="LGWLF"> F  </i>
   <i name="ENCUTGW">     -1.60000002</i>
   <i name="ENCUTGWSOFT">     -1.60000002</i>
   <i name="ENCUTLF">     -1.00000000</i>
   <i type="logical" name="ESF_SPLINES"> F  </i>
   <i name="ESF_CONV">      0.01000000</i>
   <i type="int" name="ESF_NINTER">    15</i>
   <i type="int" name="LMAXMP2">    -1</i>
   <i name="SCISSOR">      0.00000000</i>
   <i type="int" name="NOMEGA">     0</i>
   <i type="int" name="NOMEGAR">     0</i>
   <i type="int" name="NBANDSGW">    -1</i>
   <i type="int" name="NBANDSO">    -1</i>
   <i type="int" name="NBANDSV">    -1</i>
   <i type="int" name="NELMGW">     1</i>
   <i type="int" name="NELMHF">     1</i>
   <i type="int" name="DIM">     3</i>
   <i type="int" name="IESPILON">     4</i>
   <i type="int" name="ANTIRES">     0</i>
   <i name="OMEGAMAX">    -30.00000000</i>
   <i name="OMEGAMIN">    -30.00000000</i>
   <i name="OMEGATL">   -200.00000000</i>
   <i type="int" name="OMEGAGRID">     0</i>
   <i name="CSHIFT">     -0.10000000</i>
   <i type="logical" name="LSELFENERGY"> F  </i>
   <i type="logical" name="LSPECTRAL"> F  </i>
   <i type="logical" name="LSPECTRALGW"> F  </i>
   <i type="logical" name="LSINGLES"> F  </i>
   <i type="logical" name="LFERMIGW"> F  </i>
   <i type="logical" name="ODDONLYGW"> F  </i>
   <i type="logical" name="EVENONLYGW"> F  </i>
   <i type="int" name="NKREDLFX">     1</i>
   <i type="int" name="NKREDLFY">     1</i>
   <i type="int" name="NKREDLFZ">     1</i>
   <i type="int" name="MAXMEM">  2800</i>
   <i type="int" name="TELESCOPE">     0</i>
   <i type="int" name="NTAUPAR">    -1</i>
   <i type="int" name="NOMEGAPAR">    -1</i>
   <i name="DAMP_NEWTON">      0.80000001</i>
   <i name="LAMBDA">      1.00000000</i>
  </separator>
  <separator name="External order field" >
   <i name="OFIELD_KAPPA">      0.00000000</i>
   <v name="OFIELD_K">      0.00000000      0.00000000      0.00000000</v>
   <i name="OFIELD_Q6_NEAR">      0.00000000</i>
   <i name="OFIELD_Q6_FAR">      0.00000000</i>
   <i name="OFIELD_A">      0.00000000</i>
  </separator>
  <separator name="optional k-points parameters" >
   <i type="int" name="KPOINTS_OPT_MODE">     1</i>
   <i type="logical" name="LKPOINTS_OPT"> F  </i>
  </separator>
 </parameters>
 <atominfo>
  <atoms>      48 </atoms>
  <types>       1 </types>
  <array name="atoms" >
   <dimension dim="1">ion</dimension>
   <field type="string">element</field>
   <field type="int">atomtype</field>
   <set>
    <rc><c>Ge</c><c>   1</c></rc>
    <rc><c>Ge</c><c>   1</c></rc>
    <rc><c>Ge</c><c>   1</c></rc>
    <rc><c>Ge</c><c>   1</c></rc>
    <rc><c>Ge</c><c>   1</c></rc>
    <rc><c>Ge</c><c>   1</c></rc>
    <rc><c>Ge</c><c>   1</c></rc>
    <rc><c>Ge</c><c>   1</c></rc>
    <rc><c>Ge</c><c>   1</c></rc>
    <rc><c>Ge</c><c>   1</c></rc>
    <rc><c>Ge</c><c>   1</c></rc>
    <rc><c>Ge</c><c>   1</c></rc>
    <rc><c>Ge</c><c>   1</c></rc>
    <rc><c>Ge</c><c>   1</c></rc>
    <rc><c>Ge</c><c>   1</c></rc>
    <rc><c>Ge</c><c>   1</c></rc>
    <rc><c>Ge</c><c>   1</c></rc>
    <rc><c>Ge</c><c>   1</c></rc>
    <rc><c>Ge</c><c>   1</c></rc>
    <rc><c>Ge</c><c>   1</c></rc>
    <rc><c>Ge</c><c>   1</c></rc>
    <rc><c>Ge</c><c>   1</c></rc>
    <rc><c>Ge</c><c>   1</c></rc>
    <rc><c>Ge</c><c>   1</c></rc>
    <rc><c>Ge</c><c>   1</c></rc>
    <rc><c>Ge</c><c>   1</c></rc>
    <rc><c>Ge</c><c>   1</c></rc>
    <rc><c>Ge</c><c>   1</c></rc>
    <rc><c>Ge</c><c>   1</c></rc>
    <rc><c>Ge</c><c>   1</c></rc>
    <rc><c>Ge</c><c>   1</c></rc>
    <rc><c>Ge</c><c>   1</c></rc>
    <rc><c>Ge</c><c>   1</c></rc>
    <rc><c>Ge</c><c>   1</c></rc>
    <rc><c>Ge</c><c>   1</c></rc>
    <rc><c>Ge</c><c>   1</c></rc>
    <rc><c>Ge</c><c>   1</c></rc>
    <rc><c>Ge</c><c>   1</c></rc>
    <rc><c>Ge</c><c>   1</c></rc>
    <rc><c>Ge</c><c>   1</c></rc>
    <rc><c>Ge</c><c>   1</c></rc>
    <rc><c>Ge</c><c>   1</c></rc>
    <rc><c>Ge</c><c>   1</c></rc>
    <rc><c>Ge</c><c>   1</c></rc>
    <rc><c>Ge</c><c>   1</c></rc>
    <rc><c>Ge</c><c>   1</c></rc>
    <rc><c>Ge</c><c>   1</c></rc>
    <rc><c>Ge</c><c>   1</c></rc>
   </set>
  </array>
  <array name="atomtypes" >
   <dimension dim="1">type</dimension>
   <field type="int">atomspertype</field>
   <field type="string">element</field>
   <field>mass</field>
   <field>valence</field>
   <field type="string">pseudopotential</field>
   <set>
    <rc><c>  48</c><c>Ge</c><c>     72.61000000</c><c>      4.00000000</c><c>  PAW_PBE Ge 05Jan2001                  </c></rc>
   </set>
  </array>
 </atominfo>
 <structure name="initialpos" >
  <crystal>
   <varray name="basis" >
    <v>       8.00133800       0.00000000       0.00000000 </v>
    <v>       4.00066900      12.00200653       0.00000000 </v>
    <v>       0.00000000       0.00000000      11.61174393 </v>
   </varray>
   <i name="volume">   1115.10028162 </i>
   <varray name="rec_basis" >
    <v>       0.12497910      -0.04165970       0.00000000 </v>
    <v>       0.00000000       0.08331940       0.00000000 </v>
    <v>       0.00000000       0.00000000       0.08611971 </v>
   </varray>
  </crystal>
  <varray name="positions" >
   <v>       0.66097212       0.66097212       0.00000000 </v>
   <v>       0.49430537       0.49430546       0.24362403 </v>
   <v>       0.32763863       0.32763877       0.48724809 </v>
   <v>       0.32763880       0.32763880       0.00000000 </v>
   <v>       0.16097209       0.16097215       0.24362403 </v>
   <v>       0.99430531       0.99430549       0.48724809 </v>
   <v>       0.99430549       0.99430549       0.00000000 </v>
   <v>       0.82763880       0.82763886       0.24362403 </v>
   <v>       0.66097200       0.66097218       0.48724809 </v>
   <v>       0.41097209       0.66097206       0.12181202 </v>
   <v>       0.24430537       0.49430540       0.36543608 </v>
   <v>       0.07763863       0.32763872       0.60906017 </v>
   <v>       0.74430549       0.99430549       0.12181202 </v>
   <v>       0.57763869       0.82763886       0.36543608 </v>
   <v>       0.41097194       0.66097212       0.60906017 </v>
   <v>       0.07763884       0.32763884       0.12181202 </v>
   <v>       0.91097212       0.16097215       0.36543608 </v>
   <v>       0.74430537       0.99430543       0.60906017 </v>
   <v>       0.82763875       0.32763884       0.00000000 </v>
   <v>       0.66097206       0.16097218       0.24362403 </v>
   <v>       0.49430531       0.99430549       0.48724809 </v>
   <v>       0.16097221       0.66097212       0.00000000 </v>
   <v>       0.99430549       0.49430549       0.24362403 </v>
   <v>       0.82763875       0.32763877       0.48724809 </v>
   <v>       0.49430543       0.99430549       0.00000000 </v>
   <v>       0.32763872       0.82763886       0.24362403 </v>
   <v>       0.16097200       0.66097212       0.48724809 </v>
   <v>       0.91097230       0.66097206       0.12181202 </v>
   <v>       0.74430549       0.49430540       0.36543608 </v>
   <v>       0.57763875       0.32763872       0.60906017 </v>
   <v>       0.57763880       0.32763884       0.12181202 </v>
   <v>       0.41097203       0.16097215       0.36543608 </v>
   <v>       0.24430528       0.99430543       0.60906017 </v>
   <v>       0.24430548       0.99430549       0.12181202 </v>
   <v>       0.07763872       0.82763886       0.36543608 </v>
   <v>       0.91097200       0.66097212       0.60906017 </v>
   <v>       0.00204301       0.05282700       0.70301998 </v>
   <v>       0.89093184       0.77504915       0.78422803 </v>
   <v>       0.77982068       0.49727130       0.86543608 </v>
   <v>       0.50204295       0.05282700       0.70301998 </v>
   <v>       0.39093182       0.77504909       0.78422803 </v>
   <v>       0.27982068       0.49727130       0.86543608 </v>
   <v>       0.69648737       0.16393802       0.74362403 </v>
   <v>       0.58537620       0.88616020       0.82483208 </v>
   <v>       0.47426504       0.60838234       0.90604013 </v>
   <v>       0.19648738       0.16393802       0.74362403 </v>
   <v>       0.08537624       0.88616020       0.82483208 </v>
   <v>       0.97426510       0.60838228       0.90604013 </v>
  </varray>
 </structure>
 <calculation>
  <scstep>
   <time name="dav">    9.31    9.39</time>
   <time name="total">   10.19   10.27</time>
   <energy>
    <i name="alphaZ">    394.91412864 </i>
    <i name="ewald">  -4962.94068836 </i>
    <i name="hartreedc">   -532.93777098 </i>
    <i name="XCdc">   -360.37193683 </i>
    <i name="pawpsdc">   4230.96766597 </i>
    <i name="pawaedc">  -3535.56392164 </i>
    <i name="eentropy">     -0.00041172 </i>
    <i name="bandstr">    686.91602340 </i>
    <i name="atom">   5039.80367324 </i>
    <i name="e_fr_energy">    960.78676171 </i>
    <i name="e_wo_entrp">    960.78717343 </i>
    <i name="e_0_energy">    960.78696757 </i>
   </energy>
  </scstep>
  <scstep>
   <time name="dav">   10.27   10.36</time>
   <time name="total">   10.27   10.36</time>
   <energy>
    <i name="e_fr_energy">    -86.32017978 </i>
    <i name="e_wo_entrp">    -86.31936883 </i>
    <i name="e_0_energy">    -86.31977431 </i>
   </energy>
  </scstep>
  <scstep>
   <time name="dav">   10.79   10.89</time>
   <time name="total">   10.80   10.89</time>
   <energy>
    <i name="e_fr_energy">   -193.07451304 </i>
    <i name="e_wo_entrp">   -193.07339947 </i>
    <i name="e_0_energy">   -193.07395625 </i>
   </energy>
  </scstep>
  <scstep>
   <time name="dav">   10.45   10.54</time>
   <time name="total">   10.46   10.54</time>
   <energy>
    <i name="e_fr_energy">   -197.01283939 </i>
    <i name="e_wo_entrp">   -197.01164147 </i>
    <i name="e_0_energy">   -197.01224043 </i>
   </energy>
  </scstep>
  <scstep>
   <time name="dav">   11.16   11.25</time>
   <time name="total">   11.73   11.82</time>
   <energy>
    <i name="e_fr_energy">   -197.15966165 </i>
    <i name="e_wo_entrp">   -197.15849242 </i>
    <i name="e_0_energy">   -197.15907703 </i>
   </energy>
  </scstep>
  <scstep>
   <time name="dav">   10.26   10.35</time>
   <time name="total">   11.67   11.77</time>
   <energy>
    <i name="e_fr_energy">   -195.08914044 </i>
    <i name="e_wo_entrp">   -195.08845910 </i>
    <i name="e_0_energy">   -195.08879977 </i>
   </energy>
  </scstep>
  <scstep>
   <time name="dav">   10.27   10.36</time>
   <time name="total">   11.68   11.78</time>
   <energy>
    <i name="e_fr_energy">   -194.95417048 </i>
    <i name="e_wo_entrp">   -194.95346843 </i>
    <i name="e_0_energy">   -194.95381946 </i>
   </energy>
  </scstep>
  <scstep>
   <time name="dav">   10.29   10.37</time>
   <time name="total">   11.71   11.79</time>
   <energy>
    <i name="e_fr_energy">   -194.87438992 </i>
    <i name="e_wo_entrp">   -194.87363435 </i>
    <i name="e_0_energy">   -194.87401214 </i>
   </energy>
  </scstep>
  <scstep>
   <time name="dav">   10.69   10.78</time>
   <time name="total">   12.10   12.20</time>
   <energy>
    <i name="e_fr_energy">   -194.88318987 </i>
    <i name="e_wo_entrp">   -194.88236664 </i>
    <i name="e_0_energy">   -194.88277825 </i>
   </energy>
  </scstep>
  <scstep>
   <time name="dav">   10.15   10.23</time>
   <time name="total">   11.56   11.65</time>
   <energy>
    <i name="e_fr_energy">   -194.88351925 </i>
    <i name="e_wo_entrp">   -194.88280471 </i>
    <i name="e_0_energy">   -194.88316198 </i>
   </energy>
  </scstep>
  <scstep>
   <time name="dav">   10.44   10.53</time>
   <time name="total">   11.86   11.96</time>
   <energy>
    <i name="e_fr_energy">   -194.88437530 </i>
    <i name="e_wo_entrp">   -194.88370707 </i>
    <i name="e_0_energy">   -194.88404119 </i>
   </energy>
  </scstep>
  <scstep>
   <time name="dav">   10.14   10.22</time>
   <time name="total">   11.57   11.66</time>
   <energy>
    <i name="e_fr_energy">   -194.88439843 </i>
    <i name="e_wo_entrp">   -194.88369983 </i>
    <i name="e_0_energy">   -194.88404913 </i>
   </energy>
  </scstep>
  <scstep>
   <time name="dav">   10.30   10.38</time>
   <time name="total">   11.72   11.80</time>
   <energy>
    <i name="e_fr_energy">   -194.88444041 </i>
    <i name="e_wo_entrp">   -194.88373929 </i>
    <i name="e_0_energy">   -194.88408985 </i>
   </energy>
  </scstep>
  <scstep>
   <time name="dav">   10.23   10.31</time>
   <time name="total">   11.66   11.75</time>
   <energy>
    <i name="e_fr_energy">   -194.88444524 </i>
    <i name="e_wo_entrp">   -194.88374692 </i>
    <i name="e_0_energy">   -194.88409608 </i>
   </energy>
  </scstep>
  <scstep>
   <time name="dav">   10.26   10.34</time>
   <time name="total">   11.68   11.77</time>
   <energy>
    <i name="e_fr_energy">   -194.88444655 </i>
    <i name="e_wo_entrp">   -194.88374894 </i>
    <i name="e_0_energy">   -194.88409774 </i>
   </energy>
  </scstep>
  <scstep>
   <time name="dav">   10.08   10.16</time>
   <time name="total">   11.50   11.59</time>
   <energy>
    <i name="e_fr_energy">   -194.88444660 </i>
    <i name="e_wo_entrp">   -194.88374889 </i>
    <i name="e_0_energy">   -194.88409774 </i>
   </energy>
  </scstep>
  <scstep>
   <time name="dav">    7.26    7.31</time>
   <time name="total">    8.67    8.73</time>
   <energy>
    <i name="e_fr_energy">   -194.88444649 </i>
    <i name="e_wo_entrp">   -194.88374884 </i>
    <i name="e_0_energy">   -194.88409766 </i>
   </energy>
  </scstep>
  <scstep>
   <time name="dav">    6.96    7.01</time>
   <time name="total">    7.80    7.86</time>
   <energy>
    <i name="alphaZ">    394.91412864 </i>
    <i name="ewald">  -4962.94068836 </i>
    <i name="hartreedc">   -593.08686610 </i>
    <i name="XCdc">   -348.67982758 </i>
    <i name="pawpsdc">  10765.51019709 </i>
    <i name="pawaedc"> -10078.20254041 </i>
    <i name="eentropy">     -0.00069755 </i>
    <i name="bandstr">   -412.20182538 </i>
    <i name="atom">   5039.80367324 </i>
    <i name="e_fr_energy">   -194.88444642 </i>
    <i name="e_wo_entrp">   -194.88374887 </i>
    <i name="e_0_energy">   -194.88409764 </i>
   </energy>
  </scstep>
  <structure>
   <crystal>
    <varray name="basis" >
     <v>       8.00133800       0.00000000       0.00000000 </v>
     <v>       4.00066900      12.00200653       0.00000000 </v>
     <v>       0.00000000       0.00000000      11.61174393 </v>
    </varray>
    <i name="volume">   1115.10028162 </i>
    <varray name="rec_basis" >
     <v>       0.12497910      -0.04165970       0.00000000 </v>
     <v>       0.00000000       0.08331940       0.00000000 </v>
     <v>       0.00000000       0.00000000       0.08611971 </v>
    </varray>
   </crystal>
   <varray name="positions" >
    <v>       0.66097212       0.66097212       0.00000000 </v>
    <v>       0.49430537       0.49430546       0.24362403 </v>
    <v>       0.32763863       0.32763877       0.48724809 </v>
    <v>       0.32763880       0.32763880       0.00000000 </v>
    <v>       0.16097209       0.16097215       0.24362403 </v>
    <v>       0.99430531       0.99430549       0.48724809 </v>
    <v>       0.99430549       0.99430549       0.00000000 </v>
    <v>       0.82763880       0.82763886       0.24362403 </v>
    <v>       0.66097200       0.66097218       0.48724809 </v>
    <v>       0.41097209       0.66097206       0.12181202 </v>
    <v>       0.24430537       0.49430540       0.36543608 </v>
    <v>       0.07763863       0.32763872       0.60906017 </v>
    <v>       0.74430549       0.99430549       0.12181202 </v>
    <v>       0.57763869       0.82763886       0.36543608 </v>
    <v>       0.41097194       0.66097212       0.60906017 </v>
    <v>       0.07763884       0.32763884       0.12181202 </v>
    <v>       0.91097212       0.16097215       0.36543608 </v>
    <v>       0.74430537       0.99430543       0.60906017 </v>
    <v>       0.82763875       0.32763884       0.00000000 </v>
    <v>       0.66097206       0.16097218       0.24362403 </v>
    <v>       0.49430531       0.99430549       0.48724809 </v>
    <v>       0.16097221       0.66097212       0.00000000 </v>
    <v>       0.99430549       0.49430549       0.24362403 </v>
    <v>       0.82763875       0.32763877       0.48724809 </v>
    <v>       0.49430543       0.99430549       0.00000000 </v>
    <v>       0.32763872       0.82763886       0.24362403 </v>
    <v>       0.16097200       0.66097212       0.48724809 </v>
    <v>       0.91097230       0.66097206       0.12181202 </v>
    <v>       0.74430549       0.49430540       0.36543608 </v>
    <v>       0.57763875       0.32763872       0.60906017 </v>
    <v>       0.57763880       0.32763884       0.12181202 </v>
    <v>       0.41097203       0.16097215       0.36543608 </v>
    <v>       0.24430528       0.99430543       0.60906017 </v>
    <v>       0.24430548       0.99430549       0.12181202 </v>
    <v>       0.07763872       0.82763886       0.36543608 </v>
    <v>       0.91097200       0.66097212       0.60906017 </v>
    <v>       0.00204301       0.05282700       0.70301998 </v>
    <v>       0.89093184       0.77504915       0.78422803 </v>
    <v>       0.77982068       0.49727130       0.86543608 </v>
    <v>       0.50204295       0.05282700       0.70301998 </v>
    <v>       0.39093182       0.77504909       0.78422803 </v>
    <v>       0.27982068       0.49727130       0.86543608 </v>
    <v>       0.69648737       0.16393802       0.74362403 </v>
    <v>       0.58537620       0.88616020       0.82483208 </v>
    <v>       0.47426504       0.60838234       0.90604013 </v>
    <v>       0.19648738       0.16393802       0.74362403 </v>
    <v>       0.08537624       0.88616020       0.82483208 </v>
    <v>       0.97426510       0.60838228       0.90604013 </v>
   </varray>
  </structure>
  <varray name="forces" >
   <v>       3.97453587       2.73115716       3.27340453 </v>
   <v>      -0.03779560      -0.02127589       0.17426665 </v>
   <v>      -0.06151900       0.06304954       0.23349042 </v>
   <v>       0.16280937      -0.12918895      -0.62524092 </v>
   <v>       0.09973103       0.02452099       0.02451815 </v>
   <v>      -0.28627747       0.08821746      -1.37418077 </v>
   <v>       0.07227346       0.60936833       0.23179876 </v>
   <v>       0.02463730       0.27124365       0.05310513 </v>
   <v>      -0.10499866       0.07767265       0.40315604 </v>
   <v>      -0.28567448      -0.06254929       1.45478038 </v>
   <v>       0.11298378       0.00697223      -0.02747616 </v>
   <v>       0.17278596       0.28116989       0.44436050 </v>
   <v>      -0.08249255      -0.07193803      -0.41271218 </v>
   <v>       0.03386189      -0.26085867      -0.06360045 </v>
   <v>       0.12166638      -0.50098201       0.01252917 </v>
   <v>      -0.04364798      -0.05634874      -0.20429998 </v>
   <v>      -0.02786962       0.02137025      -0.18484137 </v>
   <v>       3.64675813      -2.65481926      -2.80619998 </v>
   <v>       0.16280937      -0.12918895      -0.62524092 </v>
   <v>       0.09973103       0.02452099       0.02451815 </v>
   <v>      -0.28627747       0.08821746      -1.37418077 </v>
   <v>       3.97453587       2.73115716       3.27340453 </v>
   <v>      -0.03779560      -0.02127589       0.17426665 </v>
   <v>      -0.06151900       0.06304954       0.23349042 </v>
   <v>       0.07227346       0.60936833       0.23179876 </v>
   <v>       0.02463730       0.27124365       0.05310513 </v>
   <v>      -0.10499866       0.07767265       0.40315604 </v>
   <v>      -0.28567448      -0.06254929       1.45478038 </v>
   <v>       0.11298378       0.00697223      -0.02747616 </v>
   <v>       0.17278596       0.28116989       0.44436050 </v>
   <v>      -0.04364798      -0.05634874      -0.20429998 </v>
   <v>      -0.02786962       0.02137025      -0.18484137 </v>
   <v>       3.64675813      -2.65481926      -2.80619998 </v>
   <v>      -0.08249255      -0.07193803      -0.41271218 </v>
   <v>       0.03386189      -0.26085867      -0.06360045 </v>
   <v>       0.12166638      -0.50098201       0.01252917 </v>
   <v>      -3.15525901       1.63259912       3.19251942 </v>
   <v>      -0.24426464       0.52372607      -0.60510211 </v>
   <v>      -0.16861696      -1.98901168      -0.99672722 </v>
   <v>      -3.15525901       1.63259912       3.19251942 </v>
   <v>      -0.24426464       0.52372607      -0.60510211 </v>
   <v>      -0.16861696      -1.98901168      -0.99672722 </v>
   <v>      -0.17691694       1.60355933       0.93217544 </v>
   <v>      -0.20872305      -0.59867316       0.38843476 </v>
   <v>      -3.53798719      -1.58898098      -3.51815818 </v>
   <v>      -0.17691694       1.60355933       0.93217544 </v>
   <v>      -0.20872305      -0.59867316       0.38843476 </v>
   <v>      -3.53798719      -1.58898098      -3.51815818 </v>
  </varray>
  <varray name="stress" >
   <v>     128.75378625      -0.28198904       0.92196369 </v>
   <v>      -0.28198817      41.51652053      17.94964270 </v>
   <v>       0.92196373      17.94963835      82.75689965 </v>
  </varray>
  <energy>
   <i name="e_fr_energy">   -194.88444642 </i>
   <i name="e_wo_entrp">   -194.88374887 </i>
   <i name="e_0_energy">   -194.88409764 </i>
  </energy>
  <time name="totalsc">  217.50  219.42</time>
  <eigenvalues>
   <array>
    <dimension dim="1">band</dimension>
    <dimension dim="2">kpoint</dimension>
    <dimension dim="3">spin</dimension>
    <field>eigene</field>
    <field>occ</field>
    <set>
     <set comment="spin 1">
      <set comment="kpoint 1">
       <r>  -10.3824    1.0000 </r>
       <r>  -10.1998    1.0000 </r>
       <r>   -8.7467    1.0000 </r>
       <r>   -8.6151    1.0000 </r>
       <r>   -8.5274    1.0000 </r>
       <r>   -8.1855    1.0000 </r>
       <r>   -8.0297    1.0000 </r>
       <r>   -7.9619    1.0000 </r>
       <r>   -7.5843    1.0000 </r>
       <r>   -7.5667    1.0000 </r>
       <r>   -7.5006    1.0000 </r>
       <r>   -7.3712    1.0000 </r>
       <r>   -7.0395    1.0000 </r>
       <r>   -7.0369    1.0000 </r>
       <r>   -6.8688    1.0000 </r>
       <r>   -6.8041    1.0000 </r>
       <r>   -6.7879    1.0000 </r>
       <r>   -6.4339    1.0000 </r>
       <r>   -6.2010    1.0000 </r>
       <r>   -6.0504    1.0000 </r>
       <r>   -6.0369    1.0000 </r>
       <r>   -5.6026    1.0000 </r>
       <r>   -5.3978    1.0000 </r>
       <r>   -5.3971    1.0000 </r>
       <r>   -5.2622    1.0000 </r>
       <r>   -5.2058    1.0000 </r>
       <r>   -5.0053    1.0000 </r>
       <r>   -4.9795    1.0000 </r>
       <r>   -4.8606    1.0000 </r>
       <r>   -4.4104    1.0000 </r>
       <r>   -4.2892    1.0000 </r>
       <r>   -4.1893    1.0000 </r>
       <r>   -4.1553    1.0000 </r>
       <r>   -3.8736    1.0000 </r>
       <r>   -3.8697    1.0000 </r>
       <r>   -3.6017    1.0000 </r>
       <r>   -3.4699    1.0000 </r>
       <r>   -3.4662    1.0000 </r>
       <r>   -3.2792    1.0000 </r>
       <r>   -3.2683    1.0000 </r>
       <r>   -3.2618    1.0000 </r>
       <r>   -2.4370    1.0000 </r>
       <r>   -2.2769    1.0000 </r>
       <r>   -2.1647    1.0000 </r>
       <r>   -1.4222    1.0000 </r>
       <r>   -1.3110    1.0000 </r>
       <r>   -1.0686    1.0000 </r>
       <r>   -1.0478    1.0000 </r>
       <r>   -1.0107    1.0000 </r>
       <r>   -0.7480    1.0000 </r>
       <r>   -0.7381    1.0000 </r>
       <r>   -0.5590    1.0000 </r>
       <r>   -0.3190    1.0000 </r>
       <r>   -0.2802    1.0000 </r>
       <r>   -0.2689    1.0000 </r>
       <r>   -0.2669    1.0000 </r>
       <r>   -0.1147    1.0000 </r>
       <r>   -0.1069    1.0000 </r>
       <r>   -0.0993    1.0000 </r>
       <r>    0.0791    1.0000 </r>
       <r>    0.3517    1.0000 </r>
       <r>    0.3772    1.0000 </r>
       <r>    0.4195    1.0000 </r>
       <r>    0.4239    1.0000 </r>
       <r>    0.7073    1.0000 </r>
       <r>    0.7718    1.0000 </r>
       <r>    0.7753    1.0000 </r>
       <r>    0.7924    1.0000 </r>
       <r>    0.8303    1.0000 </r>
       <r>    0.8323    1.0000 </r>
       <r>    0.8604    1.0000 </r>
       <r>    1.0682    1.0000 </r>
       <r>    1.0896    1.0000 </r>
       <r>    1.2578    1.0000 </r>
       <r>    1.2796    1.0000 </r>
       <r>    1.3546    1.0000 </r>
       <r>    1.4307    1.0000 </r>
       <r>    1.4700    1.0000 </r>
       <r>    1.6032    1.0000 </r>
       <r>    1.6824    1.0000 </r>
       <r>    1.8113    1.0000 </r>
       <r>    1.9787    1.0000 </r>
       <r>    1.9792    1.0000 </r>
       <r>    2.0152    1.0000 </r>
       <r>    2.1046    1.0000 </r>
       <r>    2.2309    1.0000 </r>
       <r>    2.2390    1.0000 </r>
       <r>    2.4390    1.0000 </r>
       <r>    2.5715    1.0000 </r>
       <r>    2.6672    1.0000 </r>
       <r>    2.6990    1.0000 </r>
       <r>    2.8555    1.0000 </r>
       <r>    2.9442    1.0000 </r>
       <r>    2.9566    1.0000 </r>
       <r>    3.1270    1.0000 </r>
       <r>    3.2351    1.0000 </r>
       <r>    3.2585    1.0000 </r>
       <r>    3.4283    0.4894 </r>
       <r>    3.5181    0.0000 </r>
       <r>    3.8734    0.0000 </r>
       <r>    3.8794    0.0000 </r>
       <r>    3.9218    0.0000 </r>
       <r>    3.9375    0.0000 </r>
       <r>    4.4107    0.0000 </r>
       <r>    4.4202    0.0000 </r>
       <r>    4.4967    0.0000 </r>
       <r>    4.5314    0.0000 </r>
       <r>    4.5881    0.0000 </r>
       <r>    4.6898    0.0000 </r>
       <r>    4.7364    0.0000 </r>
       <r>    4.8488    0.0000 </r>
       <r>    4.8891    0.0000 </r>
       <r>    4.9696    0.0000 </r>
       <r>    4.9817    0.0000 </r>
       <r>    5.2050    0.0000 </r>
       <r>    5.2193    0.0000 </r>
      </set>
      <set comment="kpoint 2">
       <r>  -10.2434    1.0000 </r>
       <r>  -10.0634    1.0000 </r>
       <r>   -9.1843    1.0000 </r>
       <r>   -9.0269    1.0000 </r>
       <r>   -8.6145    1.0000 </r>
       <r>   -8.1408    1.0000 </r>
       <r>   -7.8849    1.0000 </r>
       <r>   -7.7804    1.0000 </r>
       <r>   -7.6610    1.0000 </r>
       <r>   -7.4783    1.0000 </r>
       <r>   -7.4633    1.0000 </r>
       <r>   -7.2473    1.0000 </r>
       <r>   -7.0963    1.0000 </r>
       <r>   -7.0012    1.0000 </r>
       <r>   -6.7528    1.0000 </r>
       <r>   -6.7472    1.0000 </r>
       <r>   -6.6716    1.0000 </r>
       <r>   -6.4026    1.0000 </r>
       <r>   -6.3044    1.0000 </r>
       <r>   -6.2862    1.0000 </r>
       <r>   -6.0005    1.0000 </r>
       <r>   -5.8208    1.0000 </r>
       <r>   -5.4824    1.0000 </r>
       <r>   -5.3668    1.0000 </r>
       <r>   -5.2894    1.0000 </r>
       <r>   -4.9583    1.0000 </r>
       <r>   -4.8406    1.0000 </r>
       <r>   -4.7794    1.0000 </r>
       <r>   -4.5813    1.0000 </r>
       <r>   -4.4829    1.0000 </r>
       <r>   -4.2643    1.0000 </r>
       <r>   -4.2293    1.0000 </r>
       <r>   -4.1249    1.0000 </r>
       <r>   -4.0168    1.0000 </r>
       <r>   -3.7212    1.0000 </r>
       <r>   -3.7126    1.0000 </r>
       <r>   -3.3549    1.0000 </r>
       <r>   -3.3281    1.0000 </r>
       <r>   -2.9660    1.0000 </r>
       <r>   -2.7772    1.0000 </r>
       <r>   -2.6335    1.0000 </r>
       <r>   -2.5149    1.0000 </r>
       <r>   -2.5112    1.0000 </r>
       <r>   -2.1618    1.0000 </r>
       <r>   -2.0061    1.0000 </r>
       <r>   -1.8818    1.0000 </r>
       <r>   -1.3712    1.0000 </r>
       <r>   -1.2177    1.0000 </r>
       <r>   -1.0164    1.0000 </r>
       <r>   -0.8072    1.0000 </r>
       <r>   -0.6677    1.0000 </r>
       <r>   -0.6207    1.0000 </r>
       <r>   -0.5470    1.0000 </r>
       <r>   -0.4078    1.0000 </r>
       <r>   -0.2633    1.0000 </r>
       <r>   -0.2404    1.0000 </r>
       <r>   -0.1470    1.0000 </r>
       <r>   -0.1013    1.0000 </r>
       <r>    0.0273    1.0000 </r>
       <r>    0.0976    1.0000 </r>
       <r>    0.1285    1.0000 </r>
       <r>    0.3214    1.0000 </r>
       <r>    0.3614    1.0000 </r>
       <r>    0.4354    1.0000 </r>
       <r>    0.5071    1.0000 </r>
       <r>    0.5756    1.0000 </r>
       <r>    0.6531    1.0000 </r>
       <r>    0.7314    1.0000 </r>
       <r>    0.7635    1.0000 </r>
       <r>    0.8482    1.0000 </r>
       <r>    0.8883    1.0000 </r>
       <r>    0.9916    1.0000 </r>
       <r>    1.0269    1.0000 </r>
       <r>    1.0874    1.0000 </r>
       <r>    1.2063    1.0000 </r>
       <r>    1.2172    1.0000 </r>
       <r>    1.3165    1.0000 </r>
       <r>    1.3850    1.0000 </r>
       <r>    1.4686    1.0000 </r>
       <r>    1.5369    1.0000 </r>
       <r>    1.6589    1.0000 </r>
       <r>    1.7742    1.0000 </r>
       <r>    1.8469    1.0000 </r>
       <r>    1.9736    1.0000 </r>
       <r>    1.9958    1.0000 </r>
       <r>    2.1283    1.0000 </r>
       <r>    2.1473    1.0000 </r>
       <r>    2.1660    1.0000 </r>
       <r>    2.2885    1.0000 </r>
       <r>    2.4731    1.0000 </r>
       <r>    2.6178    1.0000 </r>
       <r>    2.8943    1.0000 </r>
       <r>    2.9285    1.0000 </r>
       <r>    3.1436    1.0000 </r>
       <r>    3.1918    1.0000 </r>
       <r>    3.3557    1.0000 </r>
       <r>    3.4413    0.0311 </r>
       <r>    3.4983    0.0000 </r>
       <r>    3.5648    0.0000 </r>
       <r>    3.6195    0.0000 </r>
       <r>    3.9776    0.0000 </r>
       <r>    4.1161    0.0000 </r>
       <r>    4.3682    0.0000 </r>
       <r>    4.4942    0.0000 </r>
       <r>    4.6265    0.0000 </r>
       <r>    4.7128    0.0000 </r>
       <r>    4.7558    0.0000 </r>
       <r>    4.7910    0.0000 </r>
       <r>    4.9089    0.0000 </r>
       <r>    5.1017    0.0000 </r>
       <r>    5.1658    0.0000 </r>
       <r>    5.3302    0.0000 </r>
       <r>    5.3716    0.0000 </r>
       <r>    5.4123    0.0000 </r>
       <r>    5.4611    0.0000 </r>
       <r>    5.5373    0.0000 </r>
      </set>
      <set comment="kpoint 3">
       <r>   -9.8325    1.0000 </r>
       <r>   -9.8325    1.0000 </r>
       <r>   -9.6599    1.0000 </r>
       <r>   -9.6599    1.0000 </r>
       <r>   -8.2303    1.0000 </r>
       <r>   -8.2303    1.0000 </r>
       <r>   -7.8976    1.0000 </r>
       <r>   -7.8976    1.0000 </r>
       <r>   -7.5547    1.0000 </r>
       <r>   -7.5547    1.0000 </r>
       <r>   -7.3161    1.0000 </r>
       <r>   -7.3161    1.0000 </r>
       <r>   -7.0980    1.0000 </r>
       <r>   -7.0980    1.0000 </r>
       <r>   -6.8969    1.0000 </r>
       <r>   -6.8969    1.0000 </r>
       <r>   -6.4630    1.0000 </r>
       <r>   -6.4630    1.0000 </r>
       <r>   -6.2604    1.0000 </r>
       <r>   -6.2604    1.0000 </r>
       <r>   -5.6717    1.0000 </r>
       <r>   -5.6717    1.0000 </r>
       <r>   -5.3043    1.0000 </r>
       <r>   -5.3043    1.0000 </r>
       <r>   -5.1467    1.0000 </r>
       <r>   -5.1467    1.0000 </r>
       <r>   -4.6827    1.0000 </r>
       <r>   -4.6827    1.0000 </r>
       <r>   -4.5851    1.0000 </r>
       <r>   -4.5851    1.0000 </r>
       <r>   -4.1621    1.0000 </r>
       <r>   -4.1621    1.0000 </r>
       <r>   -4.0589    1.0000 </r>
       <r>   -4.0589    1.0000 </r>
       <r>   -3.7619    1.0000 </r>
       <r>   -3.7619    1.0000 </r>
       <r>   -3.2756    1.0000 </r>
       <r>   -3.2756    1.0000 </r>
       <r>   -3.0248    1.0000 </r>
       <r>   -3.0248    1.0000 </r>
       <r>   -2.4694    1.0000 </r>
       <r>   -2.4694    1.0000 </r>
       <r>   -2.0725    1.0000 </r>
       <r>   -2.0725    1.0000 </r>
       <r>   -1.8884    1.0000 </r>
       <r>   -1.8884    1.0000 </r>
       <r>   -1.2363    1.0000 </r>
       <r>   -1.2363    1.0000 </r>
       <r>   -0.8105    1.0000 </r>
       <r>   -0.8105    1.0000 </r>
       <r>   -0.5912    1.0000 </r>
       <r>   -0.5912    1.0000 </r>
       <r>   -0.4951    1.0000 </r>
       <r>   -0.4951    1.0000 </r>
       <r>   -0.4006    1.0000 </r>
       <r>   -0.4006    1.0000 </r>
       <r>   -0.3463    1.0000 </r>
       <r>   -0.3463    1.0000 </r>
       <r>   -0.1901    1.0000 </r>
       <r>   -0.1901    1.0000 </r>
       <r>   -0.0989    1.0000 </r>
       <r>   -0.0989    1.0000 </r>
       <r>    0.0781    1.0000 </r>
       <r>    0.0781    1.0000 </r>
       <r>    0.3403    1.0000 </r>
       <r>    0.3403    1.0000 </r>
       <r>    0.4985    1.0000 </r>
       <r>    0.4985    1.0000 </r>
       <r>    0.6402    1.0000 </r>
       <r>    0.6402    1.0000 </r>
       <r>    0.7162    1.0000 </r>
       <r>    0.7162    1.0000 </r>
       <r>    0.9500    1.0000 </r>
       <r>    0.9500    1.0000 </r>
       <r>    1.1056    1.0000 </r>
       <r>    1.1056    1.0000 </r>
       <r>    1.1941    1.0000 </r>
       <r>    1.1941    1.0000 </r>
       <r>    1.4328    1.0000 </r>
       <r>    1.4328    1.0000 </r>
       <r>    1.6362    1.0000 </r>
       <r>    1.6362    1.0000 </r>
       <r>    1.7185    1.0000 </r>
       <r>    1.7185    1.0000 </r>
       <r>    2.1851    1.0000 </r>
       <r>    2.1851    1.0000 </r>
       <r>    2.3220    1.0000 </r>
       <r>    2.3220    1.0000 </r>
       <r>    2.5586    1.0000 </r>
       <r>    2.5586    1.0000 </r>
       <r>    2.7387    1.0000 </r>
       <r>    2.7387    1.0000 </r>
       <r>    3.1090    1.0000 </r>
       <r>    3.1090    1.0000 </r>
       <r>    3.3568    1.0000 </r>
       <r>    3.3568    1.0000 </r>
       <r>    3.7015    0.0000 </r>
       <r>    3.7015    0.0000 </r>
       <r>    3.8477    0.0000 </r>
       <r>    3.8477    0.0000 </r>
       <r>    4.2104    0.0000 </r>
       <r>    4.2104    0.0000 </r>
       <r>    4.6110    0.0000 </r>
       <r>    4.6110    0.0000 </r>
       <r>    4.9891    0.0000 </r>
       <r>    4.9891    0.0000 </r>
       <r>    5.1080    0.0000 </r>
       <r>    5.1080    0.0000 </r>
       <r>    5.2289    0.0000 </r>
       <r>    5.2289    0.0000 </r>
       <r>    5.3803    0.0000 </r>
       <r>    5.3806    0.0000 </r>
       <r>    5.4649    0.0000 </r>
       <r>    5.4715    0.0000 </r>
       <r>    5.5601    0.0000 </r>
       <r>    5.5914    0.0000 </r>
      </set>
      <set comment="kpoint 4">
       <r>  -10.3754    1.0000 </r>
       <r>  -10.2075    1.0000 </r>
       <r>   -8.6713    1.0000 </r>
       <r>   -8.6163    1.0000 </r>
       <r>   -8.5290    1.0000 </r>
       <r>   -8.4558    1.0000 </r>
       <r>   -8.0486    1.0000 </r>
       <r>   -7.6890    1.0000 </r>
       <r>   -7.5861    1.0000 </r>
       <r>   -7.5253    1.0000 </r>
       <r>   -7.4832    1.0000 </r>
       <r>   -7.3493    1.0000 </r>
       <r>   -7.0345    1.0000 </r>
       <r>   -7.0286    1.0000 </r>
       <r>   -6.9900    1.0000 </r>
       <r>   -6.6699    1.0000 </r>
       <r>   -6.6264    1.0000 </r>
       <r>   -6.6095    1.0000 </r>
       <r>   -6.2248    1.0000 </r>
       <r>   -6.2123    1.0000 </r>
       <r>   -5.9305    1.0000 </r>
       <r>   -5.7342    1.0000 </r>
       <r>   -5.7138    1.0000 </r>
       <r>   -5.6981    1.0000 </r>
       <r>   -5.1825    1.0000 </r>
       <r>   -5.1127    1.0000 </r>
       <r>   -4.8760    1.0000 </r>
       <r>   -4.6023    1.0000 </r>
       <r>   -4.5484    1.0000 </r>
       <r>   -4.5480    1.0000 </r>
       <r>   -4.1908    1.0000 </r>
       <r>   -4.1657    1.0000 </r>
       <r>   -3.9257    1.0000 </r>
       <r>   -3.9209    1.0000 </r>
       <r>   -3.9164    1.0000 </r>
       <r>   -3.7894    1.0000 </r>
       <r>   -3.6289    1.0000 </r>
       <r>   -3.6194    1.0000 </r>
       <r>   -3.4032    1.0000 </r>
       <r>   -3.2305    1.0000 </r>
       <r>   -3.2279    1.0000 </r>
       <r>   -2.5529    1.0000 </r>
       <r>   -2.1543    1.0000 </r>
       <r>   -1.6620    1.0000 </r>
       <r>   -1.4837    1.0000 </r>
       <r>   -1.2027    1.0000 </r>
       <r>   -1.0226    1.0000 </r>
       <r>   -1.0121    1.0000 </r>
       <r>   -0.9746    1.0000 </r>
       <r>   -0.7671    1.0000 </r>
       <r>   -0.7593    1.0000 </r>
       <r>   -0.7504    1.0000 </r>
       <r>   -0.4763    1.0000 </r>
       <r>   -0.4469    1.0000 </r>
       <r>   -0.4383    1.0000 </r>
       <r>   -0.2652    1.0000 </r>
       <r>   -0.1521    1.0000 </r>
       <r>   -0.1454    1.0000 </r>
       <r>   -0.0976    1.0000 </r>
       <r>    0.1083    1.0000 </r>
       <r>    0.1156    1.0000 </r>
       <r>    0.2102    1.0000 </r>
       <r>    0.3781    1.0000 </r>
       <r>    0.4950    1.0000 </r>
       <r>    0.5022    1.0000 </r>
       <r>    0.5824    1.0000 </r>
       <r>    0.6168    1.0000 </r>
       <r>    0.6835    1.0000 </r>
       <r>    0.7861    1.0000 </r>
       <r>    0.9548    1.0000 </r>
       <r>    1.1086    1.0000 </r>
       <r>    1.1218    1.0000 </r>
       <r>    1.1393    1.0000 </r>
       <r>    1.1823    1.0000 </r>
       <r>    1.4615    1.0000 </r>
       <r>    1.5646    1.0000 </r>
       <r>    1.6494    1.0000 </r>
       <r>    1.7222    1.0000 </r>
       <r>    1.7232    1.0000 </r>
       <r>    1.8378    1.0000 </r>
       <r>    2.0154    1.0000 </r>
       <r>    2.0487    1.0000 </r>
       <r>    2.0531    1.0000 </r>
       <r>    2.0939    1.0000 </r>
       <r>    2.1269    1.0000 </r>
       <r>    2.2598    1.0000 </r>
       <r>    2.2636    1.0000 </r>
       <r>    2.3318    1.0000 </r>
       <r>    2.5100    1.0000 </r>
       <r>    2.6229    1.0000 </r>
       <r>    2.6301    1.0000 </r>
       <r>    2.6327    1.0000 </r>
       <r>    2.6959    1.0000 </r>
       <r>    2.9588    1.0000 </r>
       <r>    3.2774    1.0000 </r>
       <r>    3.3935    1.0000 </r>
       <r>    3.4967    0.0000 </r>
       <r>    3.5368    0.0000 </r>
       <r>    3.6574    0.0000 </r>
       <r>    3.6650    0.0000 </r>
       <r>    3.7449    0.0000 </r>
       <r>    3.9432    0.0000 </r>
       <r>    3.9722    0.0000 </r>
       <r>    4.0999    0.0000 </r>
       <r>    4.3774    0.0000 </r>
       <r>    4.3945    0.0000 </r>
       <r>    4.4034    0.0000 </r>
       <r>    4.4559    0.0000 </r>
       <r>    4.6329    0.0000 </r>
       <r>    4.7102    0.0000 </r>
       <r>    4.8421    0.0000 </r>
       <r>    4.8647    0.0000 </r>
       <r>    4.9093    0.0000 </r>
       <r>    5.0795    0.0000 </r>
       <r>    5.2000    0.0000 </r>
       <r>    5.2589    0.0000 </r>
      </set>
      <set comment="kpoint 5">
       <r>  -10.2414    1.0000 </r>
       <r>  -10.0657    1.0000 </r>
       <r>   -9.1864    1.0000 </r>
       <r>   -9.0248    1.0000 </r>
       <r>   -8.5955    1.0000 </r>
       <r>   -8.2201    1.0000 </r>
       <r>   -7.8994    1.0000 </r>
       <r>   -7.7010    1.0000 </r>
       <r>   -7.6894    1.0000 </r>
       <r>   -7.4382    1.0000 </r>
       <r>   -7.4022    1.0000 </r>
       <r>   -7.2414    1.0000 </r>
       <r>   -7.0968    1.0000 </r>
       <r>   -7.0011    1.0000 </r>
       <r>   -6.7668    1.0000 </r>
       <r>   -6.7610    1.0000 </r>
       <r>   -6.6615    1.0000 </r>
       <r>   -6.4936    1.0000 </r>
       <r>   -6.3818    1.0000 </r>
       <r>   -6.3271    1.0000 </r>
       <r>   -5.9161    1.0000 </r>
       <r>   -5.7108    1.0000 </r>
       <r>   -5.5097    1.0000 </r>
       <r>   -5.3850    1.0000 </r>
       <r>   -5.2760    1.0000 </r>
       <r>   -4.9642    1.0000 </r>
       <r>   -4.8870    1.0000 </r>
       <r>   -4.7890    1.0000 </r>
       <r>   -4.6133    1.0000 </r>
       <r>   -4.5245    1.0000 </r>
       <r>   -4.2323    1.0000 </r>
       <r>   -4.1403    1.0000 </r>
       <r>   -4.1110    1.0000 </r>
       <r>   -3.9046    1.0000 </r>
       <r>   -3.7878    1.0000 </r>
       <r>   -3.7382    1.0000 </r>
       <r>   -3.3478    1.0000 </r>
       <r>   -3.3476    1.0000 </r>
       <r>   -2.9741    1.0000 </r>
       <r>   -2.7873    1.0000 </r>
       <r>   -2.6164    1.0000 </r>
       <r>   -2.5770    1.0000 </r>
       <r>   -2.5243    1.0000 </r>
       <r>   -2.1604    1.0000 </r>
       <r>   -1.9048    1.0000 </r>
       <r>   -1.8456    1.0000 </r>
       <r>   -1.3880    1.0000 </r>
       <r>   -1.2035    1.0000 </r>
       <r>   -1.0288    1.0000 </r>
       <r>   -0.8394    1.0000 </r>
       <r>   -0.6619    1.0000 </r>
       <r>   -0.6500    1.0000 </r>
       <r>   -0.5343    1.0000 </r>
       <r>   -0.4468    1.0000 </r>
       <r>   -0.2877    1.0000 </r>
       <r>   -0.2575    1.0000 </r>
       <r>   -0.1936    1.0000 </r>
       <r>   -0.0546    1.0000 </r>
       <r>   -0.0091    1.0000 </r>
       <r>    0.0648    1.0000 </r>
       <r>    0.1095    1.0000 </r>
       <r>    0.3001    1.0000 </r>
       <r>    0.3992    1.0000 </r>
       <r>    0.4610    1.0000 </r>
       <r>    0.4811    1.0000 </r>
       <r>    0.5470    1.0000 </r>
       <r>    0.6437    1.0000 </r>
       <r>    0.7642    1.0000 </r>
       <r>    0.8127    1.0000 </r>
       <r>    0.9029    1.0000 </r>
       <r>    0.9064    1.0000 </r>
       <r>    0.9661    1.0000 </r>
       <r>    0.9816    1.0000 </r>
       <r>    1.0533    1.0000 </r>
       <r>    1.1848    1.0000 </r>
       <r>    1.2374    1.0000 </r>
       <r>    1.3640    1.0000 </r>
       <r>    1.4020    1.0000 </r>
       <r>    1.5096    1.0000 </r>
       <r>    1.5725    1.0000 </r>
       <r>    1.6754    1.0000 </r>
       <r>    1.7483    1.0000 </r>
       <r>    1.8373    1.0000 </r>
       <r>    1.9550    1.0000 </r>
       <r>    2.0212    1.0000 </r>
       <r>    2.0742    1.0000 </r>
       <r>    2.1705    1.0000 </r>
       <r>    2.2182    1.0000 </r>
       <r>    2.3346    1.0000 </r>
       <r>    2.4970    1.0000 </r>
       <r>    2.6251    1.0000 </r>
       <r>    2.8426    1.0000 </r>
       <r>    2.8827    1.0000 </r>
       <r>    3.0354    1.0000 </r>
       <r>    3.1921    1.0000 </r>
       <r>    3.3562    1.0000 </r>
       <r>    3.5477    0.0000 </r>
       <r>    3.5607    0.0000 </r>
       <r>    3.6074    0.0000 </r>
       <r>    3.6461    0.0000 </r>
       <r>    3.9578    0.0000 </r>
       <r>    4.0682    0.0000 </r>
       <r>    4.3000    0.0000 </r>
       <r>    4.3917    0.0000 </r>
       <r>    4.6132    0.0000 </r>
       <r>    4.6677    0.0000 </r>
       <r>    4.6899    0.0000 </r>
       <r>    4.8515    0.0000 </r>
       <r>    5.0735    0.0000 </r>
       <r>    5.1494    0.0000 </r>
       <r>    5.2603    0.0000 </r>
       <r>    5.2811    0.0000 </r>
       <r>    5.3622    0.0000 </r>
       <r>    5.4699    0.0000 </r>
       <r>    5.5466    0.0000 </r>
       <r>    5.6516    0.0000 </r>
      </set>
      <set comment="kpoint 6">
       <r>   -9.8366    1.0000 </r>
       <r>   -9.8283    1.0000 </r>
       <r>   -9.6644    1.0000 </r>
       <r>   -9.6554    1.0000 </r>
       <r>   -8.2696    1.0000 </r>
       <r>   -8.1538    1.0000 </r>
       <r>   -8.0405    1.0000 </r>
       <r>   -7.7354    1.0000 </r>
       <r>   -7.5891    1.0000 </r>
       <r>   -7.5293    1.0000 </r>
       <r>   -7.4627    1.0000 </r>
       <r>   -7.2412    1.0000 </r>
       <r>   -7.1871    1.0000 </r>
       <r>   -6.9158    1.0000 </r>
       <r>   -6.9032    1.0000 </r>
       <r>   -6.8737    1.0000 </r>
       <r>   -6.6262    1.0000 </r>
       <r>   -6.4657    1.0000 </r>
       <r>   -6.3241    1.0000 </r>
       <r>   -6.0406    1.0000 </r>
       <r>   -5.8288    1.0000 </r>
       <r>   -5.5861    1.0000 </r>
       <r>   -5.3339    1.0000 </r>
       <r>   -5.2749    1.0000 </r>
       <r>   -5.1894    1.0000 </r>
       <r>   -5.1056    1.0000 </r>
       <r>   -4.6843    1.0000 </r>
       <r>   -4.6477    1.0000 </r>
       <r>   -4.6239    1.0000 </r>
       <r>   -4.6067    1.0000 </r>
       <r>   -4.1632    1.0000 </r>
       <r>   -4.1163    1.0000 </r>
       <r>   -4.0875    1.0000 </r>
       <r>   -4.0062    1.0000 </r>
       <r>   -3.8559    1.0000 </r>
       <r>   -3.6246    1.0000 </r>
       <r>   -3.4544    1.0000 </r>
       <r>   -3.3485    1.0000 </r>
       <r>   -2.9277    1.0000 </r>
       <r>   -2.8479    1.0000 </r>
       <r>   -2.5195    1.0000 </r>
       <r>   -2.5091    1.0000 </r>
       <r>   -2.1781    1.0000 </r>
       <r>   -2.0034    1.0000 </r>
       <r>   -1.9717    1.0000 </r>
       <r>   -1.8133    1.0000 </r>
       <r>   -1.3021    1.0000 </r>
       <r>   -1.1347    1.0000 </r>
       <r>   -0.8221    1.0000 </r>
       <r>   -0.8011    1.0000 </r>
       <r>   -0.6542    1.0000 </r>
       <r>   -0.5181    1.0000 </r>
       <r>   -0.5117    1.0000 </r>
       <r>   -0.4813    1.0000 </r>
       <r>   -0.4368    1.0000 </r>
       <r>   -0.4145    1.0000 </r>
       <r>   -0.3358    1.0000 </r>
       <r>   -0.2194    1.0000 </r>
       <r>   -0.1867    1.0000 </r>
       <r>   -0.1637    1.0000 </r>
       <r>   -0.1213    1.0000 </r>
       <r>   -0.0612    1.0000 </r>
       <r>    0.0889    1.0000 </r>
       <r>    0.0966    1.0000 </r>
       <r>    0.2060    1.0000 </r>
       <r>    0.2463    1.0000 </r>
       <r>    0.3537    1.0000 </r>
       <r>    0.5152    1.0000 </r>
       <r>    0.6047    1.0000 </r>
       <r>    0.6731    1.0000 </r>
       <r>    0.7669    1.0000 </r>
       <r>    0.8411    1.0000 </r>
       <r>    0.9122    1.0000 </r>
       <r>    0.9498    1.0000 </r>
       <r>    1.0984    1.0000 </r>
       <r>    1.1372    1.0000 </r>
       <r>    1.1940    1.0000 </r>
       <r>    1.2407    1.0000 </r>
       <r>    1.3663    1.0000 </r>
       <r>    1.4376    1.0000 </r>
       <r>    1.4765    1.0000 </r>
       <r>    1.6810    1.0000 </r>
       <r>    1.7850    1.0000 </r>
       <r>    1.9025    1.0000 </r>
       <r>    2.1262    1.0000 </r>
       <r>    2.2043    1.0000 </r>
       <r>    2.2752    1.0000 </r>
       <r>    2.3170    1.0000 </r>
       <r>    2.4967    1.0000 </r>
       <r>    2.6454    1.0000 </r>
       <r>    2.7336    1.0000 </r>
       <r>    2.8345    1.0000 </r>
       <r>    3.0445    1.0000 </r>
       <r>    3.1594    1.0000 </r>
       <r>    3.1898    1.0000 </r>
       <r>    3.4349    0.1704 </r>
       <r>    3.5812    0.0000 </r>
       <r>    3.6748    0.0000 </r>
       <r>    3.7642    0.0000 </r>
       <r>    4.1366    0.0000 </r>
       <r>    4.1766    0.0000 </r>
       <r>    4.2539    0.0000 </r>
       <r>    4.5364    0.0000 </r>
       <r>    4.6393    0.0000 </r>
       <r>    4.8658    0.0000 </r>
       <r>    4.9030    0.0000 </r>
       <r>    5.0383    0.0000 </r>
       <r>    5.0854    0.0000 </r>
       <r>    5.1753    0.0000 </r>
       <r>    5.1934    0.0000 </r>
       <r>    5.3249    0.0000 </r>
       <r>    5.3918    0.0000 </r>
       <r>    5.4551    0.0000 </r>
       <r>    5.4945    0.0000 </r>
       <r>    5.5930    0.0000 </r>
       <r>    5.6820    0.0000 </r>
      </set>
      <set comment="kpoint 7">
       <r>  -10.2354    1.0000 </r>
       <r>  -10.0722    1.0000 </r>
       <r>   -9.1917    1.0000 </r>
       <r>   -9.0195    1.0000 </r>
       <r>   -8.4837    1.0000 </r>
       <r>   -8.4283    1.0000 </r>
       <r>   -7.9423    1.0000 </r>
       <r>   -7.7621    1.0000 </r>
       <r>   -7.5326    1.0000 </r>
       <r>   -7.2394    1.0000 </r>
       <r>   -7.2151    1.0000 </r>
       <r>   -7.1593    1.0000 </r>
       <r>   -7.1005    1.0000 </r>
       <r>   -7.0138    1.0000 </r>
       <r>   -7.0099    1.0000 </r>
       <r>   -6.9316    1.0000 </r>
       <r>   -6.5825    1.0000 </r>
       <r>   -6.5651    1.0000 </r>
       <r>   -6.5387    1.0000 </r>
       <r>   -6.3867    1.0000 </r>
       <r>   -5.7183    1.0000 </r>
       <r>   -5.6357    1.0000 </r>
       <r>   -5.5593    1.0000 </r>
       <r>   -5.3215    1.0000 </r>
       <r>   -5.2679    1.0000 </r>
       <r>   -5.0426    1.0000 </r>
       <r>   -4.9791    1.0000 </r>
       <r>   -4.7570    1.0000 </r>
       <r>   -4.7106    1.0000 </r>
       <r>   -4.5930    1.0000 </r>
       <r>   -4.1868    1.0000 </r>
       <r>   -3.9847    1.0000 </r>
       <r>   -3.9389    1.0000 </r>
       <r>   -3.8868    1.0000 </r>
       <r>   -3.7814    1.0000 </r>
       <r>   -3.6280    1.0000 </r>
       <r>   -3.4945    1.0000 </r>
       <r>   -3.4067    1.0000 </r>
       <r>   -2.9943    1.0000 </r>
       <r>   -2.8527    1.0000 </r>
       <r>   -2.7924    1.0000 </r>
       <r>   -2.5761    1.0000 </r>
       <r>   -2.3117    1.0000 </r>
       <r>   -2.1579    1.0000 </r>
       <r>   -1.9810    1.0000 </r>
       <r>   -1.6437    1.0000 </r>
       <r>   -1.3177    1.0000 </r>
       <r>   -1.1336    1.0000 </r>
       <r>   -1.0828    1.0000 </r>
       <r>   -0.9736    1.0000 </r>
       <r>   -0.6732    1.0000 </r>
       <r>   -0.6538    1.0000 </r>
       <r>   -0.5014    1.0000 </r>
       <r>   -0.4558    1.0000 </r>
       <r>   -0.3681    1.0000 </r>
       <r>   -0.3436    1.0000 </r>
       <r>   -0.2997    1.0000 </r>
       <r>   -0.0983    1.0000 </r>
       <r>    0.0384    1.0000 </r>
       <r>    0.0396    1.0000 </r>
       <r>    0.1948    1.0000 </r>
       <r>    0.2315    1.0000 </r>
       <r>    0.3150    1.0000 </r>
       <r>    0.3213    1.0000 </r>
       <r>    0.5229    1.0000 </r>
       <r>    0.5448    1.0000 </r>
       <r>    0.5694    1.0000 </r>
       <r>    0.6743    1.0000 </r>
       <r>    0.7887    1.0000 </r>
       <r>    0.8142    1.0000 </r>
       <r>    0.9613    1.0000 </r>
       <r>    1.0271    1.0000 </r>
       <r>    1.0749    1.0000 </r>
       <r>    1.1444    1.0000 </r>
       <r>    1.2290    1.0000 </r>
       <r>    1.2590    1.0000 </r>
       <r>    1.3675    1.0000 </r>
       <r>    1.4810    1.0000 </r>
       <r>    1.5647    1.0000 </r>
       <r>    1.6381    1.0000 </r>
       <r>    1.7486    1.0000 </r>
       <r>    1.7819    1.0000 </r>
       <r>    1.8117    1.0000 </r>
       <r>    1.9000    1.0000 </r>
       <r>    2.1308    1.0000 </r>
       <r>    2.1713    1.0000 </r>
       <r>    2.2318    1.0000 </r>
       <r>    2.2536    1.0000 </r>
       <r>    2.5254    1.0000 </r>
       <r>    2.5727    1.0000 </r>
       <r>    2.6737    1.0000 </r>
       <r>    2.6888    1.0000 </r>
       <r>    2.7445    1.0000 </r>
       <r>    2.8180    1.0000 </r>
       <r>    3.1465    1.0000 </r>
       <r>    3.3175    1.0000 </r>
       <r>    3.3616    1.0000 </r>
       <r>    3.5998    0.0000 </r>
       <r>    3.7376    0.0000 </r>
       <r>    3.9128    0.0000 </r>
       <r>    4.0033    0.0000 </r>
       <r>    4.0717    0.0000 </r>
       <r>    4.1894    0.0000 </r>
       <r>    4.2463    0.0000 </r>
       <r>    4.4214    0.0000 </r>
       <r>    4.5511    0.0000 </r>
       <r>    4.6434    0.0000 </r>
       <r>    4.8603    0.0000 </r>
       <r>    5.0764    0.0000 </r>
       <r>    5.0859    0.0000 </r>
       <r>    5.2685    0.0000 </r>
       <r>    5.4884    0.0000 </r>
       <r>    5.4974    0.0000 </r>
       <r>    5.5328    0.0000 </r>
       <r>    5.7328    0.0000 </r>
       <r>    5.8020    0.0000 </r>
      </set>
      <set comment="kpoint 8">
       <r>  -10.3680    1.0000 </r>
       <r>  -10.2133    1.0000 </r>
       <r>   -8.7843    1.0000 </r>
       <r>   -8.6134    1.0000 </r>
       <r>   -8.5253    1.0000 </r>
       <r>   -8.2433    1.0000 </r>
       <r>   -8.1493    1.0000 </r>
       <r>   -7.7192    1.0000 </r>
       <r>   -7.5647    1.0000 </r>
       <r>   -7.4984    1.0000 </r>
       <r>   -7.4240    1.0000 </r>
       <r>   -7.3284    1.0000 </r>
       <r>   -7.0429    1.0000 </r>
       <r>   -7.0411    1.0000 </r>
       <r>   -6.8726    1.0000 </r>
       <r>   -6.8413    1.0000 </r>
       <r>   -6.8244    1.0000 </r>
       <r>   -6.6547    1.0000 </r>
       <r>   -6.1761    1.0000 </r>
       <r>   -5.9880    1.0000 </r>
       <r>   -5.9812    1.0000 </r>
       <r>   -5.9742    1.0000 </r>
       <r>   -5.3980    1.0000 </r>
       <r>   -5.3975    1.0000 </r>
       <r>   -5.2668    1.0000 </r>
       <r>   -5.2004    1.0000 </r>
       <r>   -4.9634    1.0000 </r>
       <r>   -4.9409    1.0000 </r>
       <r>   -4.6543    1.0000 </r>
       <r>   -4.3079    1.0000 </r>
       <r>   -4.2948    1.0000 </r>
       <r>   -4.2599    1.0000 </r>
       <r>   -3.9991    1.0000 </r>
       <r>   -3.8392    1.0000 </r>
       <r>   -3.8378    1.0000 </r>
       <r>   -3.4707    1.0000 </r>
       <r>   -3.4681    1.0000 </r>
       <r>   -3.4261    1.0000 </r>
       <r>   -3.3324    1.0000 </r>
       <r>   -3.3187    1.0000 </r>
       <r>   -3.3151    1.0000 </r>
       <r>   -2.9140    1.0000 </r>
       <r>   -2.4144    1.0000 </r>
       <r>   -1.8387    1.0000 </r>
       <r>   -1.6562    1.0000 </r>
       <r>   -1.1371    1.0000 </r>
       <r>   -0.9712    1.0000 </r>
       <r>   -0.9622    1.0000 </r>
       <r>   -0.9407    1.0000 </r>
       <r>   -0.7304    1.0000 </r>
       <r>   -0.6987    1.0000 </r>
       <r>   -0.6928    1.0000 </r>
       <r>   -0.6150    1.0000 </r>
       <r>   -0.2630    1.0000 </r>
       <r>   -0.2141    1.0000 </r>
       <r>   -0.2066    1.0000 </r>
       <r>   -0.1029    1.0000 </r>
       <r>   -0.0908    1.0000 </r>
       <r>   -0.0624    1.0000 </r>
       <r>    0.2985    1.0000 </r>
       <r>    0.3259    1.0000 </r>
       <r>    0.3515    1.0000 </r>
       <r>    0.5425    1.0000 </r>
       <r>    0.5484    1.0000 </r>
       <r>    0.6273    1.0000 </r>
       <r>    0.6318    1.0000 </r>
       <r>    0.6631    1.0000 </r>
       <r>    0.7702    1.0000 </r>
       <r>    0.8235    1.0000 </r>
       <r>    0.8264    1.0000 </r>
       <r>    0.8373    1.0000 </r>
       <r>    1.0758    1.0000 </r>
       <r>    1.1213    1.0000 </r>
       <r>    1.1382    1.0000 </r>
       <r>    1.1649    1.0000 </r>
       <r>    1.3529    1.0000 </r>
       <r>    1.4050    1.0000 </r>
       <r>    1.5272    1.0000 </r>
       <r>    1.6275    1.0000 </r>
       <r>    1.8188    1.0000 </r>
       <r>    1.9754    1.0000 </r>
       <r>    1.9823    1.0000 </r>
       <r>    2.0230    1.0000 </r>
       <r>    2.0267    1.0000 </r>
       <r>    2.1122    1.0000 </r>
       <r>    2.1285    1.0000 </r>
       <r>    2.2464    1.0000 </r>
       <r>    2.3747    1.0000 </r>
       <r>    2.5002    1.0000 </r>
       <r>    2.6406    1.0000 </r>
       <r>    2.6978    1.0000 </r>
       <r>    2.9630    1.0000 </r>
       <r>    3.0293    1.0000 </r>
       <r>    3.0339    1.0000 </r>
       <r>    3.1013    1.0000 </r>
       <r>    3.2951    1.0000 </r>
       <r>    3.3633    1.0000 </r>
       <r>    3.3863    1.0000 </r>
       <r>    3.4199    0.8775 </r>
       <r>    3.6088    0.0000 </r>
       <r>    3.9193    0.0000 </r>
       <r>    3.9484    0.0000 </r>
       <r>    3.9565    0.0000 </r>
       <r>    3.9890    0.0000 </r>
       <r>    4.3086    0.0000 </r>
       <r>    4.3891    0.0000 </r>
       <r>    4.5551    0.0000 </r>
       <r>    4.6835    0.0000 </r>
       <r>    4.7755    0.0000 </r>
       <r>    4.8778    0.0000 </r>
       <r>    4.8804    0.0000 </r>
       <r>    4.8863    0.0000 </r>
       <r>    5.1220    0.0000 </r>
       <r>    5.1649    0.0000 </r>
       <r>    5.2365    0.0000 </r>
       <r>    5.2671    0.0000 </r>
      </set>
      <set comment="kpoint 9">
       <r>  -10.2286    1.0000 </r>
       <r>  -10.0773    1.0000 </r>
       <r>   -9.1755    1.0000 </r>
       <r>   -9.0320    1.0000 </r>
       <r>   -8.6489    1.0000 </r>
       <r>   -8.2031    1.0000 </r>
       <r>   -7.9674    1.0000 </r>
       <r>   -7.7109    1.0000 </r>
       <r>   -7.5872    1.0000 </r>
       <r>   -7.5310    1.0000 </r>
       <r>   -7.2952    1.0000 </r>
       <r>   -7.1837    1.0000 </r>
       <r>   -7.0202    1.0000 </r>
       <r>   -6.8614    1.0000 </r>
       <r>   -6.8253    1.0000 </r>
       <r>   -6.7808    1.0000 </r>
       <r>   -6.6236    1.0000 </r>
       <r>   -6.5282    1.0000 </r>
       <r>   -6.3999    1.0000 </r>
       <r>   -6.1630    1.0000 </r>
       <r>   -6.1463    1.0000 </r>
       <r>   -5.8488    1.0000 </r>
       <r>   -5.8072    1.0000 </r>
       <r>   -5.5009    1.0000 </r>
       <r>   -5.4327    1.0000 </r>
       <r>   -4.7811    1.0000 </r>
       <r>   -4.7223    1.0000 </r>
       <r>   -4.6803    1.0000 </r>
       <r>   -4.4906    1.0000 </r>
       <r>   -4.3056    1.0000 </r>
       <r>   -4.2757    1.0000 </r>
       <r>   -4.1421    1.0000 </r>
       <r>   -4.0807    1.0000 </r>
       <r>   -4.0645    1.0000 </r>
       <r>   -3.5691    1.0000 </r>
       <r>   -3.4957    1.0000 </r>
       <r>   -3.3982    1.0000 </r>
       <r>   -3.3418    1.0000 </r>
       <r>   -3.2027    1.0000 </r>
       <r>   -3.1551    1.0000 </r>
       <r>   -2.6422    1.0000 </r>
       <r>   -2.4555    1.0000 </r>
       <r>   -2.4436    1.0000 </r>
       <r>   -2.2107    1.0000 </r>
       <r>   -2.0912    1.0000 </r>
       <r>   -1.8102    1.0000 </r>
       <r>   -1.3442    1.0000 </r>
       <r>   -1.1288    1.0000 </r>
       <r>   -1.0679    1.0000 </r>
       <r>   -0.7911    1.0000 </r>
       <r>   -0.7442    1.0000 </r>
       <r>   -0.5690    1.0000 </r>
       <r>   -0.5237    1.0000 </r>
       <r>   -0.3907    1.0000 </r>
       <r>   -0.3363    1.0000 </r>
       <r>   -0.2683    1.0000 </r>
       <r>   -0.1866    1.0000 </r>
       <r>    0.0023    1.0000 </r>
       <r>    0.0197    1.0000 </r>
       <r>    0.1716    1.0000 </r>
       <r>    0.2091    1.0000 </r>
       <r>    0.3586    1.0000 </r>
       <r>    0.3696    1.0000 </r>
       <r>    0.3933    1.0000 </r>
       <r>    0.5418    1.0000 </r>
       <r>    0.6045    1.0000 </r>
       <r>    0.7049    1.0000 </r>
       <r>    0.7174    1.0000 </r>
       <r>    0.8249    1.0000 </r>
       <r>    0.8793    1.0000 </r>
       <r>    0.8933    1.0000 </r>
       <r>    0.9287    1.0000 </r>
       <r>    0.9867    1.0000 </r>
       <r>    1.0403    1.0000 </r>
       <r>    1.1396    1.0000 </r>
       <r>    1.1709    1.0000 </r>
       <r>    1.3147    1.0000 </r>
       <r>    1.4004    1.0000 </r>
       <r>    1.4202    1.0000 </r>
       <r>    1.5019    1.0000 </r>
       <r>    1.5918    1.0000 </r>
       <r>    1.7077    1.0000 </r>
       <r>    1.8680    1.0000 </r>
       <r>    1.9401    1.0000 </r>
       <r>    1.9780    1.0000 </r>
       <r>    2.0034    1.0000 </r>
       <r>    2.0713    1.0000 </r>
       <r>    2.3212    1.0000 </r>
       <r>    2.3524    1.0000 </r>
       <r>    2.5688    1.0000 </r>
       <r>    2.6025    1.0000 </r>
       <r>    2.8950    1.0000 </r>
       <r>    2.9092    1.0000 </r>
       <r>    3.1374    1.0000 </r>
       <r>    3.1712    1.0000 </r>
       <r>    3.2844    1.0000 </r>
       <r>    3.4607    0.0000 </r>
       <r>    3.5323    0.0000 </r>
       <r>    3.5350    0.0000 </r>
       <r>    3.7677    0.0000 </r>
       <r>    3.9343    0.0000 </r>
       <r>    4.1382    0.0000 </r>
       <r>    4.2949    0.0000 </r>
       <r>    4.3370    0.0000 </r>
       <r>    4.6584    0.0000 </r>
       <r>    4.7942    0.0000 </r>
       <r>    4.8296    0.0000 </r>
       <r>    5.0559    0.0000 </r>
       <r>    5.1078    0.0000 </r>
       <r>    5.1718    0.0000 </r>
       <r>    5.2144    0.0000 </r>
       <r>    5.2757    0.0000 </r>
       <r>    5.3009    0.0000 </r>
       <r>    5.3811    0.0000 </r>
       <r>    5.5294    0.0000 </r>
       <r>    5.6177    0.0000 </r>
      </set>
      <set comment="kpoint 10">
       <r>   -9.8216    1.0000 </r>
       <r>   -9.8189    1.0000 </r>
       <r>   -9.6719    1.0000 </r>
       <r>   -9.6677    1.0000 </r>
       <r>   -8.2868    1.0000 </r>
       <r>   -8.2665    1.0000 </r>
       <r>   -7.9743    1.0000 </r>
       <r>   -7.9714    1.0000 </r>
       <r>   -7.5141    1.0000 </r>
       <r>   -7.4130    1.0000 </r>
       <r>   -7.1918    1.0000 </r>
       <r>   -7.1539    1.0000 </r>
       <r>   -7.0334    1.0000 </r>
       <r>   -6.9844    1.0000 </r>
       <r>   -6.9750    1.0000 </r>
       <r>   -6.8417    1.0000 </r>
       <r>   -6.5251    1.0000 </r>
       <r>   -6.4803    1.0000 </r>
       <r>   -6.3675    1.0000 </r>
       <r>   -6.2786    1.0000 </r>
       <r>   -6.0010    1.0000 </r>
       <r>   -5.8193    1.0000 </r>
       <r>   -5.4552    1.0000 </r>
       <r>   -5.4158    1.0000 </r>
       <r>   -5.0791    1.0000 </r>
       <r>   -5.0627    1.0000 </r>
       <r>   -4.7098    1.0000 </r>
       <r>   -4.6804    1.0000 </r>
       <r>   -4.3170    1.0000 </r>
       <r>   -4.3111    1.0000 </r>
       <r>   -4.1849    1.0000 </r>
       <r>   -4.1099    1.0000 </r>
       <r>   -4.0210    1.0000 </r>
       <r>   -4.0159    1.0000 </r>
       <r>   -3.7483    1.0000 </r>
       <r>   -3.6530    1.0000 </r>
       <r>   -3.4481    1.0000 </r>
       <r>   -3.3973    1.0000 </r>
       <r>   -3.0464    1.0000 </r>
       <r>   -2.8722    1.0000 </r>
[...]
       <r>     4.9086    32.3607   215.9404 </r>
       <r>     4.9680    15.9960   216.8909 </r>
       <r>     5.0275    13.4923   217.6926 </r>
       <r>     5.0869    24.9623   219.1757 </r>
       <r>     5.1463    20.2310   220.3777 </r>
       <r>     5.2057    28.1656   222.0511 </r>
       <r>     5.2651    29.9455   223.8303 </r>
       <r>     5.3245    20.9685   225.0763 </r>
       <r>     5.3839    22.1467   226.3922 </r>
       <r>     5.4434    13.4555   227.1917 </r>
       <r>     5.5028    26.9414   228.7924 </r>
       <r>     5.5622    22.4573   230.1269 </r>
       <r>     5.6216    17.2171   231.1499 </r>
       <r>     5.6810     7.6603   231.6050 </r>
       <r>     5.7404     4.3446   231.8632 </r>
       <r>     5.7998     1.1465   231.9313 </r>
       <r>     5.8593     1.1564   232.0000 </r>
       <r>     5.9187     0.0000   232.0000 </r>
       <r>     5.9781     0.0000   232.0000 </r>
       <r>     6.0375     0.0000   232.0000 </r>
       <r>     6.0969     0.0000   232.0000 </r>
       <r>     6.1563     0.0000   232.0000 </r>
       <r>     6.2157     0.0000   232.0000 </r>
       <r>     6.2752     0.0000   232.0000 </r>
       <r>     6.3346     0.0000   232.0000 </r>
       <r>     6.3940     0.0000   232.0000 </r>
       <r>     6.4534     0.0000   232.0000 </r>
       <r>     6.5128     0.0000   232.0000 </r>
       <r>     6.5722     0.0000   232.0000 </r>
       <r>     6.6316     0.0000   232.0000 </r>
      </set>
      <set comment="spin 2">
       <r>   -11.1926     0.0000     0.0000 </r>
       <r>   -11.1332     0.0000     0.0000 </r>
       <r>   -11.0738     0.0000     0.0000 </r>
       <r>   -11.0143     0.0000     0.0000 </r>
       <r>   -10.9549     0.0000     0.0000 </r>
       <r>   -10.8955     0.0000     0.0000 </r>
       <r>   -10.8361     0.0000     0.0000 </r>
       <r>   -10.7767     0.0000     0.0000 </r>
       <r>   -10.7173     0.0000     0.0000 </r>
       <r>   -10.6579     0.0000     0.0000 </r>
       <r>   -10.5984     0.0000     0.0000 </r>
       <r>   -10.5390     0.0000     0.0000 </r>
       <r>   -10.4796     0.0000     0.0000 </r>
       <r>   -10.4202     0.0000     0.0000 </r>
       <r>   -10.3608     0.9463     0.0562 </r>
       <r>   -10.3014     7.4693     0.5000 </r>
       <r>   -10.2420     0.0083     0.5005 </r>
       <r>   -10.1825    23.3048     1.8851 </r>
       <r>   -10.1231     1.9293     2.0000 </r>
       <r>   -10.0637     1.1628     2.0691 </r>
       <r>   -10.0043    15.6682     3.0000 </r>
       <r>    -9.9449     0.0000     3.0000 </r>
       <r>    -9.8855     0.0000     3.0000 </r>
       <r>    -9.8261     0.1983     3.0118 </r>
       <r>    -9.7666    16.6327     4.0000 </r>
       <r>    -9.7072     0.0000     4.0000 </r>
       <r>    -9.6478     6.1612     4.3661 </r>
       <r>    -9.5884    10.6698     5.0000 </r>
       <r>    -9.5290     0.0000     5.0000 </r>
       <r>    -9.4696     0.0000     5.0000 </r>
       <r>    -9.4102     0.0000     5.0000 </r>
       <r>    -9.3507     0.0000     5.0000 </r>
       <r>    -9.2913     0.0000     5.0000 </r>
       <r>    -9.2319     0.0000     5.0000 </r>
       <r>    -9.1725     1.5593     5.0926 </r>
       <r>    -9.1131    15.2717     6.0000 </r>
       <r>    -9.0537     0.0000     6.0000 </r>
       <r>    -8.9943    15.8940     6.9443 </r>
       <r>    -8.9348     0.9370     7.0000 </r>
       <r>    -8.8754     0.0000     7.0000 </r>
       <r>    -8.8160     0.0000     7.0000 </r>
       <r>    -8.7566     1.8429     7.1095 </r>
       <r>    -8.6972     4.4073     7.3713 </r>
       <r>    -8.6378     5.6516     7.7071 </r>
       <r>    -8.5784    15.6339     8.6362 </r>
       <r>    -8.5190     6.6371     9.0305 </r>
       <r>    -8.4595    15.3096     9.9401 </r>
       <r>    -8.4001     3.7875    10.1652 </r>
       <r>    -8.3407     0.0253    10.1667 </r>
       <r>    -8.2813     6.1888    10.5344 </r>
       <r>    -8.2219     9.4884    11.0981 </r>
       <r>    -8.1625    11.3217    11.7708 </r>
       <r>    -8.1031     7.2490    12.2015 </r>
       <r>    -8.0436     2.3915    12.3436 </r>
       <r>    -7.9842     4.5037    12.6112 </r>
       <r>    -7.9248     9.5501    13.1786 </r>
       <r>    -7.8654     9.7074    13.7554 </r>
       <r>    -7.8060     2.9894    13.9331 </r>
       <r>    -7.7466    13.7580    14.7505 </r>
       <r>    -7.6872    13.3424    15.5434 </r>
       <r>    -7.6277     7.7442    16.0035 </r>
       <r>    -7.5683     7.8400    16.4695 </r>
       <r>    -7.5089    25.6720    17.9947 </r>
       <r>    -7.4495    18.9636    19.1217 </r>
       <r>    -7.3901    14.5668    19.9871 </r>
       <r>    -7.3307    11.1280    20.6483 </r>
       <r>    -7.2713    15.2380    21.5536 </r>
       <r>    -7.2118    20.0590    22.7455 </r>
       <r>    -7.1524    15.1623    23.6463 </r>
       <r>    -7.0930     4.9510    23.9405 </r>
       <r>    -7.0336    17.9721    25.0083 </r>
       <r>    -6.9742    40.0606    27.3885 </r>
       <r>    -6.9148    18.0722    28.4624 </r>
       <r>    -6.8554    13.4442    29.2613 </r>
       <r>    -6.7959    25.9596    30.8036 </r>
       <r>    -6.7365    15.0952    31.7005 </r>
       <r>    -6.6771    13.4586    32.5002 </r>
       <r>    -6.6177    19.0010    33.6291 </r>
       <r>    -6.5583    16.5456    34.6122 </r>
       <r>    -6.4989    11.3739    35.2880 </r>
       <r>    -6.4395    12.0025    36.0012 </r>
       <r>    -6.3800    12.9577    36.7711 </r>
       <r>    -6.3206     9.5845    37.3406 </r>
       <r>    -6.2612     9.8806    37.9277 </r>
       <r>    -6.2018    11.3004    38.5992 </r>
       <r>    -6.1424    16.1879    39.5610 </r>
       <r>    -6.0830    13.9334    40.3888 </r>
       <r>    -6.0236     4.0173    40.6276 </r>
       <r>    -5.9641     9.6563    41.2013 </r>
       <r>    -5.9047     7.5628    41.6506 </r>
       <r>    -5.8453     6.3052    42.0252 </r>
       <r>    -5.7859    13.8904    42.8505 </r>
       <r>    -5.7265     8.1184    43.3330 </r>
       <r>    -5.6671    15.8474    44.2746 </r>
       <r>    -5.6077    15.6348    45.2036 </r>
       <r>    -5.5482     9.2593    45.7537 </r>
       <r>    -5.4888     9.1004    46.2944 </r>
       <r>    -5.4294     6.0457    46.6536 </r>
       <r>    -5.3700    13.4902    47.4551 </r>
       <r>    -5.3106     7.3428    47.8914 </r>
       <r>    -5.2512    13.3614    48.6853 </r>
       <r>    -5.1918     8.2597    49.1763 </r>
       <r>    -5.1323    10.4339    49.7963 </r>
       <r>    -5.0729    12.8897    50.5622 </r>
       <r>    -5.0135     9.3374    51.1170 </r>
       <r>    -4.9541     7.3400    51.5531 </r>
       <r>    -4.8947     8.4166    52.0532 </r>
       <r>    -4.8353     7.4661    52.4968 </r>
       <r>    -4.7759     3.9858    52.7336 </r>
       <r>    -4.7164    11.6029    53.4230 </r>
       <r>    -4.6570    34.0714    55.4476 </r>
       <r>    -4.5976    11.2624    56.1171 </r>
       <r>    -4.5382    13.9653    56.9469 </r>
       <r>    -4.4788    10.0445    57.5437 </r>
       <r>    -4.4194     8.6555    58.0579 </r>
       <r>    -4.3600     5.9503    58.4115 </r>
       <r>    -4.3006    12.2561    59.1398 </r>
       <r>    -4.2411    25.5382    60.6571 </r>
       <r>    -4.1817    20.2326    61.8592 </r>
       <r>    -4.1223    19.3729    63.0102 </r>
       <r>    -4.0629    15.9440    63.9575 </r>
       <r>    -4.0035    17.7913    65.0146 </r>
       <r>    -3.9441    21.1326    66.2702 </r>
       <r>    -3.8847    17.9800    67.3385 </r>
       <r>    -3.8252    15.6613    68.2693 </r>
       <r>    -3.7658    12.3312    69.0019 </r>
       <r>    -3.7064    10.9813    69.6544 </r>
       <r>    -3.6470     8.6771    70.1700 </r>
       <r>    -3.5876    23.1969    71.5482 </r>
       <r>    -3.5282    16.9930    72.5580 </r>
       <r>    -3.4688     8.4638    73.0612 </r>
       <r>    -3.4093    17.5442    74.1036 </r>
       <r>    -3.3499    13.7222    74.9190 </r>
       <r>    -3.2905    25.0727    76.4087 </r>
       <r>    -3.2311    12.9064    77.1756 </r>
       <r>    -3.1717    13.0249    77.9495 </r>
       <r>    -3.1123     6.4017    78.3298 </r>
       <r>    -3.0529     2.3986    78.4723 </r>
       <r>    -2.9934     9.8229    79.0560 </r>
       <r>    -2.9340     9.3137    79.6093 </r>
       <r>    -2.8746     6.7066    80.0079 </r>
       <r>    -2.8152     6.4251    80.3896 </r>
       <r>    -2.7558    10.3066    81.0020 </r>
       <r>    -2.6964     6.5318    81.3903 </r>
       <r>    -2.6370     5.6551    81.7264 </r>
       <r>    -2.5775    10.6910    82.3617 </r>
       <r>    -2.5181     9.9453    82.9526 </r>
       <r>    -2.4587    14.9869    83.8430 </r>
       <r>    -2.3993     9.4541    84.4047 </r>
       <r>    -2.3399     6.7627    84.8065 </r>
       <r>    -2.2805     9.1862    85.3523 </r>
       <r>    -2.2211     6.2212    85.7219 </r>
       <r>    -2.1616     8.9623    86.2544 </r>
       <r>    -2.1022    19.6955    87.4246 </r>
       <r>    -2.0428     4.9222    87.7171 </r>
       <r>    -1.9834     9.3631    88.2734 </r>
       <r>    -1.9240     6.6187    88.6666 </r>
       <r>    -1.8646     4.1675    88.9143 </r>
       <r>    -1.8052     7.1512    89.3392 </r>
       <r>    -1.7457     7.3779    89.7776 </r>
       <r>    -1.6863     5.1007    90.0808 </r>
       <r>    -1.6269    10.5806    90.7095 </r>
       <r>    -1.5675     1.3360    90.7889 </r>
       <r>    -1.5081     3.7863    91.0138 </r>
       <r>    -1.4487     5.3630    91.3325 </r>
       <r>    -1.3893     4.6227    91.6071 </r>
       <r>    -1.3298     5.8248    91.9534 </r>
       <r>    -1.2704     6.2354    92.3238 </r>
       <r>    -1.2110     3.5855    92.5369 </r>
       <r>    -1.1516    13.4039    93.3333 </r>
       <r>    -1.0922    12.3987    94.0700 </r>
       <r>    -1.0328    14.0069    94.9025 </r>
       <r>    -0.9734    20.7218    96.1336 </r>
       <r>    -0.9139    23.7050    97.5424 </r>
       <r>    -0.8545     3.1051    97.7269 </r>
       <r>    -0.7951    22.1048    99.0402 </r>
       <r>    -0.7357    21.1134   100.2947 </r>
       <r>    -0.6763    16.7942   101.2926 </r>
       <r>    -0.6169    23.5837   102.6938 </r>
       <r>    -0.5575    18.0412   103.7658 </r>
       <r>    -0.4980    23.9800   105.1906 </r>
       <r>    -0.4386    21.5921   106.4735 </r>
       <r>    -0.3792    29.0902   108.2019 </r>
       <r>    -0.3198    36.8663   110.3925 </r>
       <r>    -0.2604    18.8047   111.5097 </r>
       <r>    -0.2010    29.2411   113.2472 </r>
       <r>    -0.1416    25.4149   114.7574 </r>
       <r>    -0.0822    21.0562   116.0084 </r>
       <r>    -0.0227    26.9810   117.6115 </r>
       <r>     0.0367    18.9879   118.7398 </r>
       <r>     0.0961    27.7903   120.3909 </r>
       <r>     0.1555    27.4379   122.0211 </r>
       <r>     0.2149    16.4119   122.9963 </r>
       <r>     0.2743    26.2346   124.5550 </r>
       <r>     0.3337    18.5654   125.6580 </r>
       <r>     0.3932    25.7031   127.1852 </r>
       <r>     0.4526    22.5914   128.5276 </r>
       <r>     0.5120    21.6326   129.8128 </r>
       <r>     0.5714    32.8914   131.7671 </r>
       <r>     0.6308    28.4452   133.4572 </r>
       <r>     0.6902    25.4464   134.9691 </r>
       <r>     0.7496    34.3455   137.0098 </r>
       <r>     0.8091    25.5168   138.5261 </r>
       <r>     0.8685    29.6197   140.2862 </r>
       <r>     0.9279    25.8075   141.8196 </r>
       <r>     0.9873    36.1243   143.9660 </r>
       <r>     1.0467    25.3381   145.4717 </r>
       <r>     1.1061    31.1207   147.3207 </r>
       <r>     1.1655    32.7000   149.2637 </r>
       <r>     1.2250    23.4953   150.6599 </r>
       <r>     1.2844    23.5737   152.0607 </r>
       <r>     1.3438    11.3362   152.7344 </r>
       <r>     1.4032    21.8774   154.0342 </r>
       <r>     1.4626    25.1548   155.5290 </r>
       <r>     1.5220    18.4657   156.6263 </r>
       <r>     1.5814    20.3537   157.8356 </r>
       <r>     1.6409    18.8585   158.9561 </r>
       <r>     1.7003    21.2484   160.2186 </r>
       <r>     1.7597    27.6663   161.8624 </r>
       <r>     1.8191    17.0885   162.8781 </r>
       <r>     1.8785    24.6079   164.3401 </r>
       <r>     1.9379    16.8275   165.3400 </r>
       <r>     1.9973    21.1874   166.5989 </r>
       <r>     2.0568    32.6273   168.5374 </r>
       <r>     2.1162    18.4067   169.6313 </r>
       <r>     2.1756    23.7881   171.0447 </r>
       <r>     2.2350    25.5334   172.5618 </r>
       <r>     2.2944    22.2751   173.8852 </r>
       <r>     2.3538    20.0505   175.0768 </r>
       <r>     2.4132    14.7324   175.9522 </r>
       <r>     2.4727    11.9312   176.6610 </r>
       <r>     2.5321    14.3389   177.5130 </r>
       <r>     2.5915    16.3209   178.4827 </r>
       <r>     2.6509    25.5952   180.0035 </r>
       <r>     2.7103    32.0940   181.9103 </r>
       <r>     2.7697    13.1447   182.6913 </r>
       <r>     2.8291     6.3398   183.0680 </r>
       <r>     2.8886    18.2634   184.1531 </r>
       <r>     2.9480    15.3095   185.0628 </r>
       <r>     3.0074    11.8890   185.7692 </r>
       <r>     3.0668    10.2375   186.3775 </r>
       <r>     3.1262    13.2031   187.1620 </r>
       <r>     3.1856    20.7047   188.3922 </r>
       <r>     3.2450    16.8113   189.3911 </r>
       <r>     3.3045     8.5132   189.8971 </r>
       <r>     3.3639    18.2728   190.9827 </r>
       <r>     3.4233    16.0672   191.9374 </r>
       <r>     3.4827    21.6444   193.2235 </r>
       <r>     3.5421     6.8543   193.6309 </r>
       <r>     3.6015    15.7758   194.5683 </r>
       <r>     3.6609    16.8816   195.5713 </r>
       <r>     3.7204    22.0277   196.8800 </r>
       <r>     3.7798    17.2509   197.9050 </r>
       <r>     3.8392    16.5621   198.8891 </r>
       <r>     3.8986    11.2559   199.5580 </r>
       <r>     3.9580    12.6282   200.3082 </r>
       <r>     4.0174    21.2584   201.5714 </r>
       <r>     4.0768     8.0354   202.0489 </r>
       <r>     4.1362    18.1756   203.1288 </r>
       <r>     4.1957    16.1158   204.0865 </r>
       <r>     4.2551    10.7155   204.7232 </r>
       <r>     4.3145    12.6502   205.4748 </r>
       <r>     4.3739    12.5843   206.2226 </r>
       <r>     4.4333    21.8617   207.5215 </r>
       <r>     4.4927     9.1591   208.0657 </r>
       <r>     4.5521    10.4838   208.6886 </r>
       <r>     4.6116    15.7603   209.6250 </r>
       <r>     4.6710    16.6940   210.6168 </r>
       <r>     4.7304    22.9339   211.9795 </r>
       <r>     4.7898    16.4926   212.9595 </r>
       <r>     4.8492    12.9285   213.7277 </r>
       <r>     4.9086    29.5754   215.4849 </r>
       <r>     4.9680    19.6051   216.6498 </r>
       <r>     5.0275    11.8244   217.3523 </r>
       <r>     5.0869    19.1967   218.4929 </r>
       <r>     5.1463    28.5653   220.1901 </r>
       <r>     5.2057    21.3051   221.4561 </r>
       <r>     5.2651    28.5250   223.1510 </r>
       <r>     5.3245    27.2683   224.7712 </r>
       <r>     5.3839    16.6334   225.7594 </r>
       <r>     5.4434    22.6107   227.1029 </r>
       <r>     5.5028    19.5817   228.2663 </r>
       <r>     5.5622    23.2184   229.6460 </r>
       <r>     5.6216    19.4677   230.8026 </r>
       <r>     5.6810    12.6579   231.5547 </r>
       <r>     5.7404     2.3839   231.6963 </r>
       <r>     5.7998     3.2421   231.8890 </r>
       <r>     5.8593     1.8680   232.0000 </r>
       <r>     5.9187     0.0000   232.0000 </r>
       <r>     5.9781     0.0000   232.0000 </r>
       <r>     6.0375     0.0000   232.0000 </r>
       <r>     6.0969     0.0000   232.0000 </r>
       <r>     6.1563     0.0000   232.0000 </r>
       <r>     6.2157     0.0000   232.0000 </r>
       <r>     6.2752     0.0000   232.0000 </r>
       <r>     6.3346     0.0000   232.0000 </r>
       <r>     6.3940     0.0000   232.0000 </r>
       <r>     6.4534     0.0000   232.0000 </r>
       <r>     6.5128     0.0000   232.0000 </r>
       <r>     6.5722     0.0000   232.0000 </r>
       <r>     6.6316     0.0000   232.0000 </r>
      </set>
     </set>
    </array>
   </total>
  </dos>
 </calculation>
 <structure name="finalpos" >
  <crystal>
   <varray name="basis" >
    <v>       8.00133800       0.00000000       0.00000000 </v>
    <v>       4.00066900      12.00200653       0.00000000 </v>
    <v>       0.00000000       0.00000000      11.61174393 </v>
   </varray>
   <i name="volume">   1115.10028162 </i>
   <varray name="rec_basis" >
    <v>       0.12497910      -0.04165970       0.00000000 </v>
    <v>       0.00000000       0.08331940       0.00000000 </v>
    <v>       0.00000000       0.00000000       0.08611971 </v>
   </varray>
  </crystal>
  <varray name="positions" >
   <v>       0.66097212       0.66097212       0.00000000 </v>
   <v>       0.49430537       0.49430546       0.24362403 </v>
   <v>       0.32763863       0.32763877       0.48724809 </v>
   <v>       0.32763880       0.32763880       0.00000000 </v>
   <v>       0.16097209       0.16097215       0.24362403 </v>
   <v>       0.99430531       0.99430549       0.48724809 </v>
   <v>       0.99430549       0.99430549       0.00000000 </v>
   <v>       0.82763880       0.82763886       0.24362403 </v>
   <v>       0.66097200       0.66097218       0.48724809 </v>
   <v>       0.41097209       0.66097206       0.12181202 </v>
   <v>       0.24430537       0.49430540       0.36543608 </v>
   <v>       0.07763863       0.32763872       0.60906017 </v>
   <v>       0.74430549       0.99430549       0.12181202 </v>
   <v>       0.57763869       0.82763886       0.36543608 </v>
   <v>       0.41097194       0.66097212       0.60906017 </v>
   <v>       0.07763884       0.32763884       0.12181202 </v>
   <v>       0.91097212       0.16097215       0.36543608 </v>
   <v>       0.74430537       0.99430543       0.60906017 </v>
   <v>       0.82763875       0.32763884       0.00000000 </v>
   <v>       0.66097206       0.16097218       0.24362403 </v>
   <v>       0.49430531       0.99430549       0.48724809 </v>
   <v>       0.16097221       0.66097212       0.00000000 </v>
   <v>       0.99430549       0.49430549       0.24362403 </v>
   <v>       0.82763875       0.32763877       0.48724809 </v>
   <v>       0.49430543       0.99430549       0.00000000 </v>
   <v>       0.32763872       0.82763886       0.24362403 </v>
   <v>       0.16097200       0.66097212       0.48724809 </v>
   <v>       0.91097230       0.66097206       0.12181202 </v>
   <v>       0.74430549       0.49430540       0.36543608 </v>
   <v>       0.57763875       0.32763872       0.60906017 </v>
   <v>       0.57763880       0.32763884       0.12181202 </v>
   <v>       0.41097203       0.16097215       0.36543608 </v>
   <v>       0.24430528       0.99430543       0.60906017 </v>
   <v>       0.24430548       0.99430549       0.12181202 </v>
   <v>       0.07763872       0.82763886       0.36543608 </v>
   <v>       0.91097200       0.66097212       0.60906017 </v>
   <v>       0.00204301       0.05282700       0.70301998 </v>
   <v>       0.89093184       0.77504915       0.78422803 </v>
   <v>       0.77982068       0.49727130       0.86543608 </v>
   <v>       0.50204295       0.05282700       0.70301998 </v>
   <v>       0.39093182       0.77504909       0.78422803 </v>
   <v>       0.27982068       0.49727130       0.86543608 </v>
   <v>       0.69648737       0.16393802       0.74362403 </v>
   <v>       0.58537620       0.88616020       0.82483208 </v>
   <v>       0.47426504       0.60838234       0.90604013 </v>
   <v>       0.19648738       0.16393802       0.74362403 </v>
   <v>       0.08537624       0.88616020       0.82483208 </v>
   <v>       0.97426510       0.60838228       0.90604013 </v>
  </varray>
 </structure>
</modeling>
