<?xml version="1.0" encoding="ISO-8859-1"?>
<modeling>
 <generator>
  <i name="program" type="string">vasp </i>
  <i name="version" type="string">6.4.3  </i>
  <i name="subversion" type="string">19Mar24 (build Oct 22 2024 11:23:12) complex                          parallel </i>
  <i name="platform" type="string">LinuxIFC </i>
  <i name="date" type="string">2025 06 09 </i>
  <i name="time" type="string">04:26:18 </i>
 </generator>
 <incar>
  <i type="string" name="SYSTEM">Si and Ge interface calculation</i>
  <i type="int" name="ISTART">     0</i>
  <i type="logical" name="ADDGRID"> T  </i>
  <i type="int" name="ISPIN">     2</i>
  <i name="AMIX">      0.60000000</i>
  <i type="int" name="ICHARG">     2</i>
  <i type="int" name="NELM">   100</i>
  <i name="EDIFF">      0.00000010</i>
  <i name="ENCUT">    700.00000000</i>
  <i name="ENAUG">    900.00000000</i>
  <i type="int" name="NBANDS">   404</i>
  <i name="NUPDOWN">      1.00000000</i>
  <i name="NELECT">    672.00000000</i>
  <i type="string" name="LREAL">AUTO</i>
  <i type="int" name="ISMEAR">     0</i>
  <i name="SIGMA">      0.01000000</i>
  <i type="int" name="LMAXMIX">     6</i>
  <i type="logical" name="LWAVE"> F  </i>
  <i type="logical" name="LVTOT"> F  </i>
  <i type="logical" name="LVHAR"> T  </i>
  <i type="logical" name="LASPH"> T  </i>
  <i type="logical" name="LMIXTAU"> T  </i>
 </incar>
 <primitive_cell>
  <structure name="primitive_cell" >
   <crystal>
    <varray name="basis" >
     <v>       7.94761461       0.00000004       0.00000000 </v>
     <v>      -0.00000108      11.23962507       0.00000000 </v>
     <v>       0.00000000       0.00000000      25.60421944 </v>
    </varray>
    <i name="volume">   2287.17904853 </i>
    <varray name="rec_basis" >
     <v>       0.12582392       0.00000001       0.00000000 </v>
     <v>      -0.00000000       0.08897094       0.00000000 </v>
     <v>       0.00000000       0.00000000       0.03905606 </v>
    </varray>
   </crystal>
   <varray name="positions" >
    <v>       0.58140486       0.36743807       0.00000001 </v>
    <v>       0.74807125       0.70077145       0.08960550 </v>
    <v>       0.91473741       0.03410494       0.17921105 </v>
    <v>       0.08140364       0.36743831       0.26881653 </v>
    <v>       0.24806980       0.70077180       0.35842207 </v>
    <v>       0.41473595       0.03410530       0.44802755 </v>
    <v>       0.91473813       0.03410473       0.00000001 </v>
    <v>       0.08140435       0.36743813       0.08960552 </v>
    <v>       0.24807051       0.70077162       0.17921105 </v>
    <v>       0.41473715       0.03410494       0.26881653 </v>
    <v>       0.58140295       0.36743855       0.35842207 </v>
    <v>       0.74806946       0.70077192       0.44802758 </v>
    <v>       0.24807147       0.70077138       0.00000001 </v>
    <v>       0.41473786       0.03410482       0.08960547 </v>
    <v>       0.58140414       0.36743819       0.17921102 </v>
    <v>       0.74807042       0.70077168       0.26881653 </v>
    <v>       0.91473682       0.03410506       0.35842201 </v>
    <v>       0.08140292       0.36743855       0.44802755 </v>
    <v>       0.91473810       0.28410470       0.00000002 </v>
    <v>       0.08140474       0.61743807       0.08960550 </v>
    <v>       0.24807078       0.95077157       0.17921102 </v>
    <v>       0.41473699       0.28410506       0.26881656 </v>
    <v>       0.58140328       0.61743843       0.35842207 </v>
    <v>       0.74806944       0.95077192       0.44802755 </v>
    <v>       0.58140471       0.61743807       0.00000002 </v>
    <v>       0.74807099       0.95077150       0.08960550 </v>
    <v>       0.91473727       0.28410494       0.17921102 </v>
    <v>       0.08140366       0.61743831       0.26881653 </v>
    <v>       0.24806958       0.95077192       0.35842204 </v>
    <v>       0.41473586       0.28410530       0.44802752 </v>
    <v>       0.24807113       0.95077151       0.00000003 </v>
    <v>       0.41473765       0.28410482       0.08960552 </v>
    <v>       0.58140388       0.61743831       0.17921105 </v>
    <v>       0.74807015       0.95077180       0.26881653 </v>
    <v>       0.91473643       0.28410530       0.35842201 </v>
    <v>       0.08140271       0.61743879       0.44802764 </v>
    <v>       0.21714418       0.55669808       0.52870083 </v>
    <v>       0.96714423       0.30669805       0.60682601 </v>
    <v>       0.71714421       0.05669796       0.68495119 </v>
    <v>       0.46714431       0.80669802       0.76307648 </v>
    <v>       0.21714442       0.55669808       0.84120160 </v>
    <v>       0.96714423       0.30669805       0.91932684 </v>
    <v>       0.21714418       0.05669808       0.52870083 </v>
    <v>       0.96714429       0.80669802       0.60682601 </v>
    <v>       0.71714421       0.55669796       0.68495119 </v>
    <v>       0.46714425       0.30669805       0.76307648 </v>
    <v>       0.21714418       0.05669820       0.84120160 </v>
    <v>       0.96714429       0.80669802       0.91932684 </v>
    <v>       0.71714421       0.55669808       0.52870083 </v>
    <v>       0.46714425       0.30669805       0.60682601 </v>
    <v>       0.21714418       0.05669796       0.68495119 </v>
    <v>       0.96714429       0.80669802       0.76307648 </v>
    <v>       0.71714445       0.55669808       0.84120160 </v>
    <v>       0.46714425       0.30669805       0.91932678 </v>
    <v>       0.71714397       0.05669808       0.52870083 </v>
    <v>       0.46714431       0.80669802       0.60682601 </v>
    <v>       0.21714418       0.55669796       0.68495119 </v>
    <v>       0.96714423       0.30669805       0.76307648 </v>
    <v>       0.71714421       0.05669820       0.84120160 </v>
    <v>       0.46714431       0.80669802       0.91932684 </v>
    <v>       0.96714445       0.93169808       0.52870083 </v>
    <v>       0.71714431       0.68169802       0.60682601 </v>
    <v>       0.46714400       0.43169805       0.68495119 </v>
    <v>       0.21714429       0.18169808       0.76307648 </v>
    <v>       0.96714445       0.93169808       0.84120160 </v>
    <v>       0.71714419       0.68169808       0.91932678 </v>
    <v>       0.96714427       0.43169805       0.52870083 </v>
    <v>       0.71714425       0.18169805       0.60682601 </v>
    <v>       0.46714418       0.93169796       0.68495125 </v>
    <v>       0.21714417       0.68169802       0.76307648 </v>
    <v>       0.96714427       0.43169805       0.84120160 </v>
    <v>       0.71714414       0.18169799       0.91932684 </v>
    <v>       0.46714418       0.93169808       0.52870083 </v>
    <v>       0.21714429       0.68169802       0.60682601 </v>
    <v>       0.96714427       0.43169805       0.68495119 </v>
    <v>       0.71714396       0.18169808       0.76307648 </v>
    <v>       0.46714442       0.93169808       0.84120160 </v>
    <v>       0.21714417       0.68169808       0.91932684 </v>
    <v>       0.46714424       0.43169805       0.52870083 </v>
    <v>       0.21714423       0.18169805       0.60682601 </v>
    <v>       0.96714421       0.93169796       0.68495119 </v>
    <v>       0.71714431       0.68169802       0.76307648 </v>
    <v>       0.46714424       0.43169805       0.84120160 </v>
    <v>       0.21714435       0.18169799       0.91932678 </v>
   </varray>
  </structure>
  <varray name="primitive_index" >
   <v type="int" >        1 </v>
   <v type="int" >        2 </v>
   <v type="int" >        3 </v>
   <v type="int" >       34 </v>
   <v type="int" >       35 </v>
   <v type="int" >       36 </v>
   <v type="int" >       19 </v>
   <v type="int" >        8 </v>
   <v type="int" >        9 </v>
   <v type="int" >       10 </v>
   <v type="int" >       11 </v>
   <v type="int" >       12 </v>
   <v type="int" >       25 </v>
   <v type="int" >       26 </v>
   <v type="int" >       27 </v>
   <v type="int" >       28 </v>
   <v type="int" >       29 </v>
   <v type="int" >       18 </v>
   <v type="int" >       37 </v>
   <v type="int" >       38 </v>
   <v type="int" >       39 </v>
   <v type="int" >       40 </v>
   <v type="int" >       65 </v>
   <v type="int" >       66 </v>
   <v type="int" >       55 </v>
   <v type="int" >       56 </v>
   <v type="int" >       57 </v>
   <v type="int" >       58 </v>
   <v type="int" >       59 </v>
   <v type="int" >       60 </v>
   <v type="int" >       67 </v>
   <v type="int" >       68 </v>
   <v type="int" >       51 </v>
   <v type="int" >       52 </v>
   <v type="int" >       53 </v>
   <v type="int" >       54 </v>
   <v type="int" >       73 </v>
   <v type="int" >       86 </v>
   <v type="int" >       87 </v>
   <v type="int" >       76 </v>
   <v type="int" >       89 </v>
   <v type="int" >       78 </v>
   <v type="int" >       79 </v>
   <v type="int" >       92 </v>
   <v type="int" >       93 </v>
   <v type="int" >       82 </v>
   <v type="int" >       95 </v>
   <v type="int" >       84 </v>
   <v type="int" >      109 </v>
   <v type="int" >       98 </v>
   <v type="int" >      111 </v>
   <v type="int" >      100 </v>
   <v type="int" >      101 </v>
   <v type="int" >      114 </v>
   <v type="int" >      115 </v>
   <v type="int" >      104 </v>
   <v type="int" >      117 </v>
   <v type="int" >      106 </v>
   <v type="int" >      107 </v>
   <v type="int" >      120 </v>
   <v type="int" >      133 </v>
   <v type="int" >      122 </v>
   <v type="int" >      135 </v>
   <v type="int" >      124 </v>
   <v type="int" >      125 </v>
   <v type="int" >      138 </v>
   <v type="int" >      139 </v>
   <v type="int" >      128 </v>
   <v type="int" >      141 </v>
   <v type="int" >      130 </v>
   <v type="int" >      131 </v>
   <v type="int" >      144 </v>
   <v type="int" >      145 </v>
   <v type="int" >      158 </v>
   <v type="int" >      159 </v>
   <v type="int" >      148 </v>
   <v type="int" >      161 </v>
   <v type="int" >      150 </v>
   <v type="int" >      151 </v>
   <v type="int" >      164 </v>
   <v type="int" >      165 </v>
   <v type="int" >      154 </v>
   <v type="int" >      167 </v>
   <v type="int" >      156 </v>
  </varray>
 </primitive_cell>
 <kpoints>
  <generation param="Gamma">
   <v type="int" name="divisions">       3        3        1 </v>
   <v name="usershift">      0.00000000       0.00000000       0.00000000 </v>
   <v name="genvec1">      0.33333333       0.00000000       0.00000000 </v>
   <v name="genvec2">      0.00000000       0.33333333       0.00000000 </v>
   <v name="genvec3">      0.00000000       0.00000000       1.00000000 </v>
   <v name="shift">      0.00000000       0.00000000       0.00000000 </v>
  </generation>
  <varray name="kpointlist" >
   <v>       0.00000000       0.00000000       0.00000000 </v>
   <v>       0.33333333       0.00000000       0.00000000 </v>
   <v>      -0.33333333      -0.33333333       0.00000000 </v>
   <v>       0.00000000       0.33333333       0.00000000 </v>
   <v>      -0.33333333       0.33333333       0.00000000 </v>
  </varray>
  <varray name="weights" >
   <v>       0.11111111 </v>
   <v>       0.22222222 </v>
   <v>       0.22222222 </v>
   <v>       0.22222222 </v>
   <v>       0.22222222 </v>
  </varray>
 </kpoints>
 <parameters>
  <separator name="general" >
   <i type="string" name="SYSTEM">Si and Ge interface calculation</i>
   <i type="logical" name="LCOMPAT"> F  </i>
  </separator>
  <separator name="electronic" >
   <i type="string" name="PREC">normal</i>
   <i name="ENMAX">    700.00000000</i>
   <i name="ENAUG">    900.00000000</i>
   <i name="EDIFF">      0.00000010</i>
   <i type="int" name="IALGO">    38</i>
   <i type="int" name="IWAVPR">    10</i>
   <i type="int" name="NBANDS">   404</i>
   <i type="int" name="NBANDSLOW">    -1</i>
   <i type="int" name="NBANDSHIGH">    -1</i>
   <i name="NELECT">    672.00000000</i>
   <i type="int" name="TURBO">     0</i>
   <i type="int" name="IRESTART">     0</i>
   <i type="int" name="NREBOOT">     0</i>
   <i type="int" name="NMIN">     0</i>
   <i name="EREF">      0.00000000</i>
   <separator name="electronic smearing" >
    <i type="int" name="ISMEAR">     0</i>
    <i name="SIGMA">      0.01000000</i>
    <i name="KSPACING">      0.50000000</i>
    <i type="logical" name="KGAMMA"> T  </i>
    <i type="logical" name="KBLOWUP"> T  </i>
   </separator>
   <separator name="electronic projectors" >
    <i type="logical" name="LREAL"> T  </i>
    <v name="ROPT">     -0.00050000     -0.00050000</v>
    <i type="int" name="LMAXPAW">  -100</i>
    <i type="int" name="LMAXMIX">     6</i>
    <i type="logical" name="NLSPLINE"> F  </i>
   </separator>
   <separator name="electronic startup" >
    <i type="int" name="ISTART">     0</i>
    <i type="int" name="ICHARG">     2</i>
    <i type="int" name="INIWAV">     1</i>
   </separator>
   <separator name="electronic spin" >
    <i type="int" name="ISPIN">     2</i>
    <i type="logical" name="LNONCOLLINEAR"> F  </i>
    <v name="MAGMOM">      0.00595238      0.00595238      0.00595238      0.00595238      0.00595238      0.00595238      0.00595238      0.00595238      0.00595238      0.00595238      0.00595238      0.00595238      0.00595238      0.00595238      0.00595238      0.00595238      0.00595238      0.00595238      0.00595238      0.00595238
      0.00595238      0.00595238      0.00595238      0.00595238      0.00595238      0.00595238      0.00595238      0.00595238      0.00595238      0.00595238      0.00595238      0.00595238      0.00595238      0.00595238      0.00595238      0.00595238      0.00595238      0.00595238      0.00595238      0.00595238
      0.00595238      0.00595238      0.00595238      0.00595238      0.00595238      0.00595238      0.00595238      0.00595238      0.00595238      0.00595238      0.00595238      0.00595238      0.00595238      0.00595238      0.00595238      0.00595238      0.00595238      0.00595238      0.00595238      0.00595238
      0.00595238      0.00595238      0.00595238      0.00595238      0.00595238      0.00595238      0.00595238      0.00595238      0.00595238      0.00595238      0.00595238      0.00595238      0.00595238      0.00595238      0.00595238      0.00595238      0.00595238      0.00595238      0.00595238      0.00595238
      0.00595238      0.00595238      0.00595238      0.00595238      0.00595238      0.00595238      0.00595238      0.00595238      0.00595238      0.00595238      0.00595238      0.00595238      0.00595238      0.00595238      0.00595238      0.00595238      0.00595238      0.00595238      0.00595238      0.00595238
      0.00595238      0.00595238      0.00595238      0.00595238      0.00595238      0.00595238      0.00595238      0.00595238      0.00595238      0.00595238      0.00595238      0.00595238      0.00595238      0.00595238      0.00595238      0.00595238      0.00595238      0.00595238      0.00595238      0.00595238
      0.00595238      0.00595238      0.00595238      0.00595238      0.00595238      0.00595238      0.00595238      0.00595238      0.00595238      0.00595238      0.00595238      0.00595238      0.00595238      0.00595238      0.00595238      0.00595238      0.00595238      0.00595238      0.00595238      0.00595238
      0.00595238      0.00595238      0.00595238      0.00595238      0.00595238      0.00595238      0.00595238      0.00595238      0.00595238      0.00595238      0.00595238      0.00595238      0.00595238      0.00595238      0.00595238      0.00595238      0.00595238      0.00595238      0.00595238      0.00595238
      0.00595238      0.00595238      0.00595238      0.00595238      0.00595238      0.00595238      0.00595238      0.00595238</v>
    <i name="NUPDOWN">      1.00000000</i>
    <i type="logical" name="LSORBIT"> F  </i>
    <v name="SAXIS">      0.00000000      0.00000000      1.00000000</v>
    <i type="logical" name="LSPIRAL"> F  </i>
    <v name="QSPIRAL">      0.00000000      0.00000000      0.00000000</v>
    <i type="logical" name="LZEROZ"> F  </i>
   </separator>
   <separator name="electronic exchange-correlation" >
    <i type="logical" name="LASPH"> T  </i>
   </separator>
   <separator name="electronic convergence" >
    <i type="int" name="NELM">   100</i>
    <i type="int" name="NELMDL">    -5</i>
    <i type="int" name="NELMIN">     2</i>
    <i name="ENINI">    700.00000000</i>
    <separator name="electronic convergence detail" >
     <i type="logical" name="LDIAG"> T  </i>
     <i type="logical" name="LSUBROT"> F  </i>
     <i name="WEIMIN">      0.00000000</i>
     <i name="EBREAK">      0.00000000</i>
     <i name="DEPER">      0.30000000</i>
     <i type="int" name="NRMM">     4</i>
     <i name="TIME">      0.40000000</i>
    </separator>
   </separator>
   <separator name="electronic mixer" >
    <i name="AMIX">      0.60000000</i>
    <i name="BMIX">      1.00000000</i>
    <i name="AMIN">      0.10000000</i>
    <i name="AMIX_MAG">      2.40000000</i>
    <i name="BMIX_MAG">      1.00000000</i>
    <separator name="electronic mixer details" >
     <i type="int" name="IMIX">     4</i>
     <i type="logical" name="MIXFIRST"> F  </i>
     <i type="int" name="MAXMIX">   -45</i>
     <i name="WC">    100.00000000</i>
     <i type="int" name="INIMIX">     1</i>
     <i type="int" name="MIXPRE">     1</i>
     <i type="int" name="MREMOVE">     5</i>
    </separator>
   </separator>
   <separator name="electronic dipolcorrection" >
    <i type="logical" name="LDIPOL"> F  </i>
    <i type="logical" name="LMONO"> F  </i>
    <i type="int" name="IDIPOL">     0</i>
    <i name="EPSILON">      1.00000000</i>
    <v name="DIPOL">   -100.00000000   -100.00000000   -100.00000000</v>
    <i name="EFIELD">      0.00000000</i>
    <i type="logical" name="LVACPOTAV"> F  </i>
   </separator>
  </separator>
  <separator name="grids" >
   <i type="int" name="NGX">   108</i>
   <i type="int" name="NGY">   126</i>
   <i type="int" name="NGZ">   168</i>
   <i type="int" name="NGXF">   216</i>
   <i type="int" name="NGYF">   252</i>
   <i type="int" name="NGZF">   336</i>
   <i type="logical" name="ADDGRID"> T  </i>
  </separator>
  <separator name="ionic" >
   <i type="int" name="NSW">     0</i>
   <i type="int" name="IBRION">    -1</i>
   <i type="int" name="MDALGO">     0</i>
   <i type="int" name="ISIF">     2</i>
   <i name="PSTRESS">      0.00000000</i>
   <i name="EDIFFG">      0.00000100</i>
   <i type="int" name="NFREE">     0</i>
   <i name="POTIM">      0.50000000</i>
   <i name="SMASS">     -3.00000000</i>
   <i name="SCALEE">      1.00000000</i>
  </separator>
  <separator name="ionic md" >
   <i name="TEBEG">      0.00010000</i>
   <i name="TEEND">      0.00010000</i>
   <i type="int" name="NBLOCK">     1</i>
   <i type="int" name="KBLOCK">     1</i>
   <i type="int" name="NPACO">   256</i>
   <i name="APACO">     10.00000000</i>
  </separator>
  <separator name="symmetry" >
   <i type="int" name="ISYM">     2</i>
   <i name="SYMPREC">      0.00001000</i>
  </separator>
  <separator name="dos" >
   <i type="int" name="LORBIT">     0</i>
   <v name="RWIGS">     -1.00000000     -1.00000000</v>
   <i type="int" name="NEDOS">   301</i>
   <i name="EMIN">     10.00000000</i>
   <i name="EMAX">    -10.00000000</i>
   <i name="EFERMI">      0.00000000</i>
  </separator>
  <separator name="writing" >
   <i type="int" name="NWRITE">     2</i>
   <i type="logical" name="LWAVE"> F  </i>
   <i type="logical" name="LDOWNSAMPLE"> F  </i>
   <i type="logical" name="LCHARG"> T  </i>
   <i type="logical" name="LPARD"> F  </i>
   <i type="logical" name="LVTOT"> F  </i>
   <i type="logical" name="LVHAR"> T  </i>
   <i type="logical" name="LELF"> F  </i>
   <i type="logical" name="LOPTICS"> F  </i>
   <v name="STM">      0.00000000      0.00000000      0.00000000      0.00000000      0.00000000      0.00000000      0.00000000</v>
  </separator>
  <separator name="performance" >
   <i type="int" name="NPAR">     4</i>
   <i type="int" name="NSIM">     4</i>
   <i type="int" name="NBLK">    -1</i>
   <i type="logical" name="LPLANE"> T  </i>
   <i type="logical" name="LSCALAPACK"> T  </i>
   <i type="logical" name="LSCAAWARE"> F  </i>
   <i type="logical" name="LSCALU"> F  </i>
   <i type="logical" name="LASYNC"> F  </i>
   <i type="logical" name="LORBITALREAL"> F  </i>
  </separator>
  <separator name="miscellaneous" >
   <i type="int" name="IDIOT">     3</i>
   <i type="int" name="PHON_NSTRUCT">    -1</i>
   <i type="logical" name="LMUSIC"> F  </i>
   <v name="POMASS">    118.71000000     72.61000000</v>
   <v name="DARWINR">      0.00000000      0.00000000</v>
   <v name="DARWINV">      1.00000000      1.00000000</v>
   <i type="logical" name="LCORR"> T  </i>
  </separator>
  <i type="logical" name="GGA_COMPAT"> T  </i>
  <i type="logical" name="LBERRY"> F  </i>
  <i type="int" name="ICORELEVEL">     0</i>
  <i type="logical" name="LDAU"> F  </i>
  <i type="int" name="I_CONSTRAINED_M">     0</i>
  <separator name="electronic exchange-correlation" >
   <i type="string" name="GGA    ">PE</i>
   <i type="string" name="XC_C">1</i>
   <i type="int" name="VOSKOWN">     0</i>
   <i type="logical" name="LHFCALC"> F  </i>
   <i type="string" name="PRECFOCK"></i>
   <i type="logical" name="LSYMGRAD"> F  </i>
   <i type="logical" name="LHFONE"> F  </i>
   <i type="logical" name="LRHFCALC"> F  </i>
   <i type="logical" name="LTHOMAS"> F  </i>
   <i type="logical" name="LMODELHF"> F  </i>
   <i type="logical" name="LFOCKACE"> F  </i>
   <i name="ENCUT4O">     -1.00000000</i>
   <i type="int" name="EXXOEP">     0</i>
   <i type="int" name="FOURORBIT">     0</i>
   <i name="AEXX">      0.00000000</i>
   <i name="HFALPHA">      0.00000000</i>
   <i name="MCALPHA">      0.00000000</i>
   <i name="ALDAX">      1.00000000</i>
   <i name="AGGAX">      1.00000000</i>
   <i name="AMGGAX">      1.00000000</i>
   <i name="ALDAC">      1.00000000</i>
   <i name="AGGAC">      1.00000000</i>
   <i name="AMGGAC">      1.00000000</i>
   <i type="int" name="NKREDX">     1</i>
   <i type="int" name="NKREDY">     1</i>
   <i type="int" name="NKREDZ">     1</i>
   <i type="logical" name="SHIFTRED"> F  </i>
   <i type="logical" name="ODDONLY"> F  </i>
   <i type="logical" name="EVENONLY"> F  </i>
   <i type="int" name="LMAXFOCK">     0</i>
   <i type="int" name="NMAXFOCKAE">     0</i>
   <i type="logical" name="LFOCKAEDFT"> F  </i>
   <i name="HFSCREEN">      0.00000000</i>
   <i name="HFSCREENC">      0.00000000</i>
   <i type="int" name="NBANDSGWLOW">     0</i>
  </separator>
  <separator name="vdW DFT" >
   <i type="logical" name="LUSE_VDW"> F  </i>
   <i type="int" name="IVDW_NL">    -1</i>
   <i type="logical" name="LSPIN_VDW"> F  </i>
   <i name="ZAB_VDW">     -0.84910000</i>
   <i name="GAMMA_VDW">      1.39626340</i>
   <i name="ALPHA_VDW">      0.00000000</i>
   <i name="PARAM1">      0.12340000</i>
   <i name="PARAM2">      1.00000000</i>
   <i name="BPARAM">      6.30000000</i>
   <i name="CPARAM">      0.00930000</i>
  </separator>
  <separator name="model GW" >
   <i type="int" name="MODEL_GW">     0</i>
   <i name="MODEL_EPS0">     16.33699222</i>
   <i name="MODEL_ALPHA">      1.00000000</i>
  </separator>
  <separator name="linear response parameters" >
   <i type="logical" name="LEPSILON"> F  </i>
   <i type="logical" name="LRPA"> F  </i>
   <i type="logical" name="LNABLA"> F  </i>
   <i type="logical" name="LVEL"> F  </i>
   <i name="CSHIFT">      0.10000000</i>
   <i name="OMEGAMAX">     -1.00000000</i>
   <i name="DEG_THRESHOLD">      0.00200000</i>
   <i name="RTIME">     -0.10000000</i>
   <i name="WPLASMAI">      0.00000000</i>
   <v name="DFIELD">      0.00000000      0.00000000      0.00000000</v>
   <v name="WPLASMA">      0.00000000      0.00000000      0.00000000      0.00000000      0.00000000      0.00000000      0.00000000      0.00000000      0.00000000</v>
  </separator>
  <separator name="orbital magnetization" >
   <i type="logical" name="NUCIND"> F  </i>
   <v name="MAGPOS">      0.00000000      0.00000000      0.00000000</v>
   <i type="logical" name="LNICSALL"> T  </i>
   <i type="logical" name="ORBITALMAG"> F  </i>
   <i type="logical" name="LMAGBLOCH"> F  </i>
   <i type="logical" name="LCHIMAG"> F  </i>
   <i type="logical" name="LGAUGE"> T  </i>
   <i type="int" name="MAGATOM">     0</i>
   <v name="MAGDIPOL">      0.00000000      0.00000000      0.00000000</v>
   <v name="AVECCONST">      0.00000000      0.00000000      0.00000000</v>
  </separator>
  <separator name="response functions" >
   <i type="logical" name="LALL_IN_ONE"> F  </i>
   <i type="int" name="IALL_IN_ONE">    -1</i>
   <i type="int" name="NBANDS_WAVE">    -1</i>
   <i type="logical" name="LFINITE_TEMPERATURE"> F  </i>
   <i type="logical" name="LADDER"> F  </i>
   <i type="logical" name="LRPAFORCE"> F  </i>
   <i type="logical" name="LFXC"> F  </i>
   <i type="logical" name="LHARTREE"> T  </i>
   <i type="int" name="IBSE">     0</i>
   <v type="int" name="KPOINT">    -1     0     0     0</v>
   <i type="logical" name="LTCTC"> F  </i>
   <i type="logical" name="LTCTE"> F  </i>
   <i type="logical" name="LTETE"> F  </i>
   <i type="logical" name="LTRIPLET"> F  </i>
   <i type="logical" name="LFXCEPS"> F  </i>
   <i type="logical" name="LFXHEG"> F  </i>
   <i type="int" name="NATURALO">     2</i>
   <i type="logical" name="LHOLEGF"> F  </i>
   <i type="logical" name="L2ORDER"> F  </i>
   <i type="logical" name="LDMP1"> F  </i>
   <i type="logical" name="LMP2LT"> F  </i>
   <i type="logical" name="LSMP2LT"> F  </i>
   <i type="logical" name="LGWLF"> F  </i>
   <i name="ENCUTGW">     -1.60000002</i>
   <i name="ENCUTGWSOFT">     -1.60000002</i>
   <i name="ENCUTLF">     -1.00000000</i>
   <i type="logical" name="ESF_SPLINES"> F  </i>
   <i name="ESF_CONV">      0.01000000</i>
   <i type="int" name="ESF_NINTER">    15</i>
   <i type="int" name="LMAXMP2">    -1</i>
   <i name="SCISSOR">      0.00000000</i>
   <i type="int" name="NOMEGA">     0</i>
   <i type="int" name="NOMEGAR">     0</i>
   <i type="int" name="NBANDSGW">    -1</i>
   <i type="int" name="NBANDSO">    -1</i>
   <i type="int" name="NBANDSV">    -1</i>
   <i type="int" name="NELMGW">     1</i>
   <i type="int" name="NELMHF">     1</i>
   <i type="int" name="DIM">     3</i>
   <i type="int" name="IESPILON">     4</i>
   <i type="int" name="ANTIRES">     0</i>
   <i name="OMEGAMAX">    -30.00000000</i>
   <i name="OMEGAMIN">    -30.00000000</i>
   <i name="OMEGATL">   -200.00000000</i>
   <i type="int" name="OMEGAGRID">     0</i>
   <i name="CSHIFT">     -0.10000000</i>
   <i type="logical" name="LSELFENERGY"> F  </i>
   <i type="logical" name="LSPECTRAL"> F  </i>
   <i type="logical" name="LSPECTRALGW"> F  </i>
   <i type="logical" name="LSINGLES"> F  </i>
   <i type="logical" name="LFERMIGW"> F  </i>
   <i type="logical" name="ODDONLYGW"> F  </i>
   <i type="logical" name="EVENONLYGW"> F  </i>
   <i type="int" name="NKREDLFX">     1</i>
   <i type="int" name="NKREDLFY">     1</i>
   <i type="int" name="NKREDLFZ">     1</i>
   <i type="int" name="MAXMEM">  2800</i>
   <i type="int" name="TELESCOPE">     0</i>
   <i type="int" name="NTAUPAR">    -1</i>
   <i type="int" name="NOMEGAPAR">    -1</i>
   <i name="DAMP_NEWTON">      0.80000001</i>
   <i name="LAMBDA">      1.00000000</i>
  </separator>
  <separator name="External order field" >
   <i name="OFIELD_KAPPA">      0.00000000</i>
   <v name="OFIELD_K">      0.00000000      0.00000000      0.00000000</v>
   <i name="OFIELD_Q6_NEAR">      0.00000000</i>
   <i name="OFIELD_Q6_FAR">      0.00000000</i>
   <i name="OFIELD_A">      0.00000000</i>
  </separator>
  <separator name="optional k-points parameters" >
   <i type="int" name="KPOINTS_OPT_MODE">     1</i>
   <i type="logical" name="LKPOINTS_OPT"> F  </i>
  </separator>
 </parameters>
 <atominfo>
  <atoms>     168 </atoms>
  <types>       2 </types>
  <array name="atoms" >
   <dimension dim="1">ion</dimension>
   <field type="string">element</field>
   <field type="int">atomtype</field>
   <set>
    <rc><c>Sn</c><c>   1</c></rc>
    <rc><c>Sn</c><c>   1</c></rc>
    <rc><c>Sn</c><c>   1</c></rc>
    <rc><c>Sn</c><c>   1</c></rc>
    <rc><c>Sn</c><c>   1</c></rc>
    <rc><c>Sn</c><c>   1</c></rc>
    <rc><c>Sn</c><c>   1</c></rc>
    <rc><c>Sn</c><c>   1</c></rc>
    <rc><c>Sn</c><c>   1</c></rc>
    <rc><c>Sn</c><c>   1</c></rc>
    <rc><c>Sn</c><c>   1</c></rc>
    <rc><c>Sn</c><c>   1</c></rc>
    <rc><c>Sn</c><c>   1</c></rc>
    <rc><c>Sn</c><c>   1</c></rc>
    <rc><c>Sn</c><c>   1</c></rc>
    <rc><c>Sn</c><c>   1</c></rc>
    <rc><c>Sn</c><c>   1</c></rc>
    <rc><c>Sn</c><c>   1</c></rc>
    <rc><c>Sn</c><c>   1</c></rc>
    <rc><c>Sn</c><c>   1</c></rc>
    <rc><c>Sn</c><c>   1</c></rc>
    <rc><c>Sn</c><c>   1</c></rc>
    <rc><c>Sn</c><c>   1</c></rc>
    <rc><c>Sn</c><c>   1</c></rc>
    <rc><c>Sn</c><c>   1</c></rc>
    <rc><c>Sn</c><c>   1</c></rc>
    <rc><c>Sn</c><c>   1</c></rc>
    <rc><c>Sn</c><c>   1</c></rc>
    <rc><c>Sn</c><c>   1</c></rc>
    <rc><c>Sn</c><c>   1</c></rc>
    <rc><c>Sn</c><c>   1</c></rc>
    <rc><c>Sn</c><c>   1</c></rc>
    <rc><c>Sn</c><c>   1</c></rc>
    <rc><c>Sn</c><c>   1</c></rc>
    <rc><c>Sn</c><c>   1</c></rc>
    <rc><c>Sn</c><c>   1</c></rc>
    <rc><c>Sn</c><c>   1</c></rc>
    <rc><c>Sn</c><c>   1</c></rc>
    <rc><c>Sn</c><c>   1</c></rc>
    <rc><c>Sn</c><c>   1</c></rc>
    <rc><c>Sn</c><c>   1</c></rc>
    <rc><c>Sn</c><c>   1</c></rc>
    <rc><c>Sn</c><c>   1</c></rc>
    <rc><c>Sn</c><c>   1</c></rc>
    <rc><c>Sn</c><c>   1</c></rc>
    <rc><c>Sn</c><c>   1</c></rc>
    <rc><c>Sn</c><c>   1</c></rc>
    <rc><c>Sn</c><c>   1</c></rc>
    <rc><c>Sn</c><c>   1</c></rc>
    <rc><c>Sn</c><c>   1</c></rc>
    <rc><c>Sn</c><c>   1</c></rc>
    <rc><c>Sn</c><c>   1</c></rc>
    <rc><c>Sn</c><c>   1</c></rc>
    <rc><c>Sn</c><c>   1</c></rc>
    <rc><c>Sn</c><c>   1</c></rc>
    <rc><c>Sn</c><c>   1</c></rc>
    <rc><c>Sn</c><c>   1</c></rc>
    <rc><c>Sn</c><c>   1</c></rc>
    <rc><c>Sn</c><c>   1</c></rc>
    <rc><c>Sn</c><c>   1</c></rc>
    <rc><c>Sn</c><c>   1</c></rc>
    <rc><c>Sn</c><c>   1</c></rc>
    <rc><c>Sn</c><c>   1</c></rc>
    <rc><c>Sn</c><c>   1</c></rc>
    <rc><c>Sn</c><c>   1</c></rc>
    <rc><c>Sn</c><c>   1</c></rc>
    <rc><c>Sn</c><c>   1</c></rc>
    <rc><c>Sn</c><c>   1</c></rc>
    <rc><c>Sn</c><c>   1</c></rc>
    <rc><c>Sn</c><c>   1</c></rc>
    <rc><c>Sn</c><c>   1</c></rc>
    <rc><c>Sn</c><c>   1</c></rc>
    <rc><c>Ge</c><c>   2</c></rc>
    <rc><c>Ge</c><c>   2</c></rc>
    <rc><c>Ge</c><c>   2</c></rc>
    <rc><c>Ge</c><c>   2</c></rc>
    <rc><c>Ge</c><c>   2</c></rc>
    <rc><c>Ge</c><c>   2</c></rc>
    <rc><c>Ge</c><c>   2</c></rc>
    <rc><c>Ge</c><c>   2</c></rc>
    <rc><c>Ge</c><c>   2</c></rc>
    <rc><c>Ge</c><c>   2</c></rc>
    <rc><c>Ge</c><c>   2</c></rc>
    <rc><c>Ge</c><c>   2</c></rc>
    <rc><c>Ge</c><c>   2</c></rc>
    <rc><c>Ge</c><c>   2</c></rc>
    <rc><c>Ge</c><c>   2</c></rc>
    <rc><c>Ge</c><c>   2</c></rc>
    <rc><c>Ge</c><c>   2</c></rc>
    <rc><c>Ge</c><c>   2</c></rc>
    <rc><c>Ge</c><c>   2</c></rc>
    <rc><c>Ge</c><c>   2</c></rc>
    <rc><c>Ge</c><c>   2</c></rc>
    <rc><c>Ge</c><c>   2</c></rc>
    <rc><c>Ge</c><c>   2</c></rc>
    <rc><c>Ge</c><c>   2</c></rc>
    <rc><c>Ge</c><c>   2</c></rc>
    <rc><c>Ge</c><c>   2</c></rc>
    <rc><c>Ge</c><c>   2</c></rc>
    <rc><c>Ge</c><c>   2</c></rc>
    <rc><c>Ge</c><c>   2</c></rc>
    <rc><c>Ge</c><c>   2</c></rc>
    <rc><c>Ge</c><c>   2</c></rc>
    <rc><c>Ge</c><c>   2</c></rc>
    <rc><c>Ge</c><c>   2</c></rc>
    <rc><c>Ge</c><c>   2</c></rc>
    <rc><c>Ge</c><c>   2</c></rc>
    <rc><c>Ge</c><c>   2</c></rc>
    <rc><c>Ge</c><c>   2</c></rc>
    <rc><c>Ge</c><c>   2</c></rc>
    <rc><c>Ge</c><c>   2</c></rc>
    <rc><c>Ge</c><c>   2</c></rc>
    <rc><c>Ge</c><c>   2</c></rc>
    <rc><c>Ge</c><c>   2</c></rc>
    <rc><c>Ge</c><c>   2</c></rc>
    <rc><c>Ge</c><c>   2</c></rc>
    <rc><c>Ge</c><c>   2</c></rc>
    <rc><c>Ge</c><c>   2</c></rc>
    <rc><c>Ge</c><c>   2</c></rc>
    <rc><c>Ge</c><c>   2</c></rc>
    <rc><c>Ge</c><c>   2</c></rc>
    <rc><c>Ge</c><c>   2</c></rc>
    <rc><c>Ge</c><c>   2</c></rc>
    <rc><c>Ge</c><c>   2</c></rc>
    <rc><c>Ge</c><c>   2</c></rc>
    <rc><c>Ge</c><c>   2</c></rc>
    <rc><c>Ge</c><c>   2</c></rc>
    <rc><c>Ge</c><c>   2</c></rc>
    <rc><c>Ge</c><c>   2</c></rc>
    <rc><c>Ge</c><c>   2</c></rc>
    <rc><c>Ge</c><c>   2</c></rc>
    <rc><c>Ge</c><c>   2</c></rc>
    <rc><c>Ge</c><c>   2</c></rc>
    <rc><c>Ge</c><c>   2</c></rc>
    <rc><c>Ge</c><c>   2</c></rc>
    <rc><c>Ge</c><c>   2</c></rc>
    <rc><c>Ge</c><c>   2</c></rc>
    <rc><c>Ge</c><c>   2</c></rc>
    <rc><c>Ge</c><c>   2</c></rc>
    <rc><c>Ge</c><c>   2</c></rc>
    <rc><c>Ge</c><c>   2</c></rc>
    <rc><c>Ge</c><c>   2</c></rc>
    <rc><c>Ge</c><c>   2</c></rc>
    <rc><c>Ge</c><c>   2</c></rc>
    <rc><c>Ge</c><c>   2</c></rc>
    <rc><c>Ge</c><c>   2</c></rc>
    <rc><c>Ge</c><c>   2</c></rc>
    <rc><c>Ge</c><c>   2</c></rc>
    <rc><c>Ge</c><c>   2</c></rc>
    <rc><c>Ge</c><c>   2</c></rc>
    <rc><c>Ge</c><c>   2</c></rc>
    <rc><c>Ge</c><c>   2</c></rc>
    <rc><c>Ge</c><c>   2</c></rc>
    <rc><c>Ge</c><c>   2</c></rc>
    <rc><c>Ge</c><c>   2</c></rc>
    <rc><c>Ge</c><c>   2</c></rc>
    <rc><c>Ge</c><c>   2</c></rc>
    <rc><c>Ge</c><c>   2</c></rc>
    <rc><c>Ge</c><c>   2</c></rc>
    <rc><c>Ge</c><c>   2</c></rc>
    <rc><c>Ge</c><c>   2</c></rc>
    <rc><c>Ge</c><c>   2</c></rc>
    <rc><c>Ge</c><c>   2</c></rc>
    <rc><c>Ge</c><c>   2</c></rc>
    <rc><c>Ge</c><c>   2</c></rc>
    <rc><c>Ge</c><c>   2</c></rc>
    <rc><c>Ge</c><c>   2</c></rc>
    <rc><c>Ge</c><c>   2</c></rc>
   </set>
  </array>
  <array name="atomtypes" >
   <dimension dim="1">type</dimension>
   <field type="int">atomspertype</field>
   <field type="string">element</field>
   <field>mass</field>
   <field>valence</field>
   <field type="string">pseudopotential</field>
   <set>
    <rc><c>  72</c><c>Sn</c><c>    118.71000000</c><c>      4.00000000</c><c>  PAW_PBE Sn 08Apr2002                  </c></rc>
    <rc><c>  96</c><c>Ge</c><c>     72.61000000</c><c>      4.00000000</c><c>  PAW_PBE Ge 05Jan2001                  </c></rc>
   </set>
  </array>
 </atominfo>
 <structure name="initialpos" >
  <crystal>
   <varray name="basis" >
    <v>      15.89522839       0.00000000       0.00000000 </v>
    <v>     -15.89523029      11.23962498       0.00000000 </v>
    <v>       0.00000000       0.00000000      25.60421944 </v>
   </varray>
   <i name="volume">   4574.35782260 </i>
   <varray name="rec_basis" >
    <v>       0.06291196       0.08897095       0.00000000 </v>
    <v>       0.00000000       0.08897094       0.00000000 </v>
    <v>       0.00000000       0.00000000       0.03905606 </v>
   </varray>
  </crystal>
  <varray name="positions" >
   <v>       0.65814054       0.36743808       0.00000001 </v>
   <v>       0.57480711       0.70077145       0.08960550 </v>
   <v>       0.49147368       0.03410494       0.17921105 </v>
   <v>       0.40814021       0.36743832       0.26881653 </v>
   <v>       0.32480687       0.70077193       0.35842207 </v>
   <v>       0.24147330       0.03410530       0.44802758 </v>
   <v>       0.99147379       0.03410473       0.00000001 </v>
   <v>       0.90814036       0.36743814       0.08960552 </v>
   <v>       0.82480693       0.70077163       0.17921105 </v>
   <v>       0.74147356       0.03410494       0.26881653 </v>
   <v>       0.65814006       0.36743855       0.35842207 </v>
   <v>       0.57480669       0.70077193       0.44802758 </v>
   <v>       0.32480717       0.70077139       0.00000000 </v>
   <v>       0.24147373       0.03410482       0.08960549 </v>
   <v>       0.15814032       0.36743832       0.17921099 </v>
   <v>       0.07480685       0.70077169       0.26881653 </v>
   <v>       0.99147344       0.03410506       0.35842201 </v>
   <v>       0.90814006       0.36743855       0.44802755 </v>
   <v>       0.49147382       0.03410473       0.00000001 </v>
   <v>       0.40814039       0.36743811       0.08960552 </v>
   <v>       0.32480696       0.70077163       0.17921102 </v>
   <v>       0.24147351       0.03410494       0.26881653 </v>
   <v>       0.15814012       0.36743855       0.35842207 </v>
   <v>       0.07480662       0.70077193       0.44802758 </v>
   <v>       0.82480717       0.70077139       0.00000001 </v>
   <v>       0.74147379       0.03410482       0.08960547 </v>
   <v>       0.65814030       0.36743820       0.17921102 </v>
   <v>       0.57480693       0.70077169       0.26881653 </v>
   <v>       0.49147350       0.03410506       0.35842201 </v>
   <v>       0.40813991       0.36743855       0.44802755 </v>
   <v>       0.15814048       0.36743805       0.00000001 </v>
   <v>       0.07480706       0.70077145       0.08960551 </v>
   <v>       0.99147356       0.03410482       0.17921102 </v>
   <v>       0.90814018       0.36743832       0.26881653 </v>
   <v>       0.82480675       0.70077181       0.35842207 </v>
   <v>       0.74147332       0.03410530       0.44802755 </v>
   <v>       0.74147379       0.28410470       0.00000002 </v>
   <v>       0.65814048       0.61743808       0.08960550 </v>
   <v>       0.57480699       0.95077157       0.17921102 </v>
   <v>       0.49147359       0.28410506       0.26881656 </v>
   <v>       0.40814012       0.61743844       0.35842207 </v>
   <v>       0.32480669       0.95077193       0.44802752 </v>
   <v>       0.40814051       0.61743808       0.00000000 </v>
   <v>       0.32480708       0.95077151       0.08960552 </v>
   <v>       0.24147364       0.28410494       0.17921105 </v>
   <v>       0.15814030       0.61743844       0.26881656 </v>
   <v>       0.07480682       0.95077193       0.35842198 </v>
   <v>       0.99147332       0.28410530       0.44802761 </v>
   <v>       0.07480715       0.95077145       0.00000002 </v>
   <v>       0.99147368       0.28410482       0.08960549 </v>
   <v>       0.90814030       0.61743832       0.17921105 </v>
   <v>       0.82480693       0.95077181       0.26881653 </v>
   <v>       0.74147356       0.28410530       0.35842201 </v>
   <v>       0.65814018       0.61743879       0.44802764 </v>
   <v>       0.90814048       0.61743808       0.00000002 </v>
   <v>       0.82480705       0.95077151       0.08960550 </v>
   <v>       0.74147361       0.28410494       0.17921102 </v>
   <v>       0.65814018       0.61743832       0.26881653 </v>
   <v>       0.57480675       0.95077193       0.35842204 </v>
   <v>       0.49147326       0.28410530       0.44802752 </v>
   <v>       0.24147384       0.28410473       0.00000001 </v>
   <v>       0.15814044       0.61743814       0.08960553 </v>
   <v>       0.07480702       0.95077163       0.17921105 </v>
   <v>       0.99147361       0.28410506       0.26881656 </v>
   <v>       0.90814012       0.61743844       0.35842207 </v>
   <v>       0.82480669       0.95077193       0.44802755 </v>
   <v>       0.57480711       0.95077151       0.00000003 </v>
   <v>       0.49147368       0.28410482       0.08960552 </v>
   <v>       0.40814021       0.61743832       0.17921102 </v>
   <v>       0.32480681       0.95077169       0.26881653 </v>
   <v>       0.24147344       0.28410530       0.35842204 </v>
   <v>       0.15813996       0.61743879       0.44802758 </v>
   <v>       0.66527021       0.55669808       0.52870083 </v>
   <v>       0.29027021       0.30669805       0.60682601 </v>
   <v>       0.91527015       0.05669796       0.68495125 </v>
   <v>       0.54027021       0.80669802       0.76307648 </v>
   <v>       0.16527033       0.55669808       0.84120160 </v>
   <v>       0.79027021       0.30669805       0.91932684 </v>
   <v>       0.66527021       0.05669808       0.52870083 </v>
   <v>       0.29027021       0.80669802       0.60682601 </v>
   <v>       0.91527015       0.55669796       0.68495119 </v>
   <v>       0.54027021       0.30669805       0.76307648 </v>
   <v>       0.16527033       0.05669820       0.84120160 </v>
   <v>       0.79027021       0.80669802       0.91932684 </v>
   <v>       0.16527021       0.55669808       0.52870083 </v>
   <v>       0.79027021       0.30669805       0.60682601 </v>
   <v>       0.41527009       0.05669796       0.68495119 </v>
   <v>       0.04027033       0.80669802       0.76307648 </v>
   <v>       0.66527033       0.55669808       0.84120160 </v>
   <v>       0.29027021       0.30669805       0.91932684 </v>
   <v>       0.16527021       0.05669808       0.52870083 </v>
   <v>       0.79027021       0.80669802       0.60682601 </v>
   <v>       0.41527009       0.55669796       0.68495119 </v>
   <v>       0.04027021       0.30669805       0.76307648 </v>
   <v>       0.66527033       0.05669820       0.84120160 </v>
   <v>       0.29027021       0.80669802       0.91932678 </v>
   <v>       0.91527021       0.55669808       0.52870083 </v>
   <v>       0.54027021       0.30669805       0.60682601 </v>
   <v>       0.16527009       0.05669796       0.68495119 </v>
   <v>       0.79027021       0.80669802       0.76307648 </v>
   <v>       0.41527033       0.55669808       0.84120160 </v>
   <v>       0.04027021       0.30669805       0.91932678 </v>
   <v>       0.91527021       0.05669808       0.52870083 </v>
   <v>       0.54027021       0.80669802       0.60682601 </v>
   <v>       0.16527009       0.55669796       0.68495119 </v>
   <v>       0.79027021       0.30669805       0.76307648 </v>
   <v>       0.41527033       0.05669820       0.84120160 </v>
   <v>       0.04027021       0.80669802       0.91932684 </v>
   <v>       0.41527021       0.55669808       0.52870083 </v>
   <v>       0.04027021       0.30669805       0.60682601 </v>
   <v>       0.66527009       0.05669796       0.68495119 </v>
   <v>       0.29027021       0.80669802       0.76307648 </v>
   <v>       0.91527027       0.55669808       0.84120160 </v>
   <v>       0.54027021       0.30669805       0.91932678 </v>
   <v>       0.41527009       0.05669808       0.52870083 </v>
   <v>       0.04027021       0.80669802       0.60682601 </v>
   <v>       0.66527009       0.55669796       0.68495119 </v>
   <v>       0.29027021       0.30669805       0.76307648 </v>
   <v>       0.91527039       0.05669820       0.84120160 </v>
   <v>       0.54027021       0.80669802       0.91932684 </v>
   <v>       0.91527027       0.93169808       0.52870083 </v>
   <v>       0.54027021       0.68169802       0.60682601 </v>
   <v>       0.16527021       0.43169805       0.68495119 </v>
   <v>       0.79027027       0.18169808       0.76307648 </v>
   <v>       0.41527033       0.93169808       0.84120160 </v>
   <v>       0.04027021       0.68169808       0.91932684 </v>
   <v>       0.91527021       0.43169805       0.52870083 </v>
   <v>       0.54027021       0.18169805       0.60682601 </v>
   <v>       0.16527009       0.93169796       0.68495119 </v>
   <v>       0.79027015       0.68169802       0.76307648 </v>
   <v>       0.41527021       0.43169805       0.84120160 </v>
   <v>       0.04027009       0.18169799       0.91932678 </v>
   <v>       0.41527033       0.93169808       0.52870083 </v>
   <v>       0.04027021       0.68169802       0.60682601 </v>
   <v>       0.66527009       0.43169805       0.68495119 </v>
   <v>       0.29027021       0.18169808       0.76307648 </v>
   <v>       0.91527033       0.93169808       0.84120160 </v>
   <v>       0.54027021       0.68169808       0.91932678 </v>
   <v>       0.41527021       0.43169805       0.52870083 </v>
   <v>       0.04027021       0.18169805       0.60682601 </v>
   <v>       0.66527009       0.93169796       0.68495125 </v>
   <v>       0.29027021       0.68169802       0.76307648 </v>
   <v>       0.91527027       0.43169805       0.84120160 </v>
   <v>       0.54027009       0.18169799       0.91932684 </v>
   <v>       0.66527021       0.93169808       0.52870083 </v>
   <v>       0.29027009       0.68169802       0.60682601 </v>
   <v>       0.91527015       0.43169805       0.68495119 </v>
   <v>       0.54027009       0.18169808       0.76307648 </v>
   <v>       0.16527033       0.93169808       0.84120160 </v>
   <v>       0.79027021       0.68169808       0.91932684 </v>
   <v>       0.66527021       0.43169805       0.52870083 </v>
   <v>       0.29027021       0.18169805       0.60682601 </v>
   <v>       0.91527015       0.93169796       0.68495119 </v>
   <v>       0.54027021       0.68169802       0.76307648 </v>
   <v>       0.16527021       0.43169805       0.84120160 </v>
   <v>       0.79027021       0.18169799       0.91932678 </v>
   <v>       0.16527033       0.93169808       0.52870083 </v>
   <v>       0.79027021       0.68169802       0.60682601 </v>
   <v>       0.41527021       0.43169805       0.68495119 </v>
   <v>       0.04027033       0.18169808       0.76307648 </v>
   <v>       0.66527033       0.93169808       0.84120160 </v>
   <v>       0.29027033       0.68169808       0.91932678 </v>
   <v>       0.16527021       0.43169805       0.52870083 </v>
   <v>       0.79027021       0.18169805       0.60682601 </v>
   <v>       0.41527009       0.93169796       0.68495119 </v>
   <v>       0.04027021       0.68169802       0.76307648 </v>
   <v>       0.66527021       0.43169805       0.84120160 </v>
   <v>       0.29027021       0.18169799       0.91932678 </v>
  </varray>
 </structure>
 <calculation>
  <scstep>
   <time name="dav">   64.37   64.97</time>
   <time name="total">   68.07   68.69</time>
   <energy>
    <i name="alphaZ">   1004.66467067 </i>
    <i name="ewald"> -11792.24438185 </i>
    <i name="hartreedc">  -6500.03649924 </i>
    <i name="XCdc">  -9235.22132591 </i>
    <i name="pawpsdc">  22099.84193803 </i>
    <i name="pawaedc"> -11791.56227843 </i>
    <i name="eentropy">     -0.00195932 </i>
    <i name="bandstr">   2834.58176301 </i>
    <i name="atom">  16853.79812076 </i>
    <i name="e_fr_energy">   3473.82004772 </i>
    <i name="e_wo_entrp">   3473.82200704 </i>
    <i name="e_0_energy">   3473.82102738 </i>
   </energy>
  </scstep>
  <scstep>
   <time name="dav">   73.22   73.89</time>
   <time name="total">   73.23   73.89</time>
   <energy>
    <i name="e_fr_energy">   -254.43835291 </i>
    <i name="e_wo_entrp">   -254.43571655 </i>
    <i name="e_0_energy">   -254.43703473 </i>
   </energy>
  </scstep>
  <scstep>
   <time name="dav">   75.31   75.99</time>
   <time name="total">   75.31   75.99</time>
   <energy>
    <i name="e_fr_energy">   -663.25343400 </i>
    <i name="e_wo_entrp">   -663.25075065 </i>
    <i name="e_0_energy">   -663.25209232 </i>
   </energy>
  </scstep>
  <scstep>
   <time name="dav">   74.62   75.30</time>
   <time name="total">   74.62   75.30</time>
   <energy>
    <i name="e_fr_energy">   -679.78114664 </i>
    <i name="e_wo_entrp">   -679.77840536 </i>
    <i name="e_0_energy">   -679.77977600 </i>
   </energy>
  </scstep>
  <scstep>
   <time name="dav">   80.47   81.26</time>
   <time name="total">   86.05   86.89</time>
   <energy>
    <i name="e_fr_energy">   -680.51298859 </i>
    <i name="e_wo_entrp">   -680.51012406 </i>
    <i name="e_0_energy">   -680.51155633 </i>
   </energy>
  </scstep>
  <scstep>
   <time name="dav">   89.26   90.09</time>
   <time name="total">   98.60   99.50</time>
   <energy>
    <i name="e_fr_energy">   -670.53341282 </i>
    <i name="e_wo_entrp">   -670.53068787 </i>
    <i name="e_0_energy">   -670.53205034 </i>
   </energy>
  </scstep>
  <scstep>
   <time name="dav">   85.66   86.46</time>
   <time name="total">   95.00   95.88</time>
   <energy>
    <i name="e_fr_energy">   -674.17642945 </i>
    <i name="e_wo_entrp">   -674.17452051 </i>
    <i name="e_0_energy">   -674.17547498 </i>
   </energy>
  </scstep>
  <scstep>
   <time name="dav">   92.08   92.95</time>
   <time name="total">  101.43  102.37</time>
   <energy>
    <i name="e_fr_energy">   -669.26770046 </i>
    <i name="e_wo_entrp">   -669.26502827 </i>
    <i name="e_0_energy">   -669.26636436 </i>
   </energy>
  </scstep>
  <scstep>
   <time name="dav">   80.09   80.83</time>
   <time name="total">   89.43   90.25</time>
   <energy>
    <i name="e_fr_energy">   -668.59977411 </i>
    <i name="e_wo_entrp">   -668.59811724 </i>
    <i name="e_0_energy">   -668.59894567 </i>
   </energy>
  </scstep>
  <scstep>
   <time name="dav">   71.54   72.21</time>
   <time name="total">   80.88   81.63</time>
   <energy>
    <i name="e_fr_energy">   -668.58604059 </i>
    <i name="e_wo_entrp">   -668.58374620 </i>
    <i name="e_0_energy">   -668.58489339 </i>
   </energy>
  </scstep>
  <scstep>
   <time name="dav">   77.77   78.49</time>
   <time name="total">   87.07   87.86</time>
   <energy>
    <i name="e_fr_energy">   -668.58001100 </i>
    <i name="e_wo_entrp">   -668.57676180 </i>
    <i name="e_0_energy">   -668.57838640 </i>
   </energy>
  </scstep>
  <scstep>
   <time name="dav">   74.20   74.88</time>
   <time name="total">   83.48   84.23</time>
   <energy>
    <i name="e_fr_energy">   -668.58086598 </i>
    <i name="e_wo_entrp">   -668.57804294 </i>
    <i name="e_0_energy">   -668.57945446 </i>
   </energy>
  </scstep>
  <scstep>
   <time name="dav">   71.37   72.02</time>
   <time name="total">   80.65   81.38</time>
   <energy>
    <i name="e_fr_energy">   -668.58207796 </i>
    <i name="e_wo_entrp">   -668.57911648 </i>
    <i name="e_0_energy">   -668.58059722 </i>
   </energy>
  </scstep>
  <scstep>
   <time name="dav">   73.75   74.74</time>
   <time name="total">   83.03   84.10</time>
   <energy>
    <i name="e_fr_energy">   -668.58240626 </i>
    <i name="e_wo_entrp">   -668.57941719 </i>
    <i name="e_0_energy">   -668.58091173 </i>
   </energy>
  </scstep>
  <scstep>
   <time name="dav">   75.08   75.76</time>
   <time name="total">   84.36   85.12</time>
   <energy>
    <i name="e_fr_energy">   -668.58244923 </i>
    <i name="e_wo_entrp">   -668.57947214 </i>
    <i name="e_0_energy">   -668.58096069 </i>
   </energy>
  </scstep>
  <scstep>
   <time name="dav">   69.75   70.38</time>
   <time name="total">   79.00   79.71</time>
   <energy>
    <i name="e_fr_energy">   -668.58251037 </i>
    <i name="e_wo_entrp">   -668.57953006 </i>
    <i name="e_0_energy">   -668.58102022 </i>
   </energy>
  </scstep>
  <scstep>
   <time name="dav">   71.61   72.24</time>
   <time name="total">   80.85   81.57</time>
   <energy>
    <i name="e_fr_energy">   -668.58253668 </i>
    <i name="e_wo_entrp">   -668.57955679 </i>
    <i name="e_0_energy">   -668.58104673 </i>
   </energy>
  </scstep>
  <scstep>
   <time name="dav">   72.52   73.17</time>
   <time name="total">   81.76   82.49</time>
   <energy>
    <i name="e_fr_energy">   -668.58254138 </i>
    <i name="e_wo_entrp">   -668.57956800 </i>
    <i name="e_0_energy">   -668.58105469 </i>
   </energy>
  </scstep>
  <scstep>
   <time name="dav">   76.81   77.50</time>
   <time name="total">   86.07   86.83</time>
   <energy>
    <i name="e_fr_energy">   -668.58254622 </i>
    <i name="e_wo_entrp">   -668.57957701 </i>
    <i name="e_0_energy">   -668.58106161 </i>
   </energy>
  </scstep>
  <scstep>
   <time name="dav">   72.46   73.12</time>
   <time name="total">   81.74   82.47</time>
   <energy>
    <i name="e_fr_energy">   -668.58255362 </i>
    <i name="e_wo_entrp">   -668.57958636 </i>
    <i name="e_0_energy">   -668.58106999 </i>
   </energy>
  </scstep>
  <scstep>
   <time name="dav">   73.22   73.88</time>
   <time name="total">   82.49   83.23</time>
   <energy>
    <i name="e_fr_energy">   -668.58255889 </i>
    <i name="e_wo_entrp">   -668.57959655 </i>
    <i name="e_0_energy">   -668.58107772 </i>
   </energy>
  </scstep>
  <scstep>
   <time name="dav">   74.58   75.25</time>
   <time name="total">   83.86   84.61</time>
   <energy>
    <i name="e_fr_energy">   -668.58256057 </i>
    <i name="e_wo_entrp">   -668.57960048 </i>
    <i name="e_0_energy">   -668.58108053 </i>
   </energy>
  </scstep>
  <scstep>
   <time name="dav">   72.33   72.98</time>
   <time name="total">   81.62   82.35</time>
   <energy>
    <i name="e_fr_energy">   -668.58256105 </i>
    <i name="e_wo_entrp">   -668.57959925 </i>
    <i name="e_0_energy">   -668.58108015 </i>
   </energy>
  </scstep>
  <scstep>
   <time name="dav">   60.84   61.39</time>
   <time name="total">   70.14   70.76</time>
   <energy>
    <i name="e_fr_energy">   -668.58256136 </i>
    <i name="e_wo_entrp">   -668.57959921 </i>
    <i name="e_0_energy">   -668.58108029 </i>
   </energy>
  </scstep>
  <scstep>
   <time name="dav">   45.98   46.40</time>
   <time name="total">   55.28   55.77</time>
   <energy>
    <i name="e_fr_energy">   -668.58256153 </i>
    <i name="e_wo_entrp">   -668.57959961 </i>
    <i name="e_0_energy">   -668.58108057 </i>
   </energy>
  </scstep>
  <scstep>
   <time name="dav">   45.26   45.67</time>
   <time name="total">   48.94   49.38</time>
   <energy>
    <i name="alphaZ">   1004.66467067 </i>
    <i name="ewald"> -11792.24438185 </i>
    <i name="hartreedc">  -6761.18183391 </i>
    <i name="XCdc">  -9181.00706882 </i>
    <i name="pawpsdc">  45237.67060050 </i>
    <i name="pawaedc"> -34975.11167148 </i>
    <i name="eentropy">     -0.00296187 </i>
    <i name="bandstr">  -1055.16803557 </i>
    <i name="atom">  16853.79812076 </i>
    <i name="e_fr_energy">   -668.58256157 </i>
    <i name="e_wo_entrp">   -668.57959969 </i>
    <i name="e_0_energy">   -668.58108063 </i>
   </energy>
  </scstep>
  <structure>
   <crystal>
    <varray name="basis" >
     <v>      15.89522839       0.00000000       0.00000000 </v>
     <v>     -15.89523029      11.23962498       0.00000000 </v>
     <v>       0.00000000       0.00000000      25.60421944 </v>
    </varray>
    <i name="volume">   4574.35782260 </i>
    <varray name="rec_basis" >
     <v>       0.06291196       0.08897095       0.00000000 </v>
     <v>       0.00000000       0.08897094       0.00000000 </v>
     <v>       0.00000000       0.00000000       0.03905606 </v>
    </varray>
   </crystal>
   <varray name="positions" >
    <v>       0.65814054       0.36743808       0.00000001 </v>
    <v>       0.57480711       0.70077145       0.08960550 </v>
    <v>       0.49147368       0.03410494       0.17921105 </v>
    <v>       0.40814021       0.36743832       0.26881653 </v>
    <v>       0.32480687       0.70077193       0.35842207 </v>
    <v>       0.24147330       0.03410530       0.44802758 </v>
    <v>       0.99147379       0.03410473       0.00000001 </v>
    <v>       0.90814036       0.36743814       0.08960552 </v>
    <v>       0.82480693       0.70077163       0.17921105 </v>
    <v>       0.74147356       0.03410494       0.26881653 </v>
    <v>       0.65814006       0.36743855       0.35842207 </v>
    <v>       0.57480669       0.70077193       0.44802758 </v>
    <v>       0.32480717       0.70077139       0.00000000 </v>
    <v>       0.24147373       0.03410482       0.08960549 </v>
    <v>       0.15814032       0.36743832       0.17921099 </v>
    <v>       0.07480685       0.70077169       0.26881653 </v>
    <v>       0.99147344       0.03410506       0.35842201 </v>
    <v>       0.90814006       0.36743855       0.44802755 </v>
    <v>       0.49147382       0.03410473       0.00000001 </v>
    <v>       0.40814039       0.36743811       0.08960552 </v>
    <v>       0.32480696       0.70077163       0.17921102 </v>
    <v>       0.24147351       0.03410494       0.26881653 </v>
    <v>       0.15814012       0.36743855       0.35842207 </v>
    <v>       0.07480662       0.70077193       0.44802758 </v>
    <v>       0.82480717       0.70077139       0.00000001 </v>
    <v>       0.74147379       0.03410482       0.08960547 </v>
    <v>       0.65814030       0.36743820       0.17921102 </v>
    <v>       0.57480693       0.70077169       0.26881653 </v>
    <v>       0.49147350       0.03410506       0.35842201 </v>
    <v>       0.40813991       0.36743855       0.44802755 </v>
    <v>       0.15814048       0.36743805       0.00000001 </v>
    <v>       0.07480706       0.70077145       0.08960551 </v>
    <v>       0.99147356       0.03410482       0.17921102 </v>
    <v>       0.90814018       0.36743832       0.26881653 </v>
    <v>       0.82480675       0.70077181       0.35842207 </v>
    <v>       0.74147332       0.03410530       0.44802755 </v>
    <v>       0.74147379       0.28410470       0.00000002 </v>
    <v>       0.65814048       0.61743808       0.08960550 </v>
    <v>       0.57480699       0.95077157       0.17921102 </v>
    <v>       0.49147359       0.28410506       0.26881656 </v>
    <v>       0.40814012       0.61743844       0.35842207 </v>
    <v>       0.32480669       0.95077193       0.44802752 </v>
    <v>       0.40814051       0.61743808       0.00000000 </v>
    <v>       0.32480708       0.95077151       0.08960552 </v>
    <v>       0.24147364       0.28410494       0.17921105 </v>
    <v>       0.15814030       0.61743844       0.26881656 </v>
    <v>       0.07480682       0.95077193       0.35842198 </v>
    <v>       0.99147332       0.28410530       0.44802761 </v>
    <v>       0.07480715       0.95077145       0.00000002 </v>
    <v>       0.99147368       0.28410482       0.08960549 </v>
    <v>       0.90814030       0.61743832       0.17921105 </v>
    <v>       0.82480693       0.95077181       0.26881653 </v>
    <v>       0.74147356       0.28410530       0.35842201 </v>
    <v>       0.65814018       0.61743879       0.44802764 </v>
    <v>       0.90814048       0.61743808       0.00000002 </v>
    <v>       0.82480705       0.95077151       0.08960550 </v>
    <v>       0.74147361       0.28410494       0.17921102 </v>
    <v>       0.65814018       0.61743832       0.26881653 </v>
    <v>       0.57480675       0.95077193       0.35842204 </v>
    <v>       0.49147326       0.28410530       0.44802752 </v>
    <v>       0.24147384       0.28410473       0.00000001 </v>
    <v>       0.15814044       0.61743814       0.08960553 </v>
    <v>       0.07480702       0.95077163       0.17921105 </v>
    <v>       0.99147361       0.28410506       0.26881656 </v>
    <v>       0.90814012       0.61743844       0.35842207 </v>
    <v>       0.82480669       0.95077193       0.44802755 </v>
    <v>       0.57480711       0.95077151       0.00000003 </v>
    <v>       0.49147368       0.28410482       0.08960552 </v>
    <v>       0.40814021       0.61743832       0.17921102 </v>
    <v>       0.32480681       0.95077169       0.26881653 </v>
    <v>       0.24147344       0.28410530       0.35842204 </v>
    <v>       0.15813996       0.61743879       0.44802758 </v>
    <v>       0.66527021       0.55669808       0.52870083 </v>
    <v>       0.29027021       0.30669805       0.60682601 </v>
    <v>       0.91527015       0.05669796       0.68495125 </v>
    <v>       0.54027021       0.80669802       0.76307648 </v>
    <v>       0.16527033       0.55669808       0.84120160 </v>
    <v>       0.79027021       0.30669805       0.91932684 </v>
    <v>       0.66527021       0.05669808       0.52870083 </v>
    <v>       0.29027021       0.80669802       0.60682601 </v>
    <v>       0.91527015       0.55669796       0.68495119 </v>
    <v>       0.54027021       0.30669805       0.76307648 </v>
    <v>       0.16527033       0.05669820       0.84120160 </v>
    <v>       0.79027021       0.80669802       0.91932684 </v>
    <v>       0.16527021       0.55669808       0.52870083 </v>
    <v>       0.79027021       0.30669805       0.60682601 </v>
    <v>       0.41527009       0.05669796       0.68495119 </v>
    <v>       0.04027033       0.80669802       0.76307648 </v>
    <v>       0.66527033       0.55669808       0.84120160 </v>
    <v>       0.29027021       0.30669805       0.91932684 </v>
    <v>       0.16527021       0.05669808       0.52870083 </v>
    <v>       0.79027021       0.80669802       0.60682601 </v>
    <v>       0.41527009       0.55669796       0.68495119 </v>
    <v>       0.04027021       0.30669805       0.76307648 </v>
    <v>       0.66527033       0.05669820       0.84120160 </v>
    <v>       0.29027021       0.80669802       0.91932678 </v>
    <v>       0.91527021       0.55669808       0.52870083 </v>
    <v>       0.54027021       0.30669805       0.60682601 </v>
    <v>       0.16527009       0.05669796       0.68495119 </v>
    <v>       0.79027021       0.80669802       0.76307648 </v>
    <v>       0.41527033       0.55669808       0.84120160 </v>
    <v>       0.04027021       0.30669805       0.91932678 </v>
    <v>       0.91527021       0.05669808       0.52870083 </v>
    <v>       0.54027021       0.80669802       0.60682601 </v>
    <v>       0.16527009       0.55669796       0.68495119 </v>
    <v>       0.79027021       0.30669805       0.76307648 </v>
    <v>       0.41527033       0.05669820       0.84120160 </v>
    <v>       0.04027021       0.80669802       0.91932684 </v>
    <v>       0.41527021       0.55669808       0.52870083 </v>
    <v>       0.04027021       0.30669805       0.60682601 </v>
    <v>       0.66527009       0.05669796       0.68495119 </v>
    <v>       0.29027021       0.80669802       0.76307648 </v>
    <v>       0.91527027       0.55669808       0.84120160 </v>
    <v>       0.54027021       0.30669805       0.91932678 </v>
    <v>       0.41527009       0.05669808       0.52870083 </v>
    <v>       0.04027021       0.80669802       0.60682601 </v>
    <v>       0.66527009       0.55669796       0.68495119 </v>
    <v>       0.29027021       0.30669805       0.76307648 </v>
    <v>       0.91527039       0.05669820       0.84120160 </v>
    <v>       0.54027021       0.80669802       0.91932684 </v>
    <v>       0.91527027       0.93169808       0.52870083 </v>
    <v>       0.54027021       0.68169802       0.60682601 </v>
    <v>       0.16527021       0.43169805       0.68495119 </v>
    <v>       0.79027027       0.18169808       0.76307648 </v>
    <v>       0.41527033       0.93169808       0.84120160 </v>
    <v>       0.04027021       0.68169808       0.91932684 </v>
    <v>       0.91527021       0.43169805       0.52870083 </v>
    <v>       0.54027021       0.18169805       0.60682601 </v>
    <v>       0.16527009       0.93169796       0.68495119 </v>
    <v>       0.79027015       0.68169802       0.76307648 </v>
    <v>       0.41527021       0.43169805       0.84120160 </v>
    <v>       0.04027009       0.18169799       0.91932678 </v>
    <v>       0.41527033       0.93169808       0.52870083 </v>
    <v>       0.04027021       0.68169802       0.60682601 </v>
    <v>       0.66527009       0.43169805       0.68495119 </v>
    <v>       0.29027021       0.18169808       0.76307648 </v>
    <v>       0.91527033       0.93169808       0.84120160 </v>
    <v>       0.54027021       0.68169808       0.91932678 </v>
    <v>       0.41527021       0.43169805       0.52870083 </v>
    <v>       0.04027021       0.18169805       0.60682601 </v>
    <v>       0.66527009       0.93169796       0.68495125 </v>
    <v>       0.29027021       0.68169802       0.76307648 </v>
    <v>       0.91527027       0.43169805       0.84120160 </v>
    <v>       0.54027009       0.18169799       0.91932684 </v>
    <v>       0.66527021       0.93169808       0.52870083 </v>
    <v>       0.29027009       0.68169802       0.60682601 </v>
    <v>       0.91527015       0.43169805       0.68495119 </v>
    <v>       0.54027009       0.18169808       0.76307648 </v>
    <v>       0.16527033       0.93169808       0.84120160 </v>
    <v>       0.79027021       0.68169808       0.91932684 </v>
    <v>       0.66527021       0.43169805       0.52870083 </v>
    <v>       0.29027021       0.18169805       0.60682601 </v>
    <v>       0.91527015       0.93169796       0.68495119 </v>
    <v>       0.54027021       0.68169802       0.76307648 </v>
    <v>       0.16527021       0.43169805       0.84120160 </v>
    <v>       0.79027021       0.18169799       0.91932678 </v>
    <v>       0.16527033       0.93169808       0.52870083 </v>
    <v>       0.79027021       0.68169802       0.60682601 </v>
    <v>       0.41527021       0.43169805       0.68495119 </v>
    <v>       0.04027033       0.18169808       0.76307648 </v>
    <v>       0.66527033       0.93169808       0.84120160 </v>
    <v>       0.29027033       0.68169808       0.91932678 </v>
    <v>       0.16527021       0.43169805       0.52870083 </v>
    <v>       0.79027021       0.18169805       0.60682601 </v>
    <v>       0.41527009       0.93169796       0.68495119 </v>
    <v>       0.04027021       0.68169802       0.76307648 </v>
    <v>       0.66527021       0.43169805       0.84120160 </v>
    <v>       0.29027021       0.18169799       0.91932678 </v>
   </varray>
  </structure>
  <varray name="forces" >
   <v>       0.53592184       1.30810233       3.31851902 </v>
   <v>       0.04219649      -0.01530913      -0.03146460 </v>
   <v>       0.01162155       0.00527120      -0.00291657 </v>
   <v>      -0.00809382      -0.04060296       0.00301800 </v>
   <v>       0.05612255       0.04627800       0.14056651 </v>
   <v>      -1.25689251       1.23970108      -3.56747617 </v>
   <v>      -0.65173300      -0.70819817      -0.46092113 </v>
   <v>       0.03395386      -0.02023940       0.11005551 </v>
   <v>      -0.00867415      -0.03817491      -0.00321136 </v>
   <v>      -0.03022807       0.04052783       0.00988736 </v>
   <v>      -0.00222706       0.01398897      -0.10920898 </v>
   <v>      -0.14660014      -0.19654718      -0.03816969 </v>
   <v>       0.80174580      -0.03833592      10.83629673 </v>
   <v>       0.05709078       0.08329368       0.08132578 </v>
   <v>      -0.03265290       0.00145693      -0.00938220 </v>
   <v>      -0.02307538      -0.01297071       0.00704065 </v>
   <v>       0.09835694       0.06317942      -0.19654017 </v>
   <v>       0.44497887      -1.58105192      -3.19329048 </v>
   <v>      -0.65173300      -0.70819817      -0.46092113 </v>
   <v>       0.03395386      -0.02023940       0.11005551 </v>
   <v>      -0.00867415      -0.03817491      -0.00321136 </v>
   <v>      -0.03022807       0.04052783       0.00988736 </v>
   <v>      -0.00222706       0.01398897      -0.10920898 </v>
   <v>      -0.14660014      -0.19654718      -0.03816969 </v>
   <v>       0.80174580      -0.03833592      10.83629673 </v>
   <v>       0.05709078       0.08329368       0.08132578 </v>
   <v>      -0.03265290       0.00145693      -0.00938220 </v>
   <v>      -0.02307538      -0.01297071       0.00704065 </v>
   <v>       0.09835694       0.06317942      -0.19654017 </v>
   <v>       0.44497887      -1.58105192      -3.19329048 </v>
   <v>       0.53592184       1.30810233       3.31851902 </v>
   <v>       0.04219649      -0.01530913      -0.03146460 </v>
   <v>       0.01162155       0.00527120      -0.00291657 </v>
   <v>      -0.00809382      -0.04060296       0.00301800 </v>
   <v>       0.05612255       0.04627800       0.14056651 </v>
   <v>      -1.25689251       1.23970108      -3.56747617 </v>
   <v>      -1.13014503       0.15358799       9.66326078 </v>
   <v>      -0.02502836       0.00838852       0.07142252 </v>
   <v>      -0.01186019      -0.00334812       0.00910018 </v>
   <v>       0.02859818       0.01287180      -0.00839619 </v>
   <v>      -0.00903265      -0.02231778      -0.11595567 </v>
   <v>       1.36129772      -1.24127694      -3.18678919 </v>
   <v>      -0.04322276      -0.96652816       2.33094881 </v>
   <v>      -0.08811997      -0.08818933       0.05736738 </v>
   <v>       0.01114275       0.03361921       0.00525176 </v>
   <v>       0.01944770       0.04799171      -0.01177260 </v>
   <v>      -0.11086208      -0.07301692      -0.13979375 </v>
   <v>       0.26745419       0.42334153       0.10192262 </v>
   <v>       0.73544303       0.79891305      -0.51606147 </v>
   <v>      -0.02694582      -0.00000961      -0.03890551 </v>
   <v>       0.03574612       0.00742522       0.00465731 </v>
   <v>       0.02555032      -0.03670574       0.00181114 </v>
   <v>      -0.06496555      -0.04933802       0.16080152 </v>
   <v>      -0.11300464       1.39292491      -2.61230567 </v>
   <v>      -0.04322276      -0.96652816       2.33094881 </v>
   <v>      -0.08811997      -0.08818933       0.05736738 </v>
   <v>       0.01114275       0.03361921       0.00525176 </v>
   <v>       0.01944770       0.04799171      -0.01177260 </v>
   <v>      -0.11086208      -0.07301692      -0.13979375 </v>
   <v>       0.26745419       0.42334153       0.10192262 </v>
   <v>      -1.13014503       0.15358799       9.66326078 </v>
   <v>      -0.02502836       0.00838852       0.07142252 </v>
   <v>      -0.01186019      -0.00334812       0.00910018 </v>
   <v>       0.02859818       0.01287180      -0.00839619 </v>
   <v>      -0.00903265      -0.02231778      -0.11595567 </v>
   <v>       1.36129772      -1.24127694      -3.18678919 </v>
   <v>       0.73544303       0.79891305      -0.51606147 </v>
   <v>      -0.02694582      -0.00000961      -0.03890551 </v>
   <v>       0.03574612       0.00742522       0.00465731 </v>
   <v>       0.02555032      -0.03670574       0.00181114 </v>
   <v>      -0.06496555      -0.04933802       0.16080152 </v>
   <v>      -0.11300464       1.39292491      -2.61230567 </v>
   <v>       0.92051623       0.42714786       2.17144485 </v>
   <v>      -0.12113544       0.04880990       0.04556362 </v>
   <v>      -0.00053232      -0.02118279      -0.07218851 </v>
   <v>       0.05808649       0.01120818       0.05143297 </v>
   <v>      -0.07248840      -0.01982455       0.22189810 </v>
   <v>       2.18857777       1.50346510      -8.88283536 </v>
   <v>      -1.10999442       0.53701514       0.66217152 </v>
   <v>       0.00522295      -0.07610804      -0.12334691 </v>
   <v>      -0.02563986       0.04362672       0.00882277 </v>
   <v>       0.01258809       0.02523072      -0.04266832 </v>
   <v>       0.15185103       0.05003104      -0.06472801 </v>
   <v>      -0.42805129       0.98143977       0.03415331 </v>
   <v>       0.92051623       0.42714786       2.17144485 </v>
   <v>      -0.12113544       0.04880990       0.04556362 </v>
   <v>      -0.00053232      -0.02118279      -0.07218851 </v>
   <v>       0.05808649       0.01120818       0.05143297 </v>
   <v>      -0.07248840      -0.01982455       0.22189810 </v>
   <v>       2.18857777       1.50346510      -8.88283536 </v>
   <v>      -1.10999442       0.53701514       0.66217152 </v>
   <v>       0.00522295      -0.07610804      -0.12334691 </v>
   <v>      -0.02563986       0.04362672       0.00882277 </v>
   <v>       0.01258809       0.02523072      -0.04266832 </v>
   <v>       0.15185103       0.05003104      -0.06472801 </v>
   <v>      -0.42805129       0.98143977       0.03415331 </v>
   <v>      -0.33709834       0.22640738       0.01185951 </v>
   <v>      -0.05725672       0.17589134       0.16423004 </v>
   <v>       0.00537469       0.01730064      -0.10388882 </v>
   <v>       0.02268771       0.01835178       0.06279118 </v>
   <v>      -0.07918722       0.07968082      -0.04206434 </v>
   <v>      -1.30966709      -0.85797308      -2.35681466 </v>
   <v>      -0.01471096       2.15577276       2.89471801 </v>
   <v>      -0.11211781      -0.30138508      -0.10040323 </v>
   <v>       0.04313219       0.03433307       0.01682419 </v>
   <v>       0.01349491       0.00818171      -0.06857897 </v>
   <v>       0.11682268      -0.15573281      -0.14647144 </v>
   <v>       0.08029819       1.64991921      -0.67672352 </v>
   <v>      -0.33709834       0.22640738       0.01185951 </v>
   <v>      -0.05725672       0.17589134       0.16423004 </v>
   <v>       0.00537469       0.01730064      -0.10388882 </v>
   <v>       0.02268771       0.01835178       0.06279118 </v>
   <v>      -0.07918722       0.07968082      -0.04206434 </v>
   <v>      -1.30966709      -0.85797308      -2.35681466 </v>
   <v>      -0.01471096       2.15577276       2.89471801 </v>
   <v>      -0.11211781      -0.30138508      -0.10040323 </v>
   <v>       0.04313219       0.03433307       0.01682419 </v>
   <v>       0.01349491       0.00818171      -0.06857897 </v>
   <v>       0.11682268      -0.15573281      -0.14647144 </v>
   <v>       0.08029819       1.64991921      -0.67672352 </v>
   <v>       0.74318298      -0.58214753       0.28398755 </v>
   <v>       0.04179853      -0.15520834       0.16156783 </v>
   <v>       0.00485755      -0.04953999       0.04105474 </v>
   <v>      -0.02881053      -0.03294121       0.05943992 </v>
   <v>      -0.18862073       0.00231777      -0.05209881 </v>
   <v>       0.86341194       0.43571026      -1.26856371 </v>
   <v>      -1.14247688      -0.22099546       3.02279079 </v>
   <v>       0.07251576       0.27788793      -0.10675495 </v>
   <v>      -0.01621492       0.02651651      -0.06396656 </v>
   <v>      -0.01100239      -0.02076329      -0.07138148 </v>
   <v>       0.02741279       0.02627533       0.18339392 </v>
   <v>      -0.25301541      -1.74969421      -0.96828414 </v>
   <v>       0.74318298      -0.58214753       0.28398755 </v>
   <v>       0.04179853      -0.15520834       0.16156783 </v>
   <v>       0.00485755      -0.04953999       0.04105474 </v>
   <v>      -0.02881053      -0.03294121       0.05943992 </v>
   <v>      -0.18862073       0.00231777      -0.05209881 </v>
   <v>       0.86341194       0.43571026      -1.26856371 </v>
   <v>      -1.14247688      -0.22099546       3.02279079 </v>
   <v>       0.07251576       0.27788793      -0.10675495 </v>
   <v>      -0.01621492       0.02651651      -0.06396656 </v>
   <v>      -0.01100239      -0.02076329      -0.07138148 </v>
   <v>       0.02741279       0.02627533       0.18339392 </v>
   <v>      -0.25301541      -1.74969421      -0.96828414 </v>
   <v>       0.28791294      -2.13239129       3.06769030 </v>
   <v>       0.06905967      -0.05018429       0.05452661 </v>
   <v>      -0.04309151      -0.04274150       0.04851619 </v>
   <v>      -0.04808119      -0.01214387       0.05504585 </v>
   <v>      -0.13136284       0.12864115      -0.11341216 </v>
   <v>      -1.64356659      -1.48493815     -10.37198394 </v>
   <v>       0.21544315      -0.41323184      -0.20970414 </v>
   <v>       0.04254395       0.13768097      -0.10376218 </v>
   <v>      -0.01860908      -0.03911574      -0.07219777 </v>
   <v>      -0.00091844      -0.03645336      -0.03719106 </v>
   <v>       0.08728662      -0.07468692      -0.03955253 </v>
   <v>       0.33626698      -1.04816221       0.16494956 </v>
   <v>       0.28791294      -2.13239129       3.06769030 </v>
   <v>       0.06905967      -0.05018429       0.05452661 </v>
   <v>      -0.04309151      -0.04274150       0.04851619 </v>
   <v>      -0.04808119      -0.01214387       0.05504585 </v>
   <v>      -0.13136284       0.12864115      -0.11341216 </v>
   <v>      -1.64356659      -1.48493815     -10.37198394 </v>
   <v>       0.21544315      -0.41323184      -0.20970414 </v>
   <v>       0.04254395       0.13768097      -0.10376218 </v>
   <v>      -0.01860908      -0.03911574      -0.07219777 </v>
   <v>      -0.00091844      -0.03645336      -0.03719106 </v>
   <v>       0.08728662      -0.07468692      -0.03955253 </v>
   <v>       0.33626698      -1.04816221       0.16494956 </v>
  </varray>
  <varray name="stress" >
   <v>      58.43090013       3.13373633      -0.54908828 </v>
   <v>       3.13373402      55.59079102       0.79570420 </v>
   <v>      -0.54908805       0.79570338      95.34180392 </v>
  </varray>
  <energy>
   <i name="e_fr_energy">   -668.58256157 </i>
   <i name="e_wo_entrp">   -668.57959969 </i>
   <i name="e_0_energy">   -668.58108063 </i>
  </energy>
  <time name="totalsc"> 2242.37 2264.40</time>
  <eigenvalues>
   <array>
    <dimension dim="1">band</dimension>
    <dimension dim="2">kpoint</dimension>
    <dimension dim="3">spin</dimension>
    <field>eigene</field>
    <field>occ</field>
    <set>
     <set comment="spin 1">
      <set comment="kpoint 1">
       <r>   -9.1191    1.0000 </r>
       <r>   -8.9076    1.0000 </r>
       <r>   -8.6823    1.0000 </r>
       <r>   -8.6713    1.0000 </r>
       <r>   -8.5971    1.0000 </r>
       <r>   -8.5612    1.0000 </r>
       <r>   -8.5004    1.0000 </r>
       <r>   -8.4508    1.0000 </r>
       <r>   -8.3526    1.0000 </r>
       <r>   -8.2150    1.0000 </r>
       <r>   -8.0932    1.0000 </r>
       <r>   -7.9065    1.0000 </r>
       <r>   -7.9044    1.0000 </r>
       <r>   -7.7927    1.0000 </r>
       <r>   -7.7303    1.0000 </r>
       <r>   -7.6643    1.0000 </r>
       <r>   -7.5631    1.0000 </r>
       <r>   -7.5368    1.0000 </r>
       <r>   -7.4525    1.0000 </r>
       <r>   -7.4094    1.0000 </r>
       <r>   -7.4047    1.0000 </r>
       <r>   -7.3949    1.0000 </r>
       <r>   -7.3255    1.0000 </r>
       <r>   -7.2498    1.0000 </r>
       <r>   -7.1518    1.0000 </r>
       <r>   -7.1069    1.0000 </r>
       <r>   -6.9926    1.0000 </r>
       <r>   -6.9802    1.0000 </r>
       <r>   -6.9335    1.0000 </r>
       <r>   -6.9192    1.0000 </r>
       <r>   -6.8891    1.0000 </r>
       <r>   -6.8696    1.0000 </r>
       <r>   -6.8101    1.0000 </r>
       <r>   -6.7795    1.0000 </r>
       <r>   -6.7671    1.0000 </r>
       <r>   -6.6976    1.0000 </r>
       <r>   -6.6726    1.0000 </r>
       <r>   -6.5894    1.0000 </r>
       <r>   -6.5564    1.0000 </r>
       <r>   -6.3329    1.0000 </r>
       <r>   -6.2751    1.0000 </r>
       <r>   -6.2676    1.0000 </r>
       <r>   -6.2463    1.0000 </r>
       <r>   -6.1717    1.0000 </r>
       <r>   -6.1482    1.0000 </r>
       <r>   -6.0030    1.0000 </r>
       <r>   -5.9407    1.0000 </r>
       <r>   -5.9220    1.0000 </r>
       <r>   -5.8095    1.0000 </r>
       <r>   -5.8001    1.0000 </r>
       <r>   -5.6998    1.0000 </r>
       <r>   -5.6936    1.0000 </r>
       <r>   -5.6429    1.0000 </r>
       <r>   -5.6187    1.0000 </r>
       <r>   -5.5159    1.0000 </r>
       <r>   -5.4835    1.0000 </r>
       <r>   -5.4724    1.0000 </r>
       <r>   -5.4569    1.0000 </r>
       <r>   -5.4064    1.0000 </r>
       <r>   -5.3780    1.0000 </r>
       <r>   -5.3217    1.0000 </r>
       <r>   -5.3057    1.0000 </r>
       <r>   -5.2960    1.0000 </r>
       <r>   -5.2901    1.0000 </r>
       <r>   -5.2833    1.0000 </r>
       <r>   -5.2213    1.0000 </r>
       <r>   -5.1635    1.0000 </r>
       <r>   -5.1528    1.0000 </r>
       <r>   -5.1506    1.0000 </r>
       <r>   -5.0976    1.0000 </r>
       <r>   -5.0464    1.0000 </r>
       <r>   -5.0327    1.0000 </r>
       <r>   -5.0112    1.0000 </r>
       <r>   -5.0054    1.0000 </r>
       <r>   -4.9902    1.0000 </r>
       <r>   -4.9784    1.0000 </r>
       <r>   -4.9096    1.0000 </r>
       <r>   -4.8438    1.0000 </r>
       <r>   -4.8160    1.0000 </r>
       <r>   -4.7749    1.0000 </r>
       <r>   -4.7442    1.0000 </r>
       <r>   -4.7208    1.0000 </r>
       <r>   -4.6850    1.0000 </r>
       <r>   -4.6740    1.0000 </r>
       <r>   -4.5393    1.0000 </r>
       <r>   -4.5314    1.0000 </r>
       <r>   -4.4758    1.0000 </r>
       <r>   -4.4732    1.0000 </r>
       <r>   -4.4307    1.0000 </r>
       <r>   -4.4072    1.0000 </r>
       <r>   -4.3793    1.0000 </r>
       <r>   -4.3544    1.0000 </r>
       <r>   -4.2994    1.0000 </r>
       <r>   -4.2858    1.0000 </r>
       <r>   -4.0880    1.0000 </r>
       <r>   -4.0607    1.0000 </r>
       <r>   -4.0371    1.0000 </r>
       <r>   -4.0337    1.0000 </r>
       <r>   -4.0053    1.0000 </r>
       <r>   -3.8758    1.0000 </r>
       <r>   -3.8469    1.0000 </r>
[...]
       <r>    -3.0928    61.6135   238.5727 </r>
       <r>    -3.0382    31.5361   240.2947 </r>
       <r>    -2.9836    35.5958   242.2384 </r>
       <r>    -2.9290    28.9925   243.8215 </r>
       <r>    -2.8744    53.2696   246.7303 </r>
       <r>    -2.8198    31.3452   248.4419 </r>
       <r>    -2.7652    44.1584   250.8532 </r>
       <r>    -2.7106    44.9969   253.3103 </r>
       <r>    -2.6560    34.0553   255.1698 </r>
       <r>    -2.6014    75.8677   259.3125 </r>
       <r>    -2.5468    58.1063   262.4855 </r>
       <r>    -2.4922    64.3904   266.0015 </r>
       <r>    -2.4376    56.2660   269.0739 </r>
       <r>    -2.3829    38.6264   271.1831 </r>
       <r>    -2.3283    44.7513   273.6267 </r>
       <r>    -2.2737    41.9114   275.9153 </r>
       <r>    -2.2191    60.7067   279.2301 </r>
       <r>    -2.1645    54.5766   282.2103 </r>
       <r>    -2.1099    41.0608   284.4524 </r>
       <r>    -2.0553    20.2237   285.5567 </r>
       <r>    -2.0007    17.4846   286.5114 </r>
       <r>    -1.9461    29.2955   288.1111 </r>
       <r>    -1.8915    40.5478   290.3252 </r>
       <r>    -1.8369    31.0757   292.0220 </r>
       <r>    -1.7823    60.9992   295.3529 </r>
       <r>    -1.7277    18.3342   296.3540 </r>
       <r>    -1.6731    31.3546   298.0661 </r>
       <r>    -1.6185    35.0657   299.9808 </r>
       <r>    -1.5639    56.9794   303.0922 </r>
       <r>    -1.5093    29.7849   304.7186 </r>
       <r>    -1.4547    27.8644   306.2401 </r>
       <r>    -1.4001    19.9730   307.3307 </r>
       <r>    -1.3455    27.2201   308.8170 </r>
       <r>    -1.2909    44.0656   311.2232 </r>
       <r>    -1.2363    16.0989   312.1024 </r>
       <r>    -1.1817    22.9092   313.3533 </r>
       <r>    -1.1270    27.9728   314.8808 </r>
       <r>    -1.0724    14.2798   315.6605 </r>
       <r>    -1.0178    10.4268   316.2298 </r>
       <r>    -0.9632    30.9821   317.9216 </r>
       <r>    -0.9086    20.6090   319.0470 </r>
       <r>    -0.8540    19.2222   320.0966 </r>
       <r>    -0.7994    14.0682   320.8648 </r>
       <r>    -0.7448    11.9772   321.5188 </r>
       <r>    -0.6902    27.2275   323.0055 </r>
       <r>    -0.6356    32.3076   324.7697 </r>
       <r>    -0.5810    47.2629   327.3505 </r>
       <r>    -0.5264    44.3153   329.7704 </r>
       <r>    -0.4718    74.1499   333.8193 </r>
       <r>    -0.4172    66.1453   337.4311 </r>
       <r>    -0.3626    64.7897   340.9689 </r>
       <r>    -0.3080    53.8686   343.9104 </r>
       <r>    -0.2534    86.9601   348.6588 </r>
       <r>    -0.1988    59.6621   351.9167 </r>
       <r>    -0.1442    90.3544   356.8505 </r>
       <r>    -0.0896    65.8861   360.4482 </r>
       <r>    -0.0350    52.9378   363.3389 </r>
       <r>     0.0196    96.6368   368.6157 </r>
       <r>     0.0743    85.5412   373.2866 </r>
       <r>     0.1289    52.3570   376.1456 </r>
       <r>     0.1835    78.7276   380.4445 </r>
       <r>     0.2381    71.9870   384.3753 </r>
       <r>     0.2927    76.6169   388.5589 </r>
       <r>     0.3473    74.3775   392.6204 </r>
       <r>     0.4019   107.9460   398.5148 </r>
       <r>     0.4565   106.3540   404.3222 </r>
       <r>     0.5111    95.0258   409.5111 </r>
       <r>     0.5657   115.9632   415.8432 </r>
       <r>     0.6203   105.4087   421.5990 </r>
       <r>     0.6749   117.4001   428.0096 </r>
       <r>     0.7295   108.3930   433.9283 </r>
       <r>     0.7841   132.9027   441.1854 </r>
       <r>     0.8387   119.2591   447.6975 </r>
       <r>     0.8933   118.4409   454.1649 </r>
       <r>     0.9479   108.9113   460.1121 </r>
       <r>     1.0025    89.9697   465.0248 </r>
       <r>     1.0571    93.1936   470.1136 </r>
       <r>     1.1117    78.4415   474.3969 </r>
       <r>     1.1663    84.7836   479.0264 </r>
       <r>     1.2209   138.9902   486.6159 </r>
       <r>     1.2755   106.0610   492.4074 </r>
       <r>     1.3302   122.9631   499.1218 </r>
       <r>     1.3848   126.5758   506.0334 </r>
       <r>     1.4394   127.3343   512.9865 </r>
       <r>     1.4940   102.7065   518.5947 </r>
       <r>     1.5486   103.5705   524.2502 </r>
       <r>     1.6032   124.1703   531.0304 </r>
       <r>     1.6578   100.2859   536.5065 </r>
       <r>     1.7124    88.5161   541.3399 </r>
       <r>     1.7670   129.0086   548.3843 </r>
       <r>     1.8216   108.5044   554.3091 </r>
       <r>     1.8762   112.1613   560.4337 </r>
       <r>     1.9308   117.4076   566.8446 </r>
       <r>     1.9854    94.9083   572.0270 </r>
       <r>     2.0400    88.3267   576.8501 </r>
       <r>     2.0946    96.8640   582.1394 </r>
       <r>     2.1492    81.8964   586.6113 </r>
       <r>     2.2038    76.5311   590.7902 </r>
       <r>     2.2584    89.4398   595.6740 </r>
       <r>     2.3130    99.0441   601.0824 </r>
       <r>     2.3676    59.6137   604.3376 </r>
       <r>     2.4222    61.0519   607.6714 </r>
       <r>     2.4768    79.4949   612.0121 </r>
       <r>     2.5314    87.2925   616.7787 </r>
       <r>     2.5861    83.2932   621.3270 </r>
       <r>     2.6407    88.8470   626.1784 </r>
       <r>     2.6953    68.1243   629.8983 </r>
       <r>     2.7499    44.7056   632.3394 </r>
       <r>     2.8045    91.7896   637.3515 </r>
       <r>     2.8591    62.9941   640.7913 </r>
       <r>     2.9137    49.5054   643.4945 </r>
       <r>     2.9683    70.4661   647.3423 </r>
       <r>     3.0229    46.7607   649.8956 </r>
       <r>     3.0775    47.2824   652.4775 </r>
       <r>     3.1321    39.6242   654.6412 </r>
       <r>     3.1867    38.5221   656.7448 </r>
       <r>     3.2413    39.0415   658.8766 </r>
       <r>     3.2959    31.8070   660.6134 </r>
       <r>     3.3505    67.0422   664.2742 </r>
       <r>     3.4051    36.5194   666.2683 </r>
       <r>     3.4597    62.3225   669.6714 </r>
       <r>     3.5143    10.2052   670.2287 </r>
       <r>     3.5689    32.6605   672.0121 </r>
       <r>     3.6235    23.9322   673.3190 </r>
       <r>     3.6781    30.9593   675.0095 </r>
       <r>     3.7327    58.0416   678.1789 </r>
       <r>     3.7874    20.5334   679.3001 </r>
       <r>     3.8420    49.4518   682.0004 </r>
       <r>     3.8966     8.3633   682.4571 </r>
       <r>     3.9512    22.1526   683.6668 </r>
       <r>     4.0058    12.9295   684.3728 </r>
       <r>     4.0604    25.8674   685.7853 </r>
       <r>     4.1150    12.0710   686.4444 </r>
       <r>     4.1696     2.3861   686.5747 </r>
       <r>     4.2242    14.4958   687.3663 </r>
       <r>     4.2788    30.8682   689.0518 </r>
       <r>     4.3334    58.0020   692.2190 </r>
       <r>     4.3880    22.9445   693.4719 </r>
       <r>     4.4426    30.9804   695.1636 </r>
       <r>     4.4972    41.8093   697.4465 </r>
       <r>     4.5518    45.6608   699.9398 </r>
       <r>     4.6064    55.9159   702.9931 </r>
       <r>     4.6610    58.8810   706.2082 </r>
       <r>     4.7156    50.8815   708.9866 </r>
       <r>     4.7702    79.3435   713.3191 </r>
       <r>     4.8248    76.4721   717.4948 </r>
       <r>     4.8794    82.0837   721.9770 </r>
       <r>     4.9340    78.5626   726.2668 </r>
       <r>     4.9886    71.8437   730.1898 </r>
       <r>     5.0433    94.6508   735.3582 </r>
       <r>     5.0979   109.1869   741.3203 </r>
       <r>     5.1525    97.7577   746.6584 </r>
       <r>     5.2071    98.2085   752.0210 </r>
       <r>     5.2617   108.9971   757.9727 </r>
       <r>     5.3163   113.6517   764.1786 </r>
       <r>     5.3709    94.1807   769.3214 </r>
       <r>     5.4255    98.4117   774.6951 </r>
       <r>     5.4801   114.8322   780.9654 </r>
       <r>     5.5347    96.8148   786.2519 </r>
       <r>     5.5893   127.0681   793.1904 </r>
       <r>     5.6439    90.7915   798.1481 </r>
       <r>     5.6985    90.2811   803.0779 </r>
       <r>     5.7531    69.6002   806.8783 </r>
       <r>     5.8077    20.5412   808.0000 </r>
       <r>     5.8623     0.0000   808.0000 </r>
       <r>     5.9169     0.0000   808.0000 </r>
       <r>     5.9715     0.0000   808.0000 </r>
       <r>     6.0261     0.0000   808.0000 </r>
       <r>     6.0807     0.0000   808.0000 </r>
       <r>     6.1353     0.0000   808.0000 </r>
       <r>     6.1899     0.0000   808.0000 </r>
       <r>     6.2445     0.0000   808.0000 </r>
       <r>     6.2992     0.0000   808.0000 </r>
       <r>     6.3538     0.0000   808.0000 </r>
       <r>     6.4084     0.0000   808.0000 </r>
       <r>     6.4630     0.0000   808.0000 </r>
       <r>     6.5176     0.0000   808.0000 </r>
      </set>
     </set>
    </array>
   </total>
  </dos>
 </calculation>
 <structure name="finalpos" >
  <crystal>
   <varray name="basis" >
    <v>      15.89522839       0.00000000       0.00000000 </v>
    <v>     -15.89523029      11.23962498       0.00000000 </v>
    <v>       0.00000000       0.00000000      25.60421944 </v>
   </varray>
   <i name="volume">   4574.35782260 </i>
   <varray name="rec_basis" >
    <v>       0.06291196       0.08897095       0.00000000 </v>
    <v>       0.00000000       0.08897094       0.00000000 </v>
    <v>       0.00000000       0.00000000       0.03905606 </v>
   </varray>
  </crystal>
  <varray name="positions" >
   <v>       0.65814054       0.36743808       0.00000001 </v>
   <v>       0.57480711       0.70077145       0.08960550 </v>
   <v>       0.49147368       0.03410494       0.17921105 </v>
   <v>       0.40814021       0.36743832       0.26881653 </v>
   <v>       0.32480687       0.70077193       0.35842207 </v>
   <v>       0.24147330       0.03410530       0.44802758 </v>
   <v>       0.99147379       0.03410473       0.00000001 </v>
   <v>       0.90814036       0.36743814       0.08960552 </v>
   <v>       0.82480693       0.70077163       0.17921105 </v>
   <v>       0.74147356       0.03410494       0.26881653 </v>
   <v>       0.65814006       0.36743855       0.35842207 </v>
   <v>       0.57480669       0.70077193       0.44802758 </v>
   <v>       0.32480717       0.70077139       0.00000000 </v>
   <v>       0.24147373       0.03410482       0.08960549 </v>
   <v>       0.15814032       0.36743832       0.17921099 </v>
   <v>       0.07480685       0.70077169       0.26881653 </v>
   <v>       0.99147344       0.03410506       0.35842201 </v>
   <v>       0.90814006       0.36743855       0.44802755 </v>
   <v>       0.49147382       0.03410473       0.00000001 </v>
   <v>       0.40814039       0.36743811       0.08960552 </v>
   <v>       0.32480696       0.70077163       0.17921102 </v>
   <v>       0.24147351       0.03410494       0.26881653 </v>
   <v>       0.15814012       0.36743855       0.35842207 </v>
   <v>       0.07480662       0.70077193       0.44802758 </v>
   <v>       0.82480717       0.70077139       0.00000001 </v>
   <v>       0.74147379       0.03410482       0.08960547 </v>
   <v>       0.65814030       0.36743820       0.17921102 </v>
   <v>       0.57480693       0.70077169       0.26881653 </v>
   <v>       0.49147350       0.03410506       0.35842201 </v>
   <v>       0.40813991       0.36743855       0.44802755 </v>
   <v>       0.15814048       0.36743805       0.00000001 </v>
   <v>       0.07480706       0.70077145       0.08960551 </v>
   <v>       0.99147356       0.03410482       0.17921102 </v>
   <v>       0.90814018       0.36743832       0.26881653 </v>
   <v>       0.82480675       0.70077181       0.35842207 </v>
   <v>       0.74147332       0.03410530       0.44802755 </v>
   <v>       0.74147379       0.28410470       0.00000002 </v>
   <v>       0.65814048       0.61743808       0.08960550 </v>
   <v>       0.57480699       0.95077157       0.17921102 </v>
   <v>       0.49147359       0.28410506       0.26881656 </v>
   <v>       0.40814012       0.61743844       0.35842207 </v>
   <v>       0.32480669       0.95077193       0.44802752 </v>
   <v>       0.40814051       0.61743808       0.00000000 </v>
   <v>       0.32480708       0.95077151       0.08960552 </v>
   <v>       0.24147364       0.28410494       0.17921105 </v>
   <v>       0.15814030       0.61743844       0.26881656 </v>
   <v>       0.07480682       0.95077193       0.35842198 </v>
   <v>       0.99147332       0.28410530       0.44802761 </v>
   <v>       0.07480715       0.95077145       0.00000002 </v>
   <v>       0.99147368       0.28410482       0.08960549 </v>
   <v>       0.90814030       0.61743832       0.17921105 </v>
   <v>       0.82480693       0.95077181       0.26881653 </v>
   <v>       0.74147356       0.28410530       0.35842201 </v>
   <v>       0.65814018       0.61743879       0.44802764 </v>
   <v>       0.90814048       0.61743808       0.00000002 </v>
   <v>       0.82480705       0.95077151       0.08960550 </v>
   <v>       0.74147361       0.28410494       0.17921102 </v>
   <v>       0.65814018       0.61743832       0.26881653 </v>
   <v>       0.57480675       0.95077193       0.35842204 </v>
   <v>       0.49147326       0.28410530       0.44802752 </v>
   <v>       0.24147384       0.28410473       0.00000001 </v>
   <v>       0.15814044       0.61743814       0.08960553 </v>
   <v>       0.07480702       0.95077163       0.17921105 </v>
   <v>       0.99147361       0.28410506       0.26881656 </v>
   <v>       0.90814012       0.61743844       0.35842207 </v>
   <v>       0.82480669       0.95077193       0.44802755 </v>
   <v>       0.57480711       0.95077151       0.00000003 </v>
   <v>       0.49147368       0.28410482       0.08960552 </v>
   <v>       0.40814021       0.61743832       0.17921102 </v>
   <v>       0.32480681       0.95077169       0.26881653 </v>
   <v>       0.24147344       0.28410530       0.35842204 </v>
   <v>       0.15813996       0.61743879       0.44802758 </v>
   <v>       0.66527021       0.55669808       0.52870083 </v>
   <v>       0.29027021       0.30669805       0.60682601 </v>
   <v>       0.91527015       0.05669796       0.68495125 </v>
   <v>       0.54027021       0.80669802       0.76307648 </v>
   <v>       0.16527033       0.55669808       0.84120160 </v>
   <v>       0.79027021       0.30669805       0.91932684 </v>
   <v>       0.66527021       0.05669808       0.52870083 </v>
   <v>       0.29027021       0.80669802       0.60682601 </v>
   <v>       0.91527015       0.55669796       0.68495119 </v>
   <v>       0.54027021       0.30669805       0.76307648 </v>
   <v>       0.16527033       0.05669820       0.84120160 </v>
   <v>       0.79027021       0.80669802       0.91932684 </v>
   <v>       0.16527021       0.55669808       0.52870083 </v>
   <v>       0.79027021       0.30669805       0.60682601 </v>
   <v>       0.41527009       0.05669796       0.68495119 </v>
   <v>       0.04027033       0.80669802       0.76307648 </v>
   <v>       0.66527033       0.55669808       0.84120160 </v>
   <v>       0.29027021       0.30669805       0.91932684 </v>
   <v>       0.16527021       0.05669808       0.52870083 </v>
   <v>       0.79027021       0.80669802       0.60682601 </v>
   <v>       0.41527009       0.55669796       0.68495119 </v>
   <v>       0.04027021       0.30669805       0.76307648 </v>
   <v>       0.66527033       0.05669820       0.84120160 </v>
   <v>       0.29027021       0.80669802       0.91932678 </v>
   <v>       0.91527021       0.55669808       0.52870083 </v>
   <v>       0.54027021       0.30669805       0.60682601 </v>
   <v>       0.16527009       0.05669796       0.68495119 </v>
   <v>       0.79027021       0.80669802       0.76307648 </v>
   <v>       0.41527033       0.55669808       0.84120160 </v>
   <v>       0.04027021       0.30669805       0.91932678 </v>
   <v>       0.91527021       0.05669808       0.52870083 </v>
   <v>       0.54027021       0.80669802       0.60682601 </v>
   <v>       0.16527009       0.55669796       0.68495119 </v>
   <v>       0.79027021       0.30669805       0.76307648 </v>
   <v>       0.41527033       0.05669820       0.84120160 </v>
   <v>       0.04027021       0.80669802       0.91932684 </v>
   <v>       0.41527021       0.55669808       0.52870083 </v>
   <v>       0.04027021       0.30669805       0.60682601 </v>
   <v>       0.66527009       0.05669796       0.68495119 </v>
   <v>       0.29027021       0.80669802       0.76307648 </v>
   <v>       0.91527027       0.55669808       0.84120160 </v>
   <v>       0.54027021       0.30669805       0.91932678 </v>
   <v>       0.41527009       0.05669808       0.52870083 </v>
   <v>       0.04027021       0.80669802       0.60682601 </v>
   <v>       0.66527009       0.55669796       0.68495119 </v>
   <v>       0.29027021       0.30669805       0.76307648 </v>
   <v>       0.91527039       0.05669820       0.84120160 </v>
   <v>       0.54027021       0.80669802       0.91932684 </v>
   <v>       0.91527027       0.93169808       0.52870083 </v>
   <v>       0.54027021       0.68169802       0.60682601 </v>
   <v>       0.16527021       0.43169805       0.68495119 </v>
   <v>       0.79027027       0.18169808       0.76307648 </v>
   <v>       0.41527033       0.93169808       0.84120160 </v>
   <v>       0.04027021       0.68169808       0.91932684 </v>
   <v>       0.91527021       0.43169805       0.52870083 </v>
   <v>       0.54027021       0.18169805       0.60682601 </v>
   <v>       0.16527009       0.93169796       0.68495119 </v>
   <v>       0.79027015       0.68169802       0.76307648 </v>
   <v>       0.41527021       0.43169805       0.84120160 </v>
   <v>       0.04027009       0.18169799       0.91932678 </v>
   <v>       0.41527033       0.93169808       0.52870083 </v>
   <v>       0.04027021       0.68169802       0.60682601 </v>
   <v>       0.66527009       0.43169805       0.68495119 </v>
   <v>       0.29027021       0.18169808       0.76307648 </v>
   <v>       0.91527033       0.93169808       0.84120160 </v>
   <v>       0.54027021       0.68169808       0.91932678 </v>
   <v>       0.41527021       0.43169805       0.52870083 </v>
   <v>       0.04027021       0.18169805       0.60682601 </v>
   <v>       0.66527009       0.93169796       0.68495125 </v>
   <v>       0.29027021       0.68169802       0.76307648 </v>
   <v>       0.91527027       0.43169805       0.84120160 </v>
   <v>       0.54027009       0.18169799       0.91932684 </v>
   <v>       0.66527021       0.93169808       0.52870083 </v>
   <v>       0.29027009       0.68169802       0.60682601 </v>
   <v>       0.91527015       0.43169805       0.68495119 </v>
   <v>       0.54027009       0.18169808       0.76307648 </v>
   <v>       0.16527033       0.93169808       0.84120160 </v>
   <v>       0.79027021       0.68169808       0.91932684 </v>
   <v>       0.66527021       0.43169805       0.52870083 </v>
   <v>       0.29027021       0.18169805       0.60682601 </v>
   <v>       0.91527015       0.93169796       0.68495119 </v>
   <v>       0.54027021       0.68169802       0.76307648 </v>
   <v>       0.16527021       0.43169805       0.84120160 </v>
   <v>       0.79027021       0.18169799       0.91932678 </v>
   <v>       0.16527033       0.93169808       0.52870083 </v>
   <v>       0.79027021       0.68169802       0.60682601 </v>
   <v>       0.41527021       0.43169805       0.68495119 </v>
   <v>       0.04027033       0.18169808       0.76307648 </v>
   <v>       0.66527033       0.93169808       0.84120160 </v>
   <v>       0.29027033       0.68169808       0.91932678 </v>
   <v>       0.16527021       0.43169805       0.52870083 </v>
   <v>       0.79027021       0.18169805       0.60682601 </v>
   <v>       0.41527009       0.93169796       0.68495119 </v>
   <v>       0.04027021       0.68169802       0.76307648 </v>
   <v>       0.66527021       0.43169805       0.84120160 </v>
   <v>       0.29027021       0.18169799       0.91932678 </v>
  </varray>
 </structure>
</modeling>
