 264 264   0   0
  0.2770664E+02  0.1946760E-08  0.1946760E-08  0.1930025E-08  0.5000000E-15
  1.000000000000000E-004
  CAR 
 Si and Ge interface calculation         
      6.65470952     -8.91544911  301      4.06094853      1.00000000
     -8.915  0.0000E+00  0.0000E+00  0.0000E+00  0.0000E+00
     -8.864  0.0000E+00  0.0000E+00  0.0000E+00  0.0000E+00
     -8.812  0.0000E+00  0.0000E+00  0.0000E+00  0.0000E+00
     -8.760  0.0000E+00  0.0000E+00  0.0000E+00  0.0000E+00
     -8.708  0.0000E+00  0.0000E+00  0.0000E+00  0.0000E+00
     -8.656  0.0000E+00  0.0000E+00  0.0000E+00  0.0000E+00
     -8.604  0.0000E+00  0.0000E+00  0.0000E+00  0.0000E+00
     -8.552  0.0000E+00  0.0000E+00  0.0000E+00  0.0000E+00
     -8.500  0.0000E+00  0.0000E+00  0.0000E+00  0.0000E+00
     -8.448  0.0000E+00  0.0000E+00  0.0000E+00  0.0000E+00
     -8.396  0.0000E+00  0.0000E+00  0.0000E+00  0.0000E+00
     -8.345  0.0000E+00  0.0000E+00  0.0000E+00  0.0000E+00
     -8.293  0.0000E+00  0.0000E+00  0.0000E+00  0.0000E+00
     -8.241  0.1423E-04  0.3527E-05  0.7388E-06  0.1830E-06
     -8.189  0.1025E+02  0.9893E+01  0.5322E+00  0.5135E+00
     -8.137  0.2814E+02  0.2835E+02  0.1992E+01  0.1985E+01
     -8.085  0.1481E+00  0.2940E+00  0.2000E+01  0.2000E+01
     -8.033  0.2186E+02  0.2058E+02  0.3135E+01  0.3068E+01
     -7.981  0.7040E+01  0.8323E+01  0.3500E+01  0.3500E+01
     -7.929  0.1903E+02  0.1884E+02  0.4488E+01  0.4478E+01
     -7.877  0.1555E+02  0.1418E+02  0.5295E+01  0.5214E+01
     -7.826  0.1662E+02  0.1732E+02  0.6157E+01  0.6113E+01
     -7.774  0.6683E+01  0.7498E+01  0.6504E+01  0.6502E+01
     -7.722  0.3842E+02  0.3837E+02  0.8498E+01  0.8493E+01
     -7.670  0.2190E+02  0.2113E+02  0.9635E+01  0.9590E+01
     -7.618  0.1667E+02  0.1753E+02  0.1050E+02  0.1050E+02
     -7.566  0.3667E+00  0.2005E+00  0.1052E+02  0.1051E+02
     -7.514  0.2442E+02  0.2369E+02  0.1179E+02  0.1174E+02
     -7.462  0.4163E+01  0.5030E+01  0.1200E+02  0.1200E+02
     -7.410  0.4496E+02  0.4344E+02  0.1434E+02  0.1426E+02
     -7.358  0.2469E+02  0.2541E+02  0.1562E+02  0.1557E+02
     -7.307  0.1705E+02  0.1785E+02  0.1650E+02  0.1650E+02
     -7.255  0.2851E+02  0.2575E+02  0.1798E+02  0.1784E+02
     -7.203  0.3544E+02  0.3698E+02  0.1982E+02  0.1976E+02
     -7.151  0.3303E+02  0.3302E+02  0.2154E+02  0.2147E+02
     -7.099  0.1662E+02  0.1698E+02  0.2240E+02  0.2235E+02
     -7.047  0.4937E+02  0.4807E+02  0.2496E+02  0.2485E+02
     -6.995  0.5773E+02  0.5770E+02  0.2796E+02  0.2784E+02
     -6.943  0.1937E+02  0.2102E+02  0.2896E+02  0.2893E+02
     -6.891  0.3372E+02  0.3314E+02  0.3071E+02  0.3065E+02
     -6.839  0.5062E+02  0.5042E+02  0.3334E+02  0.3327E+02
     -6.788  0.2228E+02  0.2352E+02  0.3450E+02  0.3449E+02
     -6.736  0.5141E+02  0.5018E+02  0.3716E+02  0.3709E+02
     -6.684  0.6418E+02  0.6290E+02  0.4049E+02  0.4036E+02
     -6.632  0.5860E+02  0.5899E+02  0.4354E+02  0.4342E+02
     -6.580  0.4587E+02  0.4513E+02  0.4592E+02  0.4576E+02
     -6.528  0.1915E+02  0.2100E+02  0.4691E+02  0.4685E+02
     -6.476  0.3235E+02  0.3111E+02  0.4859E+02  0.4847E+02
     -6.424  0.3799E+02  0.3955E+02  0.5056E+02  0.5052E+02
     -6.372  0.5648E+02  0.5707E+02  0.5349E+02  0.5348E+02
     -6.320  0.2615E+02  0.2353E+02  0.5485E+02  0.5470E+02
     -6.269  0.7052E+02  0.7288E+02  0.5851E+02  0.5849E+02
     -6.217  0.2281E+02  0.1994E+02  0.5969E+02  0.5952E+02
     -6.165  0.5308E+02  0.5415E+02  0.6245E+02  0.6233E+02
     -6.113  0.8085E+02  0.8056E+02  0.6664E+02  0.6651E+02
     -6.061  0.6179E+02  0.5979E+02  0.6985E+02  0.6962E+02
     -6.009  0.8196E+02  0.8244E+02  0.7411E+02  0.7389E+02
     -5.957  0.5306E+02  0.5491E+02  0.7686E+02  0.7674E+02
     -5.905  0.5610E+02  0.5497E+02  0.7977E+02  0.7960E+02
     -5.853  0.5931E+02  0.6097E+02  0.8285E+02  0.8276E+02
     -5.801  0.6809E+02  0.6543E+02  0.8638E+02  0.8616E+02
     -5.750  0.7997E+02  0.8274E+02  0.9053E+02  0.9045E+02
     -5.698  0.9411E+02  0.9130E+02  0.9542E+02  0.9519E+02
     -5.646  0.8935E+02  0.8884E+02  0.1001E+03  0.9980E+02
     -5.594  0.7850E+02  0.7909E+02  0.1041E+03  0.1039E+03
     -5.542  0.8031E+02  0.8170E+02  0.1083E+03  0.1081E+03
     -5.490  0.7638E+02  0.7595E+02  0.1123E+03  0.1121E+03
     -5.438  0.5237E+02  0.5207E+02  0.1150E+03  0.1148E+03
     -5.386  0.8516E+02  0.8565E+02  0.1194E+03  0.1192E+03
     -5.334  0.8681E+02  0.8532E+02  0.1239E+03  0.1237E+03
     -5.282  0.7477E+02  0.7608E+02  0.1278E+03  0.1276E+03
     -5.231  0.7775E+02  0.7731E+02  0.1318E+03  0.1316E+03
     -5.179  0.6494E+02  0.6554E+02  0.1352E+03  0.1350E+03
     -5.127  0.6487E+02  0.6275E+02  0.1386E+03  0.1383E+03
     -5.075  0.8419E+02  0.8525E+02  0.1429E+03  0.1427E+03
     -5.023  0.7460E+02  0.7494E+02  0.1468E+03  0.1466E+03
     -4.971  0.6508E+02  0.6496E+02  0.1502E+03  0.1500E+03
     -4.919  0.6217E+02  0.6170E+02  0.1534E+03  0.1532E+03
     -4.867  0.9001E+02  0.9188E+02  0.1581E+03  0.1579E+03
     -4.815  0.8098E+02  0.7649E+02  0.1623E+03  0.1619E+03
     -4.763  0.1201E+03  0.1232E+03  0.1685E+03  0.1683E+03
     -4.712  0.9909E+02  0.9559E+02  0.1737E+03  0.1733E+03
     -4.660  0.1079E+03  0.1089E+03  0.1793E+03  0.1789E+03
     -4.608  0.1109E+03  0.1083E+03  0.1850E+03  0.1845E+03
     -4.556  0.1161E+03  0.1175E+03  0.1910E+03  0.1906E+03
     -4.504  0.1146E+03  0.1176E+03  0.1970E+03  0.1967E+03
     -4.452  0.8565E+02  0.8289E+02  0.2014E+03  0.2010E+03
     -4.400  0.9850E+02  0.1011E+03  0.2065E+03  0.2063E+03
     -4.348  0.8991E+02  0.8700E+02  0.2112E+03  0.2108E+03
     -4.296  0.7459E+02  0.7764E+02  0.2151E+03  0.2148E+03
     -4.244  0.7779E+02  0.7783E+02  0.2191E+03  0.2189E+03
     -4.193  0.8370E+02  0.8293E+02  0.2235E+03  0.2232E+03
     -4.141  0.7658E+02  0.8011E+02  0.2274E+03  0.2273E+03
     -4.089  0.4976E+02  0.4925E+02  0.2300E+03  0.2299E+03
     -4.037  0.5043E+02  0.5063E+02  0.2326E+03  0.2325E+03
     -3.985  0.6476E+02  0.6286E+02  0.2360E+03  0.2358E+03
     -3.933  0.7317E+02  0.7264E+02  0.2398E+03  0.2396E+03
     -3.881  0.6687E+02  0.6489E+02  0.2433E+03  0.2429E+03
     -3.829  0.8810E+02  0.9041E+02  0.2478E+03  0.2476E+03
     -3.777  0.7763E+02  0.7929E+02  0.2519E+03  0.2517E+03
     -3.725  0.6421E+02  0.6045E+02  0.2552E+03  0.2549E+03
     -3.673  0.6641E+02  0.6895E+02  0.2587E+03  0.2584E+03
     -3.622  0.7776E+02  0.7353E+02  0.2627E+03  0.2623E+03
     -3.570  0.3928E+02  0.4634E+02  0.2647E+03  0.2647E+03
     -3.518  0.4044E+02  0.3541E+02  0.2668E+03  0.2665E+03
     -3.466  0.8920E+02  0.9075E+02  0.2715E+03  0.2712E+03
     -3.414  0.7629E+02  0.7540E+02  0.2754E+03  0.2751E+03
     -3.362  0.8729E+02  0.8666E+02  0.2799E+03  0.2796E+03
     -3.310  0.5625E+02  0.5685E+02  0.2829E+03  0.2826E+03
     -3.258  0.8338E+02  0.8332E+02  0.2872E+03  0.2869E+03
     -3.206  0.6586E+02  0.6961E+02  0.2906E+03  0.2905E+03
     -3.154  0.9136E+02  0.8633E+02  0.2954E+03  0.2950E+03
     -3.103  0.8592E+02  0.8760E+02  0.2998E+03  0.2995E+03
     -3.051  0.5996E+02  0.5693E+02  0.3029E+03  0.3025E+03
     -2.999  0.7531E+02  0.7738E+02  0.3068E+03  0.3065E+03
     -2.947  0.7992E+02  0.7740E+02  0.3110E+03  0.3105E+03
     -2.895  0.9693E+02  0.9934E+02  0.3160E+03  0.3157E+03
     -2.843  0.8789E+02  0.9228E+02  0.3206E+03  0.3205E+03
     -2.791  0.7555E+02  0.7196E+02  0.3245E+03  0.3242E+03
     -2.739  0.1010E+03  0.1016E+03  0.3297E+03  0.3295E+03
     -2.687  0.9909E+02  0.9774E+02  0.3349E+03  0.3346E+03
     -2.635  0.9503E+02  0.9719E+02  0.3398E+03  0.3396E+03
     -2.584  0.1085E+03  0.1042E+03  0.3454E+03  0.3450E+03
     -2.532  0.1182E+03  0.1203E+03  0.3516E+03  0.3512E+03
     -2.480  0.1066E+03  0.1083E+03  0.3571E+03  0.3569E+03
     -2.428  0.9859E+02  0.9950E+02  0.3622E+03  0.3620E+03
     -2.376  0.8837E+02  0.8696E+02  0.3668E+03  0.3665E+03
     -2.324  0.9057E+02  0.9195E+02  0.3715E+03  0.3713E+03
     -2.272  0.9949E+02  0.9921E+02  0.3767E+03  0.3765E+03
     -2.220  0.7948E+02  0.8217E+02  0.3808E+03  0.3807E+03
     -2.168  0.5271E+02  0.5159E+02  0.3835E+03  0.3834E+03
     -2.116  0.6102E+02  0.6104E+02  0.3867E+03  0.3866E+03
     -2.065  0.6136E+02  0.5853E+02  0.3899E+03  0.3896E+03
     -2.013  0.7279E+02  0.7462E+02  0.3937E+03  0.3935E+03
     -1.961  0.9074E+02  0.8964E+02  0.3984E+03  0.3981E+03
     -1.909  0.9350E+02  0.9429E+02  0.4032E+03  0.4030E+03
     -1.857  0.8831E+02  0.8531E+02  0.4078E+03  0.4075E+03
     -1.805  0.8605E+02  0.8867E+02  0.4123E+03  0.4121E+03
     -1.753  0.7928E+02  0.7920E+02  0.4164E+03  0.4162E+03
     -1.701  0.9432E+02  0.9132E+02  0.4213E+03  0.4209E+03
     -1.649  0.8019E+02  0.8319E+02  0.4255E+03  0.4252E+03
     -1.597  0.8308E+02  0.8013E+02  0.4298E+03  0.4294E+03
     -1.546  0.8606E+02  0.9088E+02  0.4342E+03  0.4341E+03
     -1.494  0.7370E+02  0.7354E+02  0.4381E+03  0.4379E+03
     -1.442  0.5659E+02  0.5699E+02  0.4410E+03  0.4409E+03
     -1.390  0.3490E+02  0.3295E+02  0.4428E+03  0.4426E+03
     -1.338  0.7500E+02  0.7380E+02  0.4467E+03  0.4464E+03
     -1.286  0.6108E+02  0.6304E+02  0.4499E+03  0.4497E+03
     -1.234  0.5549E+02  0.5465E+02  0.4527E+03  0.4525E+03
     -1.182  0.4060E+02  0.4238E+02  0.4549E+03  0.4547E+03
     -1.130  0.5433E+02  0.5174E+02  0.4577E+03  0.4574E+03
     -1.078  0.6208E+02  0.6301E+02  0.4609E+03  0.4607E+03
     -1.027  0.6164E+02  0.6410E+02  0.4641E+03  0.4640E+03
     -0.975  0.4371E+02  0.4136E+02  0.4664E+03  0.4662E+03
     -0.923  0.4054E+02  0.4241E+02  0.4685E+03  0.4684E+03
     -0.871  0.7049E+02  0.6795E+02  0.4721E+03  0.4719E+03
     -0.819  0.5570E+02  0.5592E+02  0.4750E+03  0.4748E+03
     -0.767  0.6943E+02  0.7044E+02  0.4786E+03  0.4784E+03
     -0.715  0.4880E+02  0.4661E+02  0.4812E+03  0.4809E+03
     -0.663  0.7359E+02  0.7388E+02  0.4850E+03  0.4847E+03
     -0.611  0.3001E+02  0.3448E+02  0.4865E+03  0.4865E+03
     -0.559  0.2446E+02  0.2382E+02  0.4878E+03  0.4877E+03
     -0.508  0.2806E+02  0.2922E+02  0.4893E+03  0.4892E+03
     -0.456  0.3674E+02  0.3357E+02  0.4912E+03  0.4910E+03
     -0.404  0.3957E+02  0.4140E+02  0.4932E+03  0.4931E+03
     -0.352  0.5379E+02  0.5157E+02  0.4960E+03  0.4958E+03
     -0.300  0.8349E+02  0.8404E+02  0.5003E+03  0.5002E+03
     -0.248  0.7884E+02  0.7966E+02  0.5044E+03  0.5043E+03
     -0.196  0.6958E+02  0.6881E+02  0.5080E+03  0.5079E+03
     -0.144  0.1016E+03  0.9866E+02  0.5133E+03  0.5130E+03
     -0.092  0.1159E+03  0.1172E+03  0.5193E+03  0.5191E+03
     -0.040  0.1170E+03  0.1147E+03  0.5254E+03  0.5250E+03
      0.011  0.1167E+03  0.1183E+03  0.5315E+03  0.5312E+03
      0.063  0.1473E+03  0.1438E+03  0.5391E+03  0.5386E+03
      0.115  0.1500E+03  0.1539E+03  0.5469E+03  0.5466E+03
      0.167  0.7629E+02  0.7707E+02  0.5509E+03  0.5506E+03
      0.219  0.7508E+02  0.7351E+02  0.5547E+03  0.5544E+03
      0.271  0.1008E+03  0.1004E+03  0.5600E+03  0.5597E+03
      0.323  0.7784E+02  0.8072E+02  0.5640E+03  0.5638E+03
      0.375  0.8744E+02  0.8603E+02  0.5686E+03  0.5683E+03
      0.427  0.1057E+03  0.1065E+03  0.5740E+03  0.5738E+03
      0.479  0.7262E+02  0.7373E+02  0.5778E+03  0.5777E+03
      0.530  0.1121E+03  0.1090E+03  0.5836E+03  0.5833E+03
      0.582  0.1275E+03  0.1254E+03  0.5902E+03  0.5898E+03
      0.634  0.1417E+03  0.1418E+03  0.5976E+03  0.5972E+03
      0.686  0.1441E+03  0.1467E+03  0.6051E+03  0.6048E+03
      0.738  0.1247E+03  0.1252E+03  0.6116E+03  0.6113E+03
      0.790  0.1232E+03  0.1230E+03  0.6179E+03  0.6177E+03
      0.842  0.1142E+03  0.1155E+03  0.6239E+03  0.6237E+03
      0.894  0.8561E+02  0.8599E+02  0.6283E+03  0.6281E+03
      0.946  0.7858E+02  0.7684E+02  0.6324E+03  0.6321E+03
      0.998  0.1254E+03  0.1254E+03  0.6389E+03  0.6386E+03
      1.049  0.1541E+03  0.1494E+03  0.6469E+03  0.6464E+03
      1.101  0.1353E+03  0.1397E+03  0.6539E+03  0.6536E+03
      1.153  0.1271E+03  0.1240E+03  0.6605E+03  0.6601E+03
      1.205  0.1673E+03  0.1663E+03  0.6692E+03  0.6687E+03
      1.257  0.1822E+03  0.1853E+03  0.6787E+03  0.6783E+03
      1.309  0.1709E+03  0.1664E+03  0.6875E+03  0.6870E+03
      1.361  0.2059E+03  0.2074E+03  0.6982E+03  0.6977E+03
      1.413  0.1772E+03  0.1810E+03  0.7074E+03  0.7071E+03
      1.465  0.1298E+03  0.1275E+03  0.7141E+03  0.7137E+03
      1.517  0.2023E+03  0.2004E+03  0.7246E+03  0.7241E+03
      1.568  0.2065E+03  0.2050E+03  0.7354E+03  0.7348E+03
      1.620  0.1944E+03  0.1988E+03  0.7455E+03  0.7451E+03
      1.672  0.1712E+03  0.1682E+03  0.7543E+03  0.7538E+03
      1.724  0.1895E+03  0.1904E+03  0.7642E+03  0.7637E+03
      1.776  0.1805E+03  0.1821E+03  0.7735E+03  0.7732E+03
      1.828  0.1785E+03  0.1742E+03  0.7828E+03  0.7822E+03
      1.880  0.1598E+03  0.1624E+03  0.7911E+03  0.7906E+03
      1.932  0.1807E+03  0.1779E+03  0.8005E+03  0.7999E+03
      1.984  0.2119E+03  0.2133E+03  0.8115E+03  0.8109E+03
      2.036  0.1565E+03  0.1554E+03  0.8196E+03  0.8190E+03
      2.087  0.1925E+03  0.1936E+03  0.8296E+03  0.8290E+03
      2.139  0.1713E+03  0.1708E+03  0.8385E+03  0.8379E+03
      2.191  0.1941E+03  0.1933E+03  0.8486E+03  0.8479E+03
      2.243  0.1590E+03  0.1606E+03  0.8568E+03  0.8563E+03
      2.295  0.1706E+03  0.1692E+03  0.8657E+03  0.8651E+03
      2.347  0.1620E+03  0.1621E+03  0.8741E+03  0.8735E+03
      2.399  0.1999E+03  0.2013E+03  0.8844E+03  0.8839E+03
      2.451  0.1587E+03  0.1585E+03  0.8927E+03  0.8921E+03
      2.503  0.1574E+03  0.1579E+03  0.9009E+03  0.9003E+03
      2.555  0.1529E+03  0.1508E+03  0.9088E+03  0.9082E+03
      2.606  0.1493E+03  0.1512E+03  0.9165E+03  0.9160E+03
      2.658  0.1172E+03  0.1188E+03  0.9226E+03  0.9222E+03
      2.710  0.1442E+03  0.1431E+03  0.9301E+03  0.9296E+03
      2.762  0.1390E+03  0.1387E+03  0.9373E+03  0.9368E+03
      2.814  0.1448E+03  0.1397E+03  0.9448E+03  0.9441E+03
      2.866  0.1530E+03  0.1568E+03  0.9528E+03  0.9522E+03
      2.918  0.1229E+03  0.1255E+03  0.9592E+03  0.9587E+03
      2.970  0.9577E+02  0.9562E+02  0.9641E+03  0.9637E+03
      3.022  0.1460E+03  0.1445E+03  0.9717E+03  0.9712E+03
      3.074  0.1241E+03  0.1261E+03  0.9781E+03  0.9777E+03
      3.125  0.1283E+03  0.1231E+03  0.9848E+03  0.9841E+03
      3.177  0.1010E+03  0.1014E+03  0.9900E+03  0.9894E+03
      3.229  0.1160E+03  0.1164E+03  0.9961E+03  0.9954E+03
      3.281  0.1097E+03  0.1091E+03  0.1002E+04  0.1001E+04
      3.333  0.1066E+03  0.1091E+03  0.1007E+04  0.1007E+04
      3.385  0.6534E+02  0.6930E+02  0.1011E+04  0.1010E+04
      3.437  0.9158E+02  0.9288E+02  0.1015E+04  0.1015E+04
      3.489  0.8515E+02  0.8185E+02  0.1020E+04  0.1019E+04
      3.541  0.8204E+02  0.8055E+02  0.1024E+04  0.1024E+04
      3.593  0.9032E+02  0.8987E+02  0.1029E+04  0.1028E+04
      3.644  0.6917E+02  0.7483E+02  0.1032E+04  0.1032E+04
      3.696  0.4416E+02  0.3809E+02  0.1035E+04  0.1034E+04
      3.748  0.6284E+02  0.6889E+02  0.1038E+04  0.1038E+04
      3.800  0.4797E+02  0.3972E+02  0.1040E+04  0.1040E+04
      3.852  0.4504E+02  0.5406E+02  0.1043E+04  0.1043E+04
      3.904  0.4225E+02  0.4133E+02  0.1045E+04  0.1045E+04
      3.956  0.7401E+02  0.6212E+02  0.1049E+04  0.1048E+04
      4.008  0.7944E+02  0.8483E+02  0.1053E+04  0.1052E+04
      4.060  0.6932E+02  0.4972E+02  0.1057E+04  0.1055E+04
      4.112  0.8828E+02  0.1049E+03  0.1061E+04  0.1060E+04
      4.163  0.1142E+03  0.1096E+03  0.1067E+04  0.1066E+04
      4.215  0.8905E+02  0.9587E+02  0.1072E+04  0.1071E+04
      4.267  0.9787E+02  0.9821E+02  0.1077E+04  0.1076E+04
      4.319  0.8312E+02  0.7411E+02  0.1081E+04  0.1080E+04
      4.371  0.1064E+03  0.1105E+03  0.1087E+04  0.1086E+04
      4.423  0.1214E+03  0.1244E+03  0.1093E+04  0.1092E+04
      4.475  0.1091E+03  0.1111E+03  0.1099E+04  0.1098E+04
      4.527  0.1026E+03  0.9750E+02  0.1104E+04  0.1103E+04
      4.579  0.1265E+03  0.1276E+03  0.1110E+04  0.1110E+04
      4.631  0.7480E+02  0.8060E+02  0.1114E+04  0.1114E+04
      4.682  0.1156E+03  0.1086E+03  0.1120E+04  0.1119E+04
      4.734  0.1269E+03  0.1319E+03  0.1127E+04  0.1126E+04
      4.786  0.1347E+03  0.1301E+03  0.1134E+04  0.1133E+04
      4.838  0.1267E+03  0.1333E+03  0.1140E+04  0.1140E+04
      4.890  0.1175E+03  0.1134E+03  0.1147E+04  0.1146E+04
      4.942  0.1247E+03  0.1246E+03  0.1153E+04  0.1152E+04
      4.994  0.1255E+03  0.1278E+03  0.1160E+04  0.1159E+04
      5.046  0.1021E+03  0.1009E+03  0.1165E+04  0.1164E+04
      5.098  0.1217E+03  0.1252E+03  0.1171E+04  0.1171E+04
      5.150  0.9926E+02  0.9923E+02  0.1176E+04  0.1176E+04
      5.201  0.1080E+03  0.1085E+03  0.1182E+04  0.1181E+04
      5.253  0.8994E+02  0.8642E+02  0.1187E+04  0.1186E+04
      5.305  0.1315E+03  0.1335E+03  0.1193E+04  0.1193E+04
      5.357  0.1335E+03  0.1347E+03  0.1200E+04  0.1200E+04
      5.409  0.1400E+03  0.1323E+03  0.1208E+04  0.1207E+04
      5.461  0.1457E+03  0.1538E+03  0.1215E+04  0.1215E+04
      5.513  0.1267E+03  0.1244E+03  0.1222E+04  0.1221E+04
      5.565  0.1599E+03  0.1567E+03  0.1230E+04  0.1229E+04
      5.617  0.1319E+03  0.1376E+03  0.1237E+04  0.1236E+04
      5.669  0.1264E+03  0.1228E+03  0.1243E+04  0.1243E+04
      5.720  0.1287E+03  0.1323E+03  0.1250E+04  0.1250E+04
      5.772  0.1179E+03  0.1198E+03  0.1256E+04  0.1256E+04
      5.824  0.1233E+03  0.1224E+03  0.1263E+04  0.1262E+04
      5.876  0.1206E+03  0.1215E+03  0.1269E+04  0.1269E+04
      5.928  0.4767E+02  0.4994E+02  0.1271E+04  0.1271E+04
      5.980  0.1213E+02  0.1723E+02  0.1272E+04  0.1272E+04
      6.032  0.0000E+00  0.0000E+00  0.1272E+04  0.1272E+04
      6.084  0.0000E+00  0.0000E+00  0.1272E+04  0.1272E+04
      6.136  0.0000E+00  0.0000E+00  0.1272E+04  0.1272E+04
      6.188  0.0000E+00  0.0000E+00  0.1272E+04  0.1272E+04
      6.240  0.0000E+00  0.0000E+00  0.1272E+04  0.1272E+04
      6.291  0.0000E+00  0.0000E+00  0.1272E+04  0.1272E+04
      6.343  0.0000E+00  0.0000E+00  0.1272E+04  0.1272E+04
      6.395  0.0000E+00  0.0000E+00  0.1272E+04  0.1272E+04
      6.447  0.0000E+00  0.0000E+00  0.1272E+04  0.1272E+04
      6.499  0.0000E+00  0.0000E+00  0.1272E+04  0.1272E+04
      6.551  0.0000E+00  0.0000E+00  0.1272E+04  0.1272E+04
      6.603  0.0000E+00  0.0000E+00  0.1272E+04  0.1272E+04
      6.655  0.0000E+00  0.0000E+00  0.1272E+04  0.1272E+04
