<?xml version="1.0" encoding="ISO-8859-1"?>
<modeling>
 <generator>
  <i name="program" type="string">vasp </i>
  <i name="version" type="string">6.4.3  </i>
  <i name="subversion" type="string">19Mar24 (build Oct 22 2024 11:23:12) complex                          parallel </i>
  <i name="platform" type="string">LinuxIFC </i>
  <i name="date" type="string">2025 06 08 </i>
  <i name="time" type="string">13:47:11 </i>
 </generator>
 <incar>
  <i type="string" name="SYSTEM">Si and Ge interface calculation</i>
  <i type="int" name="ISTART">     0</i>
  <i type="logical" name="ADDGRID"> T  </i>
  <i type="int" name="ISPIN">     2</i>
  <i name="AMIX">      0.60000000</i>
  <i type="int" name="ICHARG">     2</i>
  <i type="int" name="NELM">   100</i>
  <i name="EDIFF">      0.00000010</i>
  <i name="ENCUT">    700.00000000</i>
  <i name="ENAUG">    900.00000000</i>
  <i type="int" name="NBANDS">   288</i>
  <i name="NUPDOWN">      1.00000000</i>
  <i name="NELECT">    480.00000000</i>
  <i type="string" name="LREAL">AUTO</i>
  <i type="int" name="ISMEAR">     0</i>
  <i name="SIGMA">      0.01000000</i>
  <i type="int" name="LMAXMIX">     6</i>
  <i type="logical" name="LWAVE"> F  </i>
  <i type="logical" name="LVTOT"> F  </i>
  <i type="logical" name="LVHAR"> T  </i>
  <i type="logical" name="LASPH"> T  </i>
  <i type="logical" name="LMIXTAU"> T  </i>
 </incar>
 <primitive_cell>
  <structure name="primitive_cell" >
   <crystal>
    <varray name="basis" >
     <v>       7.68059444       0.00000000       0.00000000 </v>
     <v>       0.00000000      16.29299927       0.00000000 </v>
     <v>       0.00000000       0.00000000      20.80414009 </v>
    </varray>
    <i name="volume">   2603.42841946 </i>
    <varray name="rec_basis" >
     <v>       0.13019826       0.00000000       0.00000000 </v>
     <v>       0.00000000       0.06137605       0.00000000 </v>
     <v>       0.00000000       0.00000000       0.04806736 </v>
    </varray>
   </crystal>
   <varray name="positions" >
    <v>       0.85116363       0.19633615       0.90071338 </v>
    <v>       0.72851723       0.81901145       0.09229647 </v>
    <v>       0.47851718       0.65234476       0.18459295 </v>
    <v>       0.22851723       0.48567814       0.27688938 </v>
    <v>       0.97851718       0.31901139       0.36918586 </v>
    <v>       0.72851718       0.15234470       0.46148235 </v>
    <v>       0.97851729       0.31901154       0.00000000 </v>
    <v>       0.85116363       0.69633609       0.90071338 </v>
    <v>       0.47851718       0.98567814       0.18459295 </v>
    <v>       0.22851723       0.81901151       0.27688938 </v>
    <v>       0.10116363       0.19633615       0.56076908 </v>
    <v>       0.85116363       0.69633603       0.62875789 </v>
    <v>       0.35116357       0.94633603       0.90071338 </v>
    <v>       0.72851723       0.48567820       0.09229647 </v>
    <v>       0.47851718       0.31901151       0.18459295 </v>
    <v>       0.22851723       0.15234487       0.27688938 </v>
    <v>       0.97851718       0.98567814       0.36918586 </v>
    <v>       0.72851718       0.81901139       0.46148235 </v>
    <v>       0.60116369       0.19633615       0.83272451 </v>
    <v>       0.22851725       0.81901145       0.09229647 </v>
    <v>       0.97851723       0.65234476       0.18459295 </v>
    <v>       0.72851729       0.48567814       0.27688935 </v>
    <v>       0.47851718       0.31901139       0.36918586 </v>
    <v>       0.60116357       0.44633606       0.56076908 </v>
    <v>       0.47851729       0.31901154       0.00000000 </v>
    <v>       0.22851725       0.15234485       0.09229647 </v>
    <v>       0.97851723       0.98567814       0.18459295 </v>
    <v>       0.72851729       0.81901151       0.27688935 </v>
    <v>       0.47851718       0.65234476       0.36918586 </v>
    <v>       0.10116363       0.69633603       0.56076908 </v>
    <v>       0.47851729       0.65234494       0.00000000 </v>
    <v>       0.22851725       0.48567820       0.09229647 </v>
    <v>       0.97851723       0.31901151       0.18459295 </v>
    <v>       0.72851729       0.15234487       0.27688935 </v>
    <v>       0.47851718       0.98567814       0.36918586 </v>
    <v>       0.22851712       0.81901139       0.46148235 </v>
    <v>       0.35116360       0.44633609       0.90071338 </v>
    <v>       0.47851729       0.06901149       0.09229647 </v>
    <v>       0.22851726       0.90234476       0.18459295 </v>
    <v>       0.97851729       0.73567814       0.27688938 </v>
    <v>       0.72851723       0.56901145       0.36918586 </v>
    <v>       0.47851723       0.40234464       0.46148229 </v>
    <v>       0.72851735       0.56901163       0.00000000 </v>
    <v>       0.47851729       0.40234488       0.09229647 </v>
    <v>       0.22851726       0.23567820       0.18459295 </v>
    <v>       0.10116363       0.94633609       0.56076908 </v>
    <v>       0.72851723       0.90234482       0.36918586 </v>
    <v>       0.47851723       0.73567808       0.46148229 </v>
    <v>       0.72851735       0.90234494       0.00000000 </v>
    <v>       0.47851729       0.73567820       0.09229647 </v>
    <v>       0.22851726       0.56901151       0.18459295 </v>
    <v>       0.97851729       0.40234485       0.27688938 </v>
    <v>       0.72851723       0.23567812       0.36918586 </v>
    <v>       0.47851723       0.06901138       0.46148229 </v>
    <v>       0.22851729       0.23567820       0.00000000 </v>
    <v>       0.97851723       0.06901149       0.09229647 </v>
    <v>       0.72851718       0.90234476       0.18459295 </v>
    <v>       0.47851729       0.73567814       0.27688935 </v>
    <v>       0.22851718       0.56901145       0.36918586 </v>
    <v>       0.97851706       0.40234464       0.46148235 </v>
    <v>       0.22851729       0.56901163       0.00000000 </v>
    <v>       0.97851723       0.40234488       0.09229647 </v>
    <v>       0.72851718       0.23567820       0.18459295 </v>
    <v>       0.47851729       0.06901154       0.27688935 </v>
    <v>       0.22851718       0.90234482       0.36918586 </v>
    <v>       0.60116363       0.94633603       0.56076908 </v>
    <v>       0.22851729       0.90234494       0.00000000 </v>
    <v>       0.97851723       0.73567820       0.09229647 </v>
    <v>       0.85116363       0.44633609       0.90071338 </v>
    <v>       0.47851729       0.40234485       0.27688935 </v>
    <v>       0.22851718       0.23567812       0.36918586 </v>
    <v>       0.97851706       0.06901138       0.46148235 </v>
    <v>       0.22851712       0.48567808       0.46148235 </v>
    <v>       0.85116369       0.32133609       0.69674677 </v>
    <v>       0.60116369       0.94633615       0.83272451 </v>
    <v>       0.97851706       0.73567808       0.46148235 </v>
    <v>       0.35116363       0.57133609       0.69674677 </v>
    <v>       0.10116363       0.19633615       0.83272451 </v>
    <v>       0.97851718       0.65234476       0.36918586 </v>
    <v>       0.85116369       0.82133615       0.69674677 </v>
    <v>       0.60116369       0.44633609       0.83272451 </v>
    <v>       0.22851712       0.15234470       0.46148235 </v>
    <v>       0.35116363       0.07133615       0.69674677 </v>
    <v>       0.10116363       0.69633609       0.83272451 </v>
    <v>       0.35116360       0.69633603       0.62875789 </v>
    <v>       0.10116363       0.32133609       0.76473570 </v>
    <v>       0.85116369       0.94633603       0.90071338 </v>
    <v>       0.85116363       0.94633603       0.62875789 </v>
    <v>       0.60116363       0.57133609       0.76473570 </v>
    <v>       0.35116360       0.19633603       0.90071338 </v>
    <v>       0.35116366       0.19633615       0.62875789 </v>
    <v>       0.10116363       0.82133615       0.76473570 </v>
    <v>       0.72851718       0.56901151       0.18459295 </v>
    <v>       0.85116357       0.44633606       0.62875789 </v>
    <v>       0.60116363       0.07133615       0.76473570 </v>
    <v>       0.35116363       0.69633609       0.90071338 </v>
    <v>       0.97851729       0.06901154       0.27688938 </v>
    <v>       0.85116375       0.57133615       0.69674677 </v>
    <v>       0.47851729       0.98567820       0.00000000 </v>
    <v>       0.10116363       0.44633609       0.56076908 </v>
    <v>       0.85116369       0.07133615       0.69674677 </v>
    <v>       0.60116369       0.69633609       0.83272451 </v>
    <v>       0.60116363       0.69633609       0.56076908 </v>
    <v>       0.35116366       0.32133615       0.69674677 </v>
    <v>       0.10116363       0.94633615       0.83272451 </v>
    <v>       0.60116363       0.19633615       0.56076908 </v>
    <v>       0.35116363       0.82133609       0.69674677 </v>
    <v>       0.10116363       0.44633615       0.83272451 </v>
    <v>       0.35116369       0.94633609       0.62875789 </v>
    <v>       0.10116363       0.57133615       0.76473570 </v>
    <v>       0.97851729       0.98567820       0.00000000 </v>
    <v>       0.35116363       0.44633609       0.62875789 </v>
    <v>       0.10116363       0.07133615       0.76473570 </v>
    <v>       0.72851723       0.15234485       0.09229647 </v>
    <v>       0.72851718       0.48567808       0.46148235 </v>
    <v>       0.60116363       0.32133606       0.76473570 </v>
    <v>       0.97851729       0.65234494       0.00000000 </v>
    <v>       0.85116363       0.19633615       0.62875789 </v>
    <v>       0.60116363       0.82133615       0.76473570 </v>
    <v>       0.72851735       0.23567820       0.00000000 </v>
   </varray>
  </structure>
  <varray name="primitive_index" >
   <v type="int" >        1 </v>
   <v type="int" >        2 </v>
   <v type="int" >        3 </v>
   <v type="int" >        4 </v>
   <v type="int" >        5 </v>
   <v type="int" >        6 </v>
   <v type="int" >        7 </v>
   <v type="int" >        8 </v>
   <v type="int" >        9 </v>
   <v type="int" >       10 </v>
   <v type="int" >       11 </v>
   <v type="int" >       12 </v>
   <v type="int" >       13 </v>
   <v type="int" >       14 </v>
   <v type="int" >       15 </v>
   <v type="int" >       16 </v>
   <v type="int" >       17 </v>
   <v type="int" >       18 </v>
   <v type="int" >       19 </v>
   <v type="int" >       20 </v>
   <v type="int" >       21 </v>
   <v type="int" >       22 </v>
   <v type="int" >       23 </v>
   <v type="int" >       24 </v>
   <v type="int" >       25 </v>
   <v type="int" >       26 </v>
   <v type="int" >       27 </v>
   <v type="int" >       28 </v>
   <v type="int" >       29 </v>
   <v type="int" >       30 </v>
   <v type="int" >       31 </v>
   <v type="int" >       32 </v>
   <v type="int" >       33 </v>
   <v type="int" >       34 </v>
   <v type="int" >       35 </v>
   <v type="int" >       36 </v>
   <v type="int" >       37 </v>
   <v type="int" >       38 </v>
   <v type="int" >       39 </v>
   <v type="int" >       40 </v>
   <v type="int" >       41 </v>
   <v type="int" >       42 </v>
   <v type="int" >       43 </v>
   <v type="int" >       44 </v>
   <v type="int" >       45 </v>
   <v type="int" >       46 </v>
   <v type="int" >       47 </v>
   <v type="int" >       48 </v>
   <v type="int" >       49 </v>
   <v type="int" >       50 </v>
   <v type="int" >       51 </v>
   <v type="int" >       52 </v>
   <v type="int" >       53 </v>
   <v type="int" >       54 </v>
   <v type="int" >       55 </v>
   <v type="int" >       56 </v>
   <v type="int" >       57 </v>
   <v type="int" >       58 </v>
   <v type="int" >       59 </v>
   <v type="int" >       60 </v>
   <v type="int" >       61 </v>
   <v type="int" >       62 </v>
   <v type="int" >       63 </v>
   <v type="int" >       64 </v>
   <v type="int" >       65 </v>
   <v type="int" >       66 </v>
   <v type="int" >       67 </v>
   <v type="int" >       68 </v>
   <v type="int" >       69 </v>
   <v type="int" >       70 </v>
   <v type="int" >       71 </v>
   <v type="int" >       72 </v>
   <v type="int" >       73 </v>
   <v type="int" >       74 </v>
   <v type="int" >       75 </v>
   <v type="int" >       76 </v>
   <v type="int" >       77 </v>
   <v type="int" >       78 </v>
   <v type="int" >       79 </v>
   <v type="int" >       80 </v>
   <v type="int" >       81 </v>
   <v type="int" >       82 </v>
   <v type="int" >       83 </v>
   <v type="int" >       84 </v>
   <v type="int" >       85 </v>
   <v type="int" >       86 </v>
   <v type="int" >       87 </v>
   <v type="int" >       88 </v>
   <v type="int" >       89 </v>
   <v type="int" >       90 </v>
   <v type="int" >       91 </v>
   <v type="int" >       92 </v>
   <v type="int" >       93 </v>
   <v type="int" >       94 </v>
   <v type="int" >       95 </v>
   <v type="int" >       96 </v>
   <v type="int" >       97 </v>
   <v type="int" >       98 </v>
   <v type="int" >       99 </v>
   <v type="int" >      100 </v>
   <v type="int" >      101 </v>
   <v type="int" >      102 </v>
   <v type="int" >      103 </v>
   <v type="int" >      104 </v>
   <v type="int" >      105 </v>
   <v type="int" >      106 </v>
   <v type="int" >      107 </v>
   <v type="int" >      108 </v>
   <v type="int" >      109 </v>
   <v type="int" >      110 </v>
   <v type="int" >      111 </v>
   <v type="int" >      112 </v>
   <v type="int" >      113 </v>
   <v type="int" >      114 </v>
   <v type="int" >      115 </v>
   <v type="int" >      116 </v>
   <v type="int" >      117 </v>
   <v type="int" >      118 </v>
   <v type="int" >      119 </v>
   <v type="int" >      120 </v>
  </varray>
 </primitive_cell>
 <kpoints>
  <generation param="Gamma">
   <v type="int" name="divisions">       4        2        2 </v>
   <v name="usershift">      0.00000000       0.00000000       0.00000000 </v>
   <v name="genvec1">      0.25000000       0.00000000       0.00000000 </v>
   <v name="genvec2">      0.00000000       0.50000000       0.00000000 </v>
   <v name="genvec3">      0.00000000       0.00000000       0.50000000 </v>
   <v name="shift">      0.00000000       0.00000000       0.00000000 </v>
  </generation>
  <varray name="kpointlist" >
   <v>       0.00000000       0.00000000       0.00000000 </v>
   <v>       0.25000000       0.00000000       0.00000000 </v>
   <v>       0.50000000       0.00000000       0.00000000 </v>
   <v>       0.00000000       0.50000000       0.00000000 </v>
   <v>       0.25000000       0.50000000       0.00000000 </v>
   <v>       0.50000000       0.50000000       0.00000000 </v>
   <v>       0.00000000       0.00000000       0.50000000 </v>
   <v>       0.25000000       0.00000000       0.50000000 </v>
   <v>       0.50000000       0.00000000       0.50000000 </v>
   <v>       0.00000000       0.50000000       0.50000000 </v>
   <v>       0.25000000       0.50000000       0.50000000 </v>
   <v>       0.50000000       0.50000000       0.50000000 </v>
  </varray>
  <varray name="weights" >
   <v>       0.06250000 </v>
   <v>       0.12500000 </v>
   <v>       0.06250000 </v>
   <v>       0.06250000 </v>
   <v>       0.12500000 </v>
   <v>       0.06250000 </v>
   <v>       0.06250000 </v>
   <v>       0.12500000 </v>
   <v>       0.06250000 </v>
   <v>       0.06250000 </v>
   <v>       0.12500000 </v>
   <v>       0.06250000 </v>
  </varray>
 </kpoints>
 <parameters>
  <separator name="general" >
   <i type="string" name="SYSTEM">Si and Ge interface calculation</i>
   <i type="logical" name="LCOMPAT"> F  </i>
  </separator>
  <separator name="electronic" >
   <i type="string" name="PREC">normal</i>
   <i name="ENMAX">    700.00000000</i>
   <i name="ENAUG">    900.00000000</i>
   <i name="EDIFF">      0.00000010</i>
   <i type="int" name="IALGO">    38</i>
   <i type="int" name="IWAVPR">    10</i>
   <i type="int" name="NBANDS">   288</i>
   <i type="int" name="NBANDSLOW">    -1</i>
   <i type="int" name="NBANDSHIGH">    -1</i>
   <i name="NELECT">    480.00000000</i>
   <i type="int" name="TURBO">     0</i>
   <i type="int" name="IRESTART">     0</i>
   <i type="int" name="NREBOOT">     0</i>
   <i type="int" name="NMIN">     0</i>
   <i name="EREF">      0.00000000</i>
   <separator name="electronic smearing" >
    <i type="int" name="ISMEAR">     0</i>
    <i name="SIGMA">      0.01000000</i>
    <i name="KSPACING">      0.50000000</i>
    <i type="logical" name="KGAMMA"> T  </i>
    <i type="logical" name="KBLOWUP"> T  </i>
   </separator>
   <separator name="electronic projectors" >
    <i type="logical" name="LREAL"> T  </i>
    <v name="ROPT">     -0.00050000     -0.00050000</v>
    <i type="int" name="LMAXPAW">  -100</i>
    <i type="int" name="LMAXMIX">     6</i>
    <i type="logical" name="NLSPLINE"> F  </i>
   </separator>
   <separator name="electronic startup" >
    <i type="int" name="ISTART">     0</i>
    <i type="int" name="ICHARG">     2</i>
    <i type="int" name="INIWAV">     1</i>
   </separator>
   <separator name="electronic spin" >
    <i type="int" name="ISPIN">     2</i>
    <i type="logical" name="LNONCOLLINEAR"> F  </i>
    <v name="MAGMOM">      0.00833333      0.00833333      0.00833333      0.00833333      0.00833333      0.00833333      0.00833333      0.00833333      0.00833333      0.00833333      0.00833333      0.00833333      0.00833333      0.00833333      0.00833333      0.00833333      0.00833333      0.00833333      0.00833333      0.00833333
      0.00833333      0.00833333      0.00833333      0.00833333      0.00833333      0.00833333      0.00833333      0.00833333      0.00833333      0.00833333      0.00833333      0.00833333      0.00833333      0.00833333      0.00833333      0.00833333      0.00833333      0.00833333      0.00833333      0.00833333
      0.00833333      0.00833333      0.00833333      0.00833333      0.00833333      0.00833333      0.00833333      0.00833333      0.00833333      0.00833333      0.00833333      0.00833333      0.00833333      0.00833333      0.00833333      0.00833333      0.00833333      0.00833333      0.00833333      0.00833333
      0.00833333      0.00833333      0.00833333      0.00833333      0.00833333      0.00833333      0.00833333      0.00833333      0.00833333      0.00833333      0.00833333      0.00833333      0.00833333      0.00833333      0.00833333      0.00833333      0.00833333      0.00833333      0.00833333      0.00833333
      0.00833333      0.00833333      0.00833333      0.00833333      0.00833333      0.00833333      0.00833333      0.00833333      0.00833333      0.00833333      0.00833333      0.00833333      0.00833333      0.00833333      0.00833333      0.00833333      0.00833333      0.00833333      0.00833333      0.00833333
      0.00833333      0.00833333      0.00833333      0.00833333      0.00833333      0.00833333      0.00833333      0.00833333      0.00833333      0.00833333      0.00833333      0.00833333      0.00833333      0.00833333      0.00833333      0.00833333      0.00833333      0.00833333      0.00833333      0.00833333
</v>
    <i name="NUPDOWN">      1.00000000</i>
    <i type="logical" name="LSORBIT"> F  </i>
    <v name="SAXIS">      0.00000000      0.00000000      1.00000000</v>
    <i type="logical" name="LSPIRAL"> F  </i>
    <v name="QSPIRAL">      0.00000000      0.00000000      0.00000000</v>
    <i type="logical" name="LZEROZ"> F  </i>
   </separator>
   <separator name="electronic exchange-correlation" >
    <i type="logical" name="LASPH"> T  </i>
   </separator>
   <separator name="electronic convergence" >
    <i type="int" name="NELM">   100</i>
    <i type="int" name="NELMDL">    -5</i>
    <i type="int" name="NELMIN">     2</i>
    <i name="ENINI">    700.00000000</i>
    <separator name="electronic convergence detail" >
     <i type="logical" name="LDIAG"> T  </i>
     <i type="logical" name="LSUBROT"> F  </i>
     <i name="WEIMIN">      0.00000000</i>
     <i name="EBREAK">      0.00000000</i>
     <i name="DEPER">      0.30000000</i>
     <i type="int" name="NRMM">     4</i>
     <i name="TIME">      0.40000000</i>
    </separator>
   </separator>
   <separator name="electronic mixer" >
    <i name="AMIX">      0.60000000</i>
    <i name="BMIX">      1.00000000</i>
    <i name="AMIN">      0.10000000</i>
    <i name="AMIX_MAG">      2.40000000</i>
    <i name="BMIX_MAG">      1.00000000</i>
    <separator name="electronic mixer details" >
     <i type="int" name="IMIX">     4</i>
     <i type="logical" name="MIXFIRST"> F  </i>
     <i type="int" name="MAXMIX">   -45</i>
     <i name="WC">    100.00000000</i>
     <i type="int" name="INIMIX">     1</i>
     <i type="int" name="MIXPRE">     1</i>
     <i type="int" name="MREMOVE">     5</i>
    </separator>
   </separator>
   <separator name="electronic dipolcorrection" >
    <i type="logical" name="LDIPOL"> F  </i>
    <i type="logical" name="LMONO"> F  </i>
    <i type="int" name="IDIPOL">     0</i>
    <i name="EPSILON">      1.00000000</i>
    <v name="DIPOL">   -100.00000000   -100.00000000   -100.00000000</v>
    <i name="EFIELD">      0.00000000</i>
    <i type="logical" name="LVACPOTAV"> F  </i>
   </separator>
  </separator>
  <separator name="grids" >
   <i type="int" name="NGX">    50</i>
   <i type="int" name="NGY">   108</i>
   <i type="int" name="NGZ">   140</i>
   <i type="int" name="NGXF">   100</i>
   <i type="int" name="NGYF">   216</i>
   <i type="int" name="NGZF">   280</i>
   <i type="logical" name="ADDGRID"> T  </i>
  </separator>
  <separator name="ionic" >
   <i type="int" name="NSW">     0</i>
   <i type="int" name="IBRION">    -1</i>
   <i type="int" name="MDALGO">     0</i>
   <i type="int" name="ISIF">     2</i>
   <i name="PSTRESS">      0.00000000</i>
   <i name="EDIFFG">      0.00000100</i>
   <i type="int" name="NFREE">     0</i>
   <i name="POTIM">      0.50000000</i>
   <i name="SMASS">     -3.00000000</i>
   <i name="SCALEE">      1.00000000</i>
  </separator>
  <separator name="ionic md" >
   <i name="TEBEG">      0.00010000</i>
   <i name="TEEND">      0.00010000</i>
   <i type="int" name="NBLOCK">     1</i>
   <i type="int" name="KBLOCK">     1</i>
   <i type="int" name="NPACO">   256</i>
   <i name="APACO">     10.00000000</i>
  </separator>
  <separator name="symmetry" >
   <i type="int" name="ISYM">     2</i>
   <i name="SYMPREC">      0.00001000</i>
  </separator>
  <separator name="dos" >
   <i type="int" name="LORBIT">     0</i>
   <v name="RWIGS">     -1.00000000     -1.00000000</v>
   <i type="int" name="NEDOS">   301</i>
   <i name="EMIN">     10.00000000</i>
   <i name="EMAX">    -10.00000000</i>
   <i name="EFERMI">      0.00000000</i>
  </separator>
  <separator name="writing" >
   <i type="int" name="NWRITE">     2</i>
   <i type="logical" name="LWAVE"> F  </i>
   <i type="logical" name="LDOWNSAMPLE"> F  </i>
   <i type="logical" name="LCHARG"> T  </i>
   <i type="logical" name="LPARD"> F  </i>
   <i type="logical" name="LVTOT"> F  </i>
   <i type="logical" name="LVHAR"> T  </i>
   <i type="logical" name="LELF"> F  </i>
   <i type="logical" name="LOPTICS"> F  </i>
   <v name="STM">      0.00000000      0.00000000      0.00000000      0.00000000      0.00000000      0.00000000      0.00000000</v>
  </separator>
  <separator name="performance" >
   <i type="int" name="NPAR">     4</i>
   <i type="int" name="NSIM">     4</i>
   <i type="int" name="NBLK">    -1</i>
   <i type="logical" name="LPLANE"> T  </i>
   <i type="logical" name="LSCALAPACK"> T  </i>
   <i type="logical" name="LSCAAWARE"> F  </i>
   <i type="logical" name="LSCALU"> F  </i>
   <i type="logical" name="LASYNC"> F  </i>
   <i type="logical" name="LORBITALREAL"> F  </i>
  </separator>
  <separator name="miscellaneous" >
   <i type="int" name="IDIOT">     3</i>
   <i type="int" name="PHON_NSTRUCT">    -1</i>
   <i type="logical" name="LMUSIC"> F  </i>
   <v name="POMASS">     28.08500000     72.61000000</v>
   <v name="DARWINR">      0.00000000      0.00000000</v>
   <v name="DARWINV">      1.00000000      1.00000000</v>
   <i type="logical" name="LCORR"> T  </i>
  </separator>
  <i type="logical" name="GGA_COMPAT"> T  </i>
  <i type="logical" name="LBERRY"> F  </i>
  <i type="int" name="ICORELEVEL">     0</i>
  <i type="logical" name="LDAU"> F  </i>
  <i type="int" name="I_CONSTRAINED_M">     0</i>
  <separator name="electronic exchange-correlation" >
   <i type="string" name="GGA    ">PE</i>
   <i type="string" name="XC_C">1</i>
   <i type="int" name="VOSKOWN">     0</i>
   <i type="logical" name="LHFCALC"> F  </i>
   <i type="string" name="PRECFOCK"></i>
   <i type="logical" name="LSYMGRAD"> F  </i>
   <i type="logical" name="LHFONE"> F  </i>
   <i type="logical" name="LRHFCALC"> F  </i>
   <i type="logical" name="LTHOMAS"> F  </i>
   <i type="logical" name="LMODELHF"> F  </i>
   <i type="logical" name="LFOCKACE"> F  </i>
   <i name="ENCUT4O">     -1.00000000</i>
   <i type="int" name="EXXOEP">     0</i>
   <i type="int" name="FOURORBIT">     0</i>
   <i name="AEXX">      0.00000000</i>
   <i name="HFALPHA">      0.00000000</i>
   <i name="MCALPHA">      0.00000000</i>
   <i name="ALDAX">      1.00000000</i>
   <i name="AGGAX">      1.00000000</i>
   <i name="AMGGAX">      1.00000000</i>
   <i name="ALDAC">      1.00000000</i>
   <i name="AGGAC">      1.00000000</i>
   <i name="AMGGAC">      1.00000000</i>
   <i type="int" name="NKREDX">     1</i>
   <i type="int" name="NKREDY">     1</i>
   <i type="int" name="NKREDZ">     1</i>
   <i type="logical" name="SHIFTRED"> F  </i>
   <i type="logical" name="ODDONLY"> F  </i>
   <i type="logical" name="EVENONLY"> F  </i>
   <i type="int" name="LMAXFOCK">     0</i>
   <i type="int" name="NMAXFOCKAE">     0</i>
   <i type="logical" name="LFOCKAEDFT"> F  </i>
   <i name="HFSCREEN">      0.00000000</i>
   <i name="HFSCREENC">      0.00000000</i>
   <i type="int" name="NBANDSGWLOW">     0</i>
  </separator>
  <separator name="vdW DFT" >
   <i type="logical" name="LUSE_VDW"> F  </i>
   <i type="int" name="IVDW_NL">    -1</i>
   <i type="logical" name="LSPIN_VDW"> F  </i>
   <i name="ZAB_VDW">     -0.84910000</i>
   <i name="GAMMA_VDW">      1.39626340</i>
   <i name="ALPHA_VDW">      0.00000000</i>
   <i name="PARAM1">      0.12340000</i>
   <i name="PARAM2">      1.00000000</i>
   <i name="BPARAM">      6.30000000</i>
   <i name="CPARAM">      0.00930000</i>
  </separator>
  <separator name="model GW" >
   <i type="int" name="MODEL_GW">     0</i>
   <i name="MODEL_EPS0">     13.01714210</i>
   <i name="MODEL_ALPHA">      1.00000000</i>
  </separator>
  <separator name="linear response parameters" >
   <i type="logical" name="LEPSILON"> F  </i>
   <i type="logical" name="LRPA"> F  </i>
   <i type="logical" name="LNABLA"> F  </i>
   <i type="logical" name="LVEL"> F  </i>
   <i name="CSHIFT">      0.10000000</i>
   <i name="OMEGAMAX">     -1.00000000</i>
   <i name="DEG_THRESHOLD">      0.00200000</i>
   <i name="RTIME">     -0.10000000</i>
   <i name="WPLASMAI">      0.00000000</i>
   <v name="DFIELD">      0.00000000      0.00000000      0.00000000</v>
   <v name="WPLASMA">      0.00000000      0.00000000      0.00000000      0.00000000      0.00000000      0.00000000      0.00000000      0.00000000      0.00000000</v>
  </separator>
  <separator name="orbital magnetization" >
   <i type="logical" name="NUCIND"> F  </i>
   <v name="MAGPOS">      0.00000000      0.00000000      0.00000000</v>
   <i type="logical" name="LNICSALL"> T  </i>
   <i type="logical" name="ORBITALMAG"> F  </i>
   <i type="logical" name="LMAGBLOCH"> F  </i>
   <i type="logical" name="LCHIMAG"> F  </i>
   <i type="logical" name="LGAUGE"> T  </i>
   <i type="int" name="MAGATOM">     0</i>
   <v name="MAGDIPOL">      0.00000000      0.00000000      0.00000000</v>
   <v name="AVECCONST">      0.00000000      0.00000000      0.00000000</v>
  </separator>
  <separator name="response functions" >
   <i type="logical" name="LALL_IN_ONE"> F  </i>
   <i type="int" name="IALL_IN_ONE">    -1</i>
   <i type="int" name="NBANDS_WAVE">    -1</i>
   <i type="logical" name="LFINITE_TEMPERATURE"> F  </i>
   <i type="logical" name="LADDER"> F  </i>
   <i type="logical" name="LRPAFORCE"> F  </i>
   <i type="logical" name="LFXC"> F  </i>
   <i type="logical" name="LHARTREE"> T  </i>
   <i type="int" name="IBSE">     0</i>
   <v type="int" name="KPOINT">    -1     0     0     0</v>
   <i type="logical" name="LTCTC"> F  </i>
   <i type="logical" name="LTCTE"> F  </i>
   <i type="logical" name="LTETE"> F  </i>
   <i type="logical" name="LTRIPLET"> F  </i>
   <i type="logical" name="LFXCEPS"> F  </i>
   <i type="logical" name="LFXHEG"> F  </i>
   <i type="int" name="NATURALO">     2</i>
   <i type="logical" name="LHOLEGF"> F  </i>
   <i type="logical" name="L2ORDER"> F  </i>
   <i type="logical" name="LDMP1"> F  </i>
   <i type="logical" name="LMP2LT"> F  </i>
   <i type="logical" name="LSMP2LT"> F  </i>
   <i type="logical" name="LGWLF"> F  </i>
   <i name="ENCUTGW">     -1.60000002</i>
   <i name="ENCUTGWSOFT">     -1.60000002</i>
   <i name="ENCUTLF">     -1.00000000</i>
   <i type="logical" name="ESF_SPLINES"> F  </i>
   <i name="ESF_CONV">      0.01000000</i>
   <i type="int" name="ESF_NINTER">    15</i>
   <i type="int" name="LMAXMP2">    -1</i>
   <i name="SCISSOR">      0.00000000</i>
   <i type="int" name="NOMEGA">     0</i>
   <i type="int" name="NOMEGAR">     0</i>
   <i type="int" name="NBANDSGW">    -1</i>
   <i type="int" name="NBANDSO">    -1</i>
   <i type="int" name="NBANDSV">    -1</i>
   <i type="int" name="NELMGW">     1</i>
   <i type="int" name="NELMHF">     1</i>
   <i type="int" name="DIM">     3</i>
   <i type="int" name="IESPILON">     4</i>
   <i type="int" name="ANTIRES">     0</i>
   <i name="OMEGAMAX">    -30.00000000</i>
   <i name="OMEGAMIN">    -30.00000000</i>
   <i name="OMEGATL">   -200.00000000</i>
   <i type="int" name="OMEGAGRID">     0</i>
   <i name="CSHIFT">     -0.10000000</i>
   <i type="logical" name="LSELFENERGY"> F  </i>
   <i type="logical" name="LSPECTRAL"> F  </i>
   <i type="logical" name="LSPECTRALGW"> F  </i>
   <i type="logical" name="LSINGLES"> F  </i>
   <i type="logical" name="LFERMIGW"> F  </i>
   <i type="logical" name="ODDONLYGW"> F  </i>
   <i type="logical" name="EVENONLYGW"> F  </i>
   <i type="int" name="NKREDLFX">     1</i>
   <i type="int" name="NKREDLFY">     1</i>
   <i type="int" name="NKREDLFZ">     1</i>
   <i type="int" name="MAXMEM">  2800</i>
   <i type="int" name="TELESCOPE">     0</i>
   <i type="int" name="NTAUPAR">    -1</i>
   <i type="int" name="NOMEGAPAR">    -1</i>
   <i name="DAMP_NEWTON">      0.80000001</i>
   <i name="LAMBDA">      1.00000000</i>
  </separator>
  <separator name="External order field" >
   <i name="OFIELD_KAPPA">      0.00000000</i>
   <v name="OFIELD_K">      0.00000000      0.00000000      0.00000000</v>
   <i name="OFIELD_Q6_NEAR">      0.00000000</i>
   <i name="OFIELD_Q6_FAR">      0.00000000</i>
   <i name="OFIELD_A">      0.00000000</i>
  </separator>
  <separator name="optional k-points parameters" >
   <i type="int" name="KPOINTS_OPT_MODE">     1</i>
   <i type="logical" name="LKPOINTS_OPT"> F  </i>
  </separator>
 </parameters>
 <atominfo>
  <atoms>     120 </atoms>
  <types>       2 </types>
  <array name="atoms" >
   <dimension dim="1">ion</dimension>
   <field type="string">element</field>
   <field type="int">atomtype</field>
   <set>
    <rc><c>Si</c><c>   1</c></rc>
    <rc><c>Si</c><c>   1</c></rc>
    <rc><c>Si</c><c>   1</c></rc>
    <rc><c>Si</c><c>   1</c></rc>
    <rc><c>Si</c><c>   1</c></rc>
    <rc><c>Si</c><c>   1</c></rc>
    <rc><c>Si</c><c>   1</c></rc>
    <rc><c>Si</c><c>   1</c></rc>
    <rc><c>Si</c><c>   1</c></rc>
    <rc><c>Si</c><c>   1</c></rc>
    <rc><c>Si</c><c>   1</c></rc>
    <rc><c>Si</c><c>   1</c></rc>
    <rc><c>Si</c><c>   1</c></rc>
    <rc><c>Si</c><c>   1</c></rc>
    <rc><c>Si</c><c>   1</c></rc>
    <rc><c>Si</c><c>   1</c></rc>
    <rc><c>Si</c><c>   1</c></rc>
    <rc><c>Si</c><c>   1</c></rc>
    <rc><c>Si</c><c>   1</c></rc>
    <rc><c>Si</c><c>   1</c></rc>
    <rc><c>Si</c><c>   1</c></rc>
    <rc><c>Si</c><c>   1</c></rc>
    <rc><c>Si</c><c>   1</c></rc>
    <rc><c>Si</c><c>   1</c></rc>
    <rc><c>Si</c><c>   1</c></rc>
    <rc><c>Si</c><c>   1</c></rc>
    <rc><c>Si</c><c>   1</c></rc>
    <rc><c>Si</c><c>   1</c></rc>
    <rc><c>Si</c><c>   1</c></rc>
    <rc><c>Si</c><c>   1</c></rc>
    <rc><c>Si</c><c>   1</c></rc>
    <rc><c>Si</c><c>   1</c></rc>
    <rc><c>Si</c><c>   1</c></rc>
    <rc><c>Si</c><c>   1</c></rc>
    <rc><c>Si</c><c>   1</c></rc>
    <rc><c>Si</c><c>   1</c></rc>
    <rc><c>Si</c><c>   1</c></rc>
    <rc><c>Si</c><c>   1</c></rc>
    <rc><c>Si</c><c>   1</c></rc>
    <rc><c>Si</c><c>   1</c></rc>
    <rc><c>Si</c><c>   1</c></rc>
    <rc><c>Si</c><c>   1</c></rc>
    <rc><c>Si</c><c>   1</c></rc>
    <rc><c>Si</c><c>   1</c></rc>
    <rc><c>Si</c><c>   1</c></rc>
    <rc><c>Si</c><c>   1</c></rc>
    <rc><c>Si</c><c>   1</c></rc>
    <rc><c>Si</c><c>   1</c></rc>
    <rc><c>Si</c><c>   1</c></rc>
    <rc><c>Si</c><c>   1</c></rc>
    <rc><c>Si</c><c>   1</c></rc>
    <rc><c>Si</c><c>   1</c></rc>
    <rc><c>Si</c><c>   1</c></rc>
    <rc><c>Si</c><c>   1</c></rc>
    <rc><c>Si</c><c>   1</c></rc>
    <rc><c>Si</c><c>   1</c></rc>
    <rc><c>Si</c><c>   1</c></rc>
    <rc><c>Si</c><c>   1</c></rc>
    <rc><c>Si</c><c>   1</c></rc>
    <rc><c>Si</c><c>   1</c></rc>
    <rc><c>Si</c><c>   1</c></rc>
    <rc><c>Si</c><c>   1</c></rc>
    <rc><c>Si</c><c>   1</c></rc>
    <rc><c>Si</c><c>   1</c></rc>
    <rc><c>Si</c><c>   1</c></rc>
    <rc><c>Si</c><c>   1</c></rc>
    <rc><c>Si</c><c>   1</c></rc>
    <rc><c>Si</c><c>   1</c></rc>
    <rc><c>Si</c><c>   1</c></rc>
    <rc><c>Si</c><c>   1</c></rc>
    <rc><c>Si</c><c>   1</c></rc>
    <rc><c>Si</c><c>   1</c></rc>
    <rc><c>Ge</c><c>   2</c></rc>
    <rc><c>Ge</c><c>   2</c></rc>
    <rc><c>Ge</c><c>   2</c></rc>
    <rc><c>Ge</c><c>   2</c></rc>
    <rc><c>Ge</c><c>   2</c></rc>
    <rc><c>Ge</c><c>   2</c></rc>
    <rc><c>Ge</c><c>   2</c></rc>
    <rc><c>Ge</c><c>   2</c></rc>
    <rc><c>Ge</c><c>   2</c></rc>
    <rc><c>Ge</c><c>   2</c></rc>
    <rc><c>Ge</c><c>   2</c></rc>
    <rc><c>Ge</c><c>   2</c></rc>
    <rc><c>Ge</c><c>   2</c></rc>
    <rc><c>Ge</c><c>   2</c></rc>
    <rc><c>Ge</c><c>   2</c></rc>
    <rc><c>Ge</c><c>   2</c></rc>
    <rc><c>Ge</c><c>   2</c></rc>
    <rc><c>Ge</c><c>   2</c></rc>
    <rc><c>Ge</c><c>   2</c></rc>
    <rc><c>Ge</c><c>   2</c></rc>
    <rc><c>Ge</c><c>   2</c></rc>
    <rc><c>Ge</c><c>   2</c></rc>
    <rc><c>Ge</c><c>   2</c></rc>
    <rc><c>Ge</c><c>   2</c></rc>
    <rc><c>Ge</c><c>   2</c></rc>
    <rc><c>Ge</c><c>   2</c></rc>
    <rc><c>Ge</c><c>   2</c></rc>
    <rc><c>Ge</c><c>   2</c></rc>
    <rc><c>Ge</c><c>   2</c></rc>
    <rc><c>Ge</c><c>   2</c></rc>
    <rc><c>Ge</c><c>   2</c></rc>
    <rc><c>Ge</c><c>   2</c></rc>
    <rc><c>Ge</c><c>   2</c></rc>
    <rc><c>Ge</c><c>   2</c></rc>
    <rc><c>Ge</c><c>   2</c></rc>
    <rc><c>Ge</c><c>   2</c></rc>
    <rc><c>Ge</c><c>   2</c></rc>
    <rc><c>Ge</c><c>   2</c></rc>
    <rc><c>Ge</c><c>   2</c></rc>
    <rc><c>Ge</c><c>   2</c></rc>
    <rc><c>Ge</c><c>   2</c></rc>
    <rc><c>Ge</c><c>   2</c></rc>
    <rc><c>Ge</c><c>   2</c></rc>
    <rc><c>Ge</c><c>   2</c></rc>
    <rc><c>Ge</c><c>   2</c></rc>
    <rc><c>Ge</c><c>   2</c></rc>
    <rc><c>Ge</c><c>   2</c></rc>
    <rc><c>Ge</c><c>   2</c></rc>
   </set>
  </array>
  <array name="atomtypes" >
   <dimension dim="1">type</dimension>
   <field type="int">atomspertype</field>
   <field type="string">element</field>
   <field>mass</field>
   <field>valence</field>
   <field type="string">pseudopotential</field>
   <set>
    <rc><c>  72</c><c>Si</c><c>     28.08500000</c><c>      4.00000000</c><c>  PAW_PBE Si 05Jan2001                  </c></rc>
    <rc><c>  48</c><c>Ge</c><c>     72.61000000</c><c>      4.00000000</c><c>  PAW_PBE Ge 05Jan2001                  </c></rc>
   </set>
  </array>
 </atominfo>
 <structure name="initialpos" >
  <crystal>
   <varray name="basis" >
    <v>       7.68059444       0.00000000       0.00000000 </v>
    <v>       0.00000000      16.29299927       0.00000000 </v>
    <v>       0.00000000       0.00000000      20.80414009 </v>
   </varray>
   <i name="volume">   2603.42841946 </i>
   <varray name="rec_basis" >
    <v>       0.13019826       0.00000000       0.00000000 </v>
    <v>       0.00000000       0.06137605       0.00000000 </v>
    <v>       0.00000000       0.00000000       0.04806736 </v>
   </varray>
  </crystal>
  <varray name="positions" >
   <v>       0.85116363       0.19633615       0.90071338 </v>
   <v>       0.72851723       0.81901145       0.09229647 </v>
   <v>       0.47851718       0.65234476       0.18459295 </v>
   <v>       0.22851723       0.48567814       0.27688938 </v>
   <v>       0.97851718       0.31901139       0.36918586 </v>
   <v>       0.72851718       0.15234470       0.46148235 </v>
   <v>       0.97851729       0.31901154       0.00000000 </v>
   <v>       0.85116363       0.69633609       0.90071338 </v>
   <v>       0.47851718       0.98567814       0.18459295 </v>
   <v>       0.22851723       0.81901151       0.27688938 </v>
   <v>       0.10116363       0.19633615       0.56076908 </v>
   <v>       0.85116363       0.69633603       0.62875789 </v>
   <v>       0.35116357       0.94633603       0.90071338 </v>
   <v>       0.72851723       0.48567820       0.09229647 </v>
   <v>       0.47851718       0.31901151       0.18459295 </v>
   <v>       0.22851723       0.15234487       0.27688938 </v>
   <v>       0.97851718       0.98567814       0.36918586 </v>
   <v>       0.72851718       0.81901139       0.46148235 </v>
   <v>       0.60116369       0.19633615       0.83272451 </v>
   <v>       0.22851725       0.81901145       0.09229647 </v>
   <v>       0.97851723       0.65234476       0.18459295 </v>
   <v>       0.72851729       0.48567814       0.27688935 </v>
   <v>       0.47851718       0.31901139       0.36918586 </v>
   <v>       0.60116357       0.44633606       0.56076908 </v>
   <v>       0.47851729       0.31901154       0.00000000 </v>
   <v>       0.22851725       0.15234485       0.09229647 </v>
   <v>       0.97851723       0.98567814       0.18459295 </v>
   <v>       0.72851729       0.81901151       0.27688935 </v>
   <v>       0.47851718       0.65234476       0.36918586 </v>
   <v>       0.10116363       0.69633603       0.56076908 </v>
   <v>       0.47851729       0.65234494       0.00000000 </v>
   <v>       0.22851725       0.48567820       0.09229647 </v>
   <v>       0.97851723       0.31901151       0.18459295 </v>
   <v>       0.72851729       0.15234487       0.27688935 </v>
   <v>       0.47851718       0.98567814       0.36918586 </v>
   <v>       0.22851712       0.81901139       0.46148235 </v>
   <v>       0.35116360       0.44633609       0.90071338 </v>
   <v>       0.47851729       0.06901149       0.09229647 </v>
   <v>       0.22851726       0.90234476       0.18459295 </v>
   <v>       0.97851729       0.73567814       0.27688938 </v>
   <v>       0.72851723       0.56901145       0.36918586 </v>
   <v>       0.47851723       0.40234464       0.46148229 </v>
   <v>       0.72851735       0.56901163       0.00000000 </v>
   <v>       0.47851729       0.40234488       0.09229647 </v>
   <v>       0.22851726       0.23567820       0.18459295 </v>
   <v>       0.10116363       0.94633609       0.56076908 </v>
   <v>       0.72851723       0.90234482       0.36918586 </v>
   <v>       0.47851723       0.73567808       0.46148229 </v>
   <v>       0.72851735       0.90234494       0.00000000 </v>
   <v>       0.47851729       0.73567820       0.09229647 </v>
   <v>       0.22851726       0.56901151       0.18459295 </v>
   <v>       0.97851729       0.40234485       0.27688938 </v>
   <v>       0.72851723       0.23567812       0.36918586 </v>
   <v>       0.47851723       0.06901138       0.46148229 </v>
   <v>       0.22851729       0.23567820       0.00000000 </v>
   <v>       0.97851723       0.06901149       0.09229647 </v>
   <v>       0.72851718       0.90234476       0.18459295 </v>
   <v>       0.47851729       0.73567814       0.27688935 </v>
   <v>       0.22851718       0.56901145       0.36918586 </v>
   <v>       0.97851706       0.40234464       0.46148235 </v>
   <v>       0.22851729       0.56901163       0.00000000 </v>
   <v>       0.97851723       0.40234488       0.09229647 </v>
   <v>       0.72851718       0.23567820       0.18459295 </v>
   <v>       0.47851729       0.06901154       0.27688935 </v>
   <v>       0.22851718       0.90234482       0.36918586 </v>
   <v>       0.60116363       0.94633603       0.56076908 </v>
   <v>       0.22851729       0.90234494       0.00000000 </v>
   <v>       0.97851723       0.73567820       0.09229647 </v>
   <v>       0.85116363       0.44633609       0.90071338 </v>
   <v>       0.47851729       0.40234485       0.27688935 </v>
   <v>       0.22851718       0.23567812       0.36918586 </v>
   <v>       0.97851706       0.06901138       0.46148235 </v>
   <v>       0.22851712       0.48567808       0.46148235 </v>
   <v>       0.85116369       0.32133609       0.69674677 </v>
   <v>       0.60116369       0.94633615       0.83272451 </v>
   <v>       0.97851706       0.73567808       0.46148235 </v>
   <v>       0.35116363       0.57133609       0.69674677 </v>
   <v>       0.10116363       0.19633615       0.83272451 </v>
   <v>       0.97851718       0.65234476       0.36918586 </v>
   <v>       0.85116369       0.82133615       0.69674677 </v>
   <v>       0.60116369       0.44633609       0.83272451 </v>
   <v>       0.22851712       0.15234470       0.46148235 </v>
   <v>       0.35116363       0.07133615       0.69674677 </v>
   <v>       0.10116363       0.69633609       0.83272451 </v>
   <v>       0.35116360       0.69633603       0.62875789 </v>
   <v>       0.10116363       0.32133609       0.76473570 </v>
   <v>       0.85116369       0.94633603       0.90071338 </v>
   <v>       0.85116363       0.94633603       0.62875789 </v>
   <v>       0.60116363       0.57133609       0.76473570 </v>
   <v>       0.35116360       0.19633603       0.90071338 </v>
   <v>       0.35116366       0.19633615       0.62875789 </v>
   <v>       0.10116363       0.82133615       0.76473570 </v>
   <v>       0.72851718       0.56901151       0.18459295 </v>
   <v>       0.85116357       0.44633606       0.62875789 </v>
   <v>       0.60116363       0.07133615       0.76473570 </v>
   <v>       0.35116363       0.69633609       0.90071338 </v>
   <v>       0.97851729       0.06901154       0.27688938 </v>
   <v>       0.85116375       0.57133615       0.69674677 </v>
   <v>       0.47851729       0.98567820       0.00000000 </v>
   <v>       0.10116363       0.44633609       0.56076908 </v>
   <v>       0.85116369       0.07133615       0.69674677 </v>
   <v>       0.60116369       0.69633609       0.83272451 </v>
   <v>       0.60116363       0.69633609       0.56076908 </v>
   <v>       0.35116366       0.32133615       0.69674677 </v>
   <v>       0.10116363       0.94633615       0.83272451 </v>
   <v>       0.60116363       0.19633615       0.56076908 </v>
   <v>       0.35116363       0.82133609       0.69674677 </v>
   <v>       0.10116363       0.44633615       0.83272451 </v>
   <v>       0.35116369       0.94633609       0.62875789 </v>
   <v>       0.10116363       0.57133615       0.76473570 </v>
   <v>       0.97851729       0.98567820       0.00000000 </v>
   <v>       0.35116363       0.44633609       0.62875789 </v>
   <v>       0.10116363       0.07133615       0.76473570 </v>
   <v>       0.72851723       0.15234485       0.09229647 </v>
   <v>       0.72851718       0.48567808       0.46148235 </v>
   <v>       0.60116363       0.32133606       0.76473570 </v>
   <v>       0.97851729       0.65234494       0.00000000 </v>
   <v>       0.85116363       0.19633615       0.62875789 </v>
   <v>       0.60116363       0.82133615       0.76473570 </v>
   <v>       0.72851735       0.23567820       0.00000000 </v>
  </varray>
 </structure>
 <calculation>
  <scstep>
   <time name="dav">   35.95   36.24</time>
   <time name="total">   37.19   37.49</time>
   <energy>
    <i name="alphaZ">    534.59184046 </i>
    <i name="ewald"> -12842.21184485 </i>
    <i name="hartreedc">  -1177.67783050 </i>
    <i name="XCdc">  -1034.39181862 </i>
    <i name="pawpsdc">  10575.88222728 </i>
    <i name="pawaedc">  -8613.76247617 </i>
    <i name="eentropy">     -0.00093227 </i>
    <i name="bandstr">   2063.16482669 </i>
    <i name="atom">  12460.60057749 </i>
    <i name="e_fr_energy">   1966.19456951 </i>
    <i name="e_wo_entrp">   1966.19550178 </i>
    <i name="e_0_energy">   1966.19503565 </i>
   </energy>
  </scstep>
  <scstep>
   <time name="dav">   40.44   40.80</time>
   <time name="total">   40.45   40.81</time>
   <energy>
    <i name="e_fr_energy">   -358.92298211 </i>
    <i name="e_wo_entrp">   -358.92130953 </i>
    <i name="e_0_energy">   -358.92214582 </i>
   </energy>
  </scstep>
  <scstep>
   <time name="dav">   42.26   42.62</time>
   <time name="total">   42.26   42.62</time>
   <energy>
    <i name="e_fr_energy">   -576.37449214 </i>
    <i name="e_wo_entrp">   -576.37304879 </i>
    <i name="e_0_energy">   -576.37377046 </i>
   </energy>
  </scstep>
  <scstep>
   <time name="dav">   40.64   41.00</time>
   <time name="total">   40.64   41.00</time>
   <energy>
    <i name="e_fr_energy">   -584.08301888 </i>
    <i name="e_wo_entrp">   -584.08126808 </i>
    <i name="e_0_energy">   -584.08214348 </i>
   </energy>
  </scstep>
  <scstep>
   <time name="dav">   44.15   44.55</time>
   <time name="total">   45.93   46.34</time>
   <energy>
    <i name="e_fr_energy">   -584.36815798 </i>
    <i name="e_wo_entrp">   -584.36644190 </i>
    <i name="e_0_energy">   -584.36729994 </i>
   </energy>
  </scstep>
  <scstep>
   <time name="dav">   41.45   41.79</time>
   <time name="total">   44.42   44.78</time>
   <energy>
    <i name="e_fr_energy">   -575.35809836 </i>
    <i name="e_wo_entrp">   -575.35618966 </i>
    <i name="e_0_energy">   -575.35714401 </i>
   </energy>
  </scstep>
  <scstep>
   <time name="dav">   41.56   41.90</time>
   <time name="total">   44.52   44.89</time>
   <energy>
    <i name="e_fr_energy">   -575.25124662 </i>
    <i name="e_wo_entrp">   -575.24910353 </i>
    <i name="e_0_energy">   -575.25017507 </i>
   </energy>
  </scstep>
  <scstep>
   <time name="dav">   41.23   41.58</time>
   <time name="total">   44.20   44.57</time>
   <energy>
    <i name="e_fr_energy">   -574.59375682 </i>
    <i name="e_wo_entrp">   -574.59235938 </i>
    <i name="e_0_energy">   -574.59305810 </i>
   </energy>
  </scstep>
  <scstep>
   <time name="dav">   40.91   41.28</time>
   <time name="total">   43.89   44.27</time>
   <energy>
    <i name="e_fr_energy">   -574.62030571 </i>
    <i name="e_wo_entrp">   -574.61870191 </i>
    <i name="e_0_energy">   -574.61950381 </i>
   </energy>
  </scstep>
  <scstep>
   <time name="dav">   40.71   41.07</time>
   <time name="total">   43.69   44.08</time>
   <energy>
    <i name="e_fr_energy">   -574.61157795 </i>
    <i name="e_wo_entrp">   -574.60997831 </i>
    <i name="e_0_energy">   -574.61077813 </i>
   </energy>
  </scstep>
  <scstep>
   <time name="dav">   41.46   41.82</time>
   <time name="total">   44.44   44.81</time>
   <energy>
    <i name="e_fr_energy">   -574.61251229 </i>
    <i name="e_wo_entrp">   -574.61091712 </i>
    <i name="e_0_energy">   -574.61171471 </i>
   </energy>
  </scstep>
  <scstep>
   <time name="dav">   42.05   42.41</time>
   <time name="total">   45.04   45.41</time>
   <energy>
    <i name="e_fr_energy">   -574.61095437 </i>
    <i name="e_wo_entrp">   -574.60932650 </i>
    <i name="e_0_energy">   -574.61014043 </i>
   </energy>
  </scstep>
  <scstep>
   <time name="dav">   41.61   41.99</time>
   <time name="total">   44.59   44.99</time>
   <energy>
    <i name="e_fr_energy">   -574.60999726 </i>
    <i name="e_wo_entrp">   -574.60836167 </i>
    <i name="e_0_energy">   -574.60917946 </i>
   </energy>
  </scstep>
  <scstep>
   <time name="dav">   39.40   39.75</time>
   <time name="total">   42.38   42.75</time>
   <energy>
    <i name="e_fr_energy">   -574.60999332 </i>
    <i name="e_wo_entrp">   -574.60834763 </i>
    <i name="e_0_energy">   -574.60917048 </i>
   </energy>
  </scstep>
  <scstep>
   <time name="dav">   40.26   40.62</time>
   <time name="total">   43.24   43.61</time>
   <energy>
    <i name="e_fr_energy">   -574.61000394 </i>
    <i name="e_wo_entrp">   -574.60835453 </i>
    <i name="e_0_energy">   -574.60917924 </i>
   </energy>
  </scstep>
  <scstep>
   <time name="dav">   39.78   40.12</time>
   <time name="total">   42.75   43.12</time>
   <energy>
    <i name="e_fr_energy">   -574.61000304 </i>
    <i name="e_wo_entrp">   -574.60835552 </i>
    <i name="e_0_energy">   -574.60917928 </i>
   </energy>
  </scstep>
  <scstep>
   <time name="dav">   40.20   40.55</time>
   <time name="total">   43.18   43.55</time>
   <energy>
    <i name="e_fr_energy">   -574.61000990 </i>
    <i name="e_wo_entrp">   -574.60836073 </i>
    <i name="e_0_energy">   -574.60918532 </i>
   </energy>
  </scstep>
  <scstep>
   <time name="dav">   39.62   39.98</time>
   <time name="total">   42.60   42.98</time>
   <energy>
    <i name="e_fr_energy">   -574.61001537 </i>
    <i name="e_wo_entrp">   -574.60836624 </i>
    <i name="e_0_energy">   -574.60919080 </i>
   </energy>
  </scstep>
  <scstep>
   <time name="dav">   39.72   40.07</time>
   <time name="total">   42.71   43.07</time>
   <energy>
    <i name="e_fr_energy">   -574.61001820 </i>
    <i name="e_wo_entrp">   -574.60836883 </i>
    <i name="e_0_energy">   -574.60919351 </i>
   </energy>
  </scstep>
  <scstep>
   <time name="dav">   40.67   41.04</time>
   <time name="total">   43.66   44.04</time>
   <energy>
    <i name="e_fr_energy">   -574.61002090 </i>
    <i name="e_wo_entrp">   -574.60837062 </i>
    <i name="e_0_energy">   -574.60919576 </i>
   </energy>
  </scstep>
  <scstep>
   <time name="dav">   40.23   40.57</time>
   <time name="total">   43.22   43.58</time>
   <energy>
    <i name="e_fr_energy">   -574.61002205 </i>
    <i name="e_wo_entrp">   -574.60837184 </i>
    <i name="e_0_energy">   -574.60919694 </i>
   </energy>
  </scstep>
  <scstep>
   <time name="dav">   31.53   31.79</time>
   <time name="total">   34.53   34.81</time>
   <energy>
    <i name="e_fr_energy">   -574.61002267 </i>
    <i name="e_wo_entrp">   -574.60837232 </i>
    <i name="e_0_energy">   -574.60919749 </i>
   </energy>
  </scstep>
  <scstep>
   <time name="dav">   36.65   36.97</time>
   <time name="total">   39.65   39.99</time>
   <energy>
    <i name="e_fr_energy">   -574.61002336 </i>
    <i name="e_wo_entrp">   -574.60837251 </i>
    <i name="e_0_energy">   -574.60919794 </i>
   </energy>
  </scstep>
  <scstep>
   <time name="dav">   27.23   27.47</time>
   <time name="total">   30.23   30.49</time>
   <energy>
    <i name="e_fr_energy">   -574.61002310 </i>
    <i name="e_wo_entrp">   -574.60837228 </i>
    <i name="e_0_energy">   -574.60919769 </i>
   </energy>
  </scstep>
  <scstep>
   <time name="dav">   24.65   24.86</time>
   <time name="total">   27.65   27.88</time>
   <energy>
    <i name="e_fr_energy">   -574.61002280 </i>
    <i name="e_wo_entrp">   -574.60837204 </i>
    <i name="e_0_energy">   -574.60919742 </i>
   </energy>
  </scstep>
  <scstep>
   <time name="dav">   24.69   24.91</time>
   <time name="total">   27.67   27.90</time>
   <energy>
    <i name="e_fr_energy">   -574.61002269 </i>
    <i name="e_wo_entrp">   -574.60837193 </i>
    <i name="e_0_energy">   -574.60919731 </i>
   </energy>
  </scstep>
  <scstep>
   <time name="dav">   24.48   24.69</time>
   <time name="total">   25.68   25.89</time>
   <energy>
    <i name="alphaZ">    534.59184046 </i>
    <i name="ewald"> -12842.21184485 </i>
    <i name="hartreedc">  -1378.31870057 </i>
    <i name="XCdc">  -1000.79911427 </i>
    <i name="pawpsdc">  39608.67162755 </i>
    <i name="pawaedc"> -37662.11057872 </i>
    <i name="eentropy">     -0.00165076 </i>
    <i name="bandstr">   -295.03217900 </i>
    <i name="atom">  12460.60057749 </i>
    <i name="e_fr_energy">   -574.61002267 </i>
    <i name="e_wo_entrp">   -574.60837191 </i>
    <i name="e_0_energy">   -574.60919729 </i>
   </energy>
  </scstep>
  <structure>
   <crystal>
    <varray name="basis" >
     <v>       7.68059444       0.00000000       0.00000000 </v>
     <v>       0.00000000      16.29299927       0.00000000 </v>
     <v>       0.00000000       0.00000000      20.80414009 </v>
    </varray>
    <i name="volume">   2603.42841946 </i>
    <varray name="rec_basis" >
     <v>       0.13019826       0.00000000       0.00000000 </v>
     <v>       0.00000000       0.06137605       0.00000000 </v>
     <v>       0.00000000       0.00000000       0.04806736 </v>
    </varray>
   </crystal>
   <varray name="positions" >
    <v>       0.85116363       0.19633615       0.90071338 </v>
    <v>       0.72851723       0.81901145       0.09229647 </v>
    <v>       0.47851718       0.65234476       0.18459295 </v>
    <v>       0.22851723       0.48567814       0.27688938 </v>
    <v>       0.97851718       0.31901139       0.36918586 </v>
    <v>       0.72851718       0.15234470       0.46148235 </v>
    <v>       0.97851729       0.31901154       0.00000000 </v>
    <v>       0.85116363       0.69633609       0.90071338 </v>
    <v>       0.47851718       0.98567814       0.18459295 </v>
    <v>       0.22851723       0.81901151       0.27688938 </v>
    <v>       0.10116363       0.19633615       0.56076908 </v>
    <v>       0.85116363       0.69633603       0.62875789 </v>
    <v>       0.35116357       0.94633603       0.90071338 </v>
    <v>       0.72851723       0.48567820       0.09229647 </v>
    <v>       0.47851718       0.31901151       0.18459295 </v>
    <v>       0.22851723       0.15234487       0.27688938 </v>
    <v>       0.97851718       0.98567814       0.36918586 </v>
    <v>       0.72851718       0.81901139       0.46148235 </v>
    <v>       0.60116369       0.19633615       0.83272451 </v>
    <v>       0.22851725       0.81901145       0.09229647 </v>
    <v>       0.97851723       0.65234476       0.18459295 </v>
    <v>       0.72851729       0.48567814       0.27688935 </v>
    <v>       0.47851718       0.31901139       0.36918586 </v>
    <v>       0.60116357       0.44633606       0.56076908 </v>
    <v>       0.47851729       0.31901154       0.00000000 </v>
    <v>       0.22851725       0.15234485       0.09229647 </v>
    <v>       0.97851723       0.98567814       0.18459295 </v>
    <v>       0.72851729       0.81901151       0.27688935 </v>
    <v>       0.47851718       0.65234476       0.36918586 </v>
    <v>       0.10116363       0.69633603       0.56076908 </v>
    <v>       0.47851729       0.65234494       0.00000000 </v>
    <v>       0.22851725       0.48567820       0.09229647 </v>
    <v>       0.97851723       0.31901151       0.18459295 </v>
    <v>       0.72851729       0.15234487       0.27688935 </v>
    <v>       0.47851718       0.98567814       0.36918586 </v>
    <v>       0.22851712       0.81901139       0.46148235 </v>
    <v>       0.35116360       0.44633609       0.90071338 </v>
    <v>       0.47851729       0.06901149       0.09229647 </v>
    <v>       0.22851726       0.90234476       0.18459295 </v>
    <v>       0.97851729       0.73567814       0.27688938 </v>
    <v>       0.72851723       0.56901145       0.36918586 </v>
    <v>       0.47851723       0.40234464       0.46148229 </v>
    <v>       0.72851735       0.56901163       0.00000000 </v>
    <v>       0.47851729       0.40234488       0.09229647 </v>
    <v>       0.22851726       0.23567820       0.18459295 </v>
    <v>       0.10116363       0.94633609       0.56076908 </v>
    <v>       0.72851723       0.90234482       0.36918586 </v>
    <v>       0.47851723       0.73567808       0.46148229 </v>
    <v>       0.72851735       0.90234494       0.00000000 </v>
    <v>       0.47851729       0.73567820       0.09229647 </v>
    <v>       0.22851726       0.56901151       0.18459295 </v>
    <v>       0.97851729       0.40234485       0.27688938 </v>
    <v>       0.72851723       0.23567812       0.36918586 </v>
    <v>       0.47851723       0.06901138       0.46148229 </v>
    <v>       0.22851729       0.23567820       0.00000000 </v>
    <v>       0.97851723       0.06901149       0.09229647 </v>
    <v>       0.72851718       0.90234476       0.18459295 </v>
    <v>       0.47851729       0.73567814       0.27688935 </v>
    <v>       0.22851718       0.56901145       0.36918586 </v>
    <v>       0.97851706       0.40234464       0.46148235 </v>
    <v>       0.22851729       0.56901163       0.00000000 </v>
    <v>       0.97851723       0.40234488       0.09229647 </v>
    <v>       0.72851718       0.23567820       0.18459295 </v>
    <v>       0.47851729       0.06901154       0.27688935 </v>
    <v>       0.22851718       0.90234482       0.36918586 </v>
    <v>       0.60116363       0.94633603       0.56076908 </v>
    <v>       0.22851729       0.90234494       0.00000000 </v>
    <v>       0.97851723       0.73567820       0.09229647 </v>
    <v>       0.85116363       0.44633609       0.90071338 </v>
    <v>       0.47851729       0.40234485       0.27688935 </v>
    <v>       0.22851718       0.23567812       0.36918586 </v>
    <v>       0.97851706       0.06901138       0.46148235 </v>
    <v>       0.22851712       0.48567808       0.46148235 </v>
    <v>       0.85116369       0.32133609       0.69674677 </v>
    <v>       0.60116369       0.94633615       0.83272451 </v>
    <v>       0.97851706       0.73567808       0.46148235 </v>
    <v>       0.35116363       0.57133609       0.69674677 </v>
    <v>       0.10116363       0.19633615       0.83272451 </v>
    <v>       0.97851718       0.65234476       0.36918586 </v>
    <v>       0.85116369       0.82133615       0.69674677 </v>
    <v>       0.60116369       0.44633609       0.83272451 </v>
    <v>       0.22851712       0.15234470       0.46148235 </v>
    <v>       0.35116363       0.07133615       0.69674677 </v>
    <v>       0.10116363       0.69633609       0.83272451 </v>
    <v>       0.35116360       0.69633603       0.62875789 </v>
    <v>       0.10116363       0.32133609       0.76473570 </v>
    <v>       0.85116369       0.94633603       0.90071338 </v>
    <v>       0.85116363       0.94633603       0.62875789 </v>
    <v>       0.60116363       0.57133609       0.76473570 </v>
    <v>       0.35116360       0.19633603       0.90071338 </v>
    <v>       0.35116366       0.19633615       0.62875789 </v>
    <v>       0.10116363       0.82133615       0.76473570 </v>
    <v>       0.72851718       0.56901151       0.18459295 </v>
    <v>       0.85116357       0.44633606       0.62875789 </v>
    <v>       0.60116363       0.07133615       0.76473570 </v>
    <v>       0.35116363       0.69633609       0.90071338 </v>
    <v>       0.97851729       0.06901154       0.27688938 </v>
    <v>       0.85116375       0.57133615       0.69674677 </v>
    <v>       0.47851729       0.98567820       0.00000000 </v>
    <v>       0.10116363       0.44633609       0.56076908 </v>
    <v>       0.85116369       0.07133615       0.69674677 </v>
    <v>       0.60116369       0.69633609       0.83272451 </v>
    <v>       0.60116363       0.69633609       0.56076908 </v>
    <v>       0.35116366       0.32133615       0.69674677 </v>
    <v>       0.10116363       0.94633615       0.83272451 </v>
    <v>       0.60116363       0.19633615       0.56076908 </v>
    <v>       0.35116363       0.82133609       0.69674677 </v>
    <v>       0.10116363       0.44633615       0.83272451 </v>
    <v>       0.35116369       0.94633609       0.62875789 </v>
    <v>       0.10116363       0.57133615       0.76473570 </v>
    <v>       0.97851729       0.98567820       0.00000000 </v>
    <v>       0.35116363       0.44633609       0.62875789 </v>
    <v>       0.10116363       0.07133615       0.76473570 </v>
    <v>       0.72851723       0.15234485       0.09229647 </v>
    <v>       0.72851718       0.48567808       0.46148235 </v>
    <v>       0.60116363       0.32133606       0.76473570 </v>
    <v>       0.97851729       0.65234494       0.00000000 </v>
    <v>       0.85116363       0.19633615       0.62875789 </v>
    <v>       0.60116363       0.82133615       0.76473570 </v>
    <v>       0.72851735       0.23567820       0.00000000 </v>
   </varray>
  </structure>
  <varray name="forces" >
   <v>      -0.77745616      -0.45567851      -0.71149107 </v>
   <v>      -0.06261637      -0.30562717      -0.23616280 </v>
   <v>      -0.48743810       0.21900946      -0.02865515 </v>
   <v>      -0.00559869      -0.10002980       0.07080128 </v>
   <v>      -0.05570327      -0.29919812       0.22546387 </v>
   <v>      -0.47550896      -0.27254659      -0.31846276 </v>
   <v>      -0.18550007       1.06799828      -0.81050188 </v>
   <v>       0.41050088       0.42367748      -0.05465081 </v>
   <v>      -0.00923063      -0.11003342      -0.06802514 </v>
   <v>      -0.02591454      -0.08346963       0.01977700 </v>
   <v>       0.41471006       0.41669958       0.05689556 </v>
   <v>       0.68043352       0.11444545      -0.27640037 </v>
   <v>      -0.23370858      -0.20169934      -0.17566838 </v>
   <v>      -0.21871762      -0.45339006      -0.57071623 </v>
   <v>      -0.00485651      -0.10054628      -0.02167575 </v>
   <v>       0.45360142       0.23857919       0.03029620 </v>
   <v>      -0.20791356      -0.44882660       0.56338067 </v>
   <v>      -1.17610362       1.04538445       0.76094072 </v>
   <v>       0.67089197       0.10925439       0.27543487 </v>
   <v>      -0.07234714      -0.30605017      -0.25200257 </v>
   <v>       0.45703679       0.23767408      -0.02924952 </v>
   <v>      -0.00833011      -0.43832248       0.53871237 </v>
   <v>      -0.06518890      -0.30524268       0.24145368 </v>
   <v>      -0.23379977      -0.21165686       0.17074878 </v>
   <v>      -1.18248421       1.04668386      -0.76467963 </v>
   <v>      -0.05939809      -0.20396839      -0.07900701 </v>
   <v>      -0.00128938      -0.44263022      -0.53982034 </v>
   <v>      -0.00818859      -0.08923324       0.02205114 </v>
   <v>      -0.05389607      -0.20044116       0.06964042 </v>
   <v>      -0.77586345      -0.46354195       0.71169486 </v>
   <v>      -0.48671927      -0.27001220       0.31418657 </v>
   <v>      -0.18784948      -0.13347952      -0.09591431 </v>
   <v>      -0.02592428      -0.08732483      -0.01892105 </v>
   <v>      -0.48675685       0.23393895       0.03044892 </v>
   <v>      -0.18403805      -0.12979661       0.08145147 </v>
   <v>      -0.18262028       1.07097058       0.80776438 </v>
   <v>      -0.04056406       0.02054598       1.86069121 </v>
   <v>      -0.44119006       0.28255965       0.20863971 </v>
   <v>      -0.00117120       0.11435980      -0.07302314 </v>
   <v>       0.01772885       0.43357017      -0.45969061 </v>
   <v>      -0.44015001       0.27638765      -0.22046504 </v>
   <v>       0.10836834      -1.10363109      -0.12625238 </v>
   <v>       0.21087104      -1.08783426      -0.85046532 </v>
   <v>       0.18955330       0.13964034      -0.10585873 </v>
   <v>       0.02327149       0.10733274      -0.02317329 </v>
   <v>      -0.03668511       0.02518235      -1.85148778 </v>
   <v>       0.18856996       0.14186495       0.10194125 </v>
   <v>       0.40231251       0.32312207      -0.52917617 </v>
   <v>      -0.09642637      -1.27575412       0.65812264 </v>
   <v>       0.06290661       0.15684688      -0.08767880 </v>
   <v>       0.02079426       0.11755279      -0.02557289 </v>
   <v>      -0.00050573       0.11080929       0.06752841 </v>
   <v>       0.06304538       0.16139434       0.07825798 </v>
   <v>       1.24130762      -1.05452649       0.80295324 </v>
   <v>       0.39469256       0.32066119       0.53071895 </v>
   <v>       0.50190148       0.28551932       0.23885015 </v>
   <v>       0.02108751       0.11964280      -0.07658725 </v>
   <v>       0.00515824       0.10219515       0.01391919 </v>
   <v>       0.50254032       0.30024534      -0.24451942 </v>
   <v>      -0.09430007      -1.27844664      -0.65924992 </v>
   <v>       1.23810755      -1.06340614      -0.79897869 </v>
   <v>       0.20574110       0.11366552      -0.11436171 </v>
   <v>       0.00966344       0.43395580       0.45118487 </v>
   <v>       0.01350661       0.11746901       0.01766416 </v>
   <v>       0.20826358       0.11982690       0.10370863 </v>
   <v>      -0.03654551       0.01840972      -1.86070898 </v>
   <v>       0.10460996      -1.11386101       0.12693043 </v>
   <v>       0.05024969       0.50509777       0.41124977 </v>
   <v>      -0.03825936       0.03136060       1.84982740 </v>
   <v>       0.00967401       0.11843888       0.06436202 </v>
   <v>       0.05163257       0.50782185      -0.41915840 </v>
   <v>       0.21008381      -1.08419091       0.84909320 </v>
   <v>       0.42266407       1.10092973      -0.93743099 </v>
   <v>       0.34577977       0.01787266      -0.55119976 </v>
   <v>      -0.51342044      -0.01023400      -0.44558222 </v>
   <v>       0.26966122       0.30360493       0.36910199 </v>
   <v>      -0.28373318      -0.01499307      -0.56472826 </v>
   <v>      -0.24484044       0.11503086       0.03418672 </v>
   <v>      -0.02957996      -0.54981566      -0.44840150 </v>
   <v>      -0.23579241      -0.33041436      -0.79267451 </v>
   <v>       0.00513950      -0.02022768       0.18679811 </v>
   <v>      -0.40516581       0.11548720       0.09922770 </v>
   <v>       0.23310662      -0.06221346      -0.50891801 </v>
   <v>      -0.74578749      -0.11113962       0.03713927 </v>
   <v>      -0.23632373       0.14325205      -0.03876422 </v>
   <v>      -0.26152534       0.03115037       0.52460241 </v>
   <v>      -0.26062260      -0.19249025      -0.68082425 </v>
   <v>       0.01448126       0.00955855      -0.18958527 </v>
   <v>       0.21668927      -0.05553967       0.52193009 </v>
   <v>       0.20089615      -0.50015080      -0.07587683 </v>
   <v>      -0.73277937      -0.07893878      -0.03737941 </v>
   <v>       0.33067476       0.00949296       0.55685863 </v>
   <v>       0.01122954       0.09346230       0.01403708 </v>
   <v>      -0.50080050       0.01902398       0.44667559 </v>
   <v>      -0.31206814       0.36034693       0.85327601 </v>
   <v>       0.38519108       0.49464755       0.57318560 </v>
   <v>       0.01395439       0.10118655       0.03631724 </v>
   <v>      -0.29273532       0.37663786      -0.83890042 </v>
   <v>       0.18348378       0.98519244       0.37380650 </v>
   <v>      -0.27048436      -0.20764215       0.68551382 </v>
   <v>       0.24521151      -0.03939291      -0.51515842 </v>
   <v>       0.21614678      -0.15178461       0.01051242 </v>
   <v>       0.19360323      -0.51530540       0.08044578 </v>
   <v>       0.34126173       0.02025085      -0.55091395 </v>
   <v>       0.43771892      -0.03253714      -0.44662024 </v>
   <v>       0.37135533       0.47999897      -0.57160738 </v>
   <v>      -0.23792605       0.04759858      -0.51665530 </v>
   <v>      -0.00545740       0.00125436       0.19036877 </v>
   <v>       0.00704210       0.02771807      -0.18532837 </v>
   <v>       0.21835052      -0.06968162       0.52052940 </v>
   <v>       0.44068339       1.12628032       0.94318150 </v>
   <v>       0.44913032       0.00340963       0.45077340 </v>
   <v>      -0.30612211      -0.02181572       0.56823787 </v>
   <v>      -0.01963739      -0.52191416       0.45622783 </v>
   <v>       0.16662786       0.96393309      -0.37197313 </v>
   <v>      -0.25393447      -0.33823122       0.80405491 </v>
   <v>      -0.38626668       0.13828958      -0.10234312 </v>
   <v>       0.22837340      -0.12190153      -0.00476998 </v>
   <v>       0.31525595       0.00586072       0.56395977 </v>
   <v>       0.29523244       0.29949460      -0.37368550 </v>
  </varray>
  <varray name="stress" >
   <v>      50.95061319      10.55871323       0.06875144 </v>
   <v>      10.55871164      19.59517016      -0.00361495 </v>
   <v>       0.06875147      -0.00361502      29.65610652 </v>
  </varray>
  <energy>
   <i name="e_fr_energy">   -574.61002267 </i>
   <i name="e_wo_entrp">   -574.60837191 </i>
   <i name="e_0_energy">   -574.60919729 </i>
  </energy>
  <time name="totalsc"> 1140.38 1150.54</time>
  <eigenvalues>
   <array>
    <dimension dim="1">band</dimension>
    <dimension dim="2">kpoint</dimension>
    <dimension dim="3">spin</dimension>
    <field>eigene</field>
    <field>occ</field>
    <set>
     <set comment="spin 1">
      <set comment="kpoint 1">
       <r>   -7.8469    1.0000 </r>
       <r>   -7.6657    1.0000 </r>
       <r>   -7.5070    1.0000 </r>
       <r>   -7.3375    1.0000 </r>
       <r>   -7.2731    1.0000 </r>
       <r>   -7.2191    1.0000 </r>
       <r>   -7.0647    1.0000 </r>
       <r>   -6.9891    1.0000 </r>
       <r>   -6.9454    1.0000 </r>
       <r>   -6.6243    1.0000 </r>
       <r>   -6.5224    1.0000 </r>
       <r>   -6.4864    1.0000 </r>
       <r>   -6.2815    1.0000 </r>
       <r>   -6.2482    1.0000 </r>
       <r>   -6.2423    1.0000 </r>
       <r>   -6.0916    1.0000 </r>
       <r>   -5.9101    1.0000 </r>
       <r>   -5.8778    1.0000 </r>
       <r>   -5.8591    1.0000 </r>
       <r>   -5.8000    1.0000 </r>
       <r>   -5.7707    1.0000 </r>
       <r>   -5.6644    1.0000 </r>
       <r>   -5.6156    1.0000 </r>
       <r>   -5.6084    1.0000 </r>
       <r>   -5.5796    1.0000 </r>
       <r>   -5.4551    1.0000 </r>
       <r>   -5.4143    1.0000 </r>
       <r>   -5.4107    1.0000 </r>
       <r>   -5.4083    1.0000 </r>
       <r>   -5.3511    1.0000 </r>
       <r>   -5.3129    1.0000 </r>
       <r>   -5.2784    1.0000 </r>
       <r>   -5.2724    1.0000 </r>
       <r>   -5.2411    1.0000 </r>
       <r>   -5.2240    1.0000 </r>
       <r>   -5.1986    1.0000 </r>
       <r>   -5.1235    1.0000 </r>
       <r>   -5.0899    1.0000 </r>
       <r>   -5.0686    1.0000 </r>
       <r>   -5.0514    1.0000 </r>
       <r>   -4.9798    1.0000 </r>
       <r>   -4.9423    1.0000 </r>
       <r>   -4.8477    1.0000 </r>
       <r>   -4.8079    1.0000 </r>
       <r>   -4.7243    1.0000 </r>
       <r>   -4.6565    1.0000 </r>
       <r>   -4.5088    1.0000 </r>
       <r>   -4.4884    1.0000 </r>
       <r>   -4.3613    1.0000 </r>
       <r>   -4.3569    1.0000 </r>
       <r>   -4.1288    1.0000 </r>
       <r>   -4.0990    1.0000 </r>
       <r>   -4.0753    1.0000 </r>
       <r>   -4.0736    1.0000 </r>
       <r>   -4.0023    1.0000 </r>
       <r>   -3.9758    1.0000 </r>
       <r>   -3.9246    1.0000 </r>
       <r>   -3.7750    1.0000 </r>
       <r>   -3.7084    1.0000 </r>
       <r>   -3.6556    1.0000 </r>
       <r>   -3.5472    1.0000 </r>
       <r>   -3.5342    1.0000 </r>
       <r>   -3.3273    1.0000 </r>
       <r>   -3.3159    1.0000 </r>
       <r>   -3.2193    1.0000 </r>
       <r>   -3.0274    1.0000 </r>
       <r>   -3.0032    1.0000 </r>
       <r>   -2.8164    1.0000 </r>
       <r>   -2.7561    1.0000 </r>
       <r>   -2.7198    1.0000 </r>
       <r>   -2.6533    1.0000 </r>
       <r>   -2.6375    1.0000 </r>
       <r>   -2.5910    1.0000 </r>
       <r>   -2.5893    1.0000 </r>
       <r>   -2.5642    1.0000 </r>
       <r>   -2.5397    1.0000 </r>
       <r>   -2.5283    1.0000 </r>
       <r>   -2.4739    1.0000 </r>
       <r>   -2.4335    1.0000 </r>
       <r>   -2.4070    1.0000 </r>
       <r>   -2.4008    1.0000 </r>
       <r>   -2.3854    1.0000 </r>
       <r>   -2.3646    1.0000 </r>
       <r>   -2.3105    1.0000 </r>
       <r>   -2.2736    1.0000 </r>
       <r>   -2.2389    1.0000 </r>
       <r>   -2.2222    1.0000 </r>
       <r>   -2.2120    1.0000 </r>
       <r>   -2.1971    1.0000 </r>
       <r>   -2.1898    1.0000 </r>
       <r>   -2.1880    1.0000 </r>
       <r>   -2.0302    1.0000 </r>
       <r>   -2.0078    1.0000 </r>
       <r>   -1.9306    1.0000 </r>
       <r>   -1.8990    1.0000 </r>
       <r>   -1.8814    1.0000 </r>
       <r>   -1.6933    1.0000 </r>
       <r>   -1.6658    1.0000 </r>
       <r>   -1.5961    1.0000 </r>
       <r>   -1.5054    1.0000 </r>
       <r>   -1.5041    1.0000 </r>
       <r>   -1.4452    1.0000 </r>
       <r>   -1.2241    1.0000 </r>
       <r>   -1.2164    1.0000 </r>
       <r>   -0.9434    1.0000 </r>
       <r>   -0.9340    1.0000 </r>
       <r>   -0.7688    1.0000 </r>
       <r>   -0.5210    1.0000 </r>
       <r>   -0.4914    1.0000 </r>
       <r>   -0.2596    1.0000 </r>
       <r>   -0.2375    1.0000 </r>
       <r>   -0.1150    1.0000 </r>
       <r>    0.1925    1.0000 </r>
       <r>    0.2807    1.0000 </r>
       <r>    0.3229    1.0000 </r>
       <r>    0.3379    1.0000 </r>
       <r>    0.5443    1.0000 </r>
       <r>    0.5447    1.0000 </r>
       <r>    0.5987    1.0000 </r>
       <r>    0.5989    1.0000 </r>
       <r>    0.6051    1.0000 </r>
       <r>    0.6056    1.0000 </r>
       <r>    0.6875    1.0000 </r>
       <r>    0.7927    1.0000 </r>
       <r>    0.7929    1.0000 </r>
       <r>    0.8215    1.0000 </r>
       <r>    0.8219    1.0000 </r>
       <r>    0.8502    1.0000 </r>
       <r>    0.9308    1.0000 </r>
       <r>    0.9318    1.0000 </r>
       <r>    0.9828    1.0000 </r>
       <r>    1.0646    1.0000 </r>
       <r>    1.0648    1.0000 </r>
       <r>    1.1074    1.0000 </r>
       <r>    1.1101    1.0000 </r>
       <r>    1.1712    1.0000 </r>
       <r>    1.1714    1.0000 </r>
       <r>    1.2343    1.0000 </r>
       <r>    1.2647    1.0000 </r>
       <r>    1.2663    1.0000 </r>
       <r>    1.2815    1.0000 </r>
       <r>    1.3140    1.0000 </r>
       <r>    1.3364    1.0000 </r>
       <r>    1.3366    1.0000 </r>
       <r>    1.3941    1.0000 </r>
       <r>    1.4300    1.0000 </r>
       <r>    1.4313    1.0000 </r>
       <r>    1.4937    1.0000 </r>
       <r>    1.4937    1.0000 </r>
       <r>    1.5500    1.0000 </r>
       <r>    1.5508    1.0000 </r>
       <r>    1.5805    1.0000 </r>
       <r>    1.5808    1.0000 </r>
       <r>    1.6814    1.0000 </r>
       <r>    1.7258    1.0000 </r>
       <r>    1.7446    1.0000 </r>
       <r>    1.7744    1.0000 </r>
       <r>    1.8094    1.0000 </r>
       <r>    1.8220    1.0000 </r>
       <r>    1.8263    1.0000 </r>
       <r>    1.8485    1.0000 </r>
       <r>    1.8532    1.0000 </r>
       <r>    1.8563    1.0000 </r>
       <r>    1.9445    1.0000 </r>
       <r>    1.9606    1.0000 </r>
       <r>    1.9624    1.0000 </r>
       <r>    2.0117    1.0000 </r>
       <r>    2.1082    1.0000 </r>
       <r>    2.1114    1.0000 </r>
       <r>    2.1216    1.0000 </r>
       <r>    2.1507    1.0000 </r>
       <r>    2.1745    1.0000 </r>
       <r>    2.2086    1.0000 </r>
       <r>    2.2105    1.0000 </r>
       <r>    2.2706    1.0000 </r>
       <r>    2.2828    1.0000 </r>
       <r>    2.3198    1.0000 </r>
       <r>    2.3218    1.0000 </r>
       <r>    2.4066    1.0000 </r>
       <r>    2.4115    1.0000 </r>
       <r>    2.4241    1.0000 </r>
       <r>    2.4676    1.0000 </r>
       <r>    2.4686    1.0000 </r>
       <r>    2.5409    1.0000 </r>
       <r>    2.5436    1.0000 </r>
       <r>    2.6326    1.0000 </r>
       <r>    2.6588    1.0000 </r>
       <r>    2.6850    1.0000 </r>
       <r>    2.7355    1.0000 </r>
       <r>    2.7393    1.0000 </r>
       <r>    2.8362    1.0000 </r>
       <r>    2.8404    1.0000 </r>
       <r>    2.8796    1.0000 </r>
       <r>    2.9225    1.0000 </r>
       <r>    2.9527    1.0000 </r>
       <r>    3.0244    1.0000 </r>
       <r>    3.0345    1.0000 </r>
       <r>    3.0366    1.0000 </r>
       <r>    3.0564    1.0000 </r>
       <r>    3.0760    1.0000 </r>
       <r>    3.1184    1.0000 </r>
       <r>    3.1284    1.0000 </r>
       <r>    3.1347    1.0000 </r>
       <r>    3.1967    1.0000 </r>
       <r>    3.2159    1.0000 </r>
       <r>    3.2368    1.0000 </r>
       <r>    3.2386    1.0000 </r>
       <r>    3.2420    1.0000 </r>
       <r>    3.2642    1.0000 </r>
       <r>    3.2746    1.0000 </r>
       <r>    3.2802    1.0000 </r>
       <r>    3.2858    1.0000 </r>
       <r>    3.3404    1.0000 </r>
       <r>    3.3499    1.0000 </r>
       <r>    3.3520    1.0000 </r>
       <r>    3.3811    1.0000 </r>
       <r>    3.3827    1.0000 </r>
       <r>    3.4154    1.0000 </r>
       <r>    3.4578    1.0000 </r>
       <r>    3.4789    1.0000 </r>
       <r>    3.4907    1.0000 </r>
       <r>    3.4918    1.0000 </r>
       <r>    3.5327    1.0000 </r>
       <r>    3.5508    1.0000 </r>
       <r>    3.6740    1.0000 </r>
       <r>    3.7547    1.0000 </r>
       <r>    3.7873    1.0000 </r>
       <r>    3.9055    1.0000 </r>
       <r>    3.9556    1.0000 </r>
       <r>    4.0207    1.0000 </r>
       <r>    4.0313    1.0000 </r>
       <r>    4.1266    1.0000 </r>
       <r>    4.2252    1.0000 </r>
       <r>    4.2780    1.0000 </r>
       <r>    4.2782    1.0000 </r>
       <r>    4.2882    1.0000 </r>
       <r>    4.3759    1.0000 </r>
       <r>    4.5448    1.0000 </r>
       <r>    4.8248    1.0000 </r>
       <r>    4.8255    1.0000 </r>
       <r>    4.9021    0.0013 </r>
       <r>    4.9198    0.0000 </r>
       <r>    4.9755    0.0000 </r>
       <r>    5.0092    0.0000 </r>
       <r>    5.0150    0.0000 </r>
       <r>    5.0422    0.0000 </r>
       <r>    5.0455    0.0000 </r>
       <r>    5.1381    0.0000 </r>
       <r>    5.1639    0.0000 </r>
       <r>    5.3720    0.0000 </r>
       <r>    5.3778    0.0000 </r>
       <r>    5.4090    0.0000 </r>
       <r>    5.4339    0.0000 </r>
       <r>    5.4401    0.0000 </r>
       <r>    5.5073    0.0000 </r>
       <r>    5.5473    0.0000 </r>
       <r>    5.5948    0.0000 </r>
       <r>    5.6054    0.0000 </r>
       <r>    5.6160    0.0000 </r>
       <r>    5.6339    0.0000 </r>
       <r>    5.6986    0.0000 </r>
       <r>    5.7652    0.0000 </r>
       <r>    5.7699    0.0000 </r>
       <r>    5.7747    0.0000 </r>
       <r>    5.8161    0.0000 </r>
       <r>    5.9307    0.0000 </r>
       <r>    5.9347    0.0000 </r>
       <r>    5.9636    0.0000 </r>
       <r>    5.9652    0.0000 </r>
       <r>    6.0817    0.0000 </r>
       <r>    6.1154    0.0000 </r>
       <r>    6.1359    0.0000 </r>
       <r>    6.2485    0.0000 </r>
       <r>    6.2921    0.0000 </r>
       <r>    6.3111    0.0000 </r>
       <r>    6.3759    0.0000 </r>
       <r>    6.4029    0.0000 </r>
       <r>    6.4305    0.0000 </r>
       <r>    6.4650    0.0000 </r>
       <r>    6.4943    0.0000 </r>
       <r>    6.5090    0.0000 </r>
       <r>    6.5201    0.0000 </r>
       <r>    6.5354    0.0000 </r>
       <r>    6.5466    0.0000 </r>
       <r>    6.5736    0.0000 </r>
       <r>    6.5959    0.0000 </r>
       <r>    6.6108    0.0000 </r>
       <r>    6.6199    0.0000 </r>
      </set>
      <set comment="kpoint 2">
       <r>   -7.7096    1.0000 </r>
       <r>   -7.5306    1.0000 </r>
       <r>   -7.3748    1.0000 </r>
       <r>   -7.2016    1.0000 </r>
       <r>   -7.1439    1.0000 </r>
       <r>   -7.0863    1.0000 </r>
       <r>   -6.9398    1.0000 </r>
       <r>   -6.8622    1.0000 </r>
       <r>   -6.8223    1.0000 </r>
[...]
       <r>    -5.1835    47.0399    70.2866 </r>
       <r>    -5.1284    34.1389    72.1666 </r>
       <r>    -5.0734    52.2980    75.0466 </r>
       <r>    -5.0183    45.2169    77.5367 </r>
       <r>    -4.9632    37.8934    79.6235 </r>
       <r>    -4.9082    35.8001    81.5950 </r>
       <r>    -4.8531    18.4178    82.6093 </r>
       <r>    -4.7980    37.0054    84.6471 </r>
       <r>    -4.7429    33.4475    86.4891 </r>
       <r>    -4.6879    41.7668    88.7891 </r>
       <r>    -4.6328    44.8696    91.2601 </r>
       <r>    -4.5777    26.1157    92.6983 </r>
       <r>    -4.5227    36.2067    94.6922 </r>
       <r>    -4.4676    34.0628    96.5680 </r>
       <r>    -4.4125    32.9968    98.3851 </r>
       <r>    -4.3575    49.2112   101.0951 </r>
       <r>    -4.3024    35.8316   103.0684 </r>
       <r>    -4.2473    29.6132   104.6992 </r>
       <r>    -4.1923    30.9005   106.4009 </r>
       <r>    -4.1372    23.9364   107.7191 </r>
       <r>    -4.0821    26.6400   109.1861 </r>
       <r>    -4.0270    10.3475   109.7559 </r>
       <r>    -3.9720    21.2455   110.9259 </r>
       <r>    -3.9169    17.9228   111.9129 </r>
       <r>    -3.8618    21.7713   113.1119 </r>
       <r>    -3.8068    22.0260   114.3248 </r>
       <r>    -3.7517    14.6917   115.1339 </r>
       <r>    -3.6966    12.5569   115.8254 </r>
       <r>    -3.6416    18.6554   116.8527 </r>
       <r>    -3.5865     9.5157   117.3767 </r>
       <r>    -3.5314    15.8256   118.2483 </r>
       <r>    -3.4764    25.5431   119.6549 </r>
       <r>    -3.4213    20.8768   120.8046 </r>
       <r>    -3.3662    25.8136   122.2261 </r>
       <r>    -3.3111    17.1491   123.1706 </r>
       <r>    -3.2561    19.3497   124.2362 </r>
       <r>    -3.2010    16.5333   125.1466 </r>
       <r>    -3.1459    29.3370   126.7622 </r>
       <r>    -3.0909    27.3781   128.2699 </r>
       <r>    -3.0358    14.5011   129.0685 </r>
       <r>    -2.9807    23.5771   130.3668 </r>
       <r>    -2.9257    15.4063   131.2153 </r>
       <r>    -2.8706    34.6849   133.1254 </r>
       <r>    -2.8155    24.2321   134.4598 </r>
       <r>    -2.7605    32.6135   136.2558 </r>
       <r>    -2.7054    41.0339   138.5155 </r>
       <r>    -2.6503    43.8791   140.9320 </r>
       <r>    -2.5952    32.7982   142.7382 </r>
       <r>    -2.5402    40.8379   144.9871 </r>
       <r>    -2.4851    46.3579   147.5400 </r>
       <r>    -2.4300    57.9077   150.7289 </r>
       <r>    -2.3750    52.4965   153.6199 </r>
       <r>    -2.3199    57.3879   156.7803 </r>
       <r>    -2.2648    66.6421   160.4502 </r>
       <r>    -2.2098    51.3800   163.2797 </r>
       <r>    -2.1547    52.6034   166.1765 </r>
       <r>    -2.0996    49.8641   168.9226 </r>
       <r>    -2.0446    33.1570   170.7485 </r>
       <r>    -1.9895    53.2008   173.6782 </r>
       <r>    -1.9344    33.9053   175.5454 </r>
       <r>    -1.8793    46.6545   178.1147 </r>
       <r>    -1.8243    29.4655   179.7373 </r>
       <r>    -1.7692    26.2761   181.1843 </r>
       <r>    -1.7141    33.8250   183.0471 </r>
       <r>    -1.6591    29.0412   184.6463 </r>
       <r>    -1.6040    37.2254   186.6963 </r>
       <r>    -1.5489    42.3884   189.0306 </r>
       <r>    -1.4939    29.8114   190.6723 </r>
       <r>    -1.4388    39.0900   192.8250 </r>
       <r>    -1.3837    44.4316   195.2718 </r>
       <r>    -1.3287    25.0620   196.6520 </r>
       <r>    -1.2736    23.4546   197.9437 </r>
       <r>    -1.2185    10.4390   198.5186 </r>
       <r>    -1.1634    12.4042   199.2017 </r>
       <r>    -1.1084    11.4408   199.8317 </r>
       <r>    -1.0533    20.8334   200.9790 </r>
       <r>    -0.9982    30.5332   202.6604 </r>
       <r>    -0.9432    23.2473   203.9407 </r>
       <r>    -0.8881    24.3352   205.2808 </r>
       <r>    -0.8330    20.4837   206.4088 </r>
       <r>    -0.7780    19.1229   207.4619 </r>
       <r>    -0.7229    19.9663   208.5614 </r>
       <r>    -0.6678    14.6617   209.3688 </r>
       <r>    -0.6128    18.2193   210.3722 </r>
       <r>    -0.5577    20.3758   211.4943 </r>
       <r>    -0.5026    28.4437   213.0606 </r>
       <r>    -0.4475    41.2819   215.3340 </r>
       <r>    -0.3925    26.1314   216.7731 </r>
       <r>    -0.3374    22.0198   217.9858 </r>
       <r>    -0.2823    15.2958   218.8281 </r>
       <r>    -0.2273    12.8688   219.5368 </r>
       <r>    -0.1722    13.9633   220.3058 </r>
       <r>    -0.1171    17.2989   221.2584 </r>
       <r>    -0.0621    12.5504   221.9495 </r>
       <r>    -0.0070    11.9550   222.6079 </r>
       <r>     0.0481    22.1738   223.8290 </r>
       <r>     0.1031     9.8614   224.3721 </r>
       <r>     0.1582    14.8922   225.1922 </r>
       <r>     0.2133    35.9645   227.1727 </r>
       <r>     0.2684    43.2272   229.5532 </r>
       <r>     0.3234    72.3964   233.5401 </r>
       <r>     0.3785    32.3374   235.3209 </r>
       <r>     0.4336    33.7682   237.1805 </r>
       <r>     0.4886    47.6131   239.8025 </r>
       <r>     0.5437    54.2231   242.7886 </r>
       <r>     0.5988    67.6760   246.5155 </r>
       <r>     0.6538    39.6545   248.6993 </r>
       <r>     0.7089    66.3527   252.3533 </r>
       <r>     0.7640    44.1750   254.7860 </r>
       <r>     0.8190    90.0044   259.7425 </r>
       <r>     0.8741    80.9671   264.2013 </r>
       <r>     0.9292    49.7512   266.9411 </r>
       <r>     0.9843    62.9908   270.4100 </r>
       <r>     1.0393    49.5665   273.1396 </r>
       <r>     1.0944    57.8151   276.3235 </r>
       <r>     1.1495    79.6889   280.7119 </r>
       <r>     1.2045    60.4375   284.0402 </r>
       <r>     1.2596    80.4542   288.4707 </r>
       <r>     1.3147    73.6165   292.5247 </r>
       <r>     1.3697    81.2974   297.0018 </r>
       <r>     1.4248    68.2501   300.7603 </r>
       <r>     1.4799    47.4314   303.3723 </r>
       <r>     1.5349   103.5580   309.0752 </r>
       <r>     1.5900    44.2067   311.5096 </r>
       <r>     1.6451    70.4188   315.3875 </r>
       <r>     1.7002    76.3548   319.5924 </r>
       <r>     1.7552    83.6901   324.2012 </r>
       <r>     1.8103    82.3469   328.7360 </r>
       <r>     1.8654    97.7806   334.1207 </r>
       <r>     1.9204    82.3288   338.6546 </r>
       <r>     1.9755    69.7867   342.4977 </r>
       <r>     2.0306    74.1467   346.5810 </r>
       <r>     2.0856    65.1060   350.1664 </r>
       <r>     2.1407    55.9093   353.2453 </r>
       <r>     2.1958    69.5035   357.0728 </r>
       <r>     2.2509    60.7990   360.4210 </r>
       <r>     2.3059   104.5057   366.1760 </r>
       <r>     2.3610    49.8375   368.9206 </r>
       <r>     2.4161    73.6722   372.9777 </r>
       <r>     2.4711    57.6319   376.1514 </r>
       <r>     2.5262    85.0647   380.8359 </r>
       <r>     2.5813    76.4194   385.0443 </r>
       <r>     2.6363    70.4973   388.9265 </r>
       <r>     2.6914    68.3786   392.6921 </r>
       <r>     2.7465    63.0944   396.1667 </r>
       <r>     2.8015    40.9755   398.4232 </r>
       <r>     2.8566    67.1837   402.1229 </r>
       <r>     2.9117    40.4241   404.3491 </r>
       <r>     2.9668    65.1666   407.9378 </r>
       <r>     3.0218    74.5334   412.0424 </r>
       <r>     3.0769    62.2597   415.4710 </r>
       <r>     3.1320    70.2025   419.3370 </r>
       <r>     3.1870    71.5687   423.2783 </r>
       <r>     3.2421    56.7655   426.4043 </r>
       <r>     3.2972    59.3676   429.6737 </r>
       <r>     3.3522    81.4502   434.1591 </r>
       <r>     3.4073    68.6297   437.9386 </r>
       <r>     3.4624    51.2138   440.7590 </r>
       <r>     3.5174    63.2300   444.2410 </r>
       <r>     3.5725    42.7571   446.5956 </r>
       <r>     3.6276    41.5450   448.8835 </r>
       <r>     3.6827    50.0947   451.6422 </r>
       <r>     3.7377    44.7671   454.1075 </r>
       <r>     3.7928    33.4479   455.9494 </r>
       <r>     3.8479    38.8586   458.0894 </r>
       <r>     3.9029    26.4718   459.5471 </r>
       <r>     3.9580    29.1737   461.1537 </r>
       <r>     4.0131    34.9751   463.0798 </r>
       <r>     4.0681    34.0842   464.9568 </r>
       <r>     4.1232    32.2444   466.7325 </r>
       <r>     4.1783    15.1104   467.5646 </r>
       <r>     4.2333    17.3414   468.5196 </r>
       <r>     4.2884    22.0840   469.7357 </r>
       <r>     4.3435    30.1308   471.3950 </r>
       <r>     4.3986    20.9724   472.5500 </r>
       <r>     4.4536     5.9061   472.8752 </r>
       <r>     4.5087     8.7160   473.3552 </r>
       <r>     4.5638    17.1378   474.2989 </r>
       <r>     4.6188    19.7850   475.3885 </r>
       <r>     4.6739    12.8169   476.0943 </r>
       <r>     4.7290     9.6125   476.6237 </r>
       <r>     4.7840    14.4562   477.4198 </r>
       <r>     4.8391    10.8465   478.0171 </r>
       <r>     4.8942    39.8126   480.2095 </r>
       <r>     4.9492    27.0659   481.7001 </r>
       <r>     5.0043    19.3533   482.7658 </r>
       <r>     5.0594    26.3836   484.2188 </r>
       <r>     5.1145    32.0899   485.9859 </r>
       <r>     5.1695    24.9303   487.3588 </r>
       <r>     5.2246    42.6741   489.7089 </r>
       <r>     5.2797    50.0235   492.4637 </r>
       <r>     5.3347    27.2625   493.9650 </r>
       <r>     5.3898    36.4287   495.9712 </r>
       <r>     5.4449    45.9969   498.5042 </r>
       <r>     5.4999    38.2514   500.6107 </r>
       <r>     5.5550    23.2151   501.8891 </r>
       <r>     5.6101    46.2711   504.4372 </r>
       <r>     5.6651    58.5148   507.6596 </r>
       <r>     5.7202    32.8378   509.4681 </r>
       <r>     5.7753    41.0062   511.7262 </r>
       <r>     5.8304    57.1033   514.8709 </r>
       <r>     5.8854    54.0021   517.8448 </r>
       <r>     5.9405    39.0516   519.9954 </r>
       <r>     5.9956    65.2747   523.5900 </r>
       <r>     6.0506    65.7504   527.2109 </r>
       <r>     6.1057    48.1792   529.8641 </r>
       <r>     6.1608    40.5032   532.0946 </r>
       <r>     6.2158    31.1627   533.8107 </r>
       <r>     6.2709    62.4522   537.2499 </r>
       <r>     6.3260    46.3762   539.8038 </r>
       <r>     6.3810    53.1292   542.7296 </r>
       <r>     6.4361    44.8165   545.1977 </r>
       <r>     6.4912    63.7981   548.7110 </r>
       <r>     6.5463    59.2495   551.9738 </r>
       <r>     6.6013    65.9042   555.6031 </r>
       <r>     6.6564    54.6487   558.6126 </r>
       <r>     6.7115    44.0807   561.0401 </r>
       <r>     6.7665    47.0421   563.6307 </r>
       <r>     6.8216    41.8732   565.9367 </r>
       <r>     6.8767    48.6146   568.6139 </r>
       <r>     6.9317    50.4455   571.3919 </r>
       <r>     6.9868    39.7210   573.5793 </r>
       <r>     7.0419    11.8903   574.2341 </r>
       <r>     7.0969     9.5047   574.7575 </r>
       <r>     7.1520    17.3482   575.7128 </r>
       <r>     7.2071     5.2145   576.0000 </r>
       <r>     7.2622     0.0000   576.0000 </r>
       <r>     7.3172     0.0000   576.0000 </r>
       <r>     7.3723     0.0000   576.0000 </r>
       <r>     7.4274     0.0000   576.0000 </r>
       <r>     7.4824     0.0000   576.0000 </r>
       <r>     7.5375     0.0000   576.0000 </r>
       <r>     7.5926     0.0000   576.0000 </r>
       <r>     7.6476     0.0000   576.0000 </r>
       <r>     7.7027     0.0000   576.0000 </r>
       <r>     7.7578     0.0000   576.0000 </r>
       <r>     7.8128     0.0000   576.0000 </r>
       <r>     7.8679     0.0000   576.0000 </r>
       <r>     7.9230     0.0000   576.0000 </r>
      </set>
     </set>
    </array>
   </total>
  </dos>
 </calculation>
 <structure name="finalpos" >
  <crystal>
   <varray name="basis" >
    <v>       7.68059444       0.00000000       0.00000000 </v>
    <v>       0.00000000      16.29299927       0.00000000 </v>
    <v>       0.00000000       0.00000000      20.80414009 </v>
   </varray>
   <i name="volume">   2603.42841946 </i>
   <varray name="rec_basis" >
    <v>       0.13019826       0.00000000       0.00000000 </v>
    <v>       0.00000000       0.06137605       0.00000000 </v>
    <v>       0.00000000       0.00000000       0.04806736 </v>
   </varray>
  </crystal>
  <varray name="positions" >
   <v>       0.85116363       0.19633615       0.90071338 </v>
   <v>       0.72851723       0.81901145       0.09229647 </v>
   <v>       0.47851718       0.65234476       0.18459295 </v>
   <v>       0.22851723       0.48567814       0.27688938 </v>
   <v>       0.97851718       0.31901139       0.36918586 </v>
   <v>       0.72851718       0.15234470       0.46148235 </v>
   <v>       0.97851729       0.31901154       0.00000000 </v>
   <v>       0.85116363       0.69633609       0.90071338 </v>
   <v>       0.47851718       0.98567814       0.18459295 </v>
   <v>       0.22851723       0.81901151       0.27688938 </v>
   <v>       0.10116363       0.19633615       0.56076908 </v>
   <v>       0.85116363       0.69633603       0.62875789 </v>
   <v>       0.35116357       0.94633603       0.90071338 </v>
   <v>       0.72851723       0.48567820       0.09229647 </v>
   <v>       0.47851718       0.31901151       0.18459295 </v>
   <v>       0.22851723       0.15234487       0.27688938 </v>
   <v>       0.97851718       0.98567814       0.36918586 </v>
   <v>       0.72851718       0.81901139       0.46148235 </v>
   <v>       0.60116369       0.19633615       0.83272451 </v>
   <v>       0.22851725       0.81901145       0.09229647 </v>
   <v>       0.97851723       0.65234476       0.18459295 </v>
   <v>       0.72851729       0.48567814       0.27688935 </v>
   <v>       0.47851718       0.31901139       0.36918586 </v>
   <v>       0.60116357       0.44633606       0.56076908 </v>
   <v>       0.47851729       0.31901154       0.00000000 </v>
   <v>       0.22851725       0.15234485       0.09229647 </v>
   <v>       0.97851723       0.98567814       0.18459295 </v>
   <v>       0.72851729       0.81901151       0.27688935 </v>
   <v>       0.47851718       0.65234476       0.36918586 </v>
   <v>       0.10116363       0.69633603       0.56076908 </v>
   <v>       0.47851729       0.65234494       0.00000000 </v>
   <v>       0.22851725       0.48567820       0.09229647 </v>
   <v>       0.97851723       0.31901151       0.18459295 </v>
   <v>       0.72851729       0.15234487       0.27688935 </v>
   <v>       0.47851718       0.98567814       0.36918586 </v>
   <v>       0.22851712       0.81901139       0.46148235 </v>
   <v>       0.35116360       0.44633609       0.90071338 </v>
   <v>       0.47851729       0.06901149       0.09229647 </v>
   <v>       0.22851726       0.90234476       0.18459295 </v>
   <v>       0.97851729       0.73567814       0.27688938 </v>
   <v>       0.72851723       0.56901145       0.36918586 </v>
   <v>       0.47851723       0.40234464       0.46148229 </v>
   <v>       0.72851735       0.56901163       0.00000000 </v>
   <v>       0.47851729       0.40234488       0.09229647 </v>
   <v>       0.22851726       0.23567820       0.18459295 </v>
   <v>       0.10116363       0.94633609       0.56076908 </v>
   <v>       0.72851723       0.90234482       0.36918586 </v>
   <v>       0.47851723       0.73567808       0.46148229 </v>
   <v>       0.72851735       0.90234494       0.00000000 </v>
   <v>       0.47851729       0.73567820       0.09229647 </v>
   <v>       0.22851726       0.56901151       0.18459295 </v>
   <v>       0.97851729       0.40234485       0.27688938 </v>
   <v>       0.72851723       0.23567812       0.36918586 </v>
   <v>       0.47851723       0.06901138       0.46148229 </v>
   <v>       0.22851729       0.23567820       0.00000000 </v>
   <v>       0.97851723       0.06901149       0.09229647 </v>
   <v>       0.72851718       0.90234476       0.18459295 </v>
   <v>       0.47851729       0.73567814       0.27688935 </v>
   <v>       0.22851718       0.56901145       0.36918586 </v>
   <v>       0.97851706       0.40234464       0.46148235 </v>
   <v>       0.22851729       0.56901163       0.00000000 </v>
   <v>       0.97851723       0.40234488       0.09229647 </v>
   <v>       0.72851718       0.23567820       0.18459295 </v>
   <v>       0.47851729       0.06901154       0.27688935 </v>
   <v>       0.22851718       0.90234482       0.36918586 </v>
   <v>       0.60116363       0.94633603       0.56076908 </v>
   <v>       0.22851729       0.90234494       0.00000000 </v>
   <v>       0.97851723       0.73567820       0.09229647 </v>
   <v>       0.85116363       0.44633609       0.90071338 </v>
   <v>       0.47851729       0.40234485       0.27688935 </v>
   <v>       0.22851718       0.23567812       0.36918586 </v>
   <v>       0.97851706       0.06901138       0.46148235 </v>
   <v>       0.22851712       0.48567808       0.46148235 </v>
   <v>       0.85116369       0.32133609       0.69674677 </v>
   <v>       0.60116369       0.94633615       0.83272451 </v>
   <v>       0.97851706       0.73567808       0.46148235 </v>
   <v>       0.35116363       0.57133609       0.69674677 </v>
   <v>       0.10116363       0.19633615       0.83272451 </v>
   <v>       0.97851718       0.65234476       0.36918586 </v>
   <v>       0.85116369       0.82133615       0.69674677 </v>
   <v>       0.60116369       0.44633609       0.83272451 </v>
   <v>       0.22851712       0.15234470       0.46148235 </v>
   <v>       0.35116363       0.07133615       0.69674677 </v>
   <v>       0.10116363       0.69633609       0.83272451 </v>
   <v>       0.35116360       0.69633603       0.62875789 </v>
   <v>       0.10116363       0.32133609       0.76473570 </v>
   <v>       0.85116369       0.94633603       0.90071338 </v>
   <v>       0.85116363       0.94633603       0.62875789 </v>
   <v>       0.60116363       0.57133609       0.76473570 </v>
   <v>       0.35116360       0.19633603       0.90071338 </v>
   <v>       0.35116366       0.19633615       0.62875789 </v>
   <v>       0.10116363       0.82133615       0.76473570 </v>
   <v>       0.72851718       0.56901151       0.18459295 </v>
   <v>       0.85116357       0.44633606       0.62875789 </v>
   <v>       0.60116363       0.07133615       0.76473570 </v>
   <v>       0.35116363       0.69633609       0.90071338 </v>
   <v>       0.97851729       0.06901154       0.27688938 </v>
   <v>       0.85116375       0.57133615       0.69674677 </v>
   <v>       0.47851729       0.98567820       0.00000000 </v>
   <v>       0.10116363       0.44633609       0.56076908 </v>
   <v>       0.85116369       0.07133615       0.69674677 </v>
   <v>       0.60116369       0.69633609       0.83272451 </v>
   <v>       0.60116363       0.69633609       0.56076908 </v>
   <v>       0.35116366       0.32133615       0.69674677 </v>
   <v>       0.10116363       0.94633615       0.83272451 </v>
   <v>       0.60116363       0.19633615       0.56076908 </v>
   <v>       0.35116363       0.82133609       0.69674677 </v>
   <v>       0.10116363       0.44633615       0.83272451 </v>
   <v>       0.35116369       0.94633609       0.62875789 </v>
   <v>       0.10116363       0.57133615       0.76473570 </v>
   <v>       0.97851729       0.98567820       0.00000000 </v>
   <v>       0.35116363       0.44633609       0.62875789 </v>
   <v>       0.10116363       0.07133615       0.76473570 </v>
   <v>       0.72851723       0.15234485       0.09229647 </v>
   <v>       0.72851718       0.48567808       0.46148235 </v>
   <v>       0.60116363       0.32133606       0.76473570 </v>
   <v>       0.97851729       0.65234494       0.00000000 </v>
   <v>       0.85116363       0.19633615       0.62875789 </v>
   <v>       0.60116363       0.82133615       0.76473570 </v>
   <v>       0.72851735       0.23567820       0.00000000 </v>
  </varray>
 </structure>
</modeling>
