       N       E                     dE             d eps       ncg     rms          rms(c)
DAV:   1     0.255938829515E+04    0.25594E+04   -0.24008E+05  5568   0.166E+03
DAV:   2    -0.338645741985E+03   -0.28980E+04   -0.27988E+04  6528   0.199E+02
DAV:   3    -0.629203354502E+03   -0.29056E+03   -0.28062E+03  7016   0.577E+01
DAV:   4    -0.641153870445E+03   -0.11951E+02   -0.11700E+02  6840   0.124E+01
DAV:   5    -0.641683603181E+03   -0.52973E+00   -0.52580E+00  7600   0.252E+00    0.334E+01
DAV:   6    -0.631061095842E+03    0.10623E+02   -0.52743E+01  8864   0.147E+01    0.162E+01
DAV:   7    -0.630239976897E+03    0.82112E+00   -0.50608E+01  8760   0.154E+01    0.118E+01
DAV:   8    -0.626546904686E+03    0.36931E+01   -0.16004E+01  7944   0.801E+00    0.227E+00
DAV:   9    -0.626925992852E+03   -0.37909E+00   -0.46030E+00  6544   0.300E+00    0.202E+00
DAV:  10    -0.626785883000E+03    0.14011E+00   -0.84475E-01  6736   0.175E+00    0.121E+00
DAV:  11    -0.626770619086E+03    0.15264E-01   -0.30489E-01  6576   0.848E-01    0.649E-01
DAV:  12    -0.626772625570E+03   -0.20065E-02   -0.10651E-01  6464   0.527E-01    0.367E-01
DAV:  13    -0.626772862484E+03   -0.23691E-03   -0.16600E-02  6416   0.177E-01    0.253E-01
DAV:  14    -0.626772715214E+03    0.14727E-03   -0.49829E-03  6744   0.102E-01    0.148E-01
DAV:  15    -0.626772973057E+03   -0.25784E-03   -0.16691E-03  6384   0.619E-02    0.114E-01
DAV:  16    -0.626773053788E+03   -0.80731E-04   -0.39541E-04  6496   0.295E-02    0.634E-02
DAV:  17    -0.626773061461E+03   -0.76729E-05   -0.13133E-04  7144   0.181E-02    0.410E-02
DAV:  18    -0.626773060502E+03    0.95970E-06   -0.39784E-05  6272   0.905E-03    0.334E-02
DAV:  19    -0.626773058095E+03    0.24062E-05   -0.97183E-06  6592   0.423E-03    0.198E-02
DAV:  20    -0.626773057536E+03    0.55988E-06   -0.40358E-06  6560   0.277E-03    0.120E-02
DAV:  21    -0.626773057856E+03   -0.32076E-06   -0.32974E-06  6608   0.259E-03    0.654E-03
DAV:  22    -0.626773059135E+03   -0.12791E-05   -0.25203E-06  6832   0.199E-03    0.367E-03
DAV:  23    -0.626773059726E+03   -0.59071E-06   -0.32354E-07  4520   0.982E-04    0.262E-03
DAV:  24    -0.626773060769E+03   -0.10427E-05   -0.67367E-07  5752   0.111E-03    0.294E-03
DAV:  25    -0.626773061337E+03   -0.56822E-06   -0.31845E-07  4544   0.822E-04    0.362E-03
DAV:  26    -0.626773061015E+03    0.32233E-06   -0.82756E-08  3296   0.530E-04    0.253E-03
DAV:  27    -0.626773060507E+03    0.50769E-06   -0.28221E-07  4552   0.700E-04    0.915E-04
DAV:  28    -0.626773060410E+03    0.96847E-07   -0.89917E-08  3264   0.413E-04
   1 F= -.62677306E+03 E0= -.62677131E+03  d E =-.350206E-02  mag=     1.0000
