 120 120   0   0
  0.2190039E+02  0.7680595E-09  0.1629300E-08  0.2100086E-08  0.5000000E-15
  1.000000000000000E-004
  CAR 
 Si and Ge interface calculation         
      7.78979166     -8.59282895  301      4.76409474      1.00000000
     -8.593  0.0000E+00  0.0000E+00  0.0000E+00  0.0000E+00
     -8.538  0.0000E+00  0.0000E+00  0.0000E+00  0.0000E+00
     -8.484  0.0000E+00  0.0000E+00  0.0000E+00  0.0000E+00
     -8.429  0.0000E+00  0.0000E+00  0.0000E+00  0.0000E+00
     -8.374  0.0000E+00  0.0000E+00  0.0000E+00  0.0000E+00
     -8.320  0.0000E+00  0.0000E+00  0.0000E+00  0.0000E+00
     -8.265  0.0000E+00  0.0000E+00  0.0000E+00  0.0000E+00
     -8.211  0.0000E+00  0.0000E+00  0.0000E+00  0.0000E+00
     -8.156  0.0000E+00  0.0000E+00  0.0000E+00  0.0000E+00
     -8.101  0.0000E+00  0.0000E+00  0.0000E+00  0.0000E+00
     -8.047  0.0000E+00  0.0000E+00  0.0000E+00  0.0000E+00
     -7.992  0.0000E+00  0.0000E+00  0.0000E+00  0.0000E+00
     -7.938  0.0000E+00  0.0000E+00  0.0000E+00  0.0000E+00
     -7.883  0.2037E-05  0.1283E-07  0.1112E-06  0.7007E-09
     -7.828  0.4567E+01  0.4445E+01  0.2494E+00  0.2427E+00
     -7.774  0.1160E-01  0.1331E+00  0.2500E+00  0.2500E+00
     -7.719  0.1017E+02  0.9274E+01  0.8053E+00  0.7564E+00
     -7.664  0.8142E+01  0.9038E+01  0.1250E+01  0.1250E+01
     -7.610  0.6213E+01  0.1785E+01  0.1589E+01  0.1347E+01
     -7.555  0.1210E+02  0.1653E+02  0.2250E+01  0.2250E+01
     -7.501  0.9135E+01  0.8978E+01  0.2749E+01  0.2740E+01
     -7.446  0.2111E-01  0.1778E+00  0.2750E+01  0.2750E+01
     -7.391  0.1829E+02  0.1578E+02  0.3749E+01  0.3612E+01
     -7.337  0.1385E+02  0.1628E+02  0.4505E+01  0.4501E+01
     -7.282  0.2492E+02  0.1515E+02  0.5866E+01  0.5328E+01
     -7.228  0.3010E+02  0.3921E+02  0.7510E+01  0.7469E+01
     -7.173  0.1018E+02  0.9943E+01  0.8066E+01  0.8012E+01
     -7.118  0.3096E+02  0.3178E+02  0.9756E+01  0.9748E+01
     -7.064  0.9230E+01  0.9006E+01  0.1026E+02  0.1024E+02
     -7.009  0.2074E+02  0.1834E+02  0.1139E+02  0.1124E+02
     -6.955  0.2252E+02  0.2122E+02  0.1262E+02  0.1240E+02
     -6.900  0.3669E+02  0.3849E+02  0.1463E+02  0.1450E+02
     -6.845  0.2924E+02  0.3083E+02  0.1622E+02  0.1619E+02
     -6.791  0.1100E+02  0.1067E+02  0.1682E+02  0.1677E+02
     -6.736  0.1356E+02  0.1310E+02  0.1756E+02  0.1748E+02
     -6.682  0.1200E+02  0.1081E+02  0.1822E+02  0.1807E+02
     -6.627  0.1923E+02  0.2163E+02  0.1927E+02  0.1926E+02
     -6.572  0.3348E+02  0.2687E+02  0.2110E+02  0.2072E+02
     -6.518  0.3674E+02  0.3920E+02  0.2311E+02  0.2286E+02
     -6.463  0.4404E+02  0.4212E+02  0.2551E+02  0.2516E+02
     -6.408  0.4493E+02  0.4921E+02  0.2796E+02  0.2785E+02
     -6.354  0.1518E+02  0.1605E+02  0.2879E+02  0.2873E+02
     -6.299  0.3867E+02  0.3542E+02  0.3090E+02  0.3066E+02
     -6.245  0.2728E+02  0.2681E+02  0.3239E+02  0.3213E+02
     -6.190  0.3860E+02  0.3910E+02  0.3450E+02  0.3426E+02
     -6.135  0.2666E+02  0.2752E+02  0.3596E+02  0.3576E+02
     -6.081  0.5154E+02  0.4983E+02  0.3877E+02  0.3848E+02
     -6.026  0.3803E+02  0.3999E+02  0.4085E+02  0.4067E+02
     -5.972  0.2056E+02  0.1991E+02  0.4197E+02  0.4176E+02
     -5.917  0.1806E+02  0.1763E+02  0.4296E+02  0.4272E+02
     -5.862  0.3833E+02  0.4042E+02  0.4505E+02  0.4493E+02
     -5.808  0.3627E+02  0.3724E+02  0.4703E+02  0.4696E+02
     -5.753  0.4637E+02  0.4491E+02  0.4956E+02  0.4941E+02
     -5.699  0.4566E+02  0.4397E+02  0.5206E+02  0.5181E+02
     -5.644  0.1353E+02  0.1739E+02  0.5280E+02  0.5276E+02
     -5.589  0.3469E+02  0.3390E+02  0.5469E+02  0.5461E+02
     -5.535  0.4013E+02  0.3286E+02  0.5688E+02  0.5641E+02
     -5.480  0.4887E+02  0.5457E+02  0.5955E+02  0.5939E+02
     -5.426  0.4201E+02  0.4078E+02  0.6185E+02  0.6161E+02
     -5.371  0.5678E+02  0.5806E+02  0.6495E+02  0.6479E+02
     -5.316  0.3293E+02  0.3269E+02  0.6674E+02  0.6657E+02
     -5.262  0.2836E+02  0.2701E+02  0.6829E+02  0.6804E+02
     -5.207  0.6901E+02  0.6742E+02  0.7206E+02  0.7173E+02
     -5.152  0.6536E+02  0.6538E+02  0.7563E+02  0.7530E+02
     -5.098  0.2800E+02  0.2905E+02  0.7716E+02  0.7688E+02
     -5.043  0.5007E+02  0.5285E+02  0.7989E+02  0.7977E+02
     -4.989  0.3181E+02  0.3229E+02  0.8163E+02  0.8153E+02
     -4.934  0.1932E+02  0.1493E+02  0.8269E+02  0.8235E+02
     -4.879  0.4660E+02  0.5159E+02  0.8523E+02  0.8516E+02
     -4.825  0.2867E+02  0.2525E+02  0.8680E+02  0.8654E+02
     -4.770  0.5223E+02  0.4638E+02  0.8965E+02  0.8908E+02
     -4.716  0.3341E+02  0.4144E+02  0.9147E+02  0.9134E+02
     -4.661  0.3823E+02  0.3199E+02  0.9356E+02  0.9309E+02
     -4.606  0.2513E+02  0.3198E+02  0.9493E+02  0.9483E+02
     -4.552  0.2612E+02  0.2680E+02  0.9636E+02  0.9630E+02
     -4.497  0.4179E+02  0.3860E+02  0.9864E+02  0.9840E+02
     -4.443  0.3168E+02  0.3152E+02  0.1004E+03  0.1001E+03
     -4.388  0.5355E+02  0.5359E+02  0.1033E+03  0.1031E+03
     -4.333  0.2534E+02  0.2822E+02  0.1047E+03  0.1046E+03
     -4.279  0.4217E+02  0.4228E+02  0.1070E+03  0.1069E+03
     -4.224  0.1804E+02  0.1569E+02  0.1080E+03  0.1078E+03
     -4.170  0.1038E+02  0.1371E+02  0.1085E+03  0.1085E+03
     -4.115  0.1335E+02  0.1089E+02  0.1093E+03  0.1091E+03
     -4.060  0.1753E+02  0.1740E+02  0.1102E+03  0.1101E+03
     -4.006  0.1419E+02  0.1197E+02  0.1110E+03  0.1107E+03
     -3.951  0.3141E+02  0.3174E+02  0.1127E+03  0.1124E+03
     -3.896  0.2336E+02  0.2544E+02  0.1140E+03  0.1138E+03
     -3.842  0.5227E+01  0.7736E+01  0.1143E+03  0.1143E+03
     -3.787  0.8391E+01  0.5279E+01  0.1147E+03  0.1145E+03
     -3.733  0.2527E+02  0.2378E+02  0.1161E+03  0.1158E+03
     -3.678  0.2595E+02  0.3037E+02  0.1175E+03  0.1175E+03
     -3.623  0.1557E+02  0.1315E+02  0.1184E+03  0.1182E+03
     -3.569  0.2067E+02  0.2308E+02  0.1195E+03  0.1195E+03
     -3.514  0.2466E+02  0.1844E+02  0.1209E+03  0.1205E+03
     -3.460  0.2080E+02  0.2582E+02  0.1220E+03  0.1219E+03
     -3.405  0.9339E+01  0.9648E+01  0.1225E+03  0.1224E+03
     -3.350  0.2390E+02  0.2077E+02  0.1238E+03  0.1236E+03
     -3.296  0.1202E+02  0.1517E+02  0.1245E+03  0.1244E+03
     -3.241  0.1605E+02  0.1253E+02  0.1253E+03  0.1251E+03
     -3.187  0.3153E+02  0.2904E+02  0.1271E+03  0.1267E+03
     -3.132  0.3164E+02  0.3787E+02  0.1288E+03  0.1287E+03
     -3.077  0.3940E+01  0.5126E+01  0.1290E+03  0.1290E+03
     -3.023  0.1704E+02  0.1396E+02  0.1299E+03  0.1298E+03
     -2.968  0.1488E+02  0.1761E+02  0.1307E+03  0.1307E+03
     -2.914  0.3108E+02  0.2827E+02  0.1324E+03  0.1323E+03
     -2.859  0.3018E+02  0.2203E+02  0.1341E+03  0.1335E+03
     -2.804  0.3576E+02  0.4077E+02  0.1360E+03  0.1357E+03
     -2.750  0.3334E+02  0.3661E+02  0.1379E+03  0.1377E+03
     -2.695  0.3877E+02  0.3566E+02  0.1400E+03  0.1396E+03
     -2.640  0.6322E+02  0.6195E+02  0.1434E+03  0.1430E+03
     -2.586  0.5251E+02  0.5320E+02  0.1463E+03  0.1459E+03
     -2.531  0.5233E+02  0.4736E+02  0.1492E+03  0.1485E+03
     -2.477  0.5869E+02  0.6474E+02  0.1524E+03  0.1521E+03
     -2.422  0.5416E+02  0.5475E+02  0.1553E+03  0.1550E+03
     -2.367  0.6891E+02  0.6482E+02  0.1591E+03  0.1586E+03
     -2.313  0.5520E+02  0.5781E+02  0.1621E+03  0.1617E+03
     -2.258  0.4536E+02  0.4811E+02  0.1646E+03  0.1644E+03
     -2.204  0.4725E+02  0.4771E+02  0.1672E+03  0.1670E+03
     -2.149  0.5254E+02  0.4746E+02  0.1700E+03  0.1696E+03
     -2.094  0.4508E+02  0.4014E+02  0.1725E+03  0.1718E+03
     -2.040  0.5609E+02  0.5889E+02  0.1755E+03  0.1750E+03
     -1.985  0.4574E+02  0.5184E+02  0.1780E+03  0.1778E+03
     -1.931  0.2614E+02  0.2650E+02  0.1795E+03  0.1792E+03
     -1.876  0.1558E+02  0.1846E+02  0.1803E+03  0.1803E+03
     -1.821  0.9025E+01  0.9088E+01  0.1808E+03  0.1808E+03
     -1.767  0.2418E+02  0.2189E+02  0.1821E+03  0.1819E+03
     -1.712  0.6185E+02  0.5836E+02  0.1855E+03  0.1851E+03
     -1.658  0.4291E+02  0.4307E+02  0.1879E+03  0.1875E+03
     -1.603  0.7601E+02  0.7796E+02  0.1920E+03  0.1917E+03
     -1.548  0.1288E+02  0.1104E+02  0.1927E+03  0.1923E+03
     -1.494  0.1964E+02  0.2529E+02  0.1938E+03  0.1937E+03
     -1.439  0.2221E+02  0.2226E+02  0.1950E+03  0.1949E+03
     -1.384  0.2965E+02  0.2458E+02  0.1966E+03  0.1963E+03
     -1.330  0.2042E+02  0.2574E+02  0.1977E+03  0.1977E+03
     -1.275  0.2743E+02  0.2612E+02  0.1992E+03  0.1991E+03
     -1.221  0.4918E+01  0.6964E+01  0.1995E+03  0.1995E+03
     -1.166  0.8670E+01  0.6068E+01  0.2000E+03  0.1998E+03
     -1.111  0.6160E+01  0.4424E+01  0.2003E+03  0.2001E+03
     -1.057  0.4473E+02  0.4489E+02  0.2028E+03  0.2025E+03
     -1.002  0.1791E+02  0.1622E+02  0.2037E+03  0.2034E+03
     -0.948  0.2453E+02  0.2963E+02  0.2051E+03  0.2050E+03
     -0.893  0.2155E+02  0.2137E+02  0.2062E+03  0.2062E+03
     -0.838  0.9150E+01  0.6777E+01  0.2067E+03  0.2066E+03
     -0.784  0.9977E+01  0.1243E+02  0.2073E+03  0.2072E+03
     -0.729  0.2566E+02  0.2405E+02  0.2087E+03  0.2086E+03
     -0.675  0.2225E+02  0.1822E+02  0.2099E+03  0.2096E+03
     -0.620  0.4186E+02  0.4159E+02  0.2122E+03  0.2118E+03
     -0.565  0.3539E+02  0.3773E+02  0.2141E+03  0.2139E+03
     -0.511  0.4618E+02  0.4648E+02  0.2166E+03  0.2164E+03
     -0.456  0.7984E+01  0.8913E+01  0.2171E+03  0.2169E+03
     -0.402  0.2993E+02  0.2731E+02  0.2187E+03  0.2184E+03
     -0.347  0.2345E+02  0.2921E+02  0.2200E+03  0.2200E+03
     -0.292  0.2213E-02  0.8868E-01  0.2200E+03  0.2200E+03
     -0.238  0.1029E+02  0.9184E+01  0.2206E+03  0.2205E+03
     -0.183  0.3503E+02  0.3297E+02  0.2225E+03  0.2223E+03
     -0.128  0.9618E+01  0.1279E+02  0.2230E+03  0.2230E+03
     -0.074  0.1399E+02  0.1335E+02  0.2238E+03  0.2237E+03
     -0.019  0.2184E+02  0.2142E+02  0.2250E+03  0.2249E+03
      0.035  0.9965E+01  0.1101E+02  0.2255E+03  0.2255E+03
      0.090  0.4561E+01  0.4578E+01  0.2257E+03  0.2257E+03
      0.145  0.1617E+02  0.9681E+01  0.2266E+03  0.2263E+03
      0.199  0.4263E+02  0.4105E+02  0.2290E+03  0.2285E+03
      0.254  0.8655E+02  0.8394E+02  0.2337E+03  0.2331E+03
      0.308  0.4243E+02  0.5092E+02  0.2360E+03  0.2359E+03
      0.363  0.4069E+02  0.3848E+02  0.2382E+03  0.2380E+03
      0.418  0.3759E+02  0.3378E+02  0.2403E+03  0.2398E+03
      0.472  0.4448E+02  0.4998E+02  0.2427E+03  0.2426E+03
      0.527  0.4957E+02  0.4435E+02  0.2454E+03  0.2450E+03
      0.581  0.3362E+02  0.3653E+02  0.2473E+03  0.2470E+03
      0.636  0.7189E+02  0.6938E+02  0.2512E+03  0.2508E+03
      0.691  0.3207E+02  0.3433E+02  0.2529E+03  0.2526E+03
      0.745  0.9816E+02  0.9024E+02  0.2583E+03  0.2576E+03
      0.800  0.9221E+02  0.9493E+02  0.2633E+03  0.2628E+03
      0.854  0.6580E+02  0.6836E+02  0.2669E+03  0.2665E+03
      0.909  0.5529E+02  0.5802E+02  0.2699E+03  0.2697E+03
      0.964  0.4931E+02  0.4766E+02  0.2726E+03  0.2723E+03
      1.018  0.4399E+02  0.4719E+02  0.2750E+03  0.2748E+03
      1.073  0.9275E+02  0.8201E+02  0.2801E+03  0.2793E+03
      1.128  0.6060E+02  0.6697E+02  0.2834E+03  0.2830E+03
      1.182  0.6954E+02  0.6713E+02  0.2872E+03  0.2866E+03
      1.237  0.7847E+02  0.8474E+02  0.2915E+03  0.2913E+03
      1.291  0.6371E+02  0.5976E+02  0.2950E+03  0.2945E+03
      1.346  0.9675E+02  0.9594E+02  0.3002E+03  0.2998E+03
      1.401  0.6564E+02  0.6576E+02  0.3038E+03  0.3034E+03
      1.455  0.9351E+02  0.8299E+02  0.3089E+03  0.3079E+03
      1.510  0.4398E+02  0.5777E+02  0.3113E+03  0.3110E+03
      1.564  0.5382E+02  0.4955E+02  0.3143E+03  0.3137E+03
      1.619  0.7838E+02  0.7924E+02  0.3186E+03  0.3181E+03
      1.674  0.8816E+02  0.9204E+02  0.3234E+03  0.3231E+03
      1.728  0.7003E+02  0.6961E+02  0.3272E+03  0.3269E+03
      1.783  0.9233E+02  0.8696E+02  0.3322E+03  0.3317E+03
      1.837  0.9960E+02  0.8803E+02  0.3377E+03  0.3365E+03
      1.892  0.8632E+02  0.9756E+02  0.3424E+03  0.3418E+03
      1.947  0.7803E+02  0.7928E+02  0.3467E+03  0.3461E+03
      2.001  0.5197E+02  0.5606E+02  0.3495E+03  0.3492E+03
      2.056  0.5817E+02  0.5294E+02  0.3527E+03  0.3521E+03
      2.110  0.7019E+02  0.6681E+02  0.3565E+03  0.3557E+03
      2.165  0.5591E+02  0.6779E+02  0.3596E+03  0.3594E+03
      2.220  0.7831E+02  0.7403E+02  0.3638E+03  0.3635E+03
      2.274  0.6613E+02  0.6414E+02  0.3674E+03  0.3670E+03
      2.329  0.9426E+02  0.8868E+02  0.3726E+03  0.3718E+03
      2.384  0.5251E+02  0.5945E+02  0.3755E+03  0.3751E+03
      2.438  0.8164E+02  0.7893E+02  0.3799E+03  0.3794E+03
      2.493  0.7379E+02  0.7289E+02  0.3839E+03  0.3833E+03
      2.547  0.7052E+02  0.6983E+02  0.3878E+03  0.3872E+03
      2.602  0.6781E+02  0.6845E+02  0.3915E+03  0.3909E+03
      2.657  0.5467E+02  0.5374E+02  0.3945E+03  0.3938E+03
      2.711  0.7439E+02  0.7533E+02  0.3985E+03  0.3979E+03
      2.766  0.6662E+02  0.7070E+02  0.4022E+03  0.4018E+03
      2.820  0.4076E+02  0.4324E+02  0.4044E+03  0.4042E+03
      2.875  0.5194E+02  0.4761E+02  0.4072E+03  0.4068E+03
      2.930  0.8127E+02  0.8090E+02  0.4117E+03  0.4112E+03
      2.984  0.5385E+02  0.5798E+02  0.4146E+03  0.4144E+03
      3.039  0.5343E+02  0.4482E+02  0.4175E+03  0.4168E+03
      3.093  0.9165E+02  0.8707E+02  0.4226E+03  0.4216E+03
      3.148  0.4057E+02  0.4995E+02  0.4248E+03  0.4243E+03
      3.203  0.7422E+02  0.7310E+02  0.4288E+03  0.4283E+03
      3.257  0.9379E+02  0.9459E+02  0.4339E+03  0.4334E+03
      3.312  0.6466E+02  0.6499E+02  0.4375E+03  0.4370E+03
      3.366  0.6234E+02  0.5977E+02  0.4409E+03  0.4403E+03
      3.421  0.5928E+02  0.5729E+02  0.4441E+03  0.4434E+03
      3.476  0.6518E+02  0.7250E+02  0.4477E+03  0.4473E+03
      3.530  0.2519E+02  0.2567E+02  0.4490E+03  0.4487E+03
      3.585  0.5577E+02  0.5086E+02  0.4521E+03  0.4515E+03
      3.640  0.2519E+02  0.3150E+02  0.4535E+03  0.4532E+03
      3.694  0.3068E+02  0.2568E+02  0.4551E+03  0.4546E+03
      3.749  0.3619E+02  0.3837E+02  0.4571E+03  0.4567E+03
      3.803  0.3105E+02  0.3130E+02  0.4588E+03  0.4584E+03
      3.858  0.2682E+02  0.3256E+02  0.4603E+03  0.4602E+03
      3.913  0.2912E+02  0.2306E+02  0.4619E+03  0.4615E+03
      3.967  0.3065E+02  0.3268E+02  0.4635E+03  0.4633E+03
      4.022  0.3487E+02  0.3761E+02  0.4654E+03  0.4653E+03
      4.076  0.2832E+02  0.2938E+02  0.4670E+03  0.4669E+03
      4.131  0.1772E+02  0.1659E+02  0.4680E+03  0.4678E+03
      4.186  0.2470E+02  0.1346E+02  0.4693E+03  0.4686E+03
      4.240  0.1438E+02  0.2624E+02  0.4701E+03  0.4700E+03
      4.295  0.2695E+02  0.1896E+02  0.4716E+03  0.4710E+03
      4.349  0.1705E+02  0.2681E+02  0.4725E+03  0.4725E+03
      4.404  0.2784E+00  0.2003E-01  0.4725E+03  0.4725E+03
      4.459  0.2339E+02  0.9213E+01  0.4738E+03  0.4730E+03
      4.513  0.3040E+02  0.2247E+02  0.4755E+03  0.4742E+03
      4.568  0.1755E+02  0.2770E+02  0.4764E+03  0.4757E+03
      4.622  0.6198E+01  0.9942E+01  0.4767E+03  0.4763E+03
      4.677  0.1451E+02  0.8532E+01  0.4775E+03  0.4768E+03
      4.732  0.2244E+02  0.1734E+02  0.4788E+03  0.4777E+03
      4.786  0.4870E+02  0.3936E+02  0.4814E+03  0.4798E+03
      4.841  0.2620E+02  0.4055E+02  0.4829E+03  0.4821E+03
      4.896  0.2433E+02  0.2604E+02  0.4842E+03  0.4835E+03
      4.950  0.3630E+02  0.2305E+02  0.4862E+03  0.4847E+03
      5.005  0.1586E+02  0.2766E+02  0.4870E+03  0.4863E+03
      5.059  0.4784E+02  0.3049E+02  0.4896E+03  0.4879E+03
      5.114  0.2887E+02  0.5474E+02  0.4912E+03  0.4909E+03
      5.169  0.2276E+02  0.1513E+02  0.4925E+03  0.4917E+03
      5.223  0.3419E+02  0.3512E+02  0.4943E+03  0.4937E+03
      5.278  0.5301E+02  0.4084E+02  0.4972E+03  0.4959E+03
      5.332  0.3830E+02  0.5569E+02  0.4993E+03  0.4989E+03
      5.387  0.3354E+02  0.3262E+02  0.5012E+03  0.5007E+03
      5.442  0.3997E+02  0.2837E+02  0.5033E+03  0.5023E+03
      5.496  0.2766E+02  0.3920E+02  0.5048E+03  0.5044E+03
      5.551  0.5670E+02  0.5114E+02  0.5079E+03  0.5072E+03
      5.605  0.2973E+02  0.3790E+02  0.5096E+03  0.5093E+03
      5.660  0.7508E+02  0.5530E+02  0.5137E+03  0.5123E+03
      5.715  0.3939E+02  0.6135E+02  0.5158E+03  0.5156E+03
      5.769  0.4782E+02  0.3706E+02  0.5184E+03  0.5177E+03
      5.824  0.4363E+02  0.4843E+02  0.5208E+03  0.5203E+03
      5.878  0.5775E+02  0.5203E+02  0.5240E+03  0.5231E+03
      5.933  0.6158E+02  0.6939E+02  0.5273E+03  0.5269E+03
      5.988  0.5882E+02  0.5170E+02  0.5305E+03  0.5298E+03
      6.042  0.2684E+02  0.3684E+02  0.5320E+03  0.5318E+03
      6.097  0.5262E+02  0.4613E+02  0.5349E+03  0.5343E+03
      6.152  0.5922E+02  0.5618E+02  0.5381E+03  0.5374E+03
      6.206  0.7460E+02  0.7762E+02  0.5422E+03  0.5416E+03
      6.261  0.3473E+02  0.4163E+02  0.5441E+03  0.5439E+03
      6.315  0.1733E+02  0.1721E+02  0.5450E+03  0.5448E+03
      6.370  0.5993E+02  0.5760E+02  0.5483E+03  0.5479E+03
      6.425  0.6616E+02  0.6312E+02  0.5519E+03  0.5514E+03
      6.479  0.5976E+02  0.5760E+02  0.5552E+03  0.5545E+03
      6.534  0.7924E+02  0.8369E+02  0.5595E+03  0.5591E+03
      6.588  0.2291E+02  0.2669E+02  0.5608E+03  0.5606E+03
      6.643  0.4083E+02  0.3460E+02  0.5630E+03  0.5625E+03
      6.698  0.4485E+02  0.4852E+02  0.5654E+03  0.5651E+03
      6.752  0.4174E+02  0.3818E+02  0.5677E+03  0.5672E+03
      6.807  0.4672E+02  0.4799E+02  0.5703E+03  0.5698E+03
      6.861  0.5723E+02  0.6147E+02  0.5734E+03  0.5732E+03
      6.916  0.1575E+02  0.1750E+02  0.5743E+03  0.5741E+03
      6.971  0.4954E+01  0.6883E+01  0.5745E+03  0.5745E+03
      7.025  0.1441E+02  0.1154E+02  0.5753E+03  0.5751E+03
      7.080  0.1267E+02  0.1589E+02  0.5760E+03  0.5760E+03
      7.134  0.0000E+00  0.0000E+00  0.5760E+03  0.5760E+03
      7.189  0.0000E+00  0.0000E+00  0.5760E+03  0.5760E+03
      7.244  0.0000E+00  0.0000E+00  0.5760E+03  0.5760E+03
      7.298  0.0000E+00  0.0000E+00  0.5760E+03  0.5760E+03
      7.353  0.0000E+00  0.0000E+00  0.5760E+03  0.5760E+03
      7.408  0.0000E+00  0.0000E+00  0.5760E+03  0.5760E+03
      7.462  0.0000E+00  0.0000E+00  0.5760E+03  0.5760E+03
      7.517  0.0000E+00  0.0000E+00  0.5760E+03  0.5760E+03
      7.571  0.0000E+00  0.0000E+00  0.5760E+03  0.5760E+03
      7.626  0.0000E+00  0.0000E+00  0.5760E+03  0.5760E+03
      7.681  0.0000E+00  0.0000E+00  0.5760E+03  0.5760E+03
      7.735  0.0000E+00  0.0000E+00  0.5760E+03  0.5760E+03
      7.790  0.0000E+00  0.0000E+00  0.5760E+03  0.5760E+03
