<?xml version="1.0" encoding="ISO-8859-1"?>
<modeling>
 <generator>
  <i name="program" type="string">vasp </i>
  <i name="version" type="string">6.4.3  </i>
  <i name="subversion" type="string">19Mar24 (build Oct 22 2024 11:23:12) complex                          parallel </i>
  <i name="platform" type="string">LinuxIFC </i>
  <i name="date" type="string">2025 06 04 </i>
  <i name="time" type="string">01:04:13 </i>
 </generator>
 <incar>
  <i type="string" name="SYSTEM">Si and Ge interface calculation</i>
  <i type="int" name="ISTART">     0</i>
  <i type="logical" name="ADDGRID"> T  </i>
  <i type="int" name="ISPIN">     2</i>
  <i name="AMIX">      0.60000000</i>
  <i type="int" name="ICHARG">     2</i>
  <i type="int" name="NELM">   100</i>
  <i name="EDIFF">      0.00000010</i>
  <i name="ENCUT">    700.00000000</i>
  <i name="ENAUG">    900.00000000</i>
  <i type="int" name="NBANDS">   116</i>
  <i name="NUPDOWN">      1.00000000</i>
  <i name="NELECT">    192.00000000</i>
  <i type="string" name="LREAL">AUTO</i>
  <i type="int" name="ISMEAR">     0</i>
  <i name="SIGMA">      0.01000000</i>
  <i type="int" name="LMAXMIX">     6</i>
  <i type="logical" name="LWAVE"> F  </i>
  <i type="logical" name="LVTOT"> F  </i>
  <i type="logical" name="LVHAR"> T  </i>
  <i type="logical" name="LASPH"> T  </i>
  <i type="logical" name="LMIXTAU"> T  </i>
 </incar>
 <primitive_cell>
  <structure name="primitive_cell" >
   <crystal>
    <varray name="basis" >
     <v>       9.17711449       0.00000000       0.00000000 </v>
     <v>       0.00000000      19.46760178       0.00000000 </v>
     <v>       0.00000000       0.00000000       7.64760256 </v>
    </varray>
    <i name="volume">   1366.29322030 </i>
    <varray name="rec_basis" >
     <v>       0.10896671       0.00000000       0.00000000 </v>
     <v>       0.00000000       0.05136740       0.00000000 </v>
     <v>       0.00000000       0.00000000       0.13075993 </v>
    </varray>
   </crystal>
   <varray name="positions" >
    <v>       0.69351405       0.52324402       0.10000000 </v>
    <v>       0.94351405       0.91213298       0.00000002 </v>
    <v>       0.80648589       0.10657722       0.89999986 </v>
    <v>       0.55648625       0.71768808       0.99999976 </v>
    <v>       0.44351381       0.71768808       0.49999982 </v>
    <v>       0.19351399       0.10657704       0.39999980 </v>
    <v>       0.44351399       0.49546599       0.29999992 </v>
    <v>       0.44351405       0.91213298       0.00000002 </v>
    <v>       0.80648613       0.96768832       0.99999988 </v>
    <v>       0.80648595       0.52324402       0.59999996 </v>
    <v>       0.69351387       0.96768808       0.49999997 </v>
    <v>       0.69351387       0.10657716       0.39999992 </v>
    <v>       0.19351403       0.52324402       0.09999996 </v>
    <v>       0.44351399       0.27324396       0.10000002 </v>
    <v>       0.55648589       0.91213298       0.49999994 </v>
    <v>       0.05648613       0.71768808       0.99999988 </v>
    <v>       0.94351387       0.71768808       0.49999982 </v>
    <v>       0.94351387       0.35657716       0.39999986 </v>
    <v>       0.94351405       0.27324393       0.09999999 </v>
    <v>       0.69351405       0.66213292       0.00000003 </v>
    <v>       0.05648592       0.91213298       0.49999994 </v>
    <v>       0.80648589       0.66213292       0.49999994 </v>
    <v>       0.44351399       0.35657728       0.39999986 </v>
    <v>       0.44351405       0.13435519       0.19999990 </v>
    <v>       0.94351405       0.13435519       0.19999997 </v>
    <v>       0.30648595       0.52324402       0.59999996 </v>
    <v>       0.55648595       0.13435519       0.69999993 </v>
    <v>       0.80648607       0.74546611       0.79999995 </v>
    <v>       0.05648613       0.35657716       0.89999986 </v>
    <v>       0.94351405       0.13435519       0.19999997 </v>
    <v>       0.69351405       0.74546611       0.29999995 </v>
    <v>       0.05648589       0.27324396       0.60000002 </v>
    <v>       0.30648589       0.88435507       0.69999993 </v>
    <v>       0.55648601       0.49546593       0.79999995 </v>
    <v>       0.44351405       0.13435519       0.19999990 </v>
    <v>       0.94351393       0.49546599       0.29999995 </v>
    <v>       0.94351393       0.49546599       0.29999995 </v>
    <v>       0.55648595       0.27324393       0.59999996 </v>
    <v>       0.80648589       0.88435507       0.69999993 </v>
    <v>       0.05648601       0.49546599       0.79999995 </v>
    <v>       0.30648601       0.10657710       0.89999986 </v>
    <v>       0.19351393       0.74546611       0.29999995 </v>
    <v>       0.19351402       0.88435507       0.19999997 </v>
    <v>       0.44351399       0.49546599       0.29999992 </v>
    <v>       0.05648589       0.13435519       0.69999993 </v>
    <v>       0.30648601       0.74546611       0.79999995 </v>
    <v>       0.55648601       0.35657728       0.89999986 </v>
    <v>       0.69351411       0.88435507       0.19999997 </v>
   </varray>
  </structure>
  <varray name="primitive_index" >
   <v type="int" >        1 </v>
   <v type="int" >        2 </v>
   <v type="int" >        3 </v>
   <v type="int" >        4 </v>
   <v type="int" >        5 </v>
   <v type="int" >        6 </v>
   <v type="int" >        7 </v>
   <v type="int" >        8 </v>
   <v type="int" >        9 </v>
   <v type="int" >       10 </v>
   <v type="int" >       11 </v>
   <v type="int" >       12 </v>
   <v type="int" >       13 </v>
   <v type="int" >       14 </v>
   <v type="int" >       15 </v>
   <v type="int" >       16 </v>
   <v type="int" >       17 </v>
   <v type="int" >       18 </v>
   <v type="int" >       19 </v>
   <v type="int" >       20 </v>
   <v type="int" >       21 </v>
   <v type="int" >       22 </v>
   <v type="int" >       23 </v>
   <v type="int" >       24 </v>
   <v type="int" >       25 </v>
   <v type="int" >       26 </v>
   <v type="int" >       27 </v>
   <v type="int" >       28 </v>
   <v type="int" >       29 </v>
   <v type="int" >       30 </v>
   <v type="int" >       31 </v>
   <v type="int" >       32 </v>
   <v type="int" >       33 </v>
   <v type="int" >       34 </v>
   <v type="int" >       35 </v>
   <v type="int" >       36 </v>
   <v type="int" >       37 </v>
   <v type="int" >       38 </v>
   <v type="int" >       39 </v>
   <v type="int" >       40 </v>
   <v type="int" >       41 </v>
   <v type="int" >       42 </v>
   <v type="int" >       43 </v>
   <v type="int" >       44 </v>
   <v type="int" >       45 </v>
   <v type="int" >       46 </v>
   <v type="int" >       47 </v>
   <v type="int" >       48 </v>
  </varray>
 </primitive_cell>
 <kpoints>
  <generation param="Gamma">
   <v type="int" name="divisions">       3        2        4 </v>
   <v name="usershift">      0.00000000       0.00000000       0.00000000 </v>
   <v name="genvec1">      0.33333333       0.00000000       0.00000000 </v>
   <v name="genvec2">      0.00000000       0.50000000       0.00000000 </v>
   <v name="genvec3">      0.00000000       0.00000000       0.25000000 </v>
   <v name="shift">      0.00000000       0.00000000       0.00000000 </v>
  </generation>
  <varray name="kpointlist" >
   <v>       0.00000000       0.00000000       0.00000000 </v>
   <v>       0.33333333       0.00000000       0.00000000 </v>
   <v>       0.00000000       0.50000000       0.00000000 </v>
   <v>       0.33333333       0.50000000       0.00000000 </v>
   <v>       0.00000000       0.00000000       0.25000000 </v>
   <v>       0.33333333       0.00000000       0.25000000 </v>
   <v>       0.00000000       0.50000000       0.25000000 </v>
   <v>       0.33333333       0.50000000       0.25000000 </v>
   <v>       0.00000000       0.00000000       0.50000000 </v>
   <v>       0.33333333       0.00000000       0.50000000 </v>
   <v>       0.00000000       0.50000000       0.50000000 </v>
   <v>       0.33333333       0.50000000       0.50000000 </v>
  </varray>
  <varray name="weights" >
   <v>       0.04166667 </v>
   <v>       0.08333333 </v>
   <v>       0.04166667 </v>
   <v>       0.08333333 </v>
   <v>       0.08333333 </v>
   <v>       0.16666667 </v>
   <v>       0.08333333 </v>
   <v>       0.16666667 </v>
   <v>       0.04166667 </v>
   <v>       0.08333333 </v>
   <v>       0.04166667 </v>
   <v>       0.08333333 </v>
  </varray>
 </kpoints>
 <parameters>
  <separator name="general" >
   <i type="string" name="SYSTEM">Si and Ge interface calculation</i>
   <i type="logical" name="LCOMPAT"> F  </i>
  </separator>
  <separator name="electronic" >
   <i type="string" name="PREC">normal</i>
   <i name="ENMAX">    700.00000000</i>
   <i name="ENAUG">    900.00000000</i>
   <i name="EDIFF">      0.00000010</i>
   <i type="int" name="IALGO">    38</i>
   <i type="int" name="IWAVPR">    10</i>
   <i type="int" name="NBANDS">   116</i>
   <i type="int" name="NBANDSLOW">    -1</i>
   <i type="int" name="NBANDSHIGH">    -1</i>
   <i name="NELECT">    192.00000000</i>
   <i type="int" name="TURBO">     0</i>
   <i type="int" name="IRESTART">     0</i>
   <i type="int" name="NREBOOT">     0</i>
   <i type="int" name="NMIN">     0</i>
   <i name="EREF">      0.00000000</i>
   <separator name="electronic smearing" >
    <i type="int" name="ISMEAR">     0</i>
    <i name="SIGMA">      0.01000000</i>
    <i name="KSPACING">      0.50000000</i>
    <i type="logical" name="KGAMMA"> T  </i>
    <i type="logical" name="KBLOWUP"> T  </i>
   </separator>
   <separator name="electronic projectors" >
    <i type="logical" name="LREAL"> T  </i>
    <v name="ROPT">     -0.00050000</v>
    <i type="int" name="LMAXPAW">  -100</i>
    <i type="int" name="LMAXMIX">     6</i>
    <i type="logical" name="NLSPLINE"> F  </i>
   </separator>
   <separator name="electronic startup" >
    <i type="int" name="ISTART">     0</i>
    <i type="int" name="ICHARG">     2</i>
    <i type="int" name="INIWAV">     1</i>
   </separator>
   <separator name="electronic spin" >
    <i type="int" name="ISPIN">     2</i>
    <i type="logical" name="LNONCOLLINEAR"> F  </i>
    <v name="MAGMOM">      0.02083333      0.02083333      0.02083333      0.02083333      0.02083333      0.02083333      0.02083333      0.02083333      0.02083333      0.02083333      0.02083333      0.02083333      0.02083333      0.02083333      0.02083333      0.02083333      0.02083333      0.02083333      0.02083333      0.02083333
      0.02083333      0.02083333      0.02083333      0.02083333      0.02083333      0.02083333      0.02083333      0.02083333      0.02083333      0.02083333      0.02083333      0.02083333      0.02083333      0.02083333      0.02083333      0.02083333      0.02083333      0.02083333      0.02083333      0.02083333
      0.02083333      0.02083333      0.02083333      0.02083333      0.02083333      0.02083333      0.02083333      0.02083333</v>
    <i name="NUPDOWN">      1.00000000</i>
    <i type="logical" name="LSORBIT"> F  </i>
    <v name="SAXIS">      0.00000000      0.00000000      1.00000000</v>
    <i type="logical" name="LSPIRAL"> F  </i>
    <v name="QSPIRAL">      0.00000000      0.00000000      0.00000000</v>
    <i type="logical" name="LZEROZ"> F  </i>
   </separator>
   <separator name="electronic exchange-correlation" >
    <i type="logical" name="LASPH"> T  </i>
   </separator>
   <separator name="electronic convergence" >
    <i type="int" name="NELM">   100</i>
    <i type="int" name="NELMDL">    -5</i>
    <i type="int" name="NELMIN">     2</i>
    <i name="ENINI">    700.00000000</i>
    <separator name="electronic convergence detail" >
     <i type="logical" name="LDIAG"> T  </i>
     <i type="logical" name="LSUBROT"> F  </i>
     <i name="WEIMIN">      0.00000000</i>
     <i name="EBREAK">      0.00000000</i>
     <i name="DEPER">      0.30000000</i>
     <i type="int" name="NRMM">     4</i>
     <i name="TIME">      0.40000000</i>
    </separator>
   </separator>
   <separator name="electronic mixer" >
    <i name="AMIX">      0.60000000</i>
    <i name="BMIX">      1.00000000</i>
    <i name="AMIN">      0.10000000</i>
    <i name="AMIX_MAG">      2.40000000</i>
    <i name="BMIX_MAG">      1.00000000</i>
    <separator name="electronic mixer details" >
     <i type="int" name="IMIX">     4</i>
     <i type="logical" name="MIXFIRST"> F  </i>
     <i type="int" name="MAXMIX">   -45</i>
     <i name="WC">    100.00000000</i>
     <i type="int" name="INIMIX">     1</i>
     <i type="int" name="MIXPRE">     1</i>
     <i type="int" name="MREMOVE">     5</i>
    </separator>
   </separator>
   <separator name="electronic dipolcorrection" >
    <i type="logical" name="LDIPOL"> F  </i>
    <i type="logical" name="LMONO"> F  </i>
    <i type="int" name="IDIPOL">     0</i>
    <i name="EPSILON">      1.00000000</i>
    <v name="DIPOL">   -100.00000000   -100.00000000   -100.00000000</v>
    <i name="EFIELD">      0.00000000</i>
    <i type="logical" name="LVACPOTAV"> F  </i>
   </separator>
  </separator>
  <separator name="grids" >
   <i type="int" name="NGX">    60</i>
   <i type="int" name="NGY">   126</i>
   <i type="int" name="NGZ">    50</i>
   <i type="int" name="NGXF">   120</i>
   <i type="int" name="NGYF">   252</i>
   <i type="int" name="NGZF">   100</i>
   <i type="logical" name="ADDGRID"> T  </i>
  </separator>
  <separator name="ionic" >
   <i type="int" name="NSW">     0</i>
   <i type="int" name="IBRION">    -1</i>
   <i type="int" name="MDALGO">     0</i>
   <i type="int" name="ISIF">     2</i>
   <i name="PSTRESS">      0.00000000</i>
   <i name="EDIFFG">      0.00000100</i>
   <i type="int" name="NFREE">     0</i>
   <i name="POTIM">      0.50000000</i>
   <i name="SMASS">     -3.00000000</i>
   <i name="SCALEE">      1.00000000</i>
  </separator>
  <separator name="ionic md" >
   <i name="TEBEG">      0.00010000</i>
   <i name="TEEND">      0.00010000</i>
   <i type="int" name="NBLOCK">     1</i>
   <i type="int" name="KBLOCK">     1</i>
   <i type="int" name="NPACO">   256</i>
   <i name="APACO">     10.00000000</i>
  </separator>
  <separator name="symmetry" >
   <i type="int" name="ISYM">     2</i>
   <i name="SYMPREC">      0.00001000</i>
  </separator>
  <separator name="dos" >
   <i type="int" name="LORBIT">     0</i>
   <v name="RWIGS">     -1.00000000</v>
   <i type="int" name="NEDOS">   301</i>
   <i name="EMIN">     10.00000000</i>
   <i name="EMAX">    -10.00000000</i>
   <i name="EFERMI">      0.00000000</i>
  </separator>
  <separator name="writing" >
   <i type="int" name="NWRITE">     2</i>
   <i type="logical" name="LWAVE"> F  </i>
   <i type="logical" name="LDOWNSAMPLE"> F  </i>
   <i type="logical" name="LCHARG"> T  </i>
   <i type="logical" name="LPARD"> F  </i>
   <i type="logical" name="LVTOT"> F  </i>
   <i type="logical" name="LVHAR"> T  </i>
   <i type="logical" name="LELF"> F  </i>
   <i type="logical" name="LOPTICS"> F  </i>
   <v name="STM">      0.00000000      0.00000000      0.00000000      0.00000000      0.00000000      0.00000000      0.00000000</v>
  </separator>
  <separator name="performance" >
   <i type="int" name="NPAR">     4</i>
   <i type="int" name="NSIM">     4</i>
   <i type="int" name="NBLK">    -1</i>
   <i type="logical" name="LPLANE"> T  </i>
   <i type="logical" name="LSCALAPACK"> T  </i>
   <i type="logical" name="LSCAAWARE"> F  </i>
   <i type="logical" name="LSCALU"> F  </i>
   <i type="logical" name="LASYNC"> F  </i>
   <i type="logical" name="LORBITALREAL"> F  </i>
  </separator>
  <separator name="miscellaneous" >
   <i type="int" name="IDIOT">     3</i>
   <i type="int" name="PHON_NSTRUCT">    -1</i>
   <i type="logical" name="LMUSIC"> F  </i>
   <v name="POMASS">    118.71000000</v>
   <v name="DARWINR">      0.00000000</v>
   <v name="DARWINV">      1.00000000</v>
   <i type="logical" name="LCORR"> T  </i>
  </separator>
  <i type="logical" name="GGA_COMPAT"> T  </i>
  <i type="logical" name="LBERRY"> F  </i>
  <i type="int" name="ICORELEVEL">     0</i>
  <i type="logical" name="LDAU"> F  </i>
  <i type="int" name="I_CONSTRAINED_M">     0</i>
  <separator name="electronic exchange-correlation" >
   <i type="string" name="GGA    ">PE</i>
   <i type="string" name="XC_C">1</i>
   <i type="int" name="VOSKOWN">     0</i>
   <i type="logical" name="LHFCALC"> F  </i>
   <i type="string" name="PRECFOCK"></i>
   <i type="logical" name="LSYMGRAD"> F  </i>
   <i type="logical" name="LHFONE"> F  </i>
   <i type="logical" name="LRHFCALC"> F  </i>
   <i type="logical" name="LTHOMAS"> F  </i>
   <i type="logical" name="LMODELHF"> F  </i>
   <i type="logical" name="LFOCKACE"> F  </i>
   <i name="ENCUT4O">     -1.00000000</i>
   <i type="int" name="EXXOEP">     0</i>
   <i type="int" name="FOURORBIT">     0</i>
   <i name="AEXX">      0.00000000</i>
   <i name="HFALPHA">      0.00000000</i>
   <i name="MCALPHA">      0.00000000</i>
   <i name="ALDAX">      1.00000000</i>
   <i name="AGGAX">      1.00000000</i>
   <i name="AMGGAX">      1.00000000</i>
   <i name="ALDAC">      1.00000000</i>
   <i name="AGGAC">      1.00000000</i>
   <i name="AMGGAC">      1.00000000</i>
   <i type="int" name="NKREDX">     1</i>
   <i type="int" name="NKREDY">     1</i>
   <i type="int" name="NKREDZ">     1</i>
   <i type="logical" name="SHIFTRED"> F  </i>
   <i type="logical" name="ODDONLY"> F  </i>
   <i type="logical" name="EVENONLY"> F  </i>
   <i type="int" name="LMAXFOCK">     0</i>
   <i type="int" name="NMAXFOCKAE">     0</i>
   <i type="logical" name="LFOCKAEDFT"> F  </i>
   <i name="HFSCREEN">      0.00000000</i>
   <i name="HFSCREENC">      0.00000000</i>
   <i type="int" name="NBANDSGWLOW">     0</i>
  </separator>
  <separator name="vdW DFT" >
   <i type="logical" name="LUSE_VDW"> F  </i>
   <i type="int" name="IVDW_NL">    -1</i>
   <i type="logical" name="LSPIN_VDW"> F  </i>
   <i name="ZAB_VDW">     -0.84910000</i>
   <i name="GAMMA_VDW">      1.39626340</i>
   <i name="ALPHA_VDW">      0.00000000</i>
   <i name="PARAM1">      0.12340000</i>
   <i name="PARAM2">      1.00000000</i>
   <i name="BPARAM">      6.30000000</i>
   <i name="CPARAM">      0.00930000</i>
  </separator>
  <separator name="model GW" >
   <i type="int" name="MODEL_GW">     0</i>
   <i name="MODEL_EPS0">     17.07866525</i>
   <i name="MODEL_ALPHA">      1.00000000</i>
  </separator>
  <separator name="linear response parameters" >
   <i type="logical" name="LEPSILON"> F  </i>
   <i type="logical" name="LRPA"> F  </i>
   <i type="logical" name="LNABLA"> F  </i>
   <i type="logical" name="LVEL"> F  </i>
   <i name="CSHIFT">      0.10000000</i>
   <i name="OMEGAMAX">     -1.00000000</i>
   <i name="DEG_THRESHOLD">      0.00200000</i>
   <i name="RTIME">     -0.10000000</i>
   <i name="WPLASMAI">      0.00000000</i>
   <v name="DFIELD">      0.00000000      0.00000000      0.00000000</v>
   <v name="WPLASMA">      0.00000000      0.00000000      0.00000000      0.00000000      0.00000000      0.00000000      0.00000000      0.00000000      0.00000000</v>
  </separator>
  <separator name="orbital magnetization" >
   <i type="logical" name="NUCIND"> F  </i>
   <v name="MAGPOS">      0.00000000      0.00000000      0.00000000</v>
   <i type="logical" name="LNICSALL"> T  </i>
   <i type="logical" name="ORBITALMAG"> F  </i>
   <i type="logical" name="LMAGBLOCH"> F  </i>
   <i type="logical" name="LCHIMAG"> F  </i>
   <i type="logical" name="LGAUGE"> T  </i>
   <i type="int" name="MAGATOM">     0</i>
   <v name="MAGDIPOL">      0.00000000      0.00000000      0.00000000</v>
   <v name="AVECCONST">      0.00000000      0.00000000      0.00000000</v>
  </separator>
  <separator name="response functions" >
   <i type="logical" name="LALL_IN_ONE"> F  </i>
   <i type="int" name="IALL_IN_ONE">    -1</i>
   <i type="int" name="NBANDS_WAVE">    -1</i>
   <i type="logical" name="LFINITE_TEMPERATURE"> F  </i>
   <i type="logical" name="LADDER"> F  </i>
   <i type="logical" name="LRPAFORCE"> F  </i>
   <i type="logical" name="LFXC"> F  </i>
   <i type="logical" name="LHARTREE"> T  </i>
   <i type="int" name="IBSE">     0</i>
   <v type="int" name="KPOINT">    -1     0     0     0</v>
   <i type="logical" name="LTCTC"> F  </i>
   <i type="logical" name="LTCTE"> F  </i>
   <i type="logical" name="LTETE"> F  </i>
   <i type="logical" name="LTRIPLET"> F  </i>
   <i type="logical" name="LFXCEPS"> F  </i>
   <i type="logical" name="LFXHEG"> F  </i>
   <i type="int" name="NATURALO">     2</i>
   <i type="logical" name="LHOLEGF"> F  </i>
   <i type="logical" name="L2ORDER"> F  </i>
   <i type="logical" name="LDMP1"> F  </i>
   <i type="logical" name="LMP2LT"> F  </i>
   <i type="logical" name="LSMP2LT"> F  </i>
   <i type="logical" name="LGWLF"> F  </i>
   <i name="ENCUTGW">     -1.60000002</i>
   <i name="ENCUTGWSOFT">     -1.60000002</i>
   <i name="ENCUTLF">     -1.00000000</i>
   <i type="logical" name="ESF_SPLINES"> F  </i>
   <i name="ESF_CONV">      0.01000000</i>
   <i type="int" name="ESF_NINTER">    15</i>
   <i type="int" name="LMAXMP2">    -1</i>
   <i name="SCISSOR">      0.00000000</i>
   <i type="int" name="NOMEGA">     0</i>
   <i type="int" name="NOMEGAR">     0</i>
   <i type="int" name="NBANDSGW">    -1</i>
   <i type="int" name="NBANDSO">    -1</i>
   <i type="int" name="NBANDSV">    -1</i>
   <i type="int" name="NELMGW">     1</i>
   <i type="int" name="NELMHF">     1</i>
   <i type="int" name="DIM">     3</i>
   <i type="int" name="IESPILON">     4</i>
   <i type="int" name="ANTIRES">     0</i>
   <i name="OMEGAMAX">    -30.00000000</i>
   <i name="OMEGAMIN">    -30.00000000</i>
   <i name="OMEGATL">   -200.00000000</i>
   <i type="int" name="OMEGAGRID">     0</i>
   <i name="CSHIFT">     -0.10000000</i>
   <i type="logical" name="LSELFENERGY"> F  </i>
   <i type="logical" name="LSPECTRAL"> F  </i>
   <i type="logical" name="LSPECTRALGW"> F  </i>
   <i type="logical" name="LSINGLES"> F  </i>
   <i type="logical" name="LFERMIGW"> F  </i>
   <i type="logical" name="ODDONLYGW"> F  </i>
   <i type="logical" name="EVENONLYGW"> F  </i>
   <i type="int" name="NKREDLFX">     1</i>
   <i type="int" name="NKREDLFY">     1</i>
   <i type="int" name="NKREDLFZ">     1</i>
   <i type="int" name="MAXMEM">  2800</i>
   <i type="int" name="TELESCOPE">     0</i>
   <i type="int" name="NTAUPAR">    -1</i>
   <i type="int" name="NOMEGAPAR">    -1</i>
   <i name="DAMP_NEWTON">      0.80000001</i>
   <i name="LAMBDA">      1.00000000</i>
  </separator>
  <separator name="External order field" >
   <i name="OFIELD_KAPPA">      0.00000000</i>
   <v name="OFIELD_K">      0.00000000      0.00000000      0.00000000</v>
   <i name="OFIELD_Q6_NEAR">      0.00000000</i>
   <i name="OFIELD_Q6_FAR">      0.00000000</i>
   <i name="OFIELD_A">      0.00000000</i>
  </separator>
  <separator name="optional k-points parameters" >
   <i type="int" name="KPOINTS_OPT_MODE">     1</i>
   <i type="logical" name="LKPOINTS_OPT"> F  </i>
  </separator>
 </parameters>
 <atominfo>
  <atoms>      48 </atoms>
  <types>       1 </types>
  <array name="atoms" >
   <dimension dim="1">ion</dimension>
   <field type="string">element</field>
   <field type="int">atomtype</field>
   <set>
    <rc><c>Sn</c><c>   1</c></rc>
    <rc><c>Sn</c><c>   1</c></rc>
    <rc><c>Sn</c><c>   1</c></rc>
    <rc><c>Sn</c><c>   1</c></rc>
    <rc><c>Sn</c><c>   1</c></rc>
    <rc><c>Sn</c><c>   1</c></rc>
    <rc><c>Sn</c><c>   1</c></rc>
    <rc><c>Sn</c><c>   1</c></rc>
    <rc><c>Sn</c><c>   1</c></rc>
    <rc><c>Sn</c><c>   1</c></rc>
    <rc><c>Sn</c><c>   1</c></rc>
    <rc><c>Sn</c><c>   1</c></rc>
    <rc><c>Sn</c><c>   1</c></rc>
    <rc><c>Sn</c><c>   1</c></rc>
    <rc><c>Sn</c><c>   1</c></rc>
    <rc><c>Sn</c><c>   1</c></rc>
    <rc><c>Sn</c><c>   1</c></rc>
    <rc><c>Sn</c><c>   1</c></rc>
    <rc><c>Sn</c><c>   1</c></rc>
    <rc><c>Sn</c><c>   1</c></rc>
    <rc><c>Sn</c><c>   1</c></rc>
    <rc><c>Sn</c><c>   1</c></rc>
    <rc><c>Sn</c><c>   1</c></rc>
    <rc><c>Sn</c><c>   1</c></rc>
    <rc><c>Sn</c><c>   1</c></rc>
    <rc><c>Sn</c><c>   1</c></rc>
    <rc><c>Sn</c><c>   1</c></rc>
    <rc><c>Sn</c><c>   1</c></rc>
    <rc><c>Sn</c><c>   1</c></rc>
    <rc><c>Sn</c><c>   1</c></rc>
    <rc><c>Sn</c><c>   1</c></rc>
    <rc><c>Sn</c><c>   1</c></rc>
    <rc><c>Sn</c><c>   1</c></rc>
    <rc><c>Sn</c><c>   1</c></rc>
    <rc><c>Sn</c><c>   1</c></rc>
    <rc><c>Sn</c><c>   1</c></rc>
    <rc><c>Sn</c><c>   1</c></rc>
    <rc><c>Sn</c><c>   1</c></rc>
    <rc><c>Sn</c><c>   1</c></rc>
    <rc><c>Sn</c><c>   1</c></rc>
    <rc><c>Sn</c><c>   1</c></rc>
    <rc><c>Sn</c><c>   1</c></rc>
    <rc><c>Sn</c><c>   1</c></rc>
    <rc><c>Sn</c><c>   1</c></rc>
    <rc><c>Sn</c><c>   1</c></rc>
    <rc><c>Sn</c><c>   1</c></rc>
    <rc><c>Sn</c><c>   1</c></rc>
    <rc><c>Sn</c><c>   1</c></rc>
   </set>
  </array>
  <array name="atomtypes" >
   <dimension dim="1">type</dimension>
   <field type="int">atomspertype</field>
   <field type="string">element</field>
   <field>mass</field>
   <field>valence</field>
   <field type="string">pseudopotential</field>
   <set>
    <rc><c>  48</c><c>Sn</c><c>    118.71000000</c><c>      4.00000000</c><c>  PAW_PBE Sn 08Apr2002                  </c></rc>
   </set>
  </array>
 </atominfo>
 <structure name="initialpos" >
  <crystal>
   <varray name="basis" >
    <v>       9.17711449       0.00000000       0.00000000 </v>
    <v>       0.00000000      19.46760178       0.00000000 </v>
    <v>       0.00000000       0.00000000       7.64760256 </v>
   </varray>
   <i name="volume">   1366.29322030 </i>
   <varray name="rec_basis" >
    <v>       0.10896671       0.00000000       0.00000000 </v>
    <v>       0.00000000       0.05136740       0.00000000 </v>
    <v>       0.00000000       0.00000000       0.13075993 </v>
   </varray>
  </crystal>
  <varray name="positions" >
   <v>       0.69351405       0.52324402       0.10000000 </v>
   <v>       0.94351405       0.91213298       0.00000002 </v>
   <v>       0.80648589       0.10657722       0.89999986 </v>
   <v>       0.55648625       0.71768808       0.99999976 </v>
   <v>       0.44351381       0.71768808       0.49999982 </v>
   <v>       0.19351399       0.10657704       0.39999980 </v>
   <v>       0.44351399       0.49546599       0.29999992 </v>
   <v>       0.44351405       0.91213298       0.00000002 </v>
   <v>       0.80648613       0.96768832       0.99999988 </v>
   <v>       0.80648595       0.52324402       0.59999996 </v>
   <v>       0.69351387       0.96768808       0.49999997 </v>
   <v>       0.69351387       0.10657716       0.39999992 </v>
   <v>       0.19351403       0.52324402       0.09999996 </v>
   <v>       0.44351399       0.27324396       0.10000002 </v>
   <v>       0.55648589       0.91213298       0.49999994 </v>
   <v>       0.05648613       0.71768808       0.99999988 </v>
   <v>       0.94351387       0.71768808       0.49999982 </v>
   <v>       0.94351387       0.35657716       0.39999986 </v>
   <v>       0.94351405       0.27324393       0.09999999 </v>
   <v>       0.69351405       0.66213292       0.00000003 </v>
   <v>       0.05648592       0.91213298       0.49999994 </v>
   <v>       0.80648589       0.66213292       0.49999994 </v>
   <v>       0.44351399       0.35657728       0.39999986 </v>
   <v>       0.44351405       0.13435519       0.19999990 </v>
   <v>       0.94351405       0.13435519       0.19999997 </v>
   <v>       0.30648595       0.52324402       0.59999996 </v>
   <v>       0.55648595       0.13435519       0.69999993 </v>
   <v>       0.80648607       0.74546611       0.79999995 </v>
   <v>       0.05648613       0.35657716       0.89999986 </v>
   <v>       0.94351405       0.13435519       0.19999997 </v>
   <v>       0.69351405       0.74546611       0.29999995 </v>
   <v>       0.05648589       0.27324396       0.60000002 </v>
   <v>       0.30648589       0.88435507       0.69999993 </v>
   <v>       0.55648601       0.49546593       0.79999995 </v>
   <v>       0.44351405       0.13435519       0.19999990 </v>
   <v>       0.94351393       0.49546599       0.29999995 </v>
   <v>       0.94351393       0.49546599       0.29999995 </v>
   <v>       0.55648595       0.27324393       0.59999996 </v>
   <v>       0.80648589       0.88435507       0.69999993 </v>
   <v>       0.05648601       0.49546599       0.79999995 </v>
   <v>       0.30648601       0.10657710       0.89999986 </v>
   <v>       0.19351393       0.74546611       0.29999995 </v>
   <v>       0.19351402       0.88435507       0.19999997 </v>
   <v>       0.44351399       0.49546599       0.29999992 </v>
   <v>       0.05648589       0.13435519       0.69999993 </v>
   <v>       0.30648601       0.74546611       0.79999995 </v>
   <v>       0.55648601       0.35657728       0.89999986 </v>
   <v>       0.69351411       0.88435507       0.19999997 </v>
  </varray>
 </structure>
 <calculation>
  <scstep>
   <time name="dav">    6.68    6.74</time>
   <time name="total">    7.51    7.58</time>
   <energy>
    <i name="alphaZ">    210.94456856 </i>
    <i name="ewald">  -4889.73546278 </i>
    <i name="hartreedc">   -537.87476283 </i>
    <i name="XCdc">  -5901.33417517 </i>
    <i name="pawpsdc">   9091.93393999 </i>
    <i name="pawaedc">  -3146.95201293 </i>
    <i name="eentropy">     -0.00064068 </i>
    <i name="bandstr">   1235.02421472 </i>
    <i name="atom">   4516.12718286 </i>
    <i name="e_fr_energy">    578.13285174 </i>
    <i name="e_wo_entrp">    578.13349243 </i>
    <i name="e_0_energy">    578.13317209 </i>
   </energy>
  </scstep>
  <scstep>
   <time name="dav">    7.53    7.59</time>
   <time name="total">    7.53    7.59</time>
   <energy>
    <i name="e_fr_energy">   -450.62280689 </i>
    <i name="e_wo_entrp">   -450.62075263 </i>
    <i name="e_0_energy">   -450.62177976 </i>
   </energy>
  </scstep>
  <scstep>
   <time name="dav">    8.65    8.72</time>
   <time name="total">    8.66    8.73</time>
   <energy>
    <i name="e_fr_energy">   -580.42523206 </i>
    <i name="e_wo_entrp">   -580.42415850 </i>
    <i name="e_0_energy">   -580.42469528 </i>
   </energy>
  </scstep>
  <scstep>
   <time name="dav">    8.07    8.14</time>
   <time name="total">    8.07    8.14</time>
   <energy>
    <i name="e_fr_energy">   -588.00356073 </i>
    <i name="e_wo_entrp">   -588.00198485 </i>
    <i name="e_0_energy">   -588.00277279 </i>
   </energy>
  </scstep>
  <scstep>
   <time name="dav">    9.74    9.82</time>
   <time name="total">   10.31   10.39</time>
   <energy>
    <i name="e_fr_energy">   -588.59730112 </i>
    <i name="e_wo_entrp">   -588.59585351 </i>
    <i name="e_0_energy">   -588.59657731 </i>
   </energy>
  </scstep>
  <scstep>
   <time name="dav">    9.45    9.52</time>
   <time name="total">   10.81   10.90</time>
   <energy>
    <i name="e_fr_energy">   -611.84093314 </i>
    <i name="e_wo_entrp">   -611.83947540 </i>
    <i name="e_0_energy">   -611.84020427 </i>
   </energy>
  </scstep>
  <scstep>
   <time name="dav">    9.79    9.88</time>
   <time name="total">   11.18   11.28</time>
   <energy>
    <i name="e_fr_energy">   -544.80451728 </i>
    <i name="e_wo_entrp">   -544.80250014 </i>
    <i name="e_0_energy">   -544.80350871 </i>
   </energy>
  </scstep>
  <scstep>
   <time name="dav">    8.79    8.86</time>
   <time name="total">   10.17   10.25</time>
   <energy>
    <i name="e_fr_energy">   -562.30697881 </i>
    <i name="e_wo_entrp">   -562.30502701 </i>
    <i name="e_0_energy">   -562.30600291 </i>
   </energy>
  </scstep>
  <scstep>
   <time name="dav">    9.24    9.31</time>
   <time name="total">   10.61   10.70</time>
   <energy>
    <i name="e_fr_energy">   -545.28511297 </i>
    <i name="e_wo_entrp">   -545.28308751 </i>
    <i name="e_0_energy">   -545.28410024 </i>
   </energy>
  </scstep>
  <scstep>
   <time name="dav">    9.57    9.66</time>
   <time name="total">   10.94   11.03</time>
   <energy>
    <i name="e_fr_energy">   -544.40518963 </i>
    <i name="e_wo_entrp">   -544.40233004 </i>
    <i name="e_0_energy">   -544.40375983 </i>
   </energy>
  </scstep>
  <scstep>
   <time name="dav">    8.74    8.81</time>
   <time name="total">   10.11   10.19</time>
   <energy>
    <i name="e_fr_energy">   -544.25159471 </i>
    <i name="e_wo_entrp">   -544.24932256 </i>
    <i name="e_0_energy">   -544.25045864 </i>
   </energy>
  </scstep>
  <scstep>
   <time name="dav">    8.56    8.63</time>
   <time name="total">    9.93   10.01</time>
   <energy>
    <i name="e_fr_energy">   -544.58957140 </i>
    <i name="e_wo_entrp">   -544.58649602 </i>
    <i name="e_0_energy">   -544.58803371 </i>
   </energy>
  </scstep>
  <scstep>
   <time name="dav">    8.12    8.19</time>
   <time name="total">    9.49    9.57</time>
   <energy>
    <i name="e_fr_energy">   -544.14482907 </i>
    <i name="e_wo_entrp">   -544.14282330 </i>
    <i name="e_0_energy">   -544.14382618 </i>
   </energy>
  </scstep>
  <scstep>
   <time name="dav">    9.76    9.84</time>
   <time name="total">   11.14   11.22</time>
   <energy>
    <i name="e_fr_energy">   -544.17974160 </i>
    <i name="e_wo_entrp">   -544.17746920 </i>
    <i name="e_0_energy">   -544.17860540 </i>
   </energy>
  </scstep>
  <scstep>
   <time name="dav">    8.79    8.87</time>
   <time name="total">   10.17   10.25</time>
   <energy>
    <i name="e_fr_energy">   -544.17079258 </i>
    <i name="e_wo_entrp">   -544.16845464 </i>
    <i name="e_0_energy">   -544.16962361 </i>
   </energy>
  </scstep>
  <scstep>
   <time name="dav">   10.16   10.24</time>
   <time name="total">   11.55   11.64</time>
   <energy>
    <i name="e_fr_energy">   -544.16986355 </i>
    <i name="e_wo_entrp">   -544.16756179 </i>
    <i name="e_0_energy">   -544.16871267 </i>
   </energy>
  </scstep>
  <scstep>
   <time name="dav">    8.12    8.19</time>
   <time name="total">    9.50    9.57</time>
   <energy>
    <i name="e_fr_energy">   -544.16992891 </i>
    <i name="e_wo_entrp">   -544.16762278 </i>
    <i name="e_0_energy">   -544.16877585 </i>
   </energy>
  </scstep>
  <scstep>
   <time name="dav">    9.57    9.65</time>
   <time name="total">   10.94   11.03</time>
   <energy>
    <i name="e_fr_energy">   -544.16990459 </i>
    <i name="e_wo_entrp">   -544.16758556 </i>
    <i name="e_0_energy">   -544.16874507 </i>
   </energy>
  </scstep>
  <scstep>
   <time name="dav">    8.95    9.02</time>
   <time name="total">   10.32   10.41</time>
   <energy>
    <i name="e_fr_energy">   -544.16989375 </i>
    <i name="e_wo_entrp">   -544.16756798 </i>
    <i name="e_0_energy">   -544.16873087 </i>
   </energy>
  </scstep>
  <scstep>
   <time name="dav">    9.26    9.33</time>
   <time name="total">   10.63   10.71</time>
   <energy>
    <i name="e_fr_energy">   -544.16989600 </i>
    <i name="e_wo_entrp">   -544.16757211 </i>
    <i name="e_0_energy">   -544.16873406 </i>
   </energy>
  </scstep>
  <scstep>
   <time name="dav">    9.13    9.21</time>
   <time name="total">   10.50   10.60</time>
   <energy>
    <i name="e_fr_energy">   -544.16989669 </i>
    <i name="e_wo_entrp">   -544.16757395 </i>
    <i name="e_0_energy">   -544.16873532 </i>
   </energy>
  </scstep>
  <scstep>
   <time name="dav">    8.11    8.17</time>
   <time name="total">    9.48    9.55</time>
   <energy>
    <i name="e_fr_energy">   -544.16989668 </i>
    <i name="e_wo_entrp">   -544.16757382 </i>
    <i name="e_0_energy">   -544.16873525 </i>
   </energy>
  </scstep>
  <scstep>
   <time name="dav">    5.61    5.65</time>
   <time name="total">    6.99    7.04</time>
   <energy>
    <i name="e_fr_energy">   -544.16989650 </i>
    <i name="e_wo_entrp">   -544.16757367 </i>
    <i name="e_0_energy">   -544.16873509 </i>
   </energy>
  </scstep>
  <scstep>
   <time name="dav">    5.34    5.39</time>
   <time name="total">    6.15    6.20</time>
   <energy>
    <i name="alphaZ">    210.94456856 </i>
    <i name="ewald">  -4889.73546278 </i>
    <i name="hartreedc">   -500.13502990 </i>
    <i name="XCdc">  -5882.20670914 </i>
    <i name="pawpsdc">  41195.54517382 </i>
    <i name="pawaedc"> -35308.50436307 </i>
    <i name="eentropy">     -0.00232260 </i>
    <i name="bandstr">    113.79706572 </i>
    <i name="atom">   4516.12718286 </i>
    <i name="e_fr_energy">   -544.16989653 </i>
    <i name="e_wo_entrp">   -544.16757393 </i>
    <i name="e_0_energy">   -544.16873523 </i>
   </energy>
  </scstep>
  <structure>
   <crystal>
    <varray name="basis" >
     <v>       9.17711449       0.00000000       0.00000000 </v>
     <v>       0.00000000      19.46760178       0.00000000 </v>
     <v>       0.00000000       0.00000000       7.64760256 </v>
    </varray>
    <i name="volume">   1366.29322030 </i>
    <varray name="rec_basis" >
     <v>       0.10896671       0.00000000       0.00000000 </v>
     <v>       0.00000000       0.05136740       0.00000000 </v>
     <v>       0.00000000       0.00000000       0.13075993 </v>
    </varray>
   </crystal>
   <varray name="positions" >
    <v>       0.69351405       0.52324402       0.10000000 </v>
    <v>       0.94351405       0.91213298       0.00000002 </v>
    <v>       0.80648589       0.10657722       0.89999986 </v>
    <v>       0.55648625       0.71768808       0.99999976 </v>
    <v>       0.44351381       0.71768808       0.49999982 </v>
    <v>       0.19351399       0.10657704       0.39999980 </v>
    <v>       0.44351399       0.49546599       0.29999992 </v>
    <v>       0.44351405       0.91213298       0.00000002 </v>
    <v>       0.80648613       0.96768832       0.99999988 </v>
    <v>       0.80648595       0.52324402       0.59999996 </v>
    <v>       0.69351387       0.96768808       0.49999997 </v>
    <v>       0.69351387       0.10657716       0.39999992 </v>
    <v>       0.19351403       0.52324402       0.09999996 </v>
    <v>       0.44351399       0.27324396       0.10000002 </v>
    <v>       0.55648589       0.91213298       0.49999994 </v>
    <v>       0.05648613       0.71768808       0.99999988 </v>
    <v>       0.94351387       0.71768808       0.49999982 </v>
    <v>       0.94351387       0.35657716       0.39999986 </v>
    <v>       0.94351405       0.27324393       0.09999999 </v>
    <v>       0.69351405       0.66213292       0.00000003 </v>
    <v>       0.05648592       0.91213298       0.49999994 </v>
    <v>       0.80648589       0.66213292       0.49999994 </v>
    <v>       0.44351399       0.35657728       0.39999986 </v>
    <v>       0.44351405       0.13435519       0.19999990 </v>
    <v>       0.94351405       0.13435519       0.19999997 </v>
    <v>       0.30648595       0.52324402       0.59999996 </v>
    <v>       0.55648595       0.13435519       0.69999993 </v>
    <v>       0.80648607       0.74546611       0.79999995 </v>
    <v>       0.05648613       0.35657716       0.89999986 </v>
    <v>       0.94351405       0.13435519       0.19999997 </v>
    <v>       0.69351405       0.74546611       0.29999995 </v>
    <v>       0.05648589       0.27324396       0.60000002 </v>
    <v>       0.30648589       0.88435507       0.69999993 </v>
    <v>       0.55648601       0.49546593       0.79999995 </v>
    <v>       0.44351405       0.13435519       0.19999990 </v>
    <v>       0.94351393       0.49546599       0.29999995 </v>
    <v>       0.94351393       0.49546599       0.29999995 </v>
    <v>       0.55648595       0.27324393       0.59999996 </v>
    <v>       0.80648589       0.88435507       0.69999993 </v>
    <v>       0.05648601       0.49546599       0.79999995 </v>
    <v>       0.30648601       0.10657710       0.89999986 </v>
    <v>       0.19351393       0.74546611       0.29999995 </v>
    <v>       0.19351402       0.88435507       0.19999997 </v>
    <v>       0.44351399       0.49546599       0.29999992 </v>
    <v>       0.05648589       0.13435519       0.69999993 </v>
    <v>       0.30648601       0.74546611       0.79999995 </v>
    <v>       0.55648601       0.35657728       0.89999986 </v>
    <v>       0.69351411       0.88435507       0.19999997 </v>
   </varray>
  </structure>
  <varray name="forces" >
   <v>       1.25268545       0.65015242      -0.80662110 </v>
   <v>      56.07065174     -45.28460549       0.99550689 </v>
   <v>      -3.03811727      -0.45092513      -4.00113580 </v>
   <v>     -56.19623824      45.12201282      -1.01116669 </v>
   <v>       0.30622490      -1.01734241      -0.76773526 </v>
   <v>       0.96737112      -1.54638069       0.89147084 </v>
   <v>       0.94376090       0.11719192      -0.96061890 </v>
   <v>       0.30622490       1.01734241       0.76773526 </v>
   <v>     -51.14141550      49.91708047      -1.79261852 </v>
   <v>      -3.03811727       0.45092513       4.00113580 </v>
   <v>      51.40339318      49.30227567      -1.78760448 </v>
   <v>       1.25268545      -0.65015242       0.80662110 </v>
   <v>       0.96737112       1.54638069      -0.89147084 </v>
   <v>      -1.52240050      -0.48863080       1.13413252 </v>
   <v>     -56.19623824     -45.12201282       1.01116669 </v>
   <v>      -0.33116888      -0.81144175      -0.62619531 </v>
   <v>      56.07065174      45.28460549      -0.99550689 </v>
   <v>      -1.57023027       0.62766440      -1.06065112 </v>
   <v>      -1.57023027      -0.62766440       1.06065112 </v>
   <v>      51.40339318     -49.30227567       1.78760448 </v>
   <v>      -0.33116888       0.81144175       0.62619531 </v>
   <v>     -51.14141550     -49.91708047       1.79261852 </v>
   <v>      -1.52240050       0.48863080      -1.13413252 </v>
   <v>       0.94376090      -0.11719192       0.96061890 </v>
   <v>       1.22817425       0.22083414       1.13543620 </v>
   <v>      -2.59866532       1.52340305       3.44657646 </v>
   <v>      -0.73359719       0.26692495       0.96827062 </v>
   <v>       1.71201994       4.16740093      -1.01394658 </v>
   <v>       1.64770786       1.82673331      -1.71376913 </v>
   <v>       1.22817425       0.22083414       1.13543620 </v>
   <v>      -1.58912161       4.00317277      -0.88609414 </v>
   <v>       1.64770786      -1.82673331       1.71376913 </v>
   <v>      -0.79642410      -0.14137685      -0.99329490 </v>
   <v>      -0.73359719      -0.26692495      -0.96827062 </v>
   <v>       0.94376090      -0.11719192       0.96061890 </v>
   <v>       1.22817425      -0.22083414      -1.13543620 </v>
   <v>       1.22817425      -0.22083414      -1.13543620 </v>
   <v>       1.63353350      -1.82772335       1.72671231 </v>
   <v>       1.71201994      -4.16740093       1.01394658 </v>
   <v>      -0.50926025       0.05295365      -0.79401838 </v>
   <v>      -2.59866532      -1.52340305      -3.44657646 </v>
   <v>       0.68918111       0.11567972       0.95480404 </v>
   <v>       0.68918111      -0.11567972      -0.95480404 </v>
   <v>       0.94376090       0.11719192      -0.96061890 </v>
   <v>      -0.50926025      -0.05295365       0.79401838 </v>
   <v>      -0.79642410       0.14137685       0.99329490 </v>
   <v>       1.63353350       1.82772335      -1.72671231 </v>
   <v>      -1.58912161      -4.00317277       0.88609414 </v>
  </varray>
  <varray name="stress" >
   <v>     442.42092221       0.00000000       0.00000000 </v>
   <v>       0.00000000     350.01007256     -29.20001270 </v>
   <v>       0.00000000     -29.19997872     216.16858419 </v>
  </varray>
  <energy>
   <i name="e_fr_energy">   -544.16989653 </i>
   <i name="e_wo_entrp">   -544.16757393 </i>
   <i name="e_0_energy">   -544.16873523 </i>
  </energy>
  <time name="totalsc">  251.31  253.65</time>
  <eigenvalues>
   <array>
    <dimension dim="1">band</dimension>
    <dimension dim="2">kpoint</dimension>
    <dimension dim="3">spin</dimension>
    <field>eigene</field>
    <field>occ</field>
    <set>
     <set comment="spin 1">
      <set comment="kpoint 1">
       <r>   -7.7503    1.0000 </r>
       <r>   -7.2643    1.0000 </r>
       <r>   -5.8207    1.0000 </r>
       <r>   -5.7027    1.0000 </r>
       <r>   -5.1769    1.0000 </r>
       <r>   -4.9006    1.0000 </r>
       <r>   -4.8585    1.0000 </r>
       <r>   -4.7718    1.0000 </r>
       <r>   -4.6503    1.0000 </r>
       <r>   -4.3741    1.0000 </r>
       <r>   -4.1658    1.0000 </r>
       <r>   -3.9841    1.0000 </r>
       <r>   -3.9429    1.0000 </r>
       <r>   -3.6570    1.0000 </r>
       <r>   -3.5434    1.0000 </r>
       <r>   -3.4444    1.0000 </r>
       <r>   -3.2757    1.0000 </r>
       <r>   -3.0588    1.0000 </r>
       <r>   -2.9374    1.0000 </r>
       <r>   -2.7402    1.0000 </r>
       <r>   -2.5907    1.0000 </r>
       <r>   -2.5220    1.0000 </r>
       <r>   -2.3219    1.0000 </r>
       <r>   -2.1213    1.0000 </r>
       <r>   -2.0777    1.0000 </r>
       <r>   -1.9481    1.0000 </r>
       <r>   -1.8971    1.0000 </r>
       <r>   -1.7896    1.0000 </r>
       <r>   -1.6881    1.0000 </r>
       <r>   -1.6207    1.0000 </r>
       <r>   -1.2679    1.0000 </r>
       <r>   -1.1645    1.0000 </r>
       <r>   -0.6916    1.0000 </r>
       <r>   -0.6248    1.0000 </r>
       <r>   -0.4664    1.0000 </r>
       <r>   -0.3311    1.0000 </r>
       <r>   -0.2501    1.0000 </r>
       <r>   -0.0821    1.0000 </r>
       <r>    0.0515    1.0000 </r>
       <r>    0.1009    1.0000 </r>
       <r>    0.1885    1.0000 </r>
       <r>    0.3182    1.0000 </r>
       <r>    0.3213    1.0000 </r>
       <r>    0.4388    1.0000 </r>
       <r>    0.6348    1.0000 </r>
       <r>    0.7700    1.0000 </r>
       <r>    0.9440    1.0000 </r>
       <r>    1.1838    1.0000 </r>
       <r>    1.3403    1.0000 </r>
       <r>    1.7584    1.0000 </r>
       <r>    1.8239    1.0000 </r>
       <r>    1.9958    1.0000 </r>
       <r>    2.0005    1.0000 </r>
       <r>    2.0443    1.0000 </r>
       <r>    2.0840    1.0000 </r>
       <r>    2.2357    1.0000 </r>
       <r>    2.3868    1.0000 </r>
       <r>    2.5809    1.0000 </r>
       <r>    2.5913    1.0000 </r>
       <r>    2.7416    1.0000 </r>
       <r>    2.8103    1.0000 </r>
       <r>    2.8652    1.0000 </r>
       <r>    2.9132    1.0000 </r>
       <r>    2.9219    1.0000 </r>
       <r>    2.9663    1.0000 </r>
       <r>    2.9665    1.0000 </r>
       <r>    3.0298    1.0000 </r>
       <r>    3.1556    1.0000 </r>
       <r>    3.1845    1.0000 </r>
       <r>    3.3161    1.0000 </r>
       <r>    3.4753    1.0000 </r>
       <r>    3.4775    1.0000 </r>
       <r>    3.6261    1.0000 </r>
       <r>    3.6864    1.0000 </r>
       <r>    3.6988    1.0000 </r>
       <r>    3.7218    1.0000 </r>
       <r>    3.8784    1.0000 </r>
       <r>    3.9715    1.0000 </r>
       <r>    3.9945    1.0000 </r>
       <r>    4.1344    1.0000 </r>
       <r>    4.1786    1.0000 </r>
       <r>    4.2167    1.0000 </r>
       <r>    4.2990    1.0000 </r>
       <r>    4.3241    1.0000 </r>
       <r>    4.3705    1.0000 </r>
       <r>    4.6296    1.0000 </r>
       <r>    4.7167    1.0000 </r>
       <r>    4.7350    1.0000 </r>
       <r>    4.8321    1.0000 </r>
       <r>    4.8553    1.0000 </r>
       <r>    4.8798    1.0000 </r>
       <r>    4.9616    1.0000 </r>
       <r>    5.0003    1.0000 </r>
       <r>    5.0672    1.0000 </r>
       <r>    5.1834    1.0000 </r>
       <r>    5.2149    1.0000 </r>
       <r>    5.2940    0.0011 </r>
       <r>    5.3657    0.0000 </r>
       <r>    5.3990    0.0000 </r>
       <r>    5.5543    0.0000 </r>
       <r>    5.6381    0.0000 </r>
       <r>    5.7230    0.0000 </r>
       <r>    5.7514    0.0000 </r>
       <r>    5.7555    0.0000 </r>
       <r>    5.8676    0.0000 </r>
       <r>    5.9212    0.0000 </r>
       <r>    5.9459    0.0000 </r>
       <r>    6.0484    0.0000 </r>
       <r>    6.1010    0.0000 </r>
       <r>    6.1143    0.0000 </r>
       <r>    6.2113    0.0000 </r>
       <r>    6.2572    0.0000 </r>
       <r>    6.3193    0.0000 </r>
       <r>    6.4013    0.0000 </r>
       <r>    6.4190    0.0000 </r>
       <r>    6.5346    0.0000 </r>
      </set>
      <set comment="kpoint 2">
       <r>   -7.7336    1.0000 </r>
       <r>   -7.2545    1.0000 </r>
       <r>   -5.8227    1.0000 </r>
       <r>   -5.7975    1.0000 </r>
       <r>   -5.1004    1.0000 </r>
       <r>   -5.0677    1.0000 </r>
       <r>   -4.8106    1.0000 </r>
       <r>   -4.6680    1.0000 </r>
       <r>   -4.5976    1.0000 </r>
       <r>   -4.3446    1.0000 </r>
       <r>   -4.3236    1.0000 </r>
       <r>   -4.1278    1.0000 </r>
       <r>   -3.9802    1.0000 </r>
       <r>   -3.5658    1.0000 </r>
       <r>   -3.4763    1.0000 </r>
       <r>   -3.2744    1.0000 </r>
       <r>   -3.2660    1.0000 </r>
       <r>   -3.0884    1.0000 </r>
       <r>   -3.0037    1.0000 </r>
       <r>   -2.7416    1.0000 </r>
       <r>   -2.6330    1.0000 </r>
       <r>   -2.5695    1.0000 </r>
       <r>   -2.5493    1.0000 </r>
       <r>   -2.1590    1.0000 </r>
       <r>   -2.0580    1.0000 </r>
       <r>   -1.9798    1.0000 </r>
       <r>   -1.8514    1.0000 </r>
       <r>   -1.7153    1.0000 </r>
       <r>   -1.5703    1.0000 </r>
       <r>   -1.2085    1.0000 </r>
       <r>   -1.0011    1.0000 </r>
       <r>   -0.8769    1.0000 </r>
       <r>   -0.7759    1.0000 </r>
       <r>   -0.6177    1.0000 </r>
       <r>   -0.5496    1.0000 </r>
       <r>   -0.4932    1.0000 </r>
       <r>   -0.1981    1.0000 </r>
       <r>    0.0094    1.0000 </r>
       <r>    0.0212    1.0000 </r>
       <r>    0.1249    1.0000 </r>
       <r>    0.1732    1.0000 </r>
       <r>    0.4716    1.0000 </r>
       <r>    0.4782    1.0000 </r>
       <r>    0.6257    1.0000 </r>
       <r>    0.6437    1.0000 </r>
       <r>    0.8776    1.0000 </r>
       <r>    1.1745    1.0000 </r>
       <r>    1.2396    1.0000 </r>
       <r>    1.3766    1.0000 </r>
       <r>    1.4477    1.0000 </r>
       <r>    1.5423    1.0000 </r>
       <r>    1.6415    1.0000 </r>
       <r>    1.7415    1.0000 </r>
       <r>    1.7703    1.0000 </r>
       <r>    2.0431    1.0000 </r>
       <r>    2.1115    1.0000 </r>
       <r>    2.1528    1.0000 </r>
       <r>    2.2113    1.0000 </r>
       <r>    2.2990    1.0000 </r>
       <r>    2.3813    1.0000 </r>
       <r>    2.4245    1.0000 </r>
       <r>    2.5737    1.0000 </r>
       <r>    2.6337    1.0000 </r>
       <r>    2.6994    1.0000 </r>
       <r>    2.8015    1.0000 </r>
       <r>    2.8874    1.0000 </r>
       <r>    3.0552    1.0000 </r>
       <r>    3.0992    1.0000 </r>
       <r>    3.1845    1.0000 </r>
       <r>    3.3996    1.0000 </r>
       <r>    3.4588    1.0000 </r>
       <r>    3.5353    1.0000 </r>
       <r>    3.6354    1.0000 </r>
       <r>    3.6713    1.0000 </r>
       <r>    3.7016    1.0000 </r>
       <r>    3.7678    1.0000 </r>
       <r>    3.8332    1.0000 </r>
       <r>    4.0338    1.0000 </r>
       <r>    4.0813    1.0000 </r>
       <r>    4.1430    1.0000 </r>
       <r>    4.2550    1.0000 </r>
       <r>    4.3756    1.0000 </r>
       <r>    4.4782    1.0000 </r>
       <r>    4.4853    1.0000 </r>
       <r>    4.6367    1.0000 </r>
       <r>    4.6750    1.0000 </r>
       <r>    4.7321    1.0000 </r>
       <r>    4.8124    1.0000 </r>
       <r>    4.9891    1.0000 </r>
       <r>    4.9925    1.0000 </r>
       <r>    5.0228    1.0000 </r>
       <r>    5.0849    1.0000 </r>
       <r>    5.1374    1.0000 </r>
       <r>    5.2391    1.0000 </r>
       <r>    5.3211    0.0000 </r>
       <r>    5.3609    0.0000 </r>
       <r>    5.3619    0.0000 </r>
       <r>    5.4430    0.0000 </r>
       <r>    5.5169    0.0000 </r>
       <r>    5.6350    0.0000 </r>
       <r>    5.6578    0.0000 </r>
       <r>    5.7654    0.0000 </r>
       <r>    5.7928    0.0000 </r>
       <r>    5.8413    0.0000 </r>
       <r>    5.8654    0.0000 </r>
       <r>    5.9016    0.0000 </r>
       <r>    5.9845    0.0000 </r>
       <r>    6.0227    0.0000 </r>
       <r>    6.0408    0.0000 </r>
       <r>    6.1057    0.0000 </r>
       <r>    6.1089    0.0000 </r>
       <r>    6.2331    0.0000 </r>
       <r>    6.3031    0.0000 </r>
       <r>    6.3484    0.0000 </r>
       <r>    6.3915    0.0000 </r>
       <r>    6.4742    0.0000 </r>
      </set>
      <set comment="kpoint 3">
       <r>   -7.7503    1.0000 </r>
       <r>   -7.2644    1.0000 </r>
       <r>   -5.8208    1.0000 </r>
       <r>   -5.7025    1.0000 </r>
       <r>   -5.1629    1.0000 </r>
       <r>   -4.9091    1.0000 </r>
       <r>   -4.8615    1.0000 </r>
       <r>   -4.8026    1.0000 </r>
       <r>   -4.6532    1.0000 </r>
       <r>   -4.3274    1.0000 </r>
       <r>   -4.1169    1.0000 </r>
       <r>   -4.0538    1.0000 </r>
       <r>   -3.9357    1.0000 </r>
       <r>   -3.6715    1.0000 </r>
       <r>   -3.5200    1.0000 </r>
       <r>   -3.3690    1.0000 </r>
       <r>   -3.3525    1.0000 </r>
       <r>   -3.1136    1.0000 </r>
       <r>   -2.9087    1.0000 </r>
       <r>   -2.6961    1.0000 </r>
       <r>   -2.6213    1.0000 </r>
       <r>   -2.5332    1.0000 </r>
       <r>   -2.3281    1.0000 </r>
       <r>   -2.0997    1.0000 </r>
       <r>   -2.0995    1.0000 </r>
       <r>   -2.0455    1.0000 </r>
       <r>   -1.8165    1.0000 </r>
       <r>   -1.7977    1.0000 </r>
       <r>   -1.6887    1.0000 </r>
       <r>   -1.5163    1.0000 </r>
       <r>   -1.2870    1.0000 </r>
       <r>   -1.0331    1.0000 </r>
       <r>   -0.8784    1.0000 </r>
       <r>   -0.5957    1.0000 </r>
       <r>   -0.4668    1.0000 </r>
       <r>   -0.3172    1.0000 </r>
       <r>   -0.2462    1.0000 </r>
       <r>   -0.1941    1.0000 </r>
       <r>   -0.0180    1.0000 </r>
       <r>    0.1647    1.0000 </r>
       <r>    0.1991    1.0000 </r>
       <r>    0.2886    1.0000 </r>
       <r>    0.3061    1.0000 </r>
       <r>    0.4851    1.0000 </r>
       <r>    0.6231    1.0000 </r>
       <r>    0.7799    1.0000 </r>
       <r>    0.9197    1.0000 </r>
       <r>    1.2084    1.0000 </r>
       <r>    1.6628    1.0000 </r>
       <r>    1.6870    1.0000 </r>
       <r>    1.9566    1.0000 </r>
       <r>    1.9656    1.0000 </r>
       <r>    2.0423    1.0000 </r>
       <r>    2.0861    1.0000 </r>
       <r>    2.1043    1.0000 </r>
       <r>    2.2091    1.0000 </r>
       <r>    2.2604    1.0000 </r>
       <r>    2.3798    1.0000 </r>
       <r>    2.5147    1.0000 </r>
       <r>    2.5902    1.0000 </r>
       <r>    2.7595    1.0000 </r>
       <r>    2.7853    1.0000 </r>
       <r>    2.8218    1.0000 </r>
       <r>    2.8815    1.0000 </r>
       <r>    2.9679    1.0000 </r>
       <r>    3.0697    1.0000 </r>
       <r>    3.0719    1.0000 </r>
       <r>    3.2258    1.0000 </r>
       <r>    3.2651    1.0000 </r>
       <r>    3.4047    1.0000 </r>
       <r>    3.4869    1.0000 </r>
       <r>    3.5278    1.0000 </r>
       <r>    3.5325    1.0000 </r>
       <r>    3.6083    1.0000 </r>
       <r>    3.6953    1.0000 </r>
       <r>    3.7546    1.0000 </r>
       <r>    3.9193    1.0000 </r>
       <r>    4.0272    1.0000 </r>
       <r>    4.1036    1.0000 </r>
       <r>    4.1346    1.0000 </r>
       <r>    4.2246    1.0000 </r>
       <r>    4.2625    1.0000 </r>
       <r>    4.3226    1.0000 </r>
       <r>    4.3230    1.0000 </r>
       <r>    4.4338    1.0000 </r>
       <r>    4.5528    1.0000 </r>
       <r>    4.6905    1.0000 </r>
       <r>    4.7804    1.0000 </r>
       <r>    4.8136    1.0000 </r>
       <r>    4.8321    1.0000 </r>
       <r>    4.8574    1.0000 </r>
       <r>    4.9266    1.0000 </r>
       <r>    5.0262    1.0000 </r>
       <r>    5.0632    1.0000 </r>
       <r>    5.2297    1.0000 </r>
       <r>    5.2326    1.0000 </r>
       <r>    5.2793    0.1655 </r>
       <r>    5.3534    0.0000 </r>
       <r>    5.3802    0.0000 </r>
       <r>    5.5174    0.0000 </r>
       <r>    5.6406    0.0000 </r>
       <r>    5.6629    0.0000 </r>
       <r>    5.7662    0.0000 </r>
       <r>    5.7696    0.0000 </r>
       <r>    5.8558    0.0000 </r>
       <r>    5.9303    0.0000 </r>
       <r>    5.9601    0.0000 </r>
       <r>    5.9934    0.0000 </r>
       <r>    6.0901    0.0000 </r>
       <r>    6.1115    0.0000 </r>
       <r>    6.1535    0.0000 </r>
       <r>    6.2749    0.0000 </r>
       <r>    6.2965    0.0000 </r>
       <r>    6.3853    0.0000 </r>
       <r>    6.4289    0.0000 </r>
       <r>    6.5065    0.0000 </r>
      </set>
      <set comment="kpoint 4">
       <r>   -7.7336    1.0000 </r>
       <r>   -7.2546    1.0000 </r>
       <r>   -5.8228    1.0000 </r>
       <r>   -5.7973    1.0000 </r>
       <r>   -5.0958    1.0000 </r>
       <r>   -5.0596    1.0000 </r>
       <r>   -4.8079    1.0000 </r>
       <r>   -4.7244    1.0000 </r>
       <r>   -4.5952    1.0000 </r>
       <r>   -4.2859    1.0000 </r>
       <r>   -4.2685    1.0000 </r>
       <r>   -4.2227    1.0000 </r>
       <r>   -3.9485    1.0000 </r>
       <r>   -3.5356    1.0000 </r>
       <r>   -3.4916    1.0000 </r>
       <r>   -3.3351    1.0000 </r>
       <r>   -3.1994    1.0000 </r>
       <r>   -3.1365    1.0000 </r>
       <r>   -2.9826    1.0000 </r>
       <r>   -2.7469    1.0000 </r>
       <r>   -2.6942    1.0000 </r>
       <r>   -2.5966    1.0000 </r>
       <r>   -2.4679    1.0000 </r>
       <r>   -2.1184    1.0000 </r>
       <r>   -2.0525    1.0000 </r>
       <r>   -2.0298    1.0000 </r>
       <r>   -1.9716    1.0000 </r>
       <r>   -1.6571    1.0000 </r>
       <r>   -1.3525    1.0000 </r>
       <r>   -1.2568    1.0000 </r>
       <r>   -0.9989    1.0000 </r>
       <r>   -0.9769    1.0000 </r>
       <r>   -0.7062    1.0000 </r>
       <r>   -0.6442    1.0000 </r>
       <r>   -0.5544    1.0000 </r>
       <r>   -0.4383    1.0000 </r>
       <r>   -0.2961    1.0000 </r>
       <r>   -0.1071    1.0000 </r>
       <r>    0.0344    1.0000 </r>
       <r>    0.0501    1.0000 </r>
       <r>    0.3536    1.0000 </r>
       <r>    0.3645    1.0000 </r>
       <r>    0.5300    1.0000 </r>
       <r>    0.5481    1.0000 </r>
       <r>    0.6631    1.0000 </r>
       <r>    0.9004    1.0000 </r>
       <r>    1.2066    1.0000 </r>
       <r>    1.3118    1.0000 </r>
       <r>    1.4556    1.0000 </r>
       <r>    1.5117    1.0000 </r>
       <r>    1.5280    1.0000 </r>
       <r>    1.7066    1.0000 </r>
       <r>    1.7628    1.0000 </r>
       <r>    1.8118    1.0000 </r>
       <r>    2.0281    1.0000 </r>
       <r>    2.1039    1.0000 </r>
       <r>    2.1409    1.0000 </r>
       <r>    2.2136    1.0000 </r>
       <r>    2.2398    1.0000 </r>
       <r>    2.2828    1.0000 </r>
       <r>    2.3879    1.0000 </r>
       <r>    2.4405    1.0000 </r>
       <r>    2.5038    1.0000 </r>
       <r>    2.6482    1.0000 </r>
       <r>    2.8255    1.0000 </r>
       <r>    2.9515    1.0000 </r>
       <r>    3.0665    1.0000 </r>
       <r>    3.1727    1.0000 </r>
       <r>    3.1790    1.0000 </r>
       <r>    3.3774    1.0000 </r>
       <r>    3.4750    1.0000 </r>
       <r>    3.5031    1.0000 </r>
       <r>    3.6387    1.0000 </r>
       <r>    3.6408    1.0000 </r>
       <r>    3.8283    1.0000 </r>
       <r>    3.9063    1.0000 </r>
       <r>    3.9420    1.0000 </r>
       <r>    4.0149    1.0000 </r>
       <r>    4.1261    1.0000 </r>
       <r>    4.1274    1.0000 </r>
       <r>    4.3079    1.0000 </r>
       <r>    4.3112    1.0000 </r>
       <r>    4.3788    1.0000 </r>
       <r>    4.4868    1.0000 </r>
       <r>    4.5345    1.0000 </r>
       <r>    4.7048    1.0000 </r>
       <r>    4.7646    1.0000 </r>
       <r>    4.8538    1.0000 </r>
       <r>    4.8987    1.0000 </r>
       <r>    4.9299    1.0000 </r>
       <r>    4.9682    1.0000 </r>
       <r>    5.0894    1.0000 </r>
       <r>    5.1568    1.0000 </r>
       <r>    5.3045    0.0000 </r>
       <r>    5.3149    0.0000 </r>
       <r>    5.3842    0.0000 </r>
       <r>    5.4095    0.0000 </r>
       <r>    5.4436    0.0000 </r>
       <r>    5.5111    0.0000 </r>
       <r>    5.5246    0.0000 </r>
       <r>    5.6618    0.0000 </r>
       <r>    5.6988    0.0000 </r>
       <r>    5.8139    0.0000 </r>
       <r>    5.8241    0.0000 </r>
       <r>    5.8561    0.0000 </r>
       <r>    5.8877    0.0000 </r>
       <r>    5.9510    0.0000 </r>
       <r>    6.0046    0.0000 </r>
       <r>    6.1017    0.0000 </r>
       <r>    6.1052    0.0000 </r>
       <r>    6.1535    0.0000 </r>
       <r>    6.2264    0.0000 </r>
       <r>    6.3248    0.0000 </r>
       <r>    6.3733    0.0000 </r>
       <r>    6.4364    0.0000 </r>
       <r>    6.4913    0.0000 </r>
      </set>
      <set comment="kpoint 5">
       <r>   -7.5940    1.0000 </r>
       <r>   -7.1155    1.0000 </r>
       <r>   -6.4222    1.0000 </r>
       <r>   -6.0782    1.0000 </r>
       <r>   -5.1078    1.0000 </r>
       <r>   -4.7923    1.0000 </r>
       <r>   -4.7745    1.0000 </r>
       <r>   -4.5348    1.0000 </r>
       <r>   -4.3591    1.0000 </r>
       <r>   -4.3247    1.0000 </r>
       <r>   -4.1753    1.0000 </r>
       <r>   -4.0049    1.0000 </r>
       <r>   -3.9360    1.0000 </r>
       <r>   -3.5407    1.0000 </r>
       <r>   -3.4853    1.0000 </r>
       <r>   -3.4196    1.0000 </r>
       <r>   -3.2041    1.0000 </r>
       <r>   -3.1585    1.0000 </r>
       <r>   -3.0962    1.0000 </r>
       <r>   -3.0084    1.0000 </r>
       <r>   -2.8520    1.0000 </r>
       <r>   -2.6148    1.0000 </r>
       <r>   -2.4788    1.0000 </r>
       <r>   -2.2599    1.0000 </r>
       <r>   -2.1804    1.0000 </r>
       <r>   -1.9576    1.0000 </r>
       <r>   -1.7925    1.0000 </r>
       <r>   -1.7715    1.0000 </r>
       <r>   -1.6400    1.0000 </r>
       <r>   -1.5061    1.0000 </r>
       <r>   -1.2713    1.0000 </r>
       <r>   -1.1031    1.0000 </r>
       <r>   -0.5498    1.0000 </r>
       <r>   -0.5377    1.0000 </r>
       <r>   -0.3086    1.0000 </r>
       <r>   -0.1816    1.0000 </r>
       <r>    0.0151    1.0000 </r>
       <r>    0.0551    1.0000 </r>
       <r>    0.0640    1.0000 </r>
       <r>    0.1929    1.0000 </r>
       <r>    0.2795    1.0000 </r>
       <r>    0.5083    1.0000 </r>
       <r>    0.6805    1.0000 </r>
       <r>    0.8540    1.0000 </r>
       <r>    0.9333    1.0000 </r>
       <r>    1.0964    1.0000 </r>
       <r>    1.3753    1.0000 </r>
       <r>    1.4555    1.0000 </r>
       <r>    1.5260    1.0000 </r>
       <r>    1.7147    1.0000 </r>
       <r>    1.7478    1.0000 </r>
       <r>    1.9116    1.0000 </r>
       <r>    1.9491    1.0000 </r>
       <r>    1.9653    1.0000 </r>
       <r>    2.0676    1.0000 </r>
       <r>    2.1930    1.0000 </r>
       <r>    2.2296    1.0000 </r>
       <r>    2.4469    1.0000 </r>
       <r>    2.4775    1.0000 </r>
       <r>    2.5276    1.0000 </r>
       <r>    2.6219    1.0000 </r>
       <r>    2.6604    1.0000 </r>
       <r>    2.7038    1.0000 </r>
       <r>    2.7281    1.0000 </r>
       <r>    2.7697    1.0000 </r>
       <r>    2.8296    1.0000 </r>
       <r>    2.8473    1.0000 </r>
       <r>    2.8823    1.0000 </r>
       <r>    2.9574    1.0000 </r>
       <r>    3.0615    1.0000 </r>
       <r>    3.2664    1.0000 </r>
       <r>    3.3913    1.0000 </r>
       <r>    3.4491    1.0000 </r>
       <r>    3.6044    1.0000 </r>
       <r>    3.6744    1.0000 </r>
       <r>    3.8228    1.0000 </r>
       <r>    3.8806    1.0000 </r>
       <r>    3.9354    1.0000 </r>
       <r>    3.9680    1.0000 </r>
       <r>    4.1092    1.0000 </r>
       <r>    4.1679    1.0000 </r>
       <r>    4.2536    1.0000 </r>
       <r>    4.4098    1.0000 </r>
       <r>    4.4163    1.0000 </r>
       <r>    4.4575    1.0000 </r>
       <r>    4.5156    1.0000 </r>
       <r>    4.6128    1.0000 </r>
       <r>    4.6501    1.0000 </r>
       <r>    4.6688    1.0000 </r>
       <r>    4.6799    1.0000 </r>
       <r>    4.8034    1.0000 </r>
       <r>    4.8515    1.0000 </r>
       <r>    4.8933    1.0000 </r>
       <r>    4.9710    1.0000 </r>
       <r>    5.0562    1.0000 </r>
       <r>    5.1250    1.0000 </r>
       <r>    5.2408    1.0000 </r>
       <r>    5.2860    0.0269 </r>
       <r>    5.2984    0.0001 </r>
       <r>    5.3962    0.0000 </r>
       <r>    5.4557    0.0000 </r>
       <r>    5.4764    0.0000 </r>
       <r>    5.5338    0.0000 </r>
       <r>    5.6048    0.0000 </r>
       <r>    5.6755    0.0000 </r>
       <r>    5.7275    0.0000 </r>
       <r>    5.7614    0.0000 </r>
       <r>    5.8735    0.0000 </r>
       <r>    5.9169    0.0000 </r>
       <r>    6.0360    0.0000 </r>
       <r>    6.0705    0.0000 </r>
       <r>    6.1973    0.0000 </r>
       <r>    6.2381    0.0000 </r>
       <r>    6.2986    0.0000 </r>
       <r>    6.3893    0.0000 </r>
       <r>    6.4044    0.0000 </r>
      </set>
      <set comment="kpoint 6">
       <r>   -7.5775    1.0000 </r>
       <r>   -7.1060    1.0000 </r>
       <r>   -6.4126    1.0000 </r>
       <r>   -6.0912    1.0000 </r>
       <r>   -5.0422    1.0000 </r>
       <r>   -4.9941    1.0000 </r>
       <r>   -4.7056    1.0000 </r>
       <r>   -4.6669    1.0000 </r>
       <r>   -4.3650    1.0000 </r>
       <r>   -4.2652    1.0000 </r>
       <r>   -4.1276    1.0000 </r>
       <r>   -4.0397    1.0000 </r>
       <r>   -3.9615    1.0000 </r>
       <r>   -3.7309    1.0000 </r>
       <r>   -3.5756    1.0000 </r>
       <r>   -3.4645    1.0000 </r>
       <r>   -3.2898    1.0000 </r>
       <r>   -3.1688    1.0000 </r>
       <r>   -3.0617    1.0000 </r>
       <r>   -2.8969    1.0000 </r>
       <r>   -2.8467    1.0000 </r>
       <r>   -2.7282    1.0000 </r>
       <r>   -2.3079    1.0000 </r>
       <r>   -2.1376    1.0000 </r>
       <r>   -2.0249    1.0000 </r>
       <r>   -1.7204    1.0000 </r>
       <r>   -1.6104    1.0000 </r>
       <r>   -1.5010    1.0000 </r>
       <r>   -1.4416    1.0000 </r>
       <r>   -1.2396    1.0000 </r>
       <r>   -0.9780    1.0000 </r>
       <r>   -0.8420    1.0000 </r>
       <r>   -0.7232    1.0000 </r>
       <r>   -0.4817    1.0000 </r>
       <r>   -0.3988    1.0000 </r>
       <r>   -0.3196    1.0000 </r>
       <r>   -0.1987    1.0000 </r>
       <r>   -0.1378    1.0000 </r>
       <r>    0.0091    1.0000 </r>
       <r>    0.1118    1.0000 </r>
       <r>    0.2468    1.0000 </r>
       <r>    0.4794    1.0000 </r>
       <r>    0.5671    1.0000 </r>
       <r>    0.6447    1.0000 </r>
       <r>    0.7055    1.0000 </r>
       <r>    0.9664    1.0000 </r>
       <r>    1.1074    1.0000 </r>
       <r>    1.2386    1.0000 </r>
       <r>    1.4238    1.0000 </r>
       <r>    1.5568    1.0000 </r>
       <r>    1.6841    1.0000 </r>
       <r>    1.7613    1.0000 </r>
       <r>    1.8252    1.0000 </r>
       <r>    1.8829    1.0000 </r>
       <r>    1.9426    1.0000 </r>
       <r>    2.1041    1.0000 </r>
       <r>    2.1887    1.0000 </r>
       <r>    2.2389    1.0000 </r>
       <r>    2.2913    1.0000 </r>
       <r>    2.4414    1.0000 </r>
       <r>    2.5078    1.0000 </r>
       <r>    2.6009    1.0000 </r>
       <r>    2.6910    1.0000 </r>
       <r>    2.7654    1.0000 </r>
       <r>    2.8240    1.0000 </r>
       <r>    2.8845    1.0000 </r>
       <r>    2.9900    1.0000 </r>
       <r>    3.0456    1.0000 </r>
       <r>    3.0795    1.0000 </r>
       <r>    3.1520    1.0000 </r>
       <r>    3.2063    1.0000 </r>
       <r>    3.3786    1.0000 </r>
       <r>    3.4805    1.0000 </r>
       <r>    3.5795    1.0000 </r>
       <r>    3.6497    1.0000 </r>
       <r>    3.6800    1.0000 </r>
       <r>    3.8396    1.0000 </r>
       <r>    3.9056    1.0000 </r>
       <r>    4.0040    1.0000 </r>
       <r>    4.0624    1.0000 </r>
       <r>    4.1842    1.0000 </r>
       <r>    4.2159    1.0000 </r>
       <r>    4.2857    1.0000 </r>
       <r>    4.4250    1.0000 </r>
       <r>    4.4919    1.0000 </r>
       <r>    4.5545    1.0000 </r>
       <r>    4.6665    1.0000 </r>
       <r>    4.6735    1.0000 </r>
       <r>    4.7509    1.0000 </r>
       <r>    4.8385    1.0000 </r>
       <r>    4.8891    1.0000 </r>
       <r>    4.9693    1.0000 </r>
       <r>    5.0361    1.0000 </r>
       <r>    5.0831    1.0000 </r>
       <r>    5.1286    1.0000 </r>
       <r>    5.1880    1.0000 </r>
       <r>    5.2788    0.1806 </r>
       <r>    5.3231    0.0000 </r>
       <r>    5.4090    0.0000 </r>
       <r>    5.4861    0.0000 </r>
       <r>    5.5718    0.0000 </r>
       <r>    5.5900    0.0000 </r>
       <r>    5.7033    0.0000 </r>
       <r>    5.7468    0.0000 </r>
       <r>    5.7881    0.0000 </r>
       <r>    5.8192    0.0000 </r>
       <r>    5.9154    0.0000 </r>
       <r>    5.9362    0.0000 </r>
       <r>    5.9985    0.0000 </r>
       <r>    6.0860    0.0000 </r>
       <r>    6.1856    0.0000 </r>
       <r>    6.2687    0.0000 </r>
       <r>    6.3067    0.0000 </r>
       <r>    6.3651    0.0000 </r>
       <r>    6.4805    0.0000 </r>
       <r>    6.5866    0.0000 </r>
      </set>
      <set comment="kpoint 7">
       <r>   -7.5940    1.0000 </r>
       <r>   -7.1156    1.0000 </r>
       <r>   -6.4222    1.0000 </r>
       <r>   -6.0783    1.0000 </r>
       <r>   -5.0911    1.0000 </r>
       <r>   -4.8394    1.0000 </r>
       <r>   -4.7635    1.0000 </r>
       <r>   -4.5388    1.0000 </r>
       <r>   -4.3506    1.0000 </r>
       <r>   -4.3059    1.0000 </r>
       <r>   -4.1270    1.0000 </r>
       <r>   -4.0712    1.0000 </r>
       <r>   -3.9143    1.0000 </r>
       <r>   -3.5548    1.0000 </r>
       <r>   -3.4710    1.0000 </r>
       <r>   -3.3777    1.0000 </r>
       <r>   -3.2718    1.0000 </r>
       <r>   -3.1769    1.0000 </r>
       <r>   -3.0714    1.0000 </r>
       <r>   -3.0164    1.0000 </r>
       <r>   -2.8307    1.0000 </r>
       <r>   -2.6143    1.0000 </r>
       <r>   -2.4910    1.0000 </r>
       <r>   -2.2667    1.0000 </r>
       <r>   -2.1597    1.0000 </r>
       <r>   -1.9865    1.0000 </r>
       <r>   -1.7914    1.0000 </r>
       <r>   -1.7591    1.0000 </r>
       <r>   -1.6333    1.0000 </r>
       <r>   -1.5749    1.0000 </r>
       <r>   -1.1664    1.0000 </r>
       <r>   -0.9330    1.0000 </r>
       <r>   -0.7817    1.0000 </r>
       <r>   -0.5023    1.0000 </r>
       <r>   -0.3539    1.0000 </r>
       <r>   -0.2693    1.0000 </r>
       <r>    0.0203    1.0000 </r>
       <r>    0.0419    1.0000 </r>
       <r>    0.0970    1.0000 </r>
       <r>    0.2123    1.0000 </r>
       <r>    0.3675    1.0000 </r>
       <r>    0.5259    1.0000 </r>
       <r>    0.6584    1.0000 </r>
       <r>    0.8738    1.0000 </r>
       <r>    0.9307    1.0000 </r>
       <r>    1.0654    1.0000 </r>
       <r>    1.4360    1.0000 </r>
       <r>    1.4784    1.0000 </r>
       <r>    1.5876    1.0000 </r>
       <r>    1.6889    1.0000 </r>
       <r>    1.7983    1.0000 </r>
       <r>    1.8409    1.0000 </r>
       <r>    1.9767    1.0000 </r>
       <r>    1.9915    1.0000 </r>
       <r>    2.0826    1.0000 </r>
       <r>    2.1022    1.0000 </r>
       <r>    2.1724    1.0000 </r>
       <r>    2.3363    1.0000 </r>
       <r>    2.4349    1.0000 </r>
       <r>    2.4494    1.0000 </r>
       <r>    2.5015    1.0000 </r>
       <r>    2.6477    1.0000 </r>
       <r>    2.7039    1.0000 </r>
       <r>    2.7326    1.0000 </r>
       <r>    2.7473    1.0000 </r>
       <r>    2.8306    1.0000 </r>
       <r>    2.9249    1.0000 </r>
       <r>    2.9758    1.0000 </r>
       <r>    3.0982    1.0000 </r>
       <r>    3.2201    1.0000 </r>
       <r>    3.3708    1.0000 </r>
       <r>    3.4076    1.0000 </r>
       <r>    3.5095    1.0000 </r>
       <r>    3.6497    1.0000 </r>
       <r>    3.7013    1.0000 </r>
       <r>    3.7441    1.0000 </r>
       <r>    3.7587    1.0000 </r>
       <r>    3.8590    1.0000 </r>
       <r>    4.0067    1.0000 </r>
       <r>    4.1154    1.0000 </r>
       <r>    4.1708    1.0000 </r>
       <r>    4.2407    1.0000 </r>
       <r>    4.3107    1.0000 </r>
       <r>    4.3473    1.0000 </r>
       <r>    4.4054    1.0000 </r>
       <r>    4.4850    1.0000 </r>
       <r>    4.5414    1.0000 </r>
       <r>    4.5962    1.0000 </r>
       <r>    4.6955    1.0000 </r>
       <r>    4.7358    1.0000 </r>
       <r>    4.8163    1.0000 </r>
       <r>    4.9176    1.0000 </r>
       <r>    4.9976    1.0000 </r>
       <r>    5.0439    1.0000 </r>
       <r>    5.0662    1.0000 </r>
       <r>    5.1417    1.0000 </r>
       <r>    5.2469    0.9998 </r>
       <r>    5.2533    0.9964 </r>
       <r>    5.3007    0.0000 </r>
       <r>    5.3456    0.0000 </r>
       <r>    5.4160    0.0000 </r>
       <r>    5.4278    0.0000 </r>
       <r>    5.4853    0.0000 </r>
       <r>    5.5380    0.0000 </r>
       <r>    5.6342    0.0000 </r>
       <r>    5.7028    0.0000 </r>
       <r>    5.7913    0.0000 </r>
       <r>    5.8750    0.0000 </r>
       <r>    5.9970    0.0000 </r>
       <r>    6.0971    0.0000 </r>
       <r>    6.1335    0.0000 </r>
       <r>    6.2160    0.0000 </r>
       <r>    6.2601    0.0000 </r>
       <r>    6.2944    0.0000 </r>
       <r>    6.3301    0.0000 </r>
       <r>    6.4245    0.0000 </r>
      </set>
      <set comment="kpoint 8">
       <r>   -7.5775    1.0000 </r>
       <r>   -7.1060    1.0000 </r>
       <r>   -6.4125    1.0000 </r>
       <r>   -6.0912    1.0000 </r>
       <r>   -5.0444    1.0000 </r>
       <r>   -4.9759    1.0000 </r>
       <r>   -4.7214    1.0000 </r>
       <r>   -4.6962    1.0000 </r>
       <r>   -4.3046    1.0000 </r>
       <r>   -4.2554    1.0000 </r>
       <r>   -4.1909    1.0000 </r>
       <r>   -4.0473    1.0000 </r>
       <r>   -3.9184    1.0000 </r>
       <r>   -3.7278    1.0000 </r>
       <r>   -3.5605    1.0000 </r>
       <r>   -3.4989    1.0000 </r>
       <r>   -3.3009    1.0000 </r>
       <r>   -3.1251    1.0000 </r>
       <r>   -3.0710    1.0000 </r>
       <r>   -2.9249    1.0000 </r>
       <r>   -2.8548    1.0000 </r>
       <r>   -2.7026    1.0000 </r>
       <r>   -2.3214    1.0000 </r>
       <r>   -2.1983    1.0000 </r>
       <r>   -2.0013    1.0000 </r>
       <r>   -1.7099    1.0000 </r>
       <r>   -1.5915    1.0000 </r>
       <r>   -1.5355    1.0000 </r>
       <r>   -1.3967    1.0000 </r>
       <r>   -1.1011    1.0000 </r>
       <r>   -1.0629    1.0000 </r>
       <r>   -0.8251    1.0000 </r>
       <r>   -0.7365    1.0000 </r>
       <r>   -0.4931    1.0000 </r>
       <r>   -0.4004    1.0000 </r>
       <r>   -0.3404    1.0000 </r>
       <r>   -0.2804    1.0000 </r>
       <r>   -0.1668    1.0000 </r>
       <r>   -0.0108    1.0000 </r>
       <r>    0.0992    1.0000 </r>
       <r>    0.3816    1.0000 </r>
       <r>    0.4957    1.0000 </r>
       <r>    0.5394    1.0000 </r>
       <r>    0.5881    1.0000 </r>
       <r>    0.7787    1.0000 </r>
       <r>    0.9852    1.0000 </r>
       <r>    1.0705    1.0000 </r>
       <r>    1.2717    1.0000 </r>
       <r>    1.3541    1.0000 </r>
       <r>    1.6538    1.0000 </r>
       <r>    1.6964    1.0000 </r>
       <r>    1.7846    1.0000 </r>
       <r>    1.8446    1.0000 </r>
       <r>    1.9164    1.0000 </r>
       <r>    1.9559    1.0000 </r>
       <r>    2.0161    1.0000 </r>
       <r>    2.0976    1.0000 </r>
       <r>    2.2320    1.0000 </r>
       <r>    2.2623    1.0000 </r>
       <r>    2.3390    1.0000 </r>
       <r>    2.4810    1.0000 </r>
       <r>    2.5915    1.0000 </r>
       <r>    2.7460    1.0000 </r>
       <r>    2.8068    1.0000 </r>
       <r>    2.8574    1.0000 </r>
       <r>    2.9011    1.0000 </r>
       <r>    2.9502    1.0000 </r>
       <r>    3.0735    1.0000 </r>
       <r>    3.1233    1.0000 </r>
       <r>    3.1831    1.0000 </r>
       <r>    3.3028    1.0000 </r>
       <r>    3.3985    1.0000 </r>
       <r>    3.4398    1.0000 </r>
       <r>    3.5746    1.0000 </r>
       <r>    3.6212    1.0000 </r>
       <r>    3.7321    1.0000 </r>
       <r>    3.8081    1.0000 </r>
       <r>    3.8934    1.0000 </r>
       <r>    3.9527    1.0000 </r>
       <r>    4.0557    1.0000 </r>
       <r>    4.1318    1.0000 </r>
       <r>    4.2370    1.0000 </r>
       <r>    4.3177    1.0000 </r>
       <r>    4.4766    1.0000 </r>
       <r>    4.5137    1.0000 </r>
       <r>    4.5550    1.0000 </r>
       <r>    4.6218    1.0000 </r>
       <r>    4.6756    1.0000 </r>
       <r>    4.7348    1.0000 </r>
       <r>    4.8270    1.0000 </r>
       <r>    4.9240    1.0000 </r>
       <r>    4.9549    1.0000 </r>
       <r>    5.0038    1.0000 </r>
       <r>    5.0421    1.0000 </r>
       <r>    5.1263    1.0000 </r>
       <r>    5.1820    1.0000 </r>
       <r>    5.2775    0.2364 </r>
       <r>    5.3062    0.0000 </r>
       <r>    5.4157    0.0000 </r>
       <r>    5.4702    0.0000 </r>
       <r>    5.5318    0.0000 </r>
       <r>    5.5965    0.0000 </r>
       <r>    5.6707    0.0000 </r>
       <r>    5.7206    0.0000 </r>
       <r>    5.7876    0.0000 </r>
       <r>    5.8994    0.0000 </r>
       <r>    5.9199    0.0000 </r>
       <r>    5.9558    0.0000 </r>
       <r>    5.9880    0.0000 </r>
       <r>    6.1391    0.0000 </r>
       <r>    6.2002    0.0000 </r>
       <r>    6.2555    0.0000 </r>
       <r>    6.2600    0.0000 </r>
       <r>    6.4310    0.0000 </r>
       <r>    6.4703    0.0000 </r>
       <r>    6.5870    0.0000 </r>
      </set>
      <set comment="kpoint 9">
       <r>   -7.1387    1.0000 </r>
       <r>   -7.1315    1.0000 </r>
       <r>   -6.6880    1.0000 </r>
       <r>   -6.6861    1.0000 </r>
       <r>   -5.0287    1.0000 </r>
       <r>   -4.8178    1.0000 </r>
       <r>   -4.4573    1.0000 </r>
       <r>   -4.4489    1.0000 </r>
       <r>   -4.3325    1.0000 </r>
       <r>   -4.2659    1.0000 </r>
       <r>   -4.1435    1.0000 </r>
       <r>   -3.8908    1.0000 </r>
       <r>   -3.8418    1.0000 </r>
       <r>   -3.6678    1.0000 </r>
       <r>   -3.6571    1.0000 </r>
       <r>   -3.5577    1.0000 </r>
       <r>   -3.2797    1.0000 </r>
       <r>   -3.2512    1.0000 </r>
       <r>   -3.0344    1.0000 </r>
       <r>   -2.9429    1.0000 </r>
       <r>   -2.7568    1.0000 </r>
       <r>   -2.7529    1.0000 </r>
       <r>   -2.6043    1.0000 </r>
       <r>   -2.5786    1.0000 </r>
       <r>   -2.5286    1.0000 </r>
       <r>   -2.1421    1.0000 </r>
       <r>   -1.5061    1.0000 </r>
       <r>   -1.4178    1.0000 </r>
       <r>   -1.3122    1.0000 </r>
       <r>   -1.1645    1.0000 </r>
       <r>   -1.0460    1.0000 </r>
       <r>   -0.8127    1.0000 </r>
       <r>   -0.7410    1.0000 </r>
       <r>   -0.6414    1.0000 </r>
       <r>   -0.6053    1.0000 </r>
       <r>   -0.2827    1.0000 </r>
       <r>   -0.1907    1.0000 </r>
       <r>    0.0369    1.0000 </r>
       <r>    0.2203    1.0000 </r>
       <r>    0.2968    1.0000 </r>
       <r>    0.6690    1.0000 </r>
       <r>    0.7159    1.0000 </r>
       <r>    1.0193    1.0000 </r>
       <r>    1.0471    1.0000 </r>
       <r>    1.4194    1.0000 </r>
       <r>    1.4291    1.0000 </r>
       <r>    1.6499    1.0000 </r>
       <r>    1.7042    1.0000 </r>
       <r>    1.7768    1.0000 </r>
       <r>    1.8004    1.0000 </r>
       <r>    1.8804    1.0000 </r>
       <r>    1.8920    1.0000 </r>
       <r>    2.0103    1.0000 </r>
       <r>    2.0105    1.0000 </r>
       <r>    2.2178    1.0000 </r>
       <r>    2.2642    1.0000 </r>
       <r>    2.3123    1.0000 </r>
       <r>    2.3563    1.0000 </r>
       <r>    2.3781    1.0000 </r>
       <r>    2.3938    1.0000 </r>
       <r>    2.4410    1.0000 </r>
       <r>    2.5297    1.0000 </r>
       <r>    2.5449    1.0000 </r>
       <r>    2.5730    1.0000 </r>
[...]
       <r>     5.7993    38.3456   209.9006 </r>
       <r>     5.8520    31.0178   211.5336 </r>
       <r>     5.9046    31.7837   213.2070 </r>
       <r>     5.9572    36.4553   215.1263 </r>
       <r>     6.0099    40.2030   217.2429 </r>
       <r>     6.0625    18.5793   218.2211 </r>
       <r>     6.1152    40.8420   220.3713 </r>
       <r>     6.1678    19.7936   221.4134 </r>
       <r>     6.2205    24.8728   222.7229 </r>
       <r>     6.2731    44.4747   225.0644 </r>
       <r>     6.3258    28.1724   226.5476 </r>
       <r>     6.3784    18.3721   227.5149 </r>
       <r>     6.4311    29.5662   229.0715 </r>
       <r>     6.4837    28.5016   230.5720 </r>
       <r>     6.5364    12.2599   231.2175 </r>
       <r>     6.5890    10.0857   231.7485 </r>
       <r>     6.6417     4.7777   232.0000 </r>
       <r>     6.6943     0.0000   232.0000 </r>
       <r>     6.7470     0.0000   232.0000 </r>
       <r>     6.7996     0.0000   232.0000 </r>
       <r>     6.8523     0.0000   232.0000 </r>
       <r>     6.9049     0.0000   232.0000 </r>
       <r>     6.9576     0.0000   232.0000 </r>
       <r>     7.0102     0.0000   232.0000 </r>
       <r>     7.0629     0.0000   232.0000 </r>
       <r>     7.1155     0.0000   232.0000 </r>
       <r>     7.1681     0.0000   232.0000 </r>
       <r>     7.2208     0.0000   232.0000 </r>
       <r>     7.2734     0.0000   232.0000 </r>
       <r>     7.3261     0.0000   232.0000 </r>
      </set>
      <set comment="spin 2">
       <r>    -8.4682     0.0000     0.0000 </r>
       <r>    -8.4156     0.0000     0.0000 </r>
       <r>    -8.3630     0.0000     0.0000 </r>
       <r>    -8.3103     0.0000     0.0000 </r>
       <r>    -8.2577     0.0000     0.0000 </r>
       <r>    -8.2050     0.0000     0.0000 </r>
       <r>    -8.1524     0.0000     0.0000 </r>
       <r>    -8.0997     0.0000     0.0000 </r>
       <r>    -8.0471     0.0000     0.0000 </r>
       <r>    -7.9944     0.0000     0.0000 </r>
       <r>    -7.9418     0.0000     0.0000 </r>
       <r>    -7.8891     0.0000     0.0000 </r>
       <r>    -7.8365     0.0000     0.0000 </r>
       <r>    -7.7838     0.0000     0.0000 </r>
       <r>    -7.7312     2.9560     0.1556 </r>
       <r>    -7.6785     6.5411     0.5000 </r>
       <r>    -7.6259     0.0000     0.5000 </r>
       <r>    -7.5732     6.8045     0.8582 </r>
       <r>    -7.5206    12.1897     1.5000 </r>
       <r>    -7.4679     0.0000     1.5000 </r>
       <r>    -7.4153     0.0000     1.5000 </r>
       <r>    -7.3626     0.0000     1.5000 </r>
       <r>    -7.3100     0.0000     1.5000 </r>
       <r>    -7.2573     0.7052     1.5371 </r>
       <r>    -7.2047     8.7919     2.0000 </r>
       <r>    -7.1521     0.0004     2.0000 </r>
       <r>    -7.0994    23.0316     3.2126 </r>
       <r>    -7.0468    14.9562     4.0000 </r>
       <r>    -6.9941     0.0000     4.0000 </r>
       <r>    -6.9415     0.0000     4.0000 </r>
       <r>    -6.8888     0.0000     4.0000 </r>
       <r>    -6.8362     0.0000     4.0000 </r>
       <r>    -6.7835     0.0000     4.0000 </r>
       <r>    -6.7309     0.0000     4.0000 </r>
       <r>    -6.6782     2.5609     4.1348 </r>
       <r>    -6.6256    16.4333     5.0000 </r>
       <r>    -6.5729     0.0000     5.0000 </r>
       <r>    -6.5203     0.0000     5.0000 </r>
       <r>    -6.4676     0.0000     5.0000 </r>
       <r>    -6.4150     1.4606     5.0769 </r>
       <r>    -6.3623    17.5335     6.0000 </r>
       <r>    -6.3097     0.0000     6.0000 </r>
       <r>    -6.2570     0.0000     6.0000 </r>
       <r>    -6.2044     0.0000     6.0000 </r>
       <r>    -6.1517     0.0000     6.0000 </r>
       <r>    -6.0991     0.0178     6.0009 </r>
       <r>    -6.0465    18.9505     6.9986 </r>
       <r>    -5.9938     0.0258     7.0000 </r>
       <r>    -5.9412     0.0000     7.0000 </r>
       <r>    -5.8885     0.0000     7.0000 </r>
       <r>    -5.8359     0.0007     7.0000 </r>
       <r>    -5.7832    12.7890     7.6733 </r>
       <r>    -5.7306     3.0388     7.8333 </r>
       <r>    -5.6779     2.9893     7.9907 </r>
       <r>    -5.6253     0.1764     8.0000 </r>
       <r>    -5.5726     0.0000     8.0000 </r>
       <r>    -5.5200     0.0000     8.0000 </r>
       <r>    -5.4673     0.0000     8.0000 </r>
       <r>    -5.4147     0.0000     8.0000 </r>
       <r>    -5.3620     0.0000     8.0000 </r>
       <r>    -5.3094     0.0000     8.0000 </r>
       <r>    -5.2567     0.0000     8.0000 </r>
       <r>    -5.2041     0.0000     8.0000 </r>
       <r>    -5.1514     2.4688     8.1300 </r>
       <r>    -5.0988     2.4454     8.2587 </r>
       <r>    -5.0461    16.2447     9.1140 </r>
       <r>    -4.9935    16.9120    10.0043 </r>
       <r>    -4.9408    12.5787    10.6666 </r>
       <r>    -4.8882     3.1716    10.8336 </r>
       <r>    -4.8356    11.1677    11.4215 </r>
       <r>    -4.7829    13.9835    12.1577 </r>
       <r>    -4.7303     9.7372    12.6704 </r>
       <r>    -4.6776    25.8317    14.0303 </r>
       <r>    -4.6250    27.8795    15.4982 </r>
       <r>    -4.5723     6.0587    15.8171 </r>
       <r>    -4.5197     8.7728    16.2790 </r>
       <r>    -4.4670     4.4181    16.5116 </r>
       <r>    -4.4144     6.1076    16.8331 </r>
       <r>    -4.3617     2.0853    16.9429 </r>
       <r>    -4.3091    26.5803    18.3423 </r>
       <r>    -4.2564    24.8600    19.6512 </r>
       <r>    -4.2038    15.5932    20.4721 </r>
       <r>    -4.1511    17.5120    21.3941 </r>
       <r>    -4.0985    17.6520    22.3234 </r>
       <r>    -4.0458     4.2452    22.5469 </r>
       <r>    -3.9932    15.9469    23.3865 </r>
       <r>    -3.9405    19.4068    24.4082 </r>
       <r>    -3.8879    17.7712    25.3438 </r>
       <r>    -3.8352     3.4748    25.5268 </r>
       <r>    -3.7826     8.6554    25.9824 </r>
       <r>    -3.7299     2.4619    26.1121 </r>
       <r>    -3.6773    17.9816    27.0588 </r>
       <r>    -3.6247    12.7692    27.7310 </r>
       <r>    -3.5720     6.0063    28.0472 </r>
       <r>    -3.5194    30.9965    29.6791 </r>
       <r>    -3.4667    16.9017    30.5690 </r>
       <r>    -3.4141    16.7532    31.4510 </r>
       <r>    -3.3614    11.0230    32.0313 </r>
       <r>    -3.3088    10.4467    32.5813 </r>
       <r>    -3.2561    23.0786    33.7964 </r>
       <r>    -3.2035     7.2547    34.1783 </r>
       <r>    -3.1508    15.4977    34.9942 </r>
       <r>    -3.0982    13.9765    35.7301 </r>
       <r>    -3.0455    30.1712    37.3185 </r>
       <r>    -2.9929    17.0030    38.2137 </r>
       <r>    -2.9402     6.5666    38.5594 </r>
       <r>    -2.8876    13.9628    39.2945 </r>
       <r>    -2.8349    14.8894    40.0784 </r>
       <r>    -2.7823     8.0077    40.5000 </r>
       <r>    -2.7296    11.1472    41.0869 </r>
       <r>    -2.6770    21.6888    42.2288 </r>
       <r>    -2.6243    12.6478    42.8946 </r>
       <r>    -2.5717    18.2762    43.8568 </r>
       <r>    -2.5190    11.1143    44.4420 </r>
       <r>    -2.4664     8.5859    44.8940 </r>
       <r>    -2.4138     5.1788    45.1667 </r>
       <r>    -2.3611     0.0000    45.1667 </r>
       <r>    -2.3085     5.6279    45.4630 </r>
       <r>    -2.2558    12.1757    46.1040 </r>
       <r>    -2.2032     7.5247    46.5001 </r>
       <r>    -2.1505    11.6680    47.1144 </r>
       <r>    -2.0979    21.4088    48.2416 </r>
       <r>    -2.0452    13.9867    48.9779 </r>
       <r>    -1.9926    16.9217    49.8688 </r>
       <r>    -1.9399    16.5596    50.7407 </r>
       <r>    -1.8873     5.5365    51.0321 </r>
       <r>    -1.8346     3.3474    51.2084 </r>
       <r>    -1.7820     8.9877    51.6816 </r>
       <r>    -1.7293    12.3671    52.3327 </r>
       <r>    -1.6767    20.1108    53.3915 </r>
       <r>    -1.6240    11.5203    53.9980 </r>
       <r>    -1.5714    17.1164    54.8991 </r>
       <r>    -1.5187    11.2516    55.4915 </r>
       <r>    -1.4661    17.2335    56.3988 </r>
       <r>    -1.4134    12.0032    57.0308 </r>
       <r>    -1.3608    11.0697    57.6136 </r>
       <r>    -1.3081     9.0475    58.0899 </r>
       <r>    -1.2555     5.9088    58.4010 </r>
       <r>    -1.2029    13.2131    59.0966 </r>
       <r>    -1.1502    11.5623    59.7053 </r>
       <r>    -1.0976     7.0963    60.0789 </r>
       <r>    -1.0449    17.4392    60.9971 </r>
       <r>    -0.9923     9.4028    61.4921 </r>
       <r>    -0.9396    19.0394    62.4945 </r>
       <r>    -0.8870     3.2719    62.6668 </r>
       <r>    -0.8343     5.8216    62.9732 </r>
       <r>    -0.7817    20.0546    64.0291 </r>
       <r>    -0.7290    10.4474    64.5791 </r>
       <r>    -0.6764    21.6467    65.7188 </r>
       <r>    -0.6237    11.4347    66.3208 </r>
       <r>    -0.5711    12.3567    66.9713 </r>
       <r>    -0.5184    17.0751    67.8703 </r>
       <r>    -0.4658    18.7951    68.8598 </r>
       <r>    -0.4131    11.9932    69.4912 </r>
       <r>    -0.3605    15.9969    70.3334 </r>
       <r>    -0.3078    16.9797    71.2274 </r>
       <r>    -0.2552    24.0209    72.4920 </r>
       <r>    -0.2025     4.9391    72.7521 </r>
       <r>    -0.1499    22.2660    73.9243 </r>
       <r>    -0.0972    10.0284    74.4523 </r>
       <r>    -0.0446     4.0709    74.6666 </r>
       <r>     0.0080    12.7803    75.3395 </r>
       <r>     0.0607    30.2604    76.9326 </r>
       <r>     0.1133    16.3809    77.7950 </r>
       <r>     0.1660    15.0155    78.5856 </r>
       <r>     0.2186    12.6553    79.2519 </r>
       <r>     0.2713    21.7948    80.3993 </r>
       <r>     0.3239    17.2204    81.3059 </r>
       <r>     0.3766    14.1217    82.0494 </r>
       <r>     0.4292    11.7243    82.6667 </r>
       <r>     0.4819     2.5958    82.8033 </r>
       <r>     0.5345    22.7589    84.0015 </r>
       <r>     0.5872    20.8598    85.0998 </r>
       <r>     0.6398    10.2041    85.6370 </r>
       <r>     0.6925    21.8712    86.7885 </r>
       <r>     0.7451    13.2771    87.4875 </r>
       <r>     0.7978     6.2803    87.8181 </r>
       <r>     0.8504     3.4698    88.0008 </r>
       <r>     0.9031    10.1366    88.5345 </r>
       <r>     0.9557    24.1028    89.8034 </r>
       <r>     1.0084    13.9127    90.5359 </r>
       <r>     1.0610     8.3928    90.9778 </r>
       <r>     1.1137    19.0047    91.9783 </r>
       <r>     1.1663     9.7193    92.4900 </r>
       <r>     1.2189     6.5931    92.8371 </r>
       <r>     1.2716    15.3925    93.6475 </r>
       <r>     1.3242    14.6901    94.4209 </r>
       <r>     1.3769    11.4054    95.0214 </r>
       <r>     1.4295     8.8816    95.4890 </r>
       <r>     1.4822    21.9976    96.6471 </r>
       <r>     1.5348    14.4129    97.4059 </r>
       <r>     1.5875    15.8817    98.2421 </r>
       <r>     1.6401    11.1512    98.8292 </r>
       <r>     1.6928    15.3670    99.6382 </r>
       <r>     1.7454    30.4491   101.2413 </r>
       <r>     1.7981    25.7500   102.5970 </r>
       <r>     1.8507    27.4514   104.0422 </r>
       <r>     1.9034    21.8163   105.1908 </r>
       <r>     1.9560    17.1251   106.0924 </r>
       <r>     2.0087    36.4248   108.0101 </r>
       <r>     2.0613    29.4196   109.5590 </r>
       <r>     2.1140    28.4070   111.0545 </r>
       <r>     2.1666    25.3409   112.3887 </r>
       <r>     2.2193    21.1504   113.5022 </r>
       <r>     2.2719    34.6776   115.3279 </r>
       <r>     2.3246    29.6436   116.8886 </r>
       <r>     2.3772    21.7157   118.0319 </r>
       <r>     2.4298    20.3311   119.1023 </r>
       <r>     2.4825    26.8776   120.5173 </r>
       <r>     2.5351    25.2130   121.8447 </r>
       <r>     2.5878    16.7037   122.7241 </r>
       <r>     2.6404    30.0056   124.3039 </r>
       <r>     2.6931    16.4848   125.1718 </r>
       <r>     2.7457    29.4977   126.7247 </r>
       <r>     2.7984    33.9293   128.5111 </r>
       <r>     2.8510    31.4037   130.1644 </r>
       <r>     2.9037    31.0603   131.7997 </r>
       <r>     2.9563    25.2206   133.1275 </r>
       <r>     3.0090    26.4088   134.5178 </r>
       <r>     3.0616    11.2833   135.1119 </r>
       <r>     3.1143    35.5591   136.9840 </r>
       <r>     3.1669    11.6803   137.5989 </r>
       <r>     3.2196    30.0156   139.1792 </r>
       <r>     3.2722    14.3558   139.9350 </r>
       <r>     3.3249    20.1444   140.9956 </r>
       <r>     3.3775    14.8046   141.7750 </r>
       <r>     3.4302    38.0368   143.7776 </r>
       <r>     3.4828    15.6211   144.6000 </r>
       <r>     3.5355    26.6153   146.0012 </r>
       <r>     3.5881    20.0590   147.0573 </r>
       <r>     3.6407    22.8613   148.2609 </r>
       <r>     3.6934    35.0746   150.1075 </r>
       <r>     3.7460    26.3975   151.4972 </r>
       <r>     3.7987    19.1982   152.5080 </r>
       <r>     3.8513    19.8053   153.5507 </r>
       <r>     3.9040    19.7141   154.5886 </r>
       <r>     3.9566    25.4238   155.9271 </r>
       <r>     4.0093    21.4752   157.0577 </r>
       <r>     4.0619    23.0391   158.2707 </r>
       <r>     4.1146    24.5964   159.5656 </r>
       <r>     4.1672    28.4768   161.0649 </r>
       <r>     4.2199    16.4537   161.9311 </r>
       <r>     4.2725    32.5184   163.6432 </r>
       <r>     4.3252    26.4757   165.0370 </r>
       <r>     4.3778    25.9689   166.4043 </r>
       <r>     4.4305    18.7163   167.3896 </r>
       <r>     4.4831    25.4914   168.7317 </r>
       <r>     4.5358    39.8896   170.8318 </r>
       <r>     4.5884    33.5742   172.5994 </r>
       <r>     4.6411    15.2109   173.4002 </r>
       <r>     4.6937    30.3808   174.9997 </r>
       <r>     4.7464    36.9006   176.9425 </r>
       <r>     4.7990    28.7162   178.4543 </r>
       <r>     4.8516    22.0220   179.6137 </r>
       <r>     4.9043    26.3217   180.9995 </r>
       <r>     4.9569    40.4718   183.1302 </r>
       <r>     5.0096    29.1649   184.6657 </r>
       <r>     5.0622    31.0778   186.3019 </r>
       <r>     5.1149    33.8859   188.0859 </r>
       <r>     5.1675    35.3709   189.9481 </r>
       <r>     5.2202    26.9935   191.3693 </r>
       <r>     5.2728    17.3031   192.2803 </r>
       <r>     5.3255    40.7439   194.4253 </r>
       <r>     5.3781    30.9976   196.0573 </r>
       <r>     5.4308    23.3030   197.2842 </r>
       <r>     5.4834    34.9943   199.1265 </r>
       <r>     5.5361    32.7637   200.8515 </r>
       <r>     5.5887    31.8920   202.5305 </r>
       <r>     5.6414    24.7238   203.8322 </r>
       <r>     5.6940    24.6727   205.1312 </r>
       <r>     5.7467    35.7219   207.0118 </r>
       <r>     5.7993    35.3094   208.8708 </r>
       <r>     5.8520    37.1544   210.8269 </r>
       <r>     5.9046    31.9111   212.5070 </r>
       <r>     5.9572    35.8009   214.3918 </r>
       <r>     6.0099    30.8264   216.0148 </r>
       <r>     6.0625    36.0067   217.9104 </r>
       <r>     6.1152    25.6399   219.2603 </r>
       <r>     6.1678    36.2916   221.1710 </r>
       <r>     6.2205    17.9765   222.1174 </r>
       <r>     6.2731    30.8454   223.7414 </r>
       <r>     6.3258    44.9207   226.1063 </r>
       <r>     6.3784    17.6728   227.0368 </r>
       <r>     6.4311    25.8756   228.3991 </r>
       <r>     6.4837    29.0985   229.9311 </r>
       <r>     6.5364    18.4421   230.9020 </r>
       <r>     6.5890     8.2615   231.3370 </r>
       <r>     6.6417    12.5939   232.0000 </r>
       <r>     6.6943     0.0000   232.0000 </r>
       <r>     6.7470     0.0000   232.0000 </r>
       <r>     6.7996     0.0000   232.0000 </r>
       <r>     6.8523     0.0000   232.0000 </r>
       <r>     6.9049     0.0000   232.0000 </r>
       <r>     6.9576     0.0000   232.0000 </r>
       <r>     7.0102     0.0000   232.0000 </r>
       <r>     7.0629     0.0000   232.0000 </r>
       <r>     7.1155     0.0000   232.0000 </r>
       <r>     7.1681     0.0000   232.0000 </r>
       <r>     7.2208     0.0000   232.0000 </r>
       <r>     7.2734     0.0000   232.0000 </r>
       <r>     7.3261     0.0000   232.0000 </r>
      </set>
     </set>
    </array>
   </total>
  </dos>
 </calculation>
 <structure name="finalpos" >
  <crystal>
   <varray name="basis" >
    <v>       9.17711449       0.00000000       0.00000000 </v>
    <v>       0.00000000      19.46760178       0.00000000 </v>
    <v>       0.00000000       0.00000000       7.64760256 </v>
   </varray>
   <i name="volume">   1366.29322030 </i>
   <varray name="rec_basis" >
    <v>       0.10896671       0.00000000       0.00000000 </v>
    <v>       0.00000000       0.05136740       0.00000000 </v>
    <v>       0.00000000       0.00000000       0.13075993 </v>
   </varray>
  </crystal>
  <varray name="positions" >
   <v>       0.69351405       0.52324402       0.10000000 </v>
   <v>       0.94351405       0.91213298       0.00000002 </v>
   <v>       0.80648589       0.10657722       0.89999986 </v>
   <v>       0.55648625       0.71768808       0.99999976 </v>
   <v>       0.44351381       0.71768808       0.49999982 </v>
   <v>       0.19351399       0.10657704       0.39999980 </v>
   <v>       0.44351399       0.49546599       0.29999992 </v>
   <v>       0.44351405       0.91213298       0.00000002 </v>
   <v>       0.80648613       0.96768832       0.99999988 </v>
   <v>       0.80648595       0.52324402       0.59999996 </v>
   <v>       0.69351387       0.96768808       0.49999997 </v>
   <v>       0.69351387       0.10657716       0.39999992 </v>
   <v>       0.19351403       0.52324402       0.09999996 </v>
   <v>       0.44351399       0.27324396       0.10000002 </v>
   <v>       0.55648589       0.91213298       0.49999994 </v>
   <v>       0.05648613       0.71768808       0.99999988 </v>
   <v>       0.94351387       0.71768808       0.49999982 </v>
   <v>       0.94351387       0.35657716       0.39999986 </v>
   <v>       0.94351405       0.27324393       0.09999999 </v>
   <v>       0.69351405       0.66213292       0.00000003 </v>
   <v>       0.05648592       0.91213298       0.49999994 </v>
   <v>       0.80648589       0.66213292       0.49999994 </v>
   <v>       0.44351399       0.35657728       0.39999986 </v>
   <v>       0.44351405       0.13435519       0.19999990 </v>
   <v>       0.94351405       0.13435519       0.19999997 </v>
   <v>       0.30648595       0.52324402       0.59999996 </v>
   <v>       0.55648595       0.13435519       0.69999993 </v>
   <v>       0.80648607       0.74546611       0.79999995 </v>
   <v>       0.05648613       0.35657716       0.89999986 </v>
   <v>       0.94351405       0.13435519       0.19999997 </v>
   <v>       0.69351405       0.74546611       0.29999995 </v>
   <v>       0.05648589       0.27324396       0.60000002 </v>
   <v>       0.30648589       0.88435507       0.69999993 </v>
   <v>       0.55648601       0.49546593       0.79999995 </v>
   <v>       0.44351405       0.13435519       0.19999990 </v>
   <v>       0.94351393       0.49546599       0.29999995 </v>
   <v>       0.94351393       0.49546599       0.29999995 </v>
   <v>       0.55648595       0.27324393       0.59999996 </v>
   <v>       0.80648589       0.88435507       0.69999993 </v>
   <v>       0.05648601       0.49546599       0.79999995 </v>
   <v>       0.30648601       0.10657710       0.89999986 </v>
   <v>       0.19351393       0.74546611       0.29999995 </v>
   <v>       0.19351402       0.88435507       0.19999997 </v>
   <v>       0.44351399       0.49546599       0.29999992 </v>
   <v>       0.05648589       0.13435519       0.69999993 </v>
   <v>       0.30648601       0.74546611       0.79999995 </v>
   <v>       0.55648601       0.35657728       0.89999986 </v>
   <v>       0.69351411       0.88435507       0.19999997 </v>
  </varray>
 </structure>
</modeling>
