 264 264   0   0
  0.2164176E+02  0.1958175E-08  0.1958175E-08  0.1490025E-08  0.5000000E-15
  1.000000000000000E-004
  CAR 
 Si and Ge interface calculation         
      9.02476302     -8.99953611  301      6.38004398      1.00000000
     -9.000  0.0000E+00  0.0000E+00  0.0000E+00  0.0000E+00
     -8.939  0.0000E+00  0.0000E+00  0.0000E+00  0.0000E+00
     -8.879  0.0000E+00  0.0000E+00  0.0000E+00  0.0000E+00
     -8.819  0.0000E+00  0.0000E+00  0.0000E+00  0.0000E+00
     -8.759  0.0000E+00  0.0000E+00  0.0000E+00  0.0000E+00
     -8.699  0.0000E+00  0.0000E+00  0.0000E+00  0.0000E+00
     -8.639  0.0000E+00  0.0000E+00  0.0000E+00  0.0000E+00
     -8.579  0.0000E+00  0.0000E+00  0.0000E+00  0.0000E+00
     -8.519  0.0000E+00  0.0000E+00  0.0000E+00  0.0000E+00
     -8.459  0.0000E+00  0.0000E+00  0.0000E+00  0.0000E+00
     -8.399  0.0000E+00  0.0000E+00  0.0000E+00  0.0000E+00
     -8.339  0.0000E+00  0.0000E+00  0.0000E+00  0.0000E+00
     -8.279  0.0000E+00  0.0000E+00  0.0000E+00  0.0000E+00
     -8.218  0.2470E-06  0.6536E-09  0.1484E-07  0.3927E-10
     -8.158  0.3316E+02  0.3188E+02  0.1992E+01  0.1915E+01
     -8.098  0.3307E+02  0.3190E+02  0.3980E+01  0.3832E+01
     -8.038  0.3113E+02  0.2607E+02  0.5851E+01  0.5398E+01
     -7.978  0.3574E+02  0.4247E+02  0.7998E+01  0.7949E+01
     -7.918  0.1037E-01  0.8430E+00  0.8000E+01  0.8000E+01
     -7.858  0.0000E+00  0.0000E+00  0.8000E+01  0.8000E+01
     -7.798  0.4335E-01  0.1276E-02  0.8003E+01  0.8000E+01
     -7.738  0.5076E+02  0.4223E+02  0.1105E+02  0.1054E+02
     -7.678  0.1577E+02  0.2434E+02  0.1200E+02  0.1200E+02
     -7.618  0.3461E+02  0.3057E+02  0.1408E+02  0.1384E+02
     -7.558  0.3239E+02  0.3603E+02  0.1603E+02  0.1600E+02
     -7.498  0.3383E+02  0.3335E+02  0.1806E+02  0.1801E+02
     -7.437  0.5151E+02  0.4725E+02  0.2115E+02  0.2085E+02
     -7.377  0.4641E+02  0.4901E+02  0.2394E+02  0.2379E+02
     -7.317  0.9694E+00  0.3501E+01  0.2400E+02  0.2400E+02
     -7.257  0.2139E+02  0.1192E+02  0.2528E+02  0.2472E+02
     -7.197  0.6142E+02  0.6700E+02  0.2898E+02  0.2874E+02
     -7.137  0.5372E+02  0.5434E+02  0.3220E+02  0.3201E+02
     -7.077  0.2992E+02  0.3317E+02  0.3400E+02  0.3400E+02
     -7.017  0.2920E+02  0.2034E+02  0.3575E+02  0.3522E+02
     -6.957  0.4076E+01  0.1295E+02  0.3600E+02  0.3600E+02
     -6.897  0.3278E+01  0.7686E+00  0.3620E+02  0.3605E+02
     -6.837  0.3001E+02  0.3249E+02  0.3800E+02  0.3800E+02
     -6.777  0.3100E+02  0.2533E+02  0.3986E+02  0.3952E+02
     -6.716  0.2326E+01  0.7986E+01  0.4000E+02  0.4000E+02
     -6.656  0.3320E+02  0.3277E+02  0.4200E+02  0.4197E+02
     -6.596  0.5026E-01  0.5049E+00  0.4200E+02  0.4200E+02
     -6.536  0.6147E+02  0.5446E+02  0.4569E+02  0.4527E+02
     -6.476  0.5443E+01  0.1215E+02  0.4602E+02  0.4600E+02
     -6.416  0.3293E+02  0.3324E+02  0.4800E+02  0.4800E+02
     -6.356  0.3001E-05  0.2207E-07  0.4800E+02  0.4800E+02
     -6.296  0.1353E+02  0.1054E+02  0.4881E+02  0.4863E+02
     -6.236  0.3670E+02  0.3552E+02  0.5102E+02  0.5077E+02
     -6.176  0.4698E+02  0.4365E+02  0.5384E+02  0.5339E+02
     -6.116  0.2652E+01  0.1015E+02  0.5400E+02  0.5400E+02
     -6.056  0.0000E+00  0.0000E+00  0.5400E+02  0.5400E+02
     -5.995  0.1954E-01  0.3213E-03  0.5400E+02  0.5400E+02
     -5.935  0.3476E+02  0.3271E+02  0.5609E+02  0.5597E+02
     -5.875  0.3179E+02  0.3387E+02  0.5800E+02  0.5800E+02
     -5.815  0.2817E-05  0.1372E-06  0.5800E+02  0.5800E+02
     -5.755  0.1638E+02  0.1584E+02  0.5898E+02  0.5895E+02
     -5.695  0.2681E+02  0.2264E+02  0.6059E+02  0.6031E+02
     -5.635  0.3111E+02  0.3478E+02  0.6246E+02  0.6240E+02
     -5.575  0.4219E+02  0.4315E+02  0.6500E+02  0.6499E+02
     -5.515  0.2461E+02  0.2353E+02  0.6648E+02  0.6641E+02
     -5.455  0.2747E+02  0.2655E+02  0.6813E+02  0.6800E+02
     -5.395  0.5196E+02  0.4800E+02  0.7125E+02  0.7089E+02
     -5.335  0.2185E+02  0.2702E+02  0.7256E+02  0.7251E+02
     -5.275  0.4771E+02  0.4594E+02  0.7543E+02  0.7527E+02
     -5.214  0.3813E+02  0.3819E+02  0.7772E+02  0.7757E+02
     -5.154  0.3719E+02  0.3574E+02  0.7996E+02  0.7971E+02
     -5.094  0.2405E+02  0.2640E+02  0.8140E+02  0.8130E+02
     -5.034  0.2646E+02  0.2593E+02  0.8299E+02  0.8286E+02
     -4.974  0.2945E+02  0.2737E+02  0.8476E+02  0.8450E+02
     -4.914  0.4042E+02  0.4070E+02  0.8719E+02  0.8695E+02
     -4.854  0.3342E+02  0.3421E+02  0.8920E+02  0.8900E+02
     -4.794  0.3214E+02  0.3355E+02  0.9113E+02  0.9102E+02
     -4.734  0.2036E+02  0.1796E+02  0.9235E+02  0.9210E+02
     -4.674  0.5587E+02  0.5695E+02  0.9571E+02  0.9552E+02
     -4.614  0.3166E+02  0.3001E+02  0.9761E+02  0.9732E+02
     -4.554  0.4460E+02  0.4510E+02  0.1003E+03  0.1000E+03
     -4.493  0.6441E+02  0.6184E+02  0.1042E+03  0.1038E+03
     -4.433  0.4841E+02  0.5098E+02  0.1071E+03  0.1068E+03
     -4.373  0.6959E+02  0.6890E+02  0.1112E+03  0.1110E+03
     -4.313  0.4532E+02  0.4758E+02  0.1140E+03  0.1138E+03
     -4.253  0.7332E+02  0.7044E+02  0.1184E+03  0.1180E+03
     -4.193  0.6815E+02  0.6519E+02  0.1225E+03  0.1220E+03
     -4.133  0.6908E+02  0.7215E+02  0.1266E+03  0.1263E+03
     -4.073  0.4344E+02  0.4309E+02  0.1292E+03  0.1289E+03
     -4.013  0.7002E+02  0.7114E+02  0.1334E+03  0.1332E+03
     -3.953  0.7027E+02  0.6820E+02  0.1377E+03  0.1373E+03
     -3.893  0.5620E+02  0.6064E+02  0.1410E+03  0.1409E+03
     -3.833  0.5272E+02  0.5001E+02  0.1442E+03  0.1439E+03
     -3.772  0.7333E+02  0.7206E+02  0.1486E+03  0.1482E+03
     -3.712  0.4060E+02  0.4360E+02  0.1511E+03  0.1509E+03
     -3.652  0.4003E+02  0.4020E+02  0.1535E+03  0.1533E+03
     -3.592  0.4400E+02  0.4359E+02  0.1561E+03  0.1559E+03
     -3.532  0.5452E+02  0.5377E+02  0.1594E+03  0.1591E+03
     -3.472  0.6727E+02  0.6820E+02  0.1634E+03  0.1632E+03
     -3.412  0.5771E+02  0.5678E+02  0.1669E+03  0.1666E+03
     -3.352  0.6354E+02  0.6256E+02  0.1707E+03  0.1704E+03
     -3.292  0.4147E+02  0.4497E+02  0.1732E+03  0.1731E+03
     -3.232  0.4011E+02  0.3792E+02  0.1756E+03  0.1754E+03
     -3.172  0.4946E+02  0.4879E+02  0.1786E+03  0.1783E+03
     -3.112  0.5211E+02  0.5017E+02  0.1817E+03  0.1813E+03
     -3.052  0.7335E+02  0.7487E+02  0.1861E+03  0.1858E+03
     -2.991  0.5716E+02  0.5802E+02  0.1896E+03  0.1893E+03
     -2.931  0.6695E+02  0.6858E+02  0.1936E+03  0.1934E+03
     -2.871  0.6156E+02  0.6010E+02  0.1973E+03  0.1970E+03
     -2.811  0.6936E+02  0.6853E+02  0.2014E+03  0.2012E+03
     -2.751  0.7009E+02  0.6841E+02  0.2057E+03  0.2053E+03
     -2.691  0.6296E+02  0.6687E+02  0.2094E+03  0.2093E+03
     -2.631  0.8406E+02  0.8131E+02  0.2145E+03  0.2142E+03
     -2.571  0.5466E+02  0.5517E+02  0.2178E+03  0.2175E+03
     -2.511  0.7717E+02  0.7854E+02  0.2224E+03  0.2222E+03
     -2.451  0.5557E+02  0.5508E+02  0.2257E+03  0.2255E+03
     -2.391  0.6301E+02  0.6161E+02  0.2295E+03  0.2292E+03
     -2.331  0.6039E+02  0.6201E+02  0.2332E+03  0.2329E+03
     -2.270  0.6498E+02  0.6596E+02  0.2371E+03  0.2369E+03
     -2.210  0.5814E+02  0.5539E+02  0.2406E+03  0.2402E+03
     -2.150  0.7600E+02  0.7751E+02  0.2451E+03  0.2449E+03
     -2.090  0.8000E+02  0.7555E+02  0.2499E+03  0.2494E+03
     -2.030  0.8222E+02  0.8212E+02  0.2549E+03  0.2544E+03
     -1.970  0.6416E+02  0.6559E+02  0.2587E+03  0.2583E+03
     -1.910  0.8057E+02  0.8149E+02  0.2636E+03  0.2632E+03
     -1.850  0.9253E+02  0.9197E+02  0.2691E+03  0.2687E+03
     -1.790  0.7155E+02  0.7281E+02  0.2734E+03  0.2731E+03
     -1.730  0.6459E+02  0.6657E+02  0.2773E+03  0.2771E+03
     -1.670  0.6644E+02  0.6437E+02  0.2813E+03  0.2810E+03
     -1.610  0.6590E+02  0.6337E+02  0.2853E+03  0.2848E+03
     -1.549  0.8807E+02  0.9164E+02  0.2905E+03  0.2903E+03
     -1.489  0.8385E+02  0.8317E+02  0.2956E+03  0.2953E+03
     -1.429  0.7330E+02  0.7490E+02  0.3000E+03  0.2998E+03
     -1.369  0.5620E+02  0.5282E+02  0.3034E+03  0.3030E+03
     -1.309  0.6070E+02  0.5994E+02  0.3070E+03  0.3066E+03
     -1.249  0.5696E+02  0.6148E+02  0.3104E+03  0.3102E+03
     -1.189  0.7170E+02  0.6727E+02  0.3147E+03  0.3143E+03
     -1.129  0.7719E+02  0.7748E+02  0.3194E+03  0.3189E+03
     -1.069  0.7207E+02  0.7325E+02  0.3237E+03  0.3233E+03
     -1.009  0.5921E+02  0.6206E+02  0.3273E+03  0.3271E+03
     -0.949  0.6723E+02  0.6803E+02  0.3313E+03  0.3312E+03
     -0.889  0.5633E+02  0.5508E+02  0.3347E+03  0.3345E+03
     -0.829  0.4524E+02  0.4383E+02  0.3374E+03  0.3371E+03
     -0.768  0.6902E+02  0.6933E+02  0.3416E+03  0.3413E+03
     -0.708  0.7359E+02  0.7375E+02  0.3460E+03  0.3457E+03
     -0.648  0.5752E+02  0.5828E+02  0.3494E+03  0.3492E+03
     -0.588  0.5478E+02  0.5442E+02  0.3527E+03  0.3525E+03
     -0.528  0.5823E+02  0.5582E+02  0.3562E+03  0.3558E+03
     -0.468  0.5786E+02  0.5907E+02  0.3597E+03  0.3594E+03
     -0.408  0.8158E+02  0.8134E+02  0.3646E+03  0.3643E+03
     -0.348  0.6437E+02  0.6521E+02  0.3685E+03  0.3682E+03
     -0.288  0.5767E+02  0.5814E+02  0.3719E+03  0.3717E+03
     -0.228  0.8515E+02  0.8362E+02  0.3771E+03  0.3767E+03
     -0.168  0.7320E+02  0.7253E+02  0.3815E+03  0.3811E+03
     -0.108  0.9615E+02  0.9530E+02  0.3872E+03  0.3868E+03
     -0.047  0.8548E+02  0.8353E+02  0.3924E+03  0.3918E+03
      0.013  0.9698E+02  0.9918E+02  0.3982E+03  0.3978E+03
      0.073  0.8569E+02  0.8717E+02  0.4033E+03  0.4030E+03
      0.133  0.8276E+02  0.7737E+02  0.4083E+03  0.4077E+03
      0.193  0.8685E+02  0.9092E+02  0.4135E+03  0.4131E+03
      0.253  0.8499E+02  0.8566E+02  0.4186E+03  0.4183E+03
      0.313  0.8160E+02  0.7876E+02  0.4235E+03  0.4230E+03
      0.373  0.9659E+02  0.9904E+02  0.4294E+03  0.4289E+03
      0.433  0.7452E+02  0.7380E+02  0.4338E+03  0.4334E+03
      0.493  0.7530E+02  0.7750E+02  0.4384E+03  0.4380E+03
      0.553  0.9125E+02  0.9013E+02  0.4438E+03  0.4435E+03
      0.613  0.9931E+02  0.9946E+02  0.4498E+03  0.4494E+03
      0.674  0.9009E+02  0.9090E+02  0.4552E+03  0.4549E+03
      0.734  0.1013E+03  0.9842E+02  0.4613E+03  0.4608E+03
      0.794  0.8617E+02  0.9020E+02  0.4665E+03  0.4662E+03
      0.854  0.8917E+02  0.8918E+02  0.4718E+03  0.4716E+03
      0.914  0.8653E+02  0.8593E+02  0.4770E+03  0.4767E+03
      0.974  0.8475E+02  0.8237E+02  0.4821E+03  0.4817E+03
      1.034  0.8731E+02  0.8845E+02  0.4874E+03  0.4870E+03
      1.094  0.7520E+02  0.7756E+02  0.4919E+03  0.4917E+03
      1.154  0.7762E+02  0.7534E+02  0.4966E+03  0.4962E+03
      1.214  0.8752E+02  0.8878E+02  0.5018E+03  0.5015E+03
      1.274  0.8953E+02  0.8852E+02  0.5072E+03  0.5068E+03
      1.334  0.8478E+02  0.8679E+02  0.5123E+03  0.5121E+03
      1.394  0.8317E+02  0.8051E+02  0.5173E+03  0.5169E+03
      1.455  0.8377E+02  0.8581E+02  0.5223E+03  0.5221E+03
      1.515  0.1117E+03  0.1076E+03  0.5290E+03  0.5285E+03
      1.575  0.8306E+02  0.8629E+02  0.5340E+03  0.5337E+03
      1.635  0.1038E+03  0.1051E+03  0.5403E+03  0.5400E+03
      1.695  0.1012E+03  0.9987E+02  0.5463E+03  0.5460E+03
      1.755  0.1134E+03  0.1140E+03  0.5532E+03  0.5529E+03
      1.815  0.9975E+02  0.1007E+03  0.5592E+03  0.5589E+03
      1.875  0.8634E+02  0.8823E+02  0.5643E+03  0.5642E+03
      1.935  0.9200E+02  0.8997E+02  0.5699E+03  0.5696E+03
      1.995  0.9181E+02  0.9023E+02  0.5754E+03  0.5751E+03
      2.055  0.8942E+02  0.9036E+02  0.5808E+03  0.5805E+03
      2.115  0.9895E+02  0.9752E+02  0.5867E+03  0.5863E+03
      2.176  0.1053E+03  0.1044E+03  0.5930E+03  0.5926E+03
      2.236  0.8519E+02  0.8732E+02  0.5982E+03  0.5979E+03
      2.296  0.1124E+03  0.1077E+03  0.6049E+03  0.6043E+03
      2.356  0.1119E+03  0.1159E+03  0.6116E+03  0.6113E+03
      2.416  0.1207E+03  0.1224E+03  0.6189E+03  0.6186E+03
      2.476  0.1101E+03  0.1060E+03  0.6255E+03  0.6250E+03
      2.536  0.1073E+03  0.1078E+03  0.6319E+03  0.6315E+03
      2.596  0.1100E+03  0.1106E+03  0.6386E+03  0.6381E+03
      2.656  0.1146E+03  0.1156E+03  0.6454E+03  0.6451E+03
      2.716  0.1341E+03  0.1310E+03  0.6535E+03  0.6530E+03
      2.776  0.1292E+03  0.1309E+03  0.6613E+03  0.6608E+03
      2.836  0.1418E+03  0.1392E+03  0.6698E+03  0.6692E+03
      2.897  0.1343E+03  0.1359E+03  0.6779E+03  0.6774E+03
      2.957  0.1260E+03  0.1268E+03  0.6854E+03  0.6850E+03
      3.017  0.1295E+03  0.1294E+03  0.6932E+03  0.6927E+03
      3.077  0.1191E+03  0.1188E+03  0.7004E+03  0.6999E+03
      3.137  0.1044E+03  0.1070E+03  0.7066E+03  0.7063E+03
      3.197  0.1194E+03  0.1166E+03  0.7138E+03  0.7133E+03
      3.257  0.1319E+03  0.1345E+03  0.7217E+03  0.7214E+03
      3.317  0.1264E+03  0.1281E+03  0.7293E+03  0.7291E+03
      3.377  0.1182E+03  0.1126E+03  0.7364E+03  0.7359E+03
      3.437  0.9835E+02  0.1032E+03  0.7423E+03  0.7421E+03
      3.497  0.1274E+03  0.1233E+03  0.7500E+03  0.7495E+03
      3.557  0.1371E+03  0.1388E+03  0.7582E+03  0.7578E+03
      3.617  0.1043E+03  0.1062E+03  0.7645E+03  0.7642E+03
      3.678  0.1266E+03  0.1264E+03  0.7721E+03  0.7718E+03
      3.738  0.1182E+03  0.1153E+03  0.7792E+03  0.7787E+03
      3.798  0.1186E+03  0.1203E+03  0.7863E+03  0.7859E+03
      3.858  0.1108E+03  0.1091E+03  0.7930E+03  0.7925E+03
      3.918  0.1043E+03  0.1059E+03  0.7993E+03  0.7989E+03
      3.978  0.1065E+03  0.1093E+03  0.8057E+03  0.8054E+03
      4.038  0.1144E+03  0.1119E+03  0.8125E+03  0.8121E+03
      4.098  0.1149E+03  0.1142E+03  0.8194E+03  0.8190E+03
      4.158  0.1271E+03  0.1276E+03  0.8271E+03  0.8267E+03
      4.218  0.1121E+03  0.1130E+03  0.8338E+03  0.8335E+03
      4.278  0.1105E+03  0.1096E+03  0.8404E+03  0.8401E+03
      4.338  0.1238E+03  0.1272E+03  0.8479E+03  0.8477E+03
      4.399  0.1249E+03  0.1197E+03  0.8554E+03  0.8549E+03
      4.459  0.1227E+03  0.1249E+03  0.8628E+03  0.8624E+03
      4.519  0.1221E+03  0.1221E+03  0.8701E+03  0.8697E+03
      4.579  0.9996E+02  0.1019E+03  0.8761E+03  0.8758E+03
      4.639  0.1043E+03  0.1019E+03  0.8824E+03  0.8820E+03
      4.699  0.9567E+02  0.9584E+02  0.8881E+03  0.8877E+03
      4.759  0.8470E+02  0.8563E+02  0.8932E+03  0.8929E+03
      4.819  0.1043E+03  0.1018E+03  0.8995E+03  0.8990E+03
      4.879  0.1097E+03  0.1101E+03  0.9061E+03  0.9056E+03
      4.939  0.9036E+02  0.9511E+02  0.9115E+03  0.9113E+03
      4.999  0.9780E+02  0.9458E+02  0.9174E+03  0.9170E+03
      5.059  0.1108E+03  0.1097E+03  0.9240E+03  0.9236E+03
      5.119  0.9193E+02  0.9136E+02  0.9295E+03  0.9291E+03
      5.180  0.9676E+02  0.9499E+02  0.9354E+03  0.9348E+03
      5.240  0.9935E+02  0.9832E+02  0.9413E+03  0.9407E+03
      5.300  0.9020E+02  0.9110E+02  0.9467E+03  0.9462E+03
      5.360  0.1004E+03  0.1004E+03  0.9528E+03  0.9522E+03
      5.420  0.9185E+02  0.9520E+02  0.9583E+03  0.9579E+03
      5.480  0.9295E+02  0.9152E+02  0.9639E+03  0.9634E+03
      5.540  0.9804E+02  0.9840E+02  0.9698E+03  0.9693E+03
      5.600  0.9104E+02  0.9362E+02  0.9752E+03  0.9750E+03
      5.660  0.1104E+03  0.1083E+03  0.9819E+03  0.9815E+03
      5.720  0.1132E+03  0.1135E+03  0.9887E+03  0.9883E+03
      5.780  0.8257E+02  0.8197E+02  0.9936E+03  0.9932E+03
      5.840  0.9067E+02  0.9468E+02  0.9991E+03  0.9989E+03
      5.901  0.1039E+03  0.1002E+03  0.1005E+04  0.1005E+04
      5.961  0.9310E+02  0.1051E+03  0.1011E+04  0.1011E+04
      6.021  0.9589E+02  0.9006E+02  0.1017E+04  0.1017E+04
      6.081  0.9874E+02  0.1008E+03  0.1023E+04  0.1023E+04
      6.141  0.1011E+03  0.1052E+03  0.1029E+04  0.1029E+04
      6.201  0.1012E+03  0.1024E+03  0.1035E+04  0.1035E+04
      6.261  0.1148E+03  0.1132E+03  0.1042E+04  0.1042E+04
      6.321  0.9479E+02  0.1129E+03  0.1047E+04  0.1049E+04
      6.381  0.1135E+03  0.1052E+03  0.1054E+04  0.1055E+04
      6.441  0.1038E+03  0.1194E+03  0.1060E+04  0.1062E+04
      6.501  0.1261E+03  0.1265E+03  0.1068E+04  0.1070E+04
      6.561  0.1214E+03  0.1211E+03  0.1075E+04  0.1077E+04
      6.622  0.1164E+03  0.1289E+03  0.1082E+04  0.1085E+04
      6.682  0.1171E+03  0.1106E+03  0.1089E+04  0.1092E+04
      6.742  0.1183E+03  0.1130E+03  0.1096E+04  0.1098E+04
      6.802  0.1121E+03  0.1062E+03  0.1103E+04  0.1105E+04
      6.862  0.1329E+03  0.1169E+03  0.1111E+04  0.1112E+04
      6.922  0.1051E+03  0.1076E+03  0.1117E+04  0.1118E+04
      6.982  0.1332E+03  0.1341E+03  0.1125E+04  0.1126E+04
      7.042  0.1160E+03  0.1100E+03  0.1132E+04  0.1133E+04
      7.102  0.1062E+03  0.9977E+02  0.1139E+04  0.1139E+04
      7.162  0.1068E+03  0.1129E+03  0.1145E+04  0.1146E+04
      7.222  0.1171E+03  0.1098E+03  0.1152E+04  0.1152E+04
      7.282  0.1157E+03  0.1195E+03  0.1159E+04  0.1159E+04
      7.342  0.1144E+03  0.1169E+03  0.1166E+04  0.1166E+04
      7.403  0.1300E+03  0.1236E+03  0.1174E+04  0.1174E+04
      7.463  0.1071E+03  0.1061E+03  0.1180E+04  0.1180E+04
      7.523  0.1132E+03  0.1125E+03  0.1187E+04  0.1187E+04
      7.583  0.1343E+03  0.1386E+03  0.1195E+04  0.1195E+04
      7.643  0.1244E+03  0.1182E+03  0.1203E+04  0.1202E+04
      7.703  0.1306E+03  0.1329E+03  0.1211E+04  0.1210E+04
      7.763  0.1154E+03  0.1180E+03  0.1218E+04  0.1218E+04
      7.823  0.1394E+03  0.1344E+03  0.1226E+04  0.1226E+04
      7.883  0.1306E+03  0.1301E+03  0.1234E+04  0.1233E+04
      7.943  0.1335E+03  0.1317E+03  0.1242E+04  0.1241E+04
      8.003  0.1405E+03  0.1436E+03  0.1250E+04  0.1250E+04
      8.063  0.1386E+03  0.1384E+03  0.1259E+04  0.1258E+04
      8.124  0.1403E+03  0.1416E+03  0.1267E+04  0.1267E+04
      8.184  0.7735E+02  0.7655E+02  0.1272E+04  0.1271E+04
      8.244  0.6805E+01  0.1060E+02  0.1272E+04  0.1272E+04
      8.304  0.0000E+00  0.0000E+00  0.1272E+04  0.1272E+04
      8.364  0.0000E+00  0.0000E+00  0.1272E+04  0.1272E+04
      8.424  0.0000E+00  0.0000E+00  0.1272E+04  0.1272E+04
      8.484  0.0000E+00  0.0000E+00  0.1272E+04  0.1272E+04
      8.544  0.0000E+00  0.0000E+00  0.1272E+04  0.1272E+04
      8.604  0.0000E+00  0.0000E+00  0.1272E+04  0.1272E+04
      8.664  0.0000E+00  0.0000E+00  0.1272E+04  0.1272E+04
      8.724  0.0000E+00  0.0000E+00  0.1272E+04  0.1272E+04
      8.784  0.0000E+00  0.0000E+00  0.1272E+04  0.1272E+04
      8.845  0.0000E+00  0.0000E+00  0.1272E+04  0.1272E+04
      8.905  0.0000E+00  0.0000E+00  0.1272E+04  0.1272E+04
      8.965  0.0000E+00  0.0000E+00  0.1272E+04  0.1272E+04
      9.025  0.0000E+00  0.0000E+00  0.1272E+04  0.1272E+04
