   20   20   20    1
  0.1872000E+02  0.3920200E-09  0.3920200E-09  0.2436236E-08  0.5000000E-15
  1.000000000000000E-004
  CAR 
 Si and Ge interface calculation         
     80     36     51
 
  0.0000000E+00  0.0000000E+00  0.0000000E+00  0.1562500E-01
      1        -14.024088   1.000000
      2        -11.052786   1.000000
      3        -10.512951   1.000000
      4        -10.506011   1.000000
      5        -10.256241   1.000000
      6         -8.853502   1.000000
      7         -8.429737   1.000000
      8         -7.944855   1.000000
      9         -7.090692   1.000000
     10         -6.187968   1.000000
     11         -5.750989   1.000000
     12         -4.667604   1.000000
     13         -4.385145   1.000000
     14         -4.230509   1.000000
     15         -3.569098   1.000000
     16         -3.133544   1.000000
     17         -2.844151   1.000000
     18         -2.797965   1.000000
     19         -2.755188   1.000000
     20         -2.386278   1.000000
     21         -1.960278   1.000000
     22         -1.902914   1.000000
     23         -1.813741   1.000000
     24         -1.803374   1.000000
     25         -1.598226   1.000000
     26         -1.525588   1.000000
     27         -1.394092   1.000000
     28         -1.012931   1.000000
     29         -0.853442   1.000000
     30         -0.545037   1.000000
     31         -0.492461   1.000000
     32         -0.463003   1.000000
     33         -0.387652   1.000000
     34         -0.309699   1.000000
     35         -0.124648   1.000000
     36         -0.023295   1.000000
     37          0.295996   1.000000
     38          0.835500   1.000000
     39          1.347294   1.000000
     40          1.642090   0.964067
     41          1.961379   0.000000
     42          2.320449   0.000000
     43          2.544031   0.000000
     44          2.665969   0.000000
     45          3.076074   0.000000
     46          3.745299   0.000000
     47          4.585931   0.000000
     48          5.487166   0.000000
     49          6.723975   0.000000
     50          7.384112   0.000000
     51          9.126449   0.000000
 
  0.2500000E+00  0.0000000E+00  0.0000000E+00  0.3125000E-01
      1        -14.011856   1.000000
      2        -10.977136   1.000000
      3        -10.502943   1.000000
      4        -10.407582   1.000000
      5         -9.165953   1.000000
      6         -8.852611   1.000000
      7         -8.515351   1.000000
      8         -7.950196   1.000000
      9         -7.757899   1.000000
     10         -7.095243   1.000000
     11         -6.193739   1.000000
     12         -5.833720   1.000000
     13         -4.705202   1.000000
     14         -4.505752   1.000000
     15         -4.242530   1.000000
     16         -3.574949   1.000000
     17         -3.330733   1.000000
     18         -3.216531   1.000000
     19         -3.159382   1.000000
     20         -2.894383   1.000000
     21         -2.791780   1.000000
     22         -2.734583   1.000000
     23         -2.125018   1.000000
     24         -2.037087   1.000000
     25         -1.802668   1.000000
     26         -1.690088   1.000000
     27         -1.556491   1.000000
     28         -1.421834   1.000000
     29         -0.885067   1.000000
     30         -0.852287   1.000000
     31         -0.673098   1.000000
     32         -0.547981   1.000000
     33         -0.426236   1.000000
     34         -0.197852   1.000000
     35         -0.083261   1.000000
     36          0.286912   1.000000
     37          0.431753   1.000000
     38          0.772421   1.000000
     39          1.119668   1.000000
     40          1.349106   1.000000
     41          1.651381   0.937877
     42          1.984395   0.000000
     43          2.289388   0.000000
     44          2.372514   0.000000
     45          3.519042   0.000000
     46          3.940543   0.000000
     47          4.966199   0.000000
     48          6.097923   0.000000
     49          6.741192   0.000000
     50          7.428832   0.000000
     51          8.325215   0.000000
 
  0.0000000E+00  0.2500000E+00  0.0000000E+00  0.3125000E-01
      1        -10.861718   1.000000
      2        -10.139760   1.000000
      3         -8.777810   1.000000
      4         -8.581198   1.000000
      5         -8.487484   1.000000
      6         -8.121389   1.000000
      7         -7.757077   1.000000
      8         -6.888980   1.000000
      9         -6.380531   1.000000
     10         -5.327292   1.000000
     11         -5.313511   1.000000
     12         -4.948578   1.000000
     13         -4.723882   1.000000
     14         -4.544711   1.000000
     15         -4.207994   1.000000
     16         -3.988100   1.000000
     17         -3.383299   1.000000
     18         -3.314280   1.000000
     19         -3.256477   1.000000
     20         -3.173308   1.000000
     21         -2.713229   1.000000
     22         -2.586147   1.000000
     23         -2.399973   1.000000
     24         -2.210273   1.000000
     25         -2.009787   1.000000
     26         -1.941977   1.000000
     27         -1.863248   1.000000
     28         -1.781969   1.000000
     29         -1.598537   1.000000
     30         -1.128873   1.000000
     31         -1.024941   1.000000
     32         -0.797010   1.000000
     33         -0.730322   1.000000
     34         -0.725475   1.000000
     35         -0.434277   1.000000
     36         -0.394898   1.000000
     37          0.083602   1.000000
     38          0.657910   1.000000
     39          1.093141   1.000000
     40          1.425801   1.000000
     41          1.674197   0.813767
     42          2.588420   0.000000
     43          3.270854   0.000000
     44          3.469753   0.000000
     45          3.758292   0.000000
     46          4.751976   0.000000
     47          4.949113   0.000000
     48          5.715113   0.000000
     49          8.076113   0.000000
     50          8.592243   0.000000
     51         10.430124   0.000000
 
  0.5000000E+00  0.0000000E+00  0.0000000E+00  0.1562500E-01
      1        -13.998910   1.000000
      2        -10.840322   1.000000
      3        -10.610695   1.000000
      4        -10.499023   1.000000
      5         -9.173509   1.000000
      6         -8.851761   1.000000
      7         -7.953087   1.000000
      8         -7.766543   1.000000
      9         -7.099916   1.000000
     10         -6.199476   1.000000
     11         -5.890041   1.000000
     12         -4.718260   1.000000
     13         -4.635436   1.000000
     14         -4.586538   1.000000
     15         -4.248601   1.000000
     16         -4.215774   1.000000
     17         -3.605110   1.000000
     18         -3.576506   1.000000
     19         -3.316364   1.000000
     20         -3.220789   1.000000
     21         -2.899207   1.000000
     22         -2.754134   1.000000
     23         -2.748911   1.000000
     24         -2.270386   1.000000
     25         -2.184409   1.000000
     26         -2.038252   1.000000
     27         -1.886672   1.000000
     28         -1.784421   1.000000
     29         -1.692342   1.000000
     30         -1.567850   1.000000
     31         -0.862561   1.000000
     32         -0.783621   1.000000
     33         -0.554007   1.000000
     34         -0.461321   1.000000
     35         -0.117612   1.000000
     36          0.281226   1.000000
     37          0.475861   1.000000
     38          0.752166   1.000000
     39          1.105800   1.000000
     40          1.387523   1.000000
     41          1.660452   0.899835
     42          2.171487   0.000000
     43          2.268022   0.000000
     44          2.451356   0.000000
     45          3.019691   0.000000
     46          3.859906   0.000000
     47          5.262661   0.000000
     48          6.157136   0.000000
     49          6.411575   0.000000
     50          7.783860   0.000000
     51          8.474066   0.000000
 
  0.0000000E+00  0.5000000E+00  0.0000000E+00  0.1562500E-01
      1        -11.221482   1.000000
      2        -10.597448   1.000000
      3         -9.977006   1.000000
      4         -9.362909   1.000000
      5         -8.641342   1.000000
      6         -8.460807   1.000000
      7         -8.011790   1.000000
      8         -7.802260   1.000000
      9         -6.423655   1.000000
     10         -6.305547   1.000000
     11         -6.288643   1.000000
     12         -6.214580   1.000000
     13         -5.897355   1.000000
     14         -5.193432   1.000000
     15         -4.752551   1.000000
     16         -4.530884   1.000000
     17         -4.176688   1.000000
     18         -3.915830   1.000000
     19         -3.868959   1.000000
     20         -3.753083   1.000000
     21         -3.659907   1.000000
     22         -3.256420   1.000000
     23         -2.535438   1.000000
     24         -2.497237   1.000000
     25         -2.239533   1.000000
     26         -2.022610   1.000000
     27         -1.808195   1.000000
     28         -1.706922   1.000000
     29         -1.170985   1.000000
     30         -1.007316   1.000000
     31         -0.816122   1.000000
     32         -0.793042   1.000000
     33         -0.692949   1.000000
     34         -0.639072   1.000000
     35         -0.257116   1.000000
     36          0.019993   1.000000
     37          0.439908   1.000000
     38          0.534469   1.000000
     39          0.645032   1.000000
     40          0.684302   1.000000
     41          1.554757   0.999990
     42          2.609089   0.000000
     43          3.371841   0.000000
     44          3.612060   0.000000
     45          4.049562   0.000000
     46          4.839811   0.000000
     47          5.538530   0.000000
     48          5.946607   0.000000
     49          6.188407   0.000000
     50         10.308125   0.000000
     51         10.474154   0.000000
 
  0.2500000E+00  0.2500000E+00  0.0000000E+00  0.3125000E-01
      1        -10.790606   1.000000
      2        -10.275833   1.000000
      3         -9.157553   1.000000
      4         -8.690263   1.000000
      5         -8.587461   1.000000
      6         -8.417127   1.000000
      7         -7.758577   1.000000
      8         -6.892243   1.000000
      9         -6.385959   1.000000
     10         -6.031443   1.000000
     11         -5.321431   1.000000
     12         -4.955834   1.000000
     13         -4.606712   1.000000
     14         -4.598511   1.000000
     15         -4.389648   1.000000
     16         -4.208132   1.000000
     17         -3.785778   1.000000
     18         -3.361220   1.000000
     19         -3.241563   1.000000
     20         -3.055343   1.000000
     21         -2.711519   1.000000
     22         -2.397248   1.000000
     23         -2.219281   1.000000
     24         -1.992677   1.000000
     25         -1.929722   1.000000
     26         -1.867367   1.000000
     27         -1.621711   1.000000
     28         -1.226104   1.000000
     29         -1.060567   1.000000
     30         -0.821654   1.000000
     31         -0.763349   1.000000
     32         -0.689010   1.000000
     33         -0.550841   1.000000
     34         -0.415392   1.000000
     35          0.059543   1.000000
     36          0.669958   1.000000
     37          1.091295   1.000000
     38          1.406999   1.000000
     39          1.623666   0.989859
     40          2.090652   0.000000
     41          2.350960   0.000000
     42          2.323416   0.000000
     43          2.840250   0.000000
     44          3.554749   0.000000
     45          4.274321   0.000000
     46          5.060297   0.000000
     47          5.090070   0.000000
     48          5.878456   0.000000
     49          7.231693   0.000000
     50          8.230318   0.000000
     51         10.354884   0.000000
 
 -0.2500000E+00  0.2500000E+00  0.0000000E+00  0.3125000E-01
      1        -13.898355   1.000000
      2        -10.796763   1.000000
      3        -10.264854   1.000000
      4         -9.150840   1.000000
      5         -8.705616   1.000000
      6         -8.588694   1.000000
      7         -8.488449   1.000000
      8         -8.430155   1.000000
      9         -7.758615   1.000000
     10         -6.892457   1.000000
     11         -6.386060   1.000000
     12         -6.077744   1.000000
     13         -5.318930   1.000000
     14         -4.956877   1.000000
     15         -4.654320   1.000000
     16         -4.606140   1.000000
     17         -4.209546   1.000000
     18         -3.764802   1.000000
     19         -3.355845   1.000000
     20         -3.144601   1.000000
     21         -2.937227   1.000000
     22         -2.420502   1.000000
     23         -2.239223   1.000000
     24         -2.113463   1.000000
     25         -2.009026   1.000000
     26         -1.924267   1.000000
     27         -1.867270   1.000000
     28         -1.767607   1.000000
     29         -1.585540   1.000000
     30         -1.066180   1.000000
     31         -0.980358   1.000000
     32         -0.752627   1.000000
     33         -0.714141   1.000000
     34         -0.434731   1.000000
     35         -0.357534   1.000000
     36          0.067417   1.000000
     37          0.667301   1.000000
     38          1.105521   1.000000
     39          1.419329   1.000000
     40          1.630518   0.983301
     41          1.727689   0.267258
     42          2.294728   0.000000
     43          2.592432   0.000000
     44          2.774239   0.000000
     45          3.064727   0.000000
     46          3.836893   0.000000
     47          5.339247   0.000000
     48          5.394784   0.000000
     49          5.648743   0.000000
     50          6.095188   0.000000
     51         10.057584   0.000000
 
  0.5000000E+00  0.2500000E+00  0.0000000E+00  0.3125000E-01
      1        -13.887242   1.000000
      2        -10.675340   1.000000
      3        -10.443845   1.000000
      4         -9.144662   1.000000
      5         -8.616729   1.000000
      6         -8.587042   1.000000
      7         -8.489747   1.000000
      8         -8.431604   1.000000
      9         -7.760076   1.000000
     10         -6.895813   1.000000
     11         -6.391677   1.000000
     12         -6.077295   1.000000
     13         -6.017094   1.000000
     14         -5.325629   1.000000
     15         -4.963344   1.000000
     16         -4.492220   1.000000
     17         -4.380442   1.000000
     18         -4.208299   1.000000
     19         -3.839234   1.000000
     20         -3.349253   1.000000
     21         -3.170405   1.000000
     22         -2.689092   1.000000
     23         -2.243590   1.000000
     24         -2.012315   1.000000
     25         -1.875705   1.000000
     26         -1.798826   1.000000
     27         -1.622040   1.000000
     28         -1.584094   1.000000
     29         -1.118481   1.000000
     30         -1.008479   1.000000
     31         -0.799929   1.000000
     32         -0.736995   1.000000
     33         -0.650789   1.000000
     34         -0.587296   1.000000
     35         -0.433637   1.000000
     36         -0.385558   1.000000
     37          0.030583   1.000000
     38          0.652769   1.000000
     39          1.117387   1.000000
     40          1.419364   1.000000
     41          1.717784   0.366568
     42          1.977638   0.000000
     43          2.289063   0.000000
     44          2.541169   0.000000
     45          2.879675   0.000000
     46          3.381876   0.000000
     47          3.506134   0.000000
     48          5.298701   0.000000
     49          5.943071   0.000000
     50          6.182882   0.000000
     51         10.714346   0.000000
 
 -0.2500000E+00  0.5000000E+00  0.0000000E+00  0.3125000E-01
      1        -10.571192   1.000000
      2         -9.980294   1.000000
      3         -9.442068   1.000000
      4         -8.661835   1.000000
      5         -8.552082   1.000000
      6         -8.461428   1.000000
      7         -8.349262   1.000000
      8         -8.011507   1.000000
      9         -7.801898   1.000000
     10         -6.427730   1.000000
     11         -6.326310   1.000000
     12         -6.290485   1.000000
     13         -6.250425   1.000000
     14         -5.901288   1.000000
     15         -5.254701   1.000000
     16         -4.633210   1.000000
     17         -4.473001   1.000000
     18         -4.462397   1.000000
     19         -4.178127   1.000000
     20         -3.874716   1.000000
     21         -3.324554   1.000000
     22         -3.232871   1.000000
     23         -2.646973   1.000000
     24         -2.528533   1.000000
     25         -2.012808   1.000000
     26         -1.953500   1.000000
     27         -1.876922   1.000000
     28         -1.730459   1.000000
     29         -1.155807   1.000000
     30         -1.035114   1.000000
     31         -0.867045   1.000000
     32         -0.733598   1.000000
     33         -0.675054   1.000000
     34         -0.545081   1.000000
     35         -0.274748   1.000000
     36          0.008247   1.000000
     37          0.479522   1.000000
     38          0.552341   1.000000
     39          0.643609   1.000000
     40          0.738527   1.000000
     41          2.258933   0.000000
     42          2.314376   0.000000
     43          2.583948   0.000000
     44          2.792143   0.000000
     45          3.277476   0.000000
     46          4.306455   0.000000
     47          4.328193   0.000000
     48          5.442200   0.000000
     49          6.240857   0.000000
     50          6.910145   0.000000
     51         11.363588   0.000000
 
  0.5000000E+00  0.5000000E+00  0.0000000E+00  0.1562500E-01
      1        -10.542126   1.000000
      2        -10.526966   1.000000
      3         -9.986682   1.000000
      4         -9.511831   1.000000
      5         -8.655679   1.000000
      6         -8.352116   1.000000
      7         -8.011243   1.000000
      8         -7.801515   1.000000
      9         -6.428151   1.000000
     10         -6.301984   1.000000
     11         -6.287085   1.000000
     12         -5.905566   1.000000
     13         -5.308189   1.000000
     14         -4.797688   1.000000
     15         -4.431059   1.000000
     16         -4.401375   1.000000
     17         -4.186847   1.000000
     18         -4.143827   1.000000
     19         -3.862639   1.000000
     20         -3.339357   1.000000
     21         -3.227974   1.000000
     22         -2.650331   1.000000
     23         -2.611034   1.000000
     24         -2.536649   1.000000
     25         -2.319038   1.000000
     26         -1.913768   1.000000
     27         -1.817079   1.000000
     28         -1.722826   1.000000
     29         -1.663952   1.000000
     30         -1.283938   1.000000
     31         -1.147010   1.000000
     32         -0.944204   1.000000
     33         -0.774462   1.000000
     34         -0.706440   1.000000
     35         -0.681495   1.000000
     36         -0.550499   1.000000
     37         -0.294281   1.000000
     38         -0.004017   1.000000
     39          0.502259   1.000000
     40          0.579161   1.000000
     41          0.631882   1.000000
     42          0.732378   1.000000
     43          1.324529   1.000000
     44          2.287736   0.000000
     45          2.887420   0.000000
     46          3.708532   0.000000
     47          3.895600   0.000000
     48          4.638499   0.000000
     49          7.178711   0.000000
     50         10.927483   0.000000
     51         13.813861   0.000000
 
  0.0000000E+00  0.0000000E+00  0.2500000E+00  0.3125000E-01
      1        -11.324001   1.000000
      2        -11.052391   1.000000
      3        -10.512918   1.000000
      4        -10.505896   1.000000
      5        -10.256259   1.000000
      6         -8.854026   1.000000
      7         -8.430007   1.000000
      8         -7.944816   1.000000
      9         -7.090719   1.000000
     10         -6.187985   1.000000
     11         -5.751121   1.000000
     12         -4.664495   1.000000
     13         -4.385498   1.000000
     14         -4.293001   1.000000
     15         -4.228505   1.000000
     16         -3.568884   1.000000
     17         -3.225139   1.000000
     18         -2.840683   1.000000
     19         -2.807388   1.000000
     20         -2.745471   1.000000
     21         -2.449190   1.000000
     22         -2.353930   1.000000
     23         -1.993179   1.000000
     24         -1.929286   1.000000
     25         -1.869579   1.000000
     26         -1.815009   1.000000
     27         -1.601665   1.000000
     28         -1.430523   1.000000
     29         -0.870786   1.000000
     30         -0.544841   1.000000
     31         -0.472373   1.000000
     32         -0.388908   1.000000
     33         -0.278534   1.000000
     34         -0.078575   1.000000
     35          0.293455   1.000000
     36          0.333232   1.000000
     37          0.764960   1.000000
     38          1.235074   1.000000
     39          1.350392   1.000000
     40          1.969615   0.000000
     41          2.076084   0.000000
     42          2.106478   0.000000
     43          2.313918   0.000000
     44          2.784318   0.000000
     45          3.176344   0.000000
     46          5.176315   0.000000
     47          5.617960   0.000000
     48          6.049886   0.000000
     49          6.883832   0.000000
     50          7.968835   0.000000
     51          8.609040   0.000000
 
  0.2500000E+00  0.0000000E+00  0.2500000E+00  0.3125000E-01
      1        -14.011858   1.000000
      2        -10.977157   1.000000
      3        -10.502929   1.000000
      4        -10.407552   1.000000
      5         -9.165891   1.000000
      6         -8.852802   1.000000
      7         -8.515400   1.000000
      8         -7.950208   1.000000
      9         -7.757951   1.000000
     10         -7.095245   1.000000
     11         -6.193725   1.000000
     12         -5.835405   1.000000
     13         -4.714308   1.000000
     14         -4.509868   1.000000
     15         -4.259174   1.000000
     16         -4.246266   1.000000
     17         -3.569373   1.000000
     18         -3.230747   1.000000
     19         -2.920535   1.000000
     20         -2.886054   1.000000
     21         -2.795010   1.000000
     22         -2.743331   1.000000
     23         -2.351875   1.000000
     24         -2.283782   1.000000
     25         -1.800615   1.000000
     26         -1.716761   1.000000
     27         -1.674576   1.000000
     28         -1.452646   1.000000
     29         -1.349961   1.000000
     30         -0.927659   1.000000
     31         -0.847725   1.000000
     32         -0.548094   1.000000
     33         -0.450801   1.000000
     34         -0.117183   1.000000
     35          0.285052   1.000000
     36          0.397639   1.000000
     37          0.774442   1.000000
     38          1.118199   1.000000
     39          1.359993   1.000000
     40          1.648621   0.946872
     41          1.785458   0.012065
     42          2.126887   0.000000
     43          2.330980   0.000000
     44          2.744607   0.000000
     45          3.051070   0.000000
     46          3.379390   0.000000
     47          5.641869   0.000000
     48          6.032946   0.000000
     49          6.508958   0.000000
     50          6.979710   0.000000
     51          8.329926   0.000000
 
  0.0000000E+00  0.2500000E+00  0.2500000E+00  0.3125000E-01
      1        -10.861731   1.000000
      2        -10.139796   1.000000
      3         -8.777806   1.000000
      4         -8.581790   1.000000
      5         -8.487529   1.000000
      6         -8.121421   1.000000
      7         -7.757076   1.000000
      8         -6.888983   1.000000
      9         -6.380537   1.000000
     10         -5.327717   1.000000
     11         -5.313582   1.000000
     12         -4.950155   1.000000
     13         -4.730893   1.000000
     14         -4.707235   1.000000
     15         -4.547103   1.000000
     16         -4.208035   1.000000
     17         -3.997642   1.000000
     18         -3.386737   1.000000
     19         -3.317229   1.000000
     20         -3.266716   1.000000
     21         -3.176574   1.000000
     22         -2.465458   1.000000
     23         -2.211887   1.000000
     24         -2.017933   1.000000
     25         -1.945716   1.000000
     26         -1.888617   1.000000
     27         -1.842123   1.000000
     28         -1.692391   1.000000
     29         -1.540884   1.000000
     30         -1.085870   1.000000
     31         -1.006839   1.000000
     32         -0.774955   1.000000
     33         -0.586182   1.000000
     34         -0.465216   1.000000
     35         -0.396438   1.000000
     36          0.090578   1.000000
     37          0.655670   1.000000
     38          1.091881   1.000000
     39          1.426645   1.000000
     40          1.598641   0.998773
     41          1.673349   0.820127
     42          2.397799   0.000000
     43          2.459463   0.000000
     44          2.927324   0.000000
     45          3.157715   0.000000
     46          4.093830   0.000000
     47          5.230591   0.000000
     48          6.238534   0.000000
     49          7.606079   0.000000
     50          8.058969   0.000000
     51         10.008357   0.000000
 
 -0.2500000E+00  0.0000000E+00  0.2500000E+00  0.3125000E-01
      1        -14.011849   1.000000
      2        -10.977131   1.000000
      3        -10.502874   1.000000
      4        -10.407585   1.000000
      5         -9.165935   1.000000
      6         -8.852722   1.000000
      7         -8.515384   1.000000
      8         -7.950196   1.000000
      9         -7.757911   1.000000
     10         -7.095240   1.000000
     11         -6.193753   1.000000
     12         -5.837691   1.000000
     13         -4.693339   1.000000
     14         -4.503131   1.000000
     15         -4.240963   1.000000
     16         -3.575081   1.000000
     17         -3.332572   1.000000
     18         -3.216519   1.000000
     19         -3.213078   1.000000
     20         -2.900336   1.000000
     21         -2.792258   1.000000
     22         -2.736642   1.000000
     23         -2.190126   1.000000
     24         -2.050364   1.000000
     25         -2.018690   1.000000
     26         -1.960381   1.000000
     27         -1.806109   1.000000
     28         -1.706245   1.000000
     29         -1.554028   1.000000
     30         -1.436777   1.000000
     31         -0.971270   1.000000
     32         -0.778168   1.000000
     33         -0.545816   1.000000
     34         -0.441103   1.000000
     35         -0.208809   1.000000
     36         -0.113632   1.000000
     37          0.287697   1.000000
     38          0.763949   1.000000
     39          1.101723   1.000000
     40          1.422211   1.000000
     41          1.925042   0.000000
     42          2.120049   0.000000
     43          2.303138   0.000000
     44          2.586798   0.000000
     45          3.491648   0.000000
     46          5.020305   0.000000
     47          5.646317   0.000000
     48          6.057925   0.000000
     49          7.220844   0.000000
     50          8.540895   0.000000
     51          8.587136   0.000000
 
  0.0000000E+00 -0.2500000E+00  0.2500000E+00  0.3125000E-01
      1        -10.861722   1.000000
      2        -10.139523   1.000000
      3         -8.777813   1.000000
      4         -8.581998   1.000000
      5         -8.487487   1.000000
      6         -8.121405   1.000000
      7         -7.757082   1.000000
      8         -6.888985   1.000000
      9         -6.380538   1.000000
     10         -5.327617   1.000000
     11         -5.313633   1.000000
     12         -4.949160   1.000000
     13         -4.774682   1.000000
     14         -4.582246   1.000000
     15         -4.399140   1.000000
     16         -4.207738   1.000000
     17         -3.991236   1.000000
     18         -3.388603   1.000000
     19         -3.325776   1.000000
     20         -3.285061   1.000000
     21         -3.178160   1.000000
     22         -2.928033   1.000000
     23         -2.236133   1.000000
     24         -2.024690   1.000000
     25         -1.935517   1.000000
     26         -1.847670   1.000000
     27         -1.829941   1.000000
     28         -1.595793   1.000000
     29         -1.068652   1.000000
     30         -0.883529   1.000000
     31         -0.747697   1.000000
     32         -0.492299   1.000000
     33         -0.430248   1.000000
     34         -0.373561   1.000000
     35          0.091103   1.000000
     36          0.652844   1.000000
     37          1.083911   1.000000
     38          1.439812   1.000000
     39          1.608055   0.997133
     40          2.017389   0.000000
     41          2.400643   0.000000
     42          2.689340   0.000000
     43          2.879511   0.000000
     44          2.916116   0.000000
     45          4.641920   0.000000
     46          4.982355   0.000000
     47          5.202860   0.000000
     48          5.570060   0.000000
     49          7.444159   0.000000
     50          8.268776   0.000000
     51         10.410790   0.000000
 
  0.5000000E+00  0.0000000E+00  0.2500000E+00  0.3125000E-01
      1        -13.998905   1.000000
      2        -10.840291   1.000000
      3        -10.610691   1.000000
      4        -10.498935   1.000000
      5         -9.173736   1.000000
      6         -8.851939   1.000000
      7         -8.517321   1.000000
      8         -7.953070   1.000000
      9         -7.766512   1.000000
     10         -7.099899   1.000000
     11         -6.199466   1.000000
     12         -5.891517   1.000000
     13         -4.724195   1.000000