Si and Ge interface calculation         
           1
     3.920200    0.000000    0.000000
     0.000000    3.920200    0.000000
     0.000000    0.000000   24.362364
   Si   Ge
    10    10
Direct configuration=     1
   0.00211440  0.25120901  0.00011358
   0.00211440  0.75120901  0.05583477
   0.50211440  0.75120901  0.11155596
   0.50211440  0.25120901  0.16727716
   0.00211440  0.25120901  0.22299835
   0.00211440  0.75120901  0.27871954
   0.50211440  0.75120901  0.33444073
   0.50211440  0.25120901  0.39016193
   0.00211440  0.25120901  0.44588312
   0.00211440  0.75120901  0.50160431
   0.25330058  0.25045946  0.46183962
   0.25330058  0.75045946  0.51990049
   0.75330058  0.75045946  0.57796135
   0.75330058  0.25045946  0.63602222
   0.25330058  0.25045946  0.69408309
   0.25330058  0.75045946  0.75214396
   0.75330058  0.75045946  0.81020482
   0.75330058  0.25045946  0.86826569
   0.25330058  0.25045946  0.92632656
   0.25330058  0.75045946  0.98438742
Si and Ge interface calculation         
           1
     7.044398   -0.007835    1.023801
    -0.007835    4.365707   -0.003714
     6.362484   -0.023079   31.115003
   Si   Ge
    10    10
Direct configuration=     2
   0.92076025  0.25045751  0.01184738
   0.96492137  0.75125782  0.07023587
   0.49648781  0.75127667  0.11150472
   0.50467508  0.25094048  0.16719682
   0.00149526  0.25131644  0.22301930
   0.00301319  0.75117926  0.27862219
   0.49938485  0.75109067  0.33406058
   0.54340273  0.25148177  0.37808522
   0.04291679  0.25689824  0.31747660
   0.19926601  0.75681058  0.36535573
   0.17474783  0.24462882  0.58839177
   0.08177090  0.74527746  0.65979252
   0.72489631  0.75061500  0.58646121
   0.75601800  0.25038934  0.63656737
   0.25270655  0.25064545  0.69446269
   0.25392033  0.75061176  0.75210387
   0.74996980  0.75025627  0.81019888
   0.75772716  0.25021228  0.86770789
   0.27904805  0.25055611  0.91436522
   0.34702156  0.75078276  0.97226882
Si and Ge interface calculation         
           1
     7.076210   -0.007915    1.034226
    -0.007915    4.370243   -0.003752
     6.427269   -0.023314   31.183762
   Si   Ge
    10    10
Direct configuration=     3
   0.92019804  0.25045023  0.01195943
   0.96459728  0.75125835  0.07036135
   0.49645533  0.75127723  0.11150538
   0.50469063  0.25093804  0.16719567
   0.00149149  0.25131742  0.22301959
   0.00301917  0.75117899  0.27862122
   0.49937173  0.75108955  0.33405798
   0.54373349  0.25148429  0.37797806
   0.03242787  0.25692785  0.31679798
   0.18974838  0.75684063  0.36458263
   0.18503004  0.24459751  0.58906240
   0.09141113  0.74525160  0.66059063
   0.72466734  0.75061641  0.58653651
   0.75602983  0.25038874  0.63657133
   0.25270027  0.25064716  0.69446593
   0.25392425  0.75061315  0.75210342
   0.74995039  0.75025438  0.81019947
   0.75775715  0.25021005  0.86770246
   0.27928719  0.25055687  0.91426199
   0.34765884  0.75078624  0.97215124
Si and Ge interface calculation         
           1
     7.139834   -0.008075    1.055075
    -0.008075    4.379316   -0.003827
     6.556841   -0.023784   31.321279
   Si   Ge
    10    10
Direct configuration=     4
   0.91907684  0.25043566  0.01218330
   0.96395005  0.75125940  0.07061194
   0.49639065  0.75127835  0.11150671
   0.50472161  0.25093318  0.16719336
   0.00148398  0.25131937  0.22302017
   0.00303107  0.75117846  0.27861927
   0.49934564  0.75108732  0.33405280
   0.54439373  0.25148932  0.37776402
   0.01155070  0.25698676  0.31544742
   0.17080680  0.75690044  0.36304311
   0.20549570  0.24453518  0.59039710
   0.11059648  0.74520016  0.66218004
   0.72421029  0.75061922  0.58668691
   0.75605331  0.25038754  0.63657922
   0.25268771  0.25065056  0.69447238
   0.25393206  0.75061595  0.75210252
   0.74991173  0.75025060  0.81020066
   0.75781694  0.25020558  0.86769160
   0.27976492  0.25055840  0.91405584
   0.34892963  0.75079320  0.97191628
Si and Ge interface calculation         
           1
     7.099687   -0.007974    1.041919
    -0.007974    4.373591   -0.003779
     6.475082   -0.023488   31.234506
   Si   Ge
    10    10
Direct configuration=     5
   0.91978031  0.25044484  0.01204232
   0.96435725  0.75125873  0.07045428
   0.49643113  0.75127765  0.11150586
   0.50470221  0.25093624  0.16719482
   0.00148868  0.25131814  0.22301980
   0.00302361  0.75117880  0.27862050
   0.49936191  0.75108873  0.33405605
   0.54397872  0.25148615  0.37789871
   0.02459888  0.25694996  0.31629133
   0.18264235  0.75686306  0.36400625
   0.19270481  0.24457414  0.58956307
   0.09860888  0.74523227  0.66118560
   0.72449760  0.75061745  0.58659227
   0.75603869  0.25038829  0.63657427
   0.25269562  0.25064842  0.69446832
   0.25392716  0.75061419  0.75210309
   0.74993593  0.75025298  0.81019990
   0.75777943  0.25020839  0.86769844
   0.27946416  0.25055744  0.91418552
   0.34813247  0.75078881  0.97206426
Si and Ge interface calculation         
           1
     7.103173   -0.007983    1.043062
    -0.007983    4.374088   -0.003784
     6.482182   -0.023514   31.242041
   Si   Ge
    10    10
Direct configuration=     6
   0.91971900  0.25044404  0.01205458
   0.96432183  0.75125879  0.07046800
   0.49642759  0.75127771  0.11150594
   0.50470390  0.25093598  0.16719469
   0.00148827  0.25131825  0.22301983
   0.00302426  0.75117877  0.27862039
   0.49936049  0.75108860  0.33405577
   0.54401485  0.25148643  0.37788699
   0.02345897  0.25695317  0.31621760
   0.18160822  0.75686633  0.36392216
   0.19382225  0.24457073  0.58963594
   0.09965632  0.74522946  0.66127242
   0.72447259  0.75061761  0.58660050
   0.75603997  0.25038823  0.63657470
   0.25269494  0.25064860  0.69446868
   0.25392759  0.75061434  0.75210304
   0.74993382  0.75025277  0.81019997
   0.75778270  0.25020815  0.86769784
   0.27949031  0.25055753  0.91417424
   0.34820195  0.75078919  0.97205140
Si and Ge interface calculation         
           1
     7.155636   -0.016591    1.312256
    -0.012373    4.951138   -0.006948
     7.390622   -0.052163   33.444604
   Si   Ge
    10    10
Direct configuration=     7
   0.92972722  0.25040088  0.01290912
   0.97276312  0.75121472  0.06702806
   0.48166570  0.75126504  0.11524013
   0.51259032  0.25079344  0.16418364
   0.00183448  0.25162993  0.21982779
   0.00414472  0.75277173  0.27761489
   0.52143099  0.75107542  0.33056808
   0.53192136  0.25112656  0.38168270
   0.99912680  0.25503569  0.31821720
   0.16454581  0.75723631  0.36586960
   0.21043264  0.24445230  0.58156098
   0.07231228  0.74643112  0.66254051
   0.72997676  0.74877123  0.57776519
   0.76164603  0.25151298  0.64284605
   0.28961578  0.25071275  0.69405216
   0.28031489  0.75068327  0.75900654
   0.73872420  0.74983930  0.81317840
   0.73982761  0.25023489  0.86713564
   0.27269334  0.25104375  0.91661345
   0.33885579  0.75045338  0.97188453
Si and Ge interface calculation         
           1
     7.172223   -0.019313    1.397366
    -0.013761    5.133583   -0.007949
     7.677841   -0.061221   34.140982
   Si   Ge
    10    10
Direct configuration=     8
   0.93287814  0.25039539  0.01313656
   0.97550151  0.75120148  0.06598787
   0.47692117  0.75125956  0.11638360
   0.51514476  0.25075308  0.16327188
   0.00200607  0.25171221  0.21888172
   0.00451905  0.75321569  0.27731431
   0.52848384  0.75107788  0.32947890
   0.52802013  0.25102560  0.38283756
   0.99138683  0.25449046  0.31887149
   0.15910792  0.75733374  0.36648989
   0.21584647  0.24441538  0.57912744
   0.06363363  0.74675442  0.66298596
   0.73189014  0.74824467  0.57513487
   0.76329866  0.25183982  0.64468873
   0.30130901  0.25074936  0.69383441
   0.28853221  0.75072707  0.76098324
   0.73511856  0.74972256  0.81408900
   0.73415589  0.25023208  0.86701509
   0.27049484  0.25117979  0.91735311
   0.33590101  0.75035443  0.97185902
Si and Ge interface calculation         
           1
     7.205396   -0.024756    1.567587
    -0.016537    5.498472   -0.009950
     8.252280   -0.079337   35.533739
   Si   Ge
    10    10
Direct configuration=     9
   0.93917367  0.25038863  0.01356670
   0.98101994  0.75117567  0.06393458
   0.46738502  0.75124758  0.11864949
   0.52029027  0.25067513  0.16147130
   0.00238543  0.25186833  0.21702585
   0.00527951  0.75407158  0.27672309
   0.54263628  0.75108653  0.32730791
   0.52017075  0.25083032  0.38512154
   0.97587607  0.25343289  0.32019321
   0.14820449  0.75751803  0.36773343
   0.22677086  0.24434249  0.57432868
   0.04625296  0.74737061  0.66390291
   0.73581839  0.74722321  0.56996783
   0.76653502  0.25247730  0.64829351
   0.32471251  0.25083108  0.69334879
   0.30489771  0.75082556  0.76481786
   0.72786990  0.74949643  0.81589255
   0.72281281  0.25022062  0.86680716
   0.26606807  0.25144216  0.91881445
   0.32999019  0.75016052  0.97182382
Si and Ge interface calculation         
           1
     7.190671   -0.022340    1.492028
    -0.015304    5.336501   -0.009062
     7.997292   -0.071296   34.915507
   Si   Ge
    10    10
Direct configuration=    10
   0.93638354  0.25038836  0.01339644
   0.97853465  0.75118646  0.06482361
   0.47165887  0.75125386  0.11766103
   0.51797479  0.25070739  0.16225157
   0.00218664  0.25180560  0.21781951
   0.00493193  0.75371724  0.27697729
   0.53631294  0.75107963  0.32826573
   0.52369547  0.25091185  0.38412897
   0.98278918  0.25387603  0.31959530
   0.15306916  0.75744470  0.36717879
   0.22183897  0.24437373  0.57640219
   0.05399014  0.74712132  0.66347390
   0.73398900  0.74765086  0.57218368
   0.76515573  0.25220764  0.64676044
   0.31430631  0.25078817  0.69360644
   0.29768888  0.75077362  0.76321476
   0.73111990  0.74959105  0.81510651
   0.72784920  0.25023027  0.86687166
   0.26805867  0.25133356  0.91818065
   0.33261584  0.75024335  0.97182618
Si and Ge interface calculation         
           1
     7.343616   -0.021923    1.645162
    -0.013974    5.468024   -0.014512
     8.845087   -0.103747   35.232478
   Si   Ge
    10    10
Direct configuration=    11
   0.95181968  0.25064845  0.01300992
   0.97636451  0.75114089  0.06211705
   0.49189123  0.75184669  0.11861183
   0.52291171  0.25024392  0.15942263
   0.00550340  0.25220216  0.21543668
   0.01384200  0.75453289  0.27598492
   0.52393302  0.75133024  0.32875551
   0.50031318  0.25037385  0.38756903
   0.95843154  0.25280632  0.32118077
   0.12687954  0.75740074  0.36972867
   0.26522883  0.24290654  0.56877828
   0.06540692  0.74898561  0.66352375
   0.72094736  0.74647282  0.56966191
   0.78396632  0.25252718  0.64616883
   0.29376479  0.25079196  0.69773463
   0.34503500  0.75089552  0.76403584
   0.72042905  0.74986338  0.81787122
   0.71416625  0.25006003  0.86590774
   0.26700756  0.25178208  0.92047402
   0.30630795  0.74987341  0.97375143
Si and Ge interface calculation         
           1
     7.395418   -0.021782    1.697028
    -0.013523    5.512570   -0.016358
     9.132233   -0.114738   35.339835
   Si   Ge
    10    10
Direct configuration=    12
   0.95697594  0.25073262  0.01286083
   0.97574324  0.75112101  0.06120648
   0.49859487  0.75204295  0.11890817
   0.52466247  0.25008518  0.15846213
   0.00669760  0.25232863  0.21462871
   0.01684709  0.75480005  0.27563935
   0.51979084  0.75141486  0.32893576
   0.49239545  0.25020399  0.38875800
   0.95025863  0.25245737  0.32174515
   0.11806004  0.75739275  0.37062071
   0.27996844  0.24240448  0.56615333
   0.06920772  0.74960113  0.66352685
   0.71669801  0.74607972  0.56882678
   0.79025431  0.25263038  0.64594647
   0.28676741  0.25080226  0.69915237
   0.36077519  0.75093395  0.76425555
   0.71676409  0.74995923  0.81881700
   0.70964465  0.25000296  0.86559907
   0.26657127  0.25193462  0.92124911
   0.29747255  0.74975653  0.97443284
Si and Ge interface calculation         
           1
     7.370850   -0.020616    1.920264
    -0.011609    5.417141   -0.024097
    10.245252   -0.157456   35.005408
   Si   Ge
    10    10
Direct configuration=    13
   0.97440767  0.25102932  0.01158500
   0.99283285  0.75099802  0.05651293
   0.51933165  0.75296141  0.11961963
   0.52299022  0.24953505  0.15622197
   0.03390864  0.25276357  0.21029455
   0.04012157  0.75598945  0.27338111
   0.52056819  0.75185121  0.32828007
   0.46730162  0.24942777  0.39220173
   0.92726753  0.25098144  0.32327187
   0.09999269  0.75758810  0.37254533
   0.29478029  0.23920620  0.56189248
   0.06653042  0.75140897  0.66497623
   0.72495761  0.74541968  0.56539475
   0.79831701  0.25312735  0.64446182
   0.25025158  0.25112767  0.70545365
   0.36623735  0.75108588  0.76780285
   0.71355286  0.75046309  0.82102898
   0.69354628  0.24994361  0.86480572
   0.28081573  0.25290683  0.92240562
   0.26643806  0.74887007  0.97758839
Si and Ge interface calculation         
           1
     7.368336   -0.020497    1.943112
    -0.011413    5.407374   -0.024889
    10.359168   -0.161828   34.971179
   Si   Ge
    10    10
Direct configuration=    14
   0.97623855  0.25105854  0.01143924
   0.99469049  0.75098083  0.05601084
   0.52146905  0.75305685  0.11967881
   0.52285761  0.24947604  0.15598947
   0.03680930  0.25280439  0.20982261
   0.04257617  0.75611064  0.27312863
   0.52066071  0.75189610  0.32821111
   0.46463675  0.24935062  0.39257922
   0.92485565  0.25082980  0.32344782
   0.09808406  0.75761066  0.37275925
   0.29639404  0.23886914  0.56143711
   0.06622629  0.75159851  0.66512944
   0.72587665  0.74534789  0.56503068
   0.79918011  0.25317762  0.64430109
   0.24635017  0.25116796  0.70613759
   0.36673921  0.75110431  0.76816895
   0.71317956  0.75051745  0.82126209
   0.69189132  0.24993741  0.86473465
   0.28227178  0.25300847  0.92251595
   0.26316239  0.74878143  0.97794013
Si and Ge interface calculation         
           1
     7.363307   -0.020258    1.988808
    -0.011021    5.387840   -0.026473
    10.587001   -0.170572   34.902723
   Si   Ge
    10    10
Direct configuration=    15
   0.97991063  0.25111672  0.01114446
   0.99842917  0.75094544  0.05500196
   0.52574753  0.75324800  0.11979429
   0.52260054  0.24935743  0.15552372
   0.04263576  0.25288520  0.20887264
   0.04750129  0.75635289  0.27261909
   0.52084851  0.75198594  0.32807278
   0.45928595  0.24919685  0.39333958
   0.92001889  0.25052646  0.32380392
   0.09425376  0.75765636  0.37319074
   0.29964261  0.23819295  0.56052218
   0.06561158  0.75197856  0.66543691
   0.72773053  0.74520340  0.56429974
   0.80091452  0.25327803  0.64397773
   0.23851169  0.25125009  0.70751388
   0.36773091  0.75114180  0.76890190
   0.71242342  0.75062676  0.82172980
   0.68857947  0.24992500  0.86459465
   0.28518381  0.25321217  0.92273493
   0.25658927  0.74860465  0.97864978
Si and Ge interface calculation         
           1
     7.353249   -0.019781    2.080200
    -0.010237    5.348772   -0.029642
    11.042666   -0.188061   34.765810
   Si   Ge
    10    10
Direct configuration=    16
   0.98729698  0.25123196  0.01054173
   0.00600165  0.75087055  0.05296503
   0.53431985  0.75363137  0.12001363
   0.52211924  0.24911790  0.15458919
   0.05439111  0.25304339  0.20694788
   0.05741646  0.75683669  0.27158145
   0.52123532  0.75216579  0.32779447
   0.44849855  0.24889149  0.39488218
   0.91029222  0.24991948  0.32453320
   0.08654001  0.75775009  0.37406847
   0.30622538  0.23683219  0.55867528
   0.06435602  0.75274249  0.66605620
   0.73150245  0.74491072  0.56282647
   0.80441681  0.25347824  0.64332329
   0.22268968  0.25142063  0.71030066
   0.36966594  0.75121925  0.77037083
   0.71087249  0.75084782  0.82267124
   0.68194756  0.24990017  0.86432323
   0.29100798  0.25362130  0.92316613
   0.24335414  0.74825315  0.98009413
Si and Ge interface calculation         
           1
     7.350064   -0.019630    2.109140
    -0.009988    5.336400   -0.030645
    11.186958   -0.193599   34.722454
   Si   Ge
    10    10
Direct configuration=    17
   0.98966385  0.25126769  0.01034230
   0.00846169  0.75084412  0.05230745
   0.53704503  0.75375342  0.12007560
   0.52198803  0.24904055  0.15429121
   0.05818078  0.25309121  0.20632218
   0.06059903  0.75698939  0.27124077
   0.52136508  0.75222284  0.32770524
   0.44502623  0.24879629  0.39538493
   0.90717698  0.24972716  0.32477522
   0.08406235  0.75778133  0.37435603
   0.30836580  0.23639585  0.55807926
   0.06394142  0.75298688  0.66625516
   0.73273867  0.74481562  0.56235245
   0.80554776  0.25354123  0.64311102
   0.21758435  0.25147880  0.71120548
   0.37024757  0.75124538  0.77083807
   0.71035625  0.75091939  0.82297333
   0.67984162  0.24989233  0.86424281
   0.29285283  0.25375193  0.92329834
   0.23910451  0.74814325  0.98056781
Si and Ge interface calculation         
           1
     7.477680   -0.019113    2.314212
    -0.006476    5.198235   -0.046448
    12.268950   -0.280408   35.003944
   Si   Ge
    10    10
Direct configuration=    18
   0.99734657  0.25237284  0.00950999
   0.00893688  0.74994968  0.05172010
   0.55260533  0.75602367  0.12017592
   0.52718514  0.24707502  0.15209906
   0.07388105  0.25331170  0.20349564
   0.07303990  0.75953662  0.26937159
   0.51598219  0.75326309  0.32738112
   0.41565455  0.24685471  0.40018329
   0.88850223  0.24762565  0.32603884
   0.07806543  0.75819445  0.37533660
   0.34239201  0.23267251  0.55193943
   0.05434453  0.75421975  0.66805664
   0.73049311  0.74387703  0.56044865
   0.81839369  0.25473301  0.63973679
   0.22522467  0.25214045  0.71428563
   0.34837751  0.75114049  0.77695821
   0.71045603  0.75158796  0.82477202
   0.67982946  0.24979770  0.86163582
   0.30299839  0.25542563  0.92488909
   0.21044116  0.74688272  0.98169022
Si and Ge interface calculation         
           1
     7.480477   -0.019102    2.318706
    -0.006399    5.195206   -0.046795
    12.292665   -0.282311   35.010114
   Si   Ge
    10    10
Direct configuration=    19
   0.99751621  0.25239734  0.00949083
   0.00894914  0.74992934  0.05170713
   0.55294314  0.75607464  0.12017634
   0.52730525  0.24702997  0.15205029
   0.07423143  0.25331551  0.20343175
   0.07331627  0.75959316  0.26932914
   0.51586621  0.75328643  0.32737464
   0.41500070  0.24681300  0.40029203
   0.88809231  0.24757898  0.32606873
   0.07793190  0.75820415  0.37535884
   0.34315153  0.23258623  0.55180062
   0.05413008  0.75424822  0.66809733
   0.73045049  0.74385525  0.56040710
   0.81868377  0.25475851  0.63966123
   0.22538075  0.25215636  0.71435238
   0.34788238  0.75114051  0.77709513
   0.71045236  0.75160365  0.82481151
   0.67983763  0.24979464  0.86157858
   0.30321371  0.25546376  0.92492286
   0.20981458  0.74685502  0.98171819
Si and Ge interface calculation         
           1
     7.611724   -0.018866    2.437979
    -0.003002    5.134138   -0.060497
    12.882446   -0.357224   35.603456
   Si   Ge
    10    10
Direct configuration=    20
   0.99968564  0.25318144  0.00933843
   0.99784860  0.74899313  0.05454574
   0.56545858  0.75875326  0.11913073
   0.52993250  0.24468732  0.15135806
   0.07610536  0.25341570  0.20262051
   0.07384046  0.76144612  0.26882466
   0.51253343  0.75402531  0.32693471
   0.39493496  0.24559123  0.40411450
   0.88073407  0.24627561  0.32634009
   0.07429850  0.75848343  0.37616530
   0.37505781  0.23007836  0.54655181
   0.05454898  0.75499997  0.66840572
   0.72667498  0.74329251  0.55949985
   0.81082273  0.25564693  0.63917119
   0.23132178  0.25250829  0.71634868
   0.34245509  0.75109065  0.77962475
   0.71022452  0.75196110  0.82575587
   0.68368679  0.24951353  0.85943533
   0.31030071  0.25662415  0.92603215
   0.20368432  0.74611664  0.97952658
