Si Bulk DFT energetics calculations using VASP\n
This script is running on comp030.cluster.local in /lustre/home/ah1365/projects/127870/upgrade_report/case_studies/common/structures/interfaces/168_Ge96Sn72_011_011_a0.223214_b0.490566_c2.163935_interface7shift4\n
Job started on: Sun  8 Jun 20:53:45 UTC 2025\n
 running   64 mpi-ranks, on    4 nodes
 distrk:  each k-point on   64 cores,    1 groups
 distr:  one band on   16 cores,    4 groups
 vasp.6.4.3 19Mar24 (build Oct 22 2024 11:23:12) complex                        
  
 POSCAR found type information on POSCAR GeSn
 POSCAR found :  2 types and     168 ions
 -----------------------------------------------------------------------------
|                                                                             |
|           W    W    AA    RRRRR   N    N  II  N    N   GGGG   !!!           |
|           W    W   A  A   R    R  NN   N  II  NN   N  G    G  !!!           |
|           W    W  A    A  R    R  N N  N  II  N N  N  G       !!!           |
|           W WW W  AAAAAA  RRRRR   N  N N  II  N  N N  G  GGG   !            |
|           WW  WW  A    A  R   R   N   NN  II  N   NN  G    G                |
|           W    W  A    A  R    R  N    N  II  N    N   GGGG   !!!           |
|                                                                             |
|     You use a magnetic or noncollinear calculation, but did not specify     |
|     the initial magnetic moment with the MAGMOM tag. Note that a            |
|     default of 5.952e-3 will be used for all atoms. This ferromagnetic      |
|     setup may break the symmetry of the crystal, in particular it may       |
|     rule out finding an antiferromagnetic solution. Thence, we              |
|     recommend setting the initial magnetic moment manually or verifying     |
|     carefully that this magnetic setup is desired.                          |
|                                                                             |
 -----------------------------------------------------------------------------

 scaLAPACK will be used
 WARNING: PSMAXN for non-local potential too small
 LDA part: xc-table for (Slater+PW92), standard interpolation
 POSCAR, INCAR and KPOINTS ok, starting setup
 FFT: planning ... GRIDC
 FFT: planning ... GRID_SOFT
 FFT: planning ... GRID
 WAVECAR not read
 entering main loop
       N       E                     dE             d eps       ncg     rms          rms(c)
DAV:   1     0.344263565677E+04    0.34426E+04   -0.27953E+05  6464   0.167E+03
DAV:   2    -0.260924685988E+03   -0.37036E+04   -0.35794E+04  7584   0.199E+02
DAV:   3    -0.670510517083E+03   -0.40959E+03   -0.39847E+03  7904   0.649E+01
DAV:   4    -0.687023164063E+03   -0.16513E+02   -0.16216E+02  7840   0.129E+01
DAV:   5    -0.687720450600E+03   -0.69729E+00   -0.69241E+00  8664   0.229E+00    0.290E+01
DAV:   6    -0.679019268847E+03    0.87012E+01   -0.24800E+01 10400   0.931E+00    0.143E+01
DAV:   7    -0.681714268439E+03   -0.26950E+01   -0.36824E+01  9440   0.136E+01    0.713E+00
DAV:   8    -0.677313763630E+03    0.44005E+01   -0.18832E+01 10408   0.951E+00    0.314E+00
DAV:   9    -0.676724080209E+03    0.58968E+00   -0.65662E+00  8312   0.454E+00    0.181E+00
DAV:  10    -0.676711475601E+03    0.12605E-01   -0.18222E+00  7368   0.186E+00    0.114E+00
DAV:  11    -0.676705019803E+03    0.64558E-02   -0.33456E-01  8200   0.638E-01    0.555E-01
DAV:  12    -0.676705727502E+03   -0.70770E-03   -0.70131E-02  7656   0.377E-01    0.203E-01
DAV:  13    -0.676707222947E+03   -0.14954E-02   -0.14191E-02  7352   0.144E-01    0.127E-01
DAV:  14    -0.676707640642E+03   -0.41769E-03   -0.16912E-03  7600   0.524E-02    0.703E-02
DAV:  15    -0.676707719932E+03   -0.79291E-04   -0.32926E-04  7768   0.241E-02    0.397E-02
DAV:  16    -0.676707779407E+03   -0.59475E-04   -0.16835E-04  7208   0.178E-02    0.191E-02
DAV:  17    -0.676707798986E+03   -0.19578E-04   -0.47746E-05  7312   0.104E-02    0.112E-02
DAV:  18    -0.676707800045E+03   -0.10595E-05   -0.67398E-06  7568   0.400E-03    0.755E-03
DAV:  19    -0.676707799768E+03    0.27732E-06   -0.31404E-06  8040   0.227E-03    0.505E-03
DAV:  20    -0.676707799915E+03   -0.14698E-06   -0.10650E-06  7608   0.141E-03    0.367E-03
DAV:  21    -0.676707800294E+03   -0.37902E-06   -0.48468E-07  6496   0.103E-03    0.308E-03
DAV:  22    -0.676707800619E+03   -0.32482E-06   -0.35973E-07  5728   0.881E-04    0.226E-03
DAV:  23    -0.676707800874E+03   -0.25543E-06   -0.29026E-07  5448   0.784E-04    0.129E-03
DAV:  24    -0.676707801186E+03   -0.31224E-06   -0.17000E-07  4456   0.600E-04    0.723E-04
DAV:  25    -0.676707801384E+03   -0.19712E-06   -0.71662E-08  3984   0.360E-04    0.420E-04
DAV:  26    -0.676707801415E+03   -0.31792E-07   -0.22738E-08  3856   0.203E-04
   1 F= -.67670780E+03 E0= -.67670672E+03  d E =-.216769E-02  mag=     1.0000
Job ended on: Sun  8 Jun 21:15:52 UTC 2025\n
