Si and Ge interface calculation         
           1
    13.303180    0.000000    0.000000
    -6.651589   14.873406    0.000000
     0.000000    0.000000    7.994749
   Si   C 
    36    84
Direct configuration=     1
   0.01709435  0.99145281  0.00000000
   0.21709445  0.89145273  0.15190083
   0.41709456  0.79145265  0.30380166
   0.01709435  0.32478613  0.00000000
   0.21709445  0.22478604  0.15190083
   0.41709456  0.12478594  0.30380166
   0.01709435  0.65811950  0.00000000
   0.21709445  0.55811936  0.15190083
   0.41709456  0.45811924  0.30380166
   0.36709428  0.19145279  0.07595027
   0.56709439  0.09145270  0.22785112
   0.76709449  0.99145263  0.37975198
   0.36709428  0.52478605  0.07595027
   0.56709439  0.42478600  0.22785112
   0.76709449  0.32478592  0.37975198
   0.36709428  0.85811943  0.07595027
   0.56709439  0.75811923  0.22785112
   0.76709449  0.65811920  0.37975198
   0.51709437  0.99145281  0.00000000
   0.71709442  0.89145267  0.15190081
   0.91709453  0.79145259  0.30380166
   0.51709437  0.32478613  0.00000000
   0.71709442  0.22478601  0.15190081
   0.91709453  0.12478592  0.30380166
   0.51709437  0.65811938  0.00000000
   0.71709442  0.55811930  0.15190081
   0.91709453  0.45811924  0.30380166
   0.86709428  0.19145280  0.07595027
   0.06709445  0.09145273  0.22785114
   0.26709437  0.99145263  0.37975192
   0.86709428  0.52478611  0.07595027
   0.06709445  0.42478600  0.22785114
   0.26709437  0.32478592  0.37975192
   0.86709428  0.85811949  0.07595027
   0.06709445  0.75811934  0.22785114
   0.26709437  0.65811926  0.37975192
   0.92475408  0.83945727  0.76469648
   0.29618251  0.86802882  0.56517523
   0.61046833  0.85374314  0.66493589
   0.06761122  0.69660008  0.76469654
   0.43903962  0.72517168  0.56517523
   0.75332540  0.71088588  0.66493589
   0.21046829  0.55374301  0.76469648
   0.58189678  0.58231455  0.56517523
   0.89618260  0.56802881  0.66493589
   0.35332549  0.41088584  0.76469648
   0.72475398  0.43945742  0.56517523
   0.03903985  0.42517161  0.66493589
   0.49618256  0.26802871  0.76469648
   0.86761111  0.29660028  0.56517523
   0.18189692  0.28231451  0.66493589
   0.63903975  0.12517157  0.76469648
   0.01046824  0.15374315  0.56517523
   0.32475400  0.13945737  0.66493589
   0.78189695  0.98231441  0.76469648
   0.15332538  0.01088595  0.56517523
   0.46761116  0.99660021  0.66493589
   0.47475398  0.93945730  0.81457663
   0.84618235  0.96802884  0.61505550
   0.16046822  0.95374310  0.71481615
   0.61761105  0.79660010  0.81457668
   0.98903942  0.82517165  0.61505550
   0.30332518  0.81088585  0.71481609
   0.76046836  0.65374303  0.81457668
   0.13189673  0.68231452  0.61505550
   0.44618261  0.66802883  0.71481609
   0.90332544  0.51088595  0.81457668
   0.27475381  0.53945744  0.61505550
   0.58903968  0.52517170  0.71481609
   0.04618239  0.36802873  0.81457668
   0.41761091  0.39660028  0.61505550
   0.73189670  0.38231453  0.71481615
   0.18903971  0.22517157  0.81457668
   0.56046820  0.25374317  0.61505550
   0.87475395  0.23945737  0.71481615
   0.33189690  0.08231448  0.81457668
   0.70332527  0.11088601  0.61505550
   0.01761103  0.09660025  0.71481615
   0.42475414  0.83945727  0.76469654
   0.79618257  0.86802894  0.56517523
   0.11046839  0.85374308  0.66493589
   0.56761134  0.69660008  0.76469654
   0.93903983  0.72517174  0.56517523
   0.25332546  0.71088588  0.66493589
   0.71046853  0.55374295  0.76469654
   0.08189690  0.58231461  0.56517523
   0.39618266  0.56802881  0.66493589
   0.85332555  0.41088590  0.76469654
   0.22475398  0.43945745  0.56517523
   0.53903979  0.42517164  0.66493589
   0.99618268  0.26802868  0.76469648
   0.36761111  0.29660025  0.56517523
   0.68189692  0.28231448  0.66493589
   0.13903975  0.12517156  0.76469648
   0.51046824  0.15374312  0.56517523
   0.82475406  0.13945734  0.66493589
   0.28189695  0.98231441  0.76469648
   0.65332538  0.01088607  0.56517523
   0.96761119  0.99660021  0.66493589
   0.97475392  0.93945730  0.81457668
   0.34618241  0.96802884  0.61505550
   0.66046816  0.95374304  0.71481615
   0.11761093  0.79660022  0.81457668
   0.48903951  0.82517177  0.61505550
   0.80332524  0.81088597  0.71481615
   0.26046824  0.65374303  0.81457663
   0.63189673  0.68231452  0.61505550
   0.94618255  0.66802877  0.71481615
   0.40332544  0.51088584  0.81457668
   0.77475387  0.53945738  0.61505550
   0.08903956  0.52517158  0.71481615
   0.54618251  0.36802876  0.81457668
   0.91761088  0.39660025  0.61505556
   0.23189676  0.38231450  0.71481615
   0.68903983  0.22517160  0.81457674
   0.06046820  0.25374317  0.61505550
   0.37475395  0.23945740  0.71481615
   0.83189690  0.08231450  0.81457663
   0.20332527  0.11088601  0.61505550
   0.51761115  0.09660029  0.71481615
