 vasp.6.4.3 19Mar24 (build Oct 22 2024 11:23:12) complex                        
  
 executed on             LinuxIFC date 2025.06.11  05:38:57
 running   64 mpi-ranks, on    4 nodes
 distrk:  each k-point on   64 cores,    1 groups
 distr:  one band on NCORE=  16 cores,    4 groups


--------------------------------------------------------------------------------------------------------


 INCAR:
   SYSTEM = Si and Ge interface calculation
   ISTART = 0
   ICHARG = 2
   LWAVE = .FALSE.
   LREAL = AUTO
   ENCUT = 700
   ENAUG = 900
   ADDGRID = .TRUE.
   LMAXMIX = 6
   LASPH = .TRUE.
   LMIXTAU = .TRUE.
   NCORE = 16
   NELM = 100
   NBANDS = 634
   EDIFF = 1d-7
   AMIX = 0.6
   ISMEAR = 0
   SIGMA = 0.01
   NELECT = 1056
   ISPIN = 2
   NUPDOWN = 1
   LVTOT = .FALSE.
   LVHAR = .TRUE.

 POTCAR:    PAW_PBE Sn 08Apr2002                  
 POTCAR:    PAW_PBE Si 05Jan2001                  
 -----------------------------------------------------------------------------
|                                                                             |
|           W    W    AA    RRRRR   N    N  II  N    N   GGGG   !!!           |
|           W    W   A  A   R    R  NN   N  II  NN   N  G    G  !!!           |
|           W    W  A    A  R    R  N N  N  II  N N  N  G       !!!           |
|           W WW W  AAAAAA  RRRRR   N  N N  II  N  N N  G  GGG   !            |
|           WW  WW  A    A  R   R   N   NN  II  N   NN  G    G                |
|           W    W  A    A  R    R  N    N  II  N    N   GGGG   !!!           |
|                                                                             |
|     You use a magnetic or noncollinear calculation, but did not specify     |
|     the initial magnetic moment with the MAGMOM tag. Note that a            |
|     default of 3.788e-3 will be used for all atoms. This ferromagnetic      |
|     setup may break the symmetry of the crystal, in particular it may       |
|     rule out finding an antiferromagnetic solution. Thence, we              |
|     recommend setting the initial magnetic moment manually or verifying     |
|     carefully that this magnetic setup is desired.                          |
|                                                                             |
 -----------------------------------------------------------------------------

 POTCAR:    PAW_PBE Sn 08Apr2002                  
   VRHFIN =Sn: s2p2                                                                                 
   LEXCH  = PE                                                                                      
   EATOM  =    94.0860 eV,    6.9151 Ry                                                             
                                                                                                    
   TITEL  = PAW_PBE Sn 08Apr2002                                                                    
   LULTRA =        F    use ultrasoft PP ?                                                          
   IUNSCR =        1    unscreen: 0-lin 1-nonlin 2-no                                               
   RPACOR =    2.000    partial core radius                                                         
   POMASS =  118.710; ZVAL   =    4.000    mass and valenz                                          
   RCORE  =    3.000    outmost cutoff radius                                                       
   RWIGS  =    2.960; RWIGS  =    1.566    wigner-seitz radius (au A)                               
   ENMAX  =  103.236; ENMIN  =   77.427 eV                                                          
   ICORE  =        3    local potential                                                             
   LCOR   =        T    correct aug charges                                                         
   LPAW   =        T    paw PP                                                                      
   EAUG   =  263.585                                                                                
   DEXC   =    0.000                                                                                
   RMAX   =    3.078    core radius for proj-oper                                                   
   RAUG   =    1.300    factor for augmentation sphere                                              
   RDEP   =    3.022    radius for radial grids                                                     
   RDEPT  =    2.655    core radius for aug-charge                                                  
                                                                                                    
   Atomic configuration                                                                             
   13 entries                                                                                       
     n  l   j            E        occ.                                                              
     1  0  0.50    -29007.2859   2.0000                                                             
     2  0  0.50     -4378.8056   2.0000                                                             
     2  1  1.50     -3930.4293   6.0000                                                             
     3  0  0.50      -845.0264   2.0000                                                             
     3  1  1.50      -698.5725   6.0000                                                             
     3  2  2.50      -473.2839  10.0000                                                             
     4  0  0.50      -133.9036   2.0000                                                             
     4  1  1.50       -89.6752   6.0000                                                             
     4  2  2.50       -25.8375  10.0000                                                             
     5  0  0.50       -10.5484   2.0000                                                             
     5  1  0.50        -3.6940   2.0000                                                             
     5  2  1.50        -1.3606   0.0000                                                             
     4  3  2.50        -4.0817   0.0000                                                             
   Description                                                                                      
     l       E           TYP  RCUT    TYP  RCUT                                                     
     0    -10.5483727     23  3.000                                                                 
     0     27.2116520     23  3.000                                                                 
     1     -3.6939829     23  3.000                                                                 
     1      1.9821976     23  3.000                                                                 
     2     -1.3605826     23  3.000                                                                 
     3     -2.7211652     23  3.000                                                                 
  local pseudopotential read in
  partial core-charges read in
  partial kinetic energy density read in
  atomic valenz-charges read in
  non local Contribution for L=           0  read in
    real space projection operators read in
  non local Contribution for L=           0  read in
    real space projection operators read in
  non local Contribution for L=           1  read in
    real space projection operators read in
  non local Contribution for L=           1  read in
    real space projection operators read in
  non local Contribution for L=           2  read in
    real space projection operators read in
    PAW grid and wavefunctions read in
 
   number of l-projection  operators is LMAX  =           5
   number of lm-projection operators is LMMAX =          13
 
 POTCAR:    PAW_PBE Si 05Jan2001                  
   VRHFIN =Si: s2p2                                                                                 
   LEXCH  = PE                                                                                      
   EATOM  =   103.0669 eV,    7.5752 Ry                                                             
                                                                                                    
   TITEL  = PAW_PBE Si 05Jan2001                                                                    
   LULTRA =        F    use ultrasoft PP ?                                                          
   IUNSCR =        1    unscreen: 0-lin 1-nonlin 2-no                                               
   RPACOR =    1.500    partial core radius                                                         
   POMASS =   28.085; ZVAL   =    4.000    mass and valenz                                          
   RCORE  =    1.900    outmost cutoff radius                                                       
   RWIGS  =    2.480; RWIGS  =    1.312    wigner-seitz radius (au A)                               
   ENMAX  =  245.345; ENMIN  =  184.009 eV                                                          
   ICORE  =        2    local potential                                                             
   LCOR   =        T    correct aug charges                                                         
   LPAW   =        T    paw PP                                                                      
   EAUG   =  322.069                                                                                
   DEXC   =    0.000                                                                                
   RMAX   =    1.950    core radius for proj-oper                                                   
   RAUG   =    1.300    factor for augmentation sphere                                              
   RDEP   =    1.993    radius for radial grids                                                     
   RDEPT  =    1.837    core radius for aug-charge                                                  
                                                                                                    
   Atomic configuration                                                                             
    6 entries                                                                                       
     n  l   j            E        occ.                                                              
     1  0  0.50     -1785.8828   2.0000                                                             
     2  0  0.50      -139.4969   2.0000                                                             
     2  1  1.50       -95.5546   6.0000                                                             
     3  0  0.50       -10.8127   2.0000                                                             
     3  1  0.50        -4.0811   2.0000                                                             
     3  2  1.50        -4.0817   0.0000                                                             
   Description                                                                                      
     l       E           TYP  RCUT    TYP  RCUT                                                     
     0    -10.8127223     23  1.900                                                                 
     0     -7.6451159     23  1.900                                                                 
     1     -4.0811372     23  1.900                                                                 
     1      2.4879257     23  1.900                                                                 
     2     -4.0817478      7  1.900                                                                 
  local pseudopotential read in
  partial core-charges read in
  partial kinetic energy density read in
  atomic valenz-charges read in
  non local Contribution for L=           0  read in
    real space projection operators read in
  non local Contribution for L=           0  read in
    real space projection operators read in
  non local Contribution for L=           1  read in
    real space projection operators read in
  non local Contribution for L=           1  read in
    real space projection operators read in
    PAW grid and wavefunctions read in
 
   number of l-projection  operators is LMAX  =           4
   number of lm-projection operators is LMMAX =           8
 
 Optimization of the real space projectors (new method)

 maximal supplied QI-value         = 12.47
 optimisation between [QCUT,QGAM] = [ 12.47, 27.06] = [ 43.56,205.12] Ry 
 Optimized for a Real-space Cutoff    1.58 Angstroem

   l    n(q)    QCUT    max X(q) W(low)/X(q) W(high)/X(q)  e(spline) 
   0     13    12.472    14.688    0.45E-04    0.45E-04    0.25E-05
   0     13    12.472     7.308    0.94E-04    0.11E-03    0.61E-05
   1     12    12.472    45.102    0.34E-03    0.14E-03    0.21E-05
   1     12    12.472    30.691    0.31E-03    0.13E-03    0.20E-05
   2     12    12.472     7.156    0.86E-04    0.11E-03    0.17E-05
 WARNING: PSMAXN for non-local potential too small
          PSMAXN should be >   13.5545592237991       NTYP=           1
 Optimization of the real space projectors (new method)

 maximal supplied QI-value         = 19.84
 optimisation between [QCUT,QGAM] = [ 13.49, 26.99] = [ 50.98,203.92] Ry 
 Optimized for a Real-space Cutoff    1.07 Angstroem

   l    n(q)    QCUT    max X(q) W(low)/X(q) W(high)/X(q)  e(spline) 
   0      9    13.493   159.560    0.22E-03    0.15E-03    0.72E-07
   0      9    13.493   115.863    0.21E-03    0.15E-03    0.71E-07
   1      8    13.493    88.339    0.15E-03    0.11E-03    0.13E-06
   1      8    13.493    48.592    0.15E-03    0.10E-03    0.13E-06
  PAW_PBE Sn 08Apr2002                  :
 energy of atom  1       EATOM=  -94.0860
 kinetic energy error for atom=    0.0000 (will be added to EATOM!!)
  PAW_PBE Si 05Jan2001                  :
 energy of atom  2       EATOM= -103.0669
 kinetic energy error for atom=    0.0003 (will be added to EATOM!!)
 
 
 POSCAR: Sn+Si
  positions in direct lattice
  No initial velocities read in


 exchange-correlation table for PE
   RHO(1)=    0.500       N(1)  =     2000
   RHO(2)=  100.500       N(2)  =     4000
 


--------------------------------------------------------------------------------------------------------


 ion  position               nearest neighbor table
   1  0.995  0.667  0.000- 177 1.47 135 2.24 255 2.61  31 2.81 100 2.81 254 3.04 216 3.11 219 3.20
                           246 3.39
   2  0.828  0.667  0.218-  49 2.81  32 2.81 101 2.81 100 2.81 255 3.31
   3  0.662  0.667  0.436- 208 2.09  50 2.81  33 2.81 101 2.81 102 2.81 121 2.98 166 3.04
   4  0.995  0.333  0.000- 243 1.38 132 2.27 162 2.64  34 2.81 103 2.81 173 3.09 201 3.10 204 3.19

   5  0.828  0.333  0.218-  52 2.81  35 2.81 104 2.81 103 2.81
   6  0.662  0.333  0.436- 193 2.08  53 2.81  36 2.81 104 2.81 105 2.81 118 3.00
   7  0.995  0.000  0.000- 147 1.36 258 1.86 186 1.96  28 2.81 106 2.81 263 3.30 185 3.34
   8  0.828  0.000  0.218-  46 2.81  29 2.81 107 2.81 106 2.81
   9  0.662  0.000  0.436- 139 2.38  47 2.81  30 2.81 107 2.81 108 2.81 211 3.28 151 3.30 190 3.30

  10  0.328  0.667  0.000- 207 1.84 165 2.24 249 2.32 248 2.80  40 2.81  82 2.81 123 2.91 237 3.17
                           168 3.23
  11  0.162  0.667  0.218-  41 2.81  31 2.81  83 2.81  82 2.81
  12  0.995  0.667  0.436- 142 2.41  42 2.81  32 2.81  83 2.81  84 2.81 196 3.24 181 3.32 223 3.32

  13  0.328  0.333  0.000- 234 0.69 192 1.83  43 2.81  85 2.81 120 2.93 153 3.13
  14  0.162  0.333  0.218-  86 2.81  44 2.81  34 2.81  85 2.81 162 3.30
  15  0.995  0.333  0.436- 112 2.44  45 2.81  35 2.81  86 2.81  87 2.81 187 3.23 229 3.28 214 3.32

  16  0.328  0.000  0.000- 252 1.43 141 2.30 180 2.59  37 2.81  88 2.81 260 3.08 210 3.12 222 3.15

  17  0.162  0.000  0.218-  38 2.81  28 2.81  89 2.81  88 2.81
  18  0.995  0.000  0.436- 127 1.62  39 2.81  29 2.81  89 2.81  90 2.81
  19  0.662  0.667  0.000- 159 0.59 198 1.89  49 2.81  91 2.81 114 2.84 240 3.23
  20  0.495  0.667  0.218-  92 2.81  40 2.81  50 2.81  91 2.81
  21  0.328  0.667  0.436- 217 2.05  51 2.81  41 2.81  93 2.81  92 2.81 136 3.04
  22  0.662  0.333  0.000- 189 1.88 150 2.27 231 2.35 155 2.78  94 2.81  52 2.81 111 2.86 228 3.13
                           156 3.19
  23  0.495  0.333  0.218-  95 2.81  43 2.81  53 2.81  94 2.81
  24  0.328  0.333  0.436- 202 2.03  54 2.81  96 2.81  44 2.81  95 2.81 244 3.06 133 3.06
  25  0.662  0.000  0.000- 171 1.42 126 2.21 264 2.66  46 2.81  97 2.81 170 3.05 225 3.16 213 3.18
                           240 3.37
  26  0.495  0.000  0.218-  98 2.81  37 2.81  47 2.81  97 2.81
  27  0.328  0.000  0.436- 115 2.46  48 2.81  38 2.81  99 2.81  98 2.81 220 3.25 199 3.27 259 3.30

  28  0.078  0.917  0.109- 258 2.05  17 2.81   7 2.81  55 2.81  56 2.81 180 3.04
  29  0.912  0.917  0.327-   8 2.81  18 2.81  56 2.81  57 2.81
  30  0.745  0.917  0.544- 211 1.47 169 2.24 139 2.61   9 2.81  57 2.81 125 3.04 250 3.11 226 3.20
                           124 3.39
  31  0.078  0.583  0.109- 246 2.03  11 2.81   1 2.81  58 2.81  59 2.81 135 3.06 177 3.06
  32  0.912  0.583  0.327-   2 2.81  12 2.81  59 2.81  60 2.81 196 3.30
  33  0.745  0.583  0.544- 121 1.38 166 2.27 196 2.64   3 2.81  60 2.81 197 3.09 235 3.10 238 3.19

  34  0.078  0.250  0.109- 162 2.46  14 2.81  61 2.81   4 2.81  62 2.81 261 3.25 243 3.27 117 3.30

  35  0.912  0.250  0.327-  62 2.81   5 2.81  15 2.81  63 2.81
  36  0.745  0.250  0.544- 154 1.36 109 1.86 193 1.96   6 2.81  63 2.81 110 3.30 188 3.34
  37  0.412  0.917  0.109- 252 2.09  16 2.81  26 2.81  64 2.81  65 2.81 168 2.98 210 3.04
  38  0.245  0.917  0.327-  17 2.81  27 2.81  65 2.81  66 2.81
  39  0.078  0.917  0.544- 262 1.84 223 2.24 127 2.32 146 2.80  18 2.81  66 2.81 184 2.91 145 3.17
                           199 3.23
  40  0.412  0.583  0.109- 237 2.08  10 2.81  20 2.81  67 2.81  68 2.81 165 3.00
  41  0.245  0.583  0.327-  11 2.81  21 2.81  68 2.81  69 2.81
  42  0.078  0.583  0.544- 142 0.69 253 1.83  12 2.81  69 2.81 181 2.93 214 3.13
  43  0.412  0.250  0.109- 153 2.38  13 2.81  70 2.81  71 2.81  23 2.81 228 3.28 192 3.30 234 3.30

  44  0.245  0.250  0.327-  71 2.81  14 2.81  72 2.81  24 2.81
  45  0.078  0.250  0.544- 130 1.43 172 2.30 187 2.59  15 2.81  72 2.81 131 3.08 241 3.12 229 3.15

  46  0.745  0.917  0.109- 183 2.41   8 2.81  25 2.81  74 2.81  73 2.81 240 3.24 225 3.32 264 3.32

  47  0.578  0.917  0.327-   9 2.81  26 2.81  74 2.81  75 2.81 139 3.31
  48  0.412  0.917  0.544- 220 0.59 259 1.89  27 2.81  75 2.81 178 2.84 115 3.23
  49  0.745  0.583  0.109- 159 2.44   2 2.81  19 2.81  77 2.81  76 2.81 231 3.23 114 3.28 255 3.32

  50  0.578  0.583  0.327-   3 2.81  20 2.81  77 2.81  78 2.81
  51  0.412  0.583  0.544- 247 1.88 205 2.27 136 2.35 206 2.78  21 2.81  78 2.81 175 2.86 133 3.13
                           217 3.19
  52  0.745  0.250  0.109- 150 1.62   5 2.81  80 2.81  79 2.81  22 2.81
  53  0.578  0.250  0.327-   6 2.81  80 2.81  81 2.81  23 2.81
  54  0.412  0.250  0.544- 202 1.42 160 2.21 118 2.66  24 2.81  81 2.81 191 3.05 232 3.16 244 3.18
                           115 3.37
  55  0.162  0.833  0.000- 138 1.88 249 2.27 180 2.35 257 2.78  82 2.81  28 2.81 219 2.86 177 3.13
                           258 3.19
  56  0.995  0.833  0.218- 100 2.81  83 2.81  29 2.81  28 2.81
  57  0.828  0.833  0.436- 124 2.03  84 2.81 101 2.81  30 2.81  29 2.81 169 3.06 211 3.06
  58  0.162  0.500  0.000- 246 1.42 204 2.21 165 2.66  85 2.81  31 2.81 245 3.05 120 3.16 135 3.18
                           162 3.37
  59  0.995  0.500  0.218- 103 2.81  86 2.81  32 2.81  31 2.81
  60  0.828  0.500  0.436- 196 2.46  87 2.81 104 2.81  33 2.81  32 2.81 112 3.25 121 3.27 157 3.30

  61  0.162  0.167  0.000- 261 0.59 117 1.89  88 2.81  34 2.81 222 2.84 162 3.23
  62  0.995  0.167  0.218-  35 2.81 106 2.81  89 2.81  34 2.81
  63  0.828  0.167  0.436- 109 2.05  90 2.81  36 2.81  35 2.81 107 2.81 187 3.04
  64  0.495  0.833  0.000- 168 1.38 210 2.27 240 2.64  91 2.81  37 2.81 251 3.09 123 3.10 126 3.19

  65  0.328  0.833  0.218-  82 2.81  92 2.81  38 2.81  37 2.81
  66  0.162  0.833  0.436- 145 2.08  83 2.81  93 2.81  39 2.81  38 2.81 223 3.00
  67  0.495  0.500  0.000- 195 1.36 156 1.86 237 1.96  94 2.81  40 2.81 164 3.30 236 3.34
  68  0.328  0.500  0.218-  85 2.81  95 2.81  41 2.81  40 2.81
  69  0.162  0.500  0.436- 214 2.38  86 2.81  96 2.81  42 2.81  41 2.81 133 3.28 253 3.30 142 3.30

  70  0.495  0.167  0.000- 228 1.47 213 2.24 153 2.61  43 2.81  97 2.81 152 3.04 141 3.11 111 3.20
                           171 3.39
  71  0.328  0.167  0.218-  44 2.81  88 2.81  43 2.81  98 2.81 153 3.31
  72  0.162  0.167  0.436- 130 2.09  89 2.81  45 2.81  99 2.81  44 2.81 199 2.98 241 3.04
  73  0.828  0.833  0.000- 183 0.69 144 1.83 100 2.81  46 2.81 225 2.93 255 3.13
  74  0.662  0.833  0.218- 101 2.81  91 2.81  47 2.81  46 2.81 240 3.30
  75  0.495  0.833  0.436- 220 2.44 102 2.81  92 2.81  47 2.81  48 2.81 136 3.23 178 3.28 139 3.32

  76  0.828  0.500  0.000- 174 1.43 216 2.30 231 2.59 103 2.81  49 2.81 158 3.08 132 3.12 114 3.15

  77  0.662  0.500  0.218- 104 2.81  94 2.81  50 2.81  49 2.81
  78  0.495  0.500  0.436- 205 1.62 105 2.81  95 2.81  50 2.81  51 2.81
  79  0.828  0.167  0.000- 129 1.84 264 2.24 150 2.32 149 2.80 106 2.81  52 2.81 201 2.91 186 3.17
                           243 3.23
  80  0.662  0.167  0.218- 107 2.81  53 2.81  52 2.81  97 2.81
  81  0.495  0.167  0.436- 190 2.41 108 2.81  98 2.81  53 2.81  54 2.81 115 3.24 232 3.32 118 3.32

  82  0.245  0.750  0.109- 249 1.62  55 2.81  65 2.81  10 2.81  11 2.81
  83  0.078  0.750  0.327-  56 2.81  66 2.81  11 2.81  12 2.81
  84  0.912  0.750  0.544- 124 1.42 238 2.21 223 2.66  57 2.81  12 2.81 143 3.05 181 3.16 169 3.18
                           196 3.37
  85  0.245  0.417  0.109- 234 2.41  58 2.81  68 2.81  13 2.81  14 2.81 162 3.24 120 3.32 165 3.32

  86  0.078  0.417  0.327-  59 2.81  14 2.81  69 2.81  15 2.81 214 3.31
  87  0.912  0.417  0.544- 112 0.59 157 1.89  60 2.81  15 2.81 229 2.84 196 3.23
  88  0.245  0.083  0.109- 261 2.44  61 2.81  71 2.81  16 2.81  17 2.81 180 3.23 222 3.28 153 3.32

  89  0.078  0.083  0.327-  17 2.81  62 2.81  72 2.81  18 2.81
  90  0.912  0.083  0.544- 148 1.88 127 2.27 187 2.35 128 2.78  63 2.81  18 2.81 226 2.86 211 3.13
                           109 3.19
  91  0.578  0.750  0.109- 240 2.46  64 2.81  74 2.81  19 2.81  20 2.81 159 3.25 168 3.27 198 3.30

  92  0.412  0.750  0.327-  20 2.81  65 2.81  75 2.81  21 2.81
  93  0.245  0.750  0.544- 256 1.36 217 1.86 145 1.96  66 2.81  21 2.81 218 3.30 137 3.34
  94  0.578  0.417  0.109- 156 2.05  67 2.81  77 2.81  22 2.81  23 2.81 231 3.04
  95  0.412  0.417  0.327-  23 2.81  68 2.81  78 2.81  24 2.81
  96  0.245  0.417  0.544- 133 1.47 244 2.24 214 2.61  69 2.81  24 2.81 203 3.04 172 3.11 175 3.20
                           202 3.39
  97  0.578  0.083  0.109- 171 2.03  25 2.81  70 2.81  80 2.81  26 2.81 213 3.06 228 3.06
  98  0.412  0.083  0.327-  26 2.81  71 2.81  81 2.81  27 2.81 115 3.30
  99  0.245  0.083  0.544- 199 1.38 241 2.27 115 2.64  27 2.81  72 2.81 116 3.09 184 3.10 160 3.19

 100  0.912  0.750  0.109- 255 2.38  73 2.81  56 2.81   2 2.81   1 2.81 177 3.28 144 3.30 183 3.30

 101  0.745  0.750  0.327-  74 2.81  57 2.81   2 2.81   3 2.81
 102  0.578  0.750  0.544- 208 1.43 250 2.30 136 2.59  75 2.81   3 2.81 209 3.08 166 3.12 178 3.15

 103  0.912  0.417  0.109- 174 2.09  76 2.81  59 2.81   5 2.81   4 2.81 243 2.98 132 3.04
 104  0.745  0.417  0.327-  77 2.81   5 2.81  60 2.81   6 2.81
 105  0.578  0.417  0.544- 163 1.84 118 2.24 205 2.32 194 2.80  78 2.81   6 2.81 235 2.91 193 3.17
                           121 3.23
 106  0.912  0.083  0.109- 186 2.08  79 2.81  62 2.81   8 2.81   7 2.81 264 3.00
 107  0.745  0.083  0.327-  80 2.81   8 2.81   9 2.81  63 2.81
 108  0.578  0.083  0.544- 190 0.69 151 1.83  81 2.81   9 2.81 232 2.93 139 3.13
 109  0.765  0.157  0.544-  36 1.86  63 2.05 154 2.34 226 2.34  90 3.19
 110  0.650  0.234  0.727- 232 2.34 227 2.34 155 2.34 154 2.34  36 3.30
 111  0.534  0.310  0.909- 233 2.34 155 2.34 228 2.34 156 2.34  22 2.86  70 3.20
 112  0.919  0.387  0.544-  87 0.59 229 2.34 157 2.34  15 2.44  60 3.25
 113  0.804  0.464  0.727- 230 2.34 235 2.34 157 2.34 158 2.34
 114  0.688  0.541  0.909- 236 2.34 158 2.34 231 2.34 159 2.34  19 2.84  76 3.15  49 3.28
 115  0.381  0.080  0.544- 259 2.34 160 2.34  27 2.46  99 2.64  48 3.23  81 3.24  98 3.30  54 3.37

 116  0.265  0.157  0.727- 260 2.34 241 2.34 161 2.34 160 2.34  99 3.09
 117  0.150  0.234  0.909-  61 1.89 242 2.34 261 2.34 161 2.34 162 2.34  34 3.30
 118  0.534  0.310  0.544- 105 2.24 232 2.34 163 2.34  54 2.66   6 3.00  81 3.32
 119  0.419  0.387  0.727- 244 2.34 163 2.34 164 2.34 233 2.34
 120  0.304  0.464  0.909- 245 2.34 164 2.34 234 2.34 165 2.34  13 2.93  58 3.16  85 3.32
 121  0.688  0.541  0.544-  33 1.38 166 2.34 235 2.34   3 2.98 105 3.23  60 3.27
 122  0.573  0.618  0.727- 247 2.34 167 2.34 236 2.34 166 2.34
 123  0.457  0.695  0.909- 248 2.34 167 2.34 168 2.34 237 2.34  10 2.91  64 3.10
 124  0.842  0.772  0.544-  84 1.42  57 2.03 169 2.34 238 2.34  30 3.39
 125  0.727  0.849  0.727- 250 2.34 170 2.34 169 2.34 239 2.34  30 3.04
 126  0.611  0.926  0.909-  25 2.21 251 2.34 170 2.34 171 2.34 240 2.34  64 3.19
 127  0.996  0.003  0.544-  18 1.62  90 2.27  39 2.32 262 2.34 148 2.34
 128  0.881  0.080  0.727- 226 2.34 263 2.34 149 2.34 148 2.34  90 2.78
 129  0.765  0.157  0.909-  79 1.84 227 2.34 149 2.34 264 2.34 150 2.34
 130  0.150  0.234  0.544-  45 1.43  72 2.09 172 2.34 241 2.34
 131  0.034  0.310  0.727- 173 2.34 229 2.34 242 2.34 172 2.34  45 3.08
 132  0.919  0.387  0.909-   4 2.27 230 2.34 173 2.34 174 2.34 243 2.34 103 3.04  76 3.12
 133  0.304  0.464  0.544-  96 1.47 244 2.34 175 2.34  24 3.06  51 3.13  69 3.28
 134  0.188  0.541  0.727- 253 2.34 176 2.34 245 2.34 175 2.34
 135  0.073  0.618  0.909-   1 2.24 254 2.34 176 2.34 246 2.34 177 2.34  31 3.06  58 3.18
 136  0.457  0.695  0.544- 247 2.34 178 2.34  51 2.35 102 2.59  21 3.04  75 3.23
 137  0.342  0.772  0.727- 248 2.34 256 2.34 178 2.34 179 2.34  93 3.34
 138  0.227  0.849  0.909-  55 1.88 257 2.34 179 2.34 249 2.34 180 2.34
 139  0.611  0.926  0.544- 151 2.34 250 2.34   9 2.38  30 2.61 108 3.13  47 3.31  75 3.32
 140  0.496  0.003  0.727- 259 2.34 251 2.34 152 2.34 151 2.34
 141  0.381  0.080  0.909-  16 2.30 260 2.34 152 2.34 252 2.34 153 2.34  70 3.11
 142  0.073  0.618  0.544-  42 0.69 253 2.34 181 2.34  12 2.41  69 3.30
 143  0.957  0.695  0.727- 238 2.34 254 2.34 182 2.34 181 2.34  84 3.05
 144  0.842  0.772  0.909-  73 1.83 239 2.34 182 2.34 183 2.34 255 2.34 100 3.30
 145  0.227  0.849  0.544-  93 1.96  66 2.08 256 2.34 184 2.34  39 3.17
 146  0.111  0.926  0.727- 257 2.34 262 2.34 184 2.34 185 2.34  39 2.80
 147  0.996  0.003  0.909-   7 1.36 263 2.34 185 2.34 258 2.34 186 2.34
 148  0.977  0.099  0.636-  90 1.88 200 2.34 127 2.34 187 2.34 128 2.34
 149  0.861  0.176  0.818- 201 2.34 188 2.34 128 2.34 129 2.34  79 2.80
 150  0.746  0.253  0.000-  52 1.62  22 2.27  79 2.32 189 2.34 129 2.34
 151  0.592  0.022  0.636- 108 1.83 190 2.34 139 2.34 212 2.34 140 2.34   9 3.30
 152  0.477  0.099  0.818- 213 2.34 191 2.34 140 2.34 141 2.34  70 3.04
 153  0.361  0.176  0.000- 192 2.34 141 2.34  43 2.38  70 2.61  13 3.13  71 3.31  88 3.32
 154  0.746  0.253  0.636-  36 1.36 188 2.34 109 2.34 110 2.34 193 2.34
 155  0.631  0.330  0.818- 189 2.34 110 2.34 111 2.34 194 2.34  22 2.78
 156  0.515  0.407  0.000-  67 1.86  94 2.05 111 2.34 195 2.34  22 3.19
 157  0.900  0.484  0.636-  87 1.89 215 2.34 113 2.34 112 2.34 196 2.34  60 3.30
 158  0.784  0.560  0.818- 216 2.34 114 2.34 197 2.34 113 2.34  76 3.08
 159  0.669  0.637  0.000-  19 0.59 198 2.34 114 2.34  49 2.44  91 3.25
 160  0.361  0.176  0.636-  54 2.21 191 2.34 115 2.34 202 2.34 116 2.34  99 3.19
 161  0.246  0.253  0.818- 192 2.34 116 2.34 203 2.34 117 2.34
 162  0.131  0.330  0.000- 117 2.34 204 2.34  34 2.46   4 2.64  61 3.23  85 3.24  14 3.30  58 3.37

 163  0.515  0.407  0.636- 105 1.84 194 2.34 205 2.34 119 2.34 118 2.34
 164  0.400  0.484  0.818- 195 2.34 120 2.34 206 2.34 119 2.34  67 3.30
 165  0.284  0.560  0.000-  10 2.24 207 2.34 120 2.34  58 2.66  40 3.00  85 3.32
 166  0.669  0.637  0.636-  33 2.27 197 2.34 121 2.34 208 2.34 122 2.34   3 3.04 102 3.12
 167  0.554  0.714  0.818- 198 2.34 122 2.34 209 2.34 123 2.34
 168  0.438  0.791  0.000-  64 1.38 210 2.34 123 2.34  37 2.98  10 3.23  91 3.27
 169  0.823  0.868  0.636-  30 2.24 124 2.34 224 2.34 125 2.34 211 2.34  57 3.06  84 3.18
 170  0.707  0.945  0.818- 225 2.34 125 2.34 212 2.34 126 2.34  25 3.05
 171  0.592  0.022  0.000-  25 1.42  97 2.03 126 2.34 213 2.34  70 3.39
 172  0.131  0.330  0.636-  45 2.30 203 2.34 130 2.34 214 2.34 131 2.34  96 3.11
 173  0.015  0.407  0.818- 204 2.34 131 2.34 215 2.34 132 2.34   4 3.09
 174  0.900  0.484  0.000-  76 1.43 103 2.09 132 2.34 216 2.34
 175  0.284  0.560  0.636- 206 2.34 217 2.34 133 2.34 134 2.34  51 2.86  96 3.20
 176  0.169  0.637  0.818- 207 2.34 134 2.34 218 2.34 135 2.34
 177  0.054  0.714  0.000-   1 1.47 219 2.34 135 2.34  31 3.06  55 3.13 100 3.28
 178  0.438  0.791  0.636- 209 2.34 137 2.34 220 2.34 136 2.34  48 2.84 102 3.15  75 3.28
 179  0.323  0.868  0.818- 210 2.34 138 2.34 221 2.34 137 2.34
 180  0.207  0.945  0.000- 222 2.34 138 2.34  55 2.35  16 2.59  28 3.04  88 3.23
 181  0.054  0.714  0.636- 218 2.34 223 2.34 142 2.34 143 2.34  42 2.93  84 3.16  12 3.32
 182  0.938  0.791  0.818- 224 2.34 219 2.34 144 2.34 143 2.34
 183  0.823  0.868  0.000-  73 0.69 144 2.34 225 2.34  46 2.41 100 3.30
 184  0.207  0.945  0.636- 221 2.34 199 2.34 145 2.34 146 2.34  39 2.91  99 3.10
 185  0.092  0.022  0.818- 200 2.34 222 2.34 147 2.34 146 2.34   7 3.34
 186  0.977  0.099  0.000-   7 1.96 106 2.08 201 2.34 147 2.34  79 3.17
 187  0.957  0.195  0.544- 229 2.34 148 2.34  90 2.35  45 2.59  63 3.04  15 3.23
 188  0.842  0.272  0.727- 154 2.34 229 2.34 230 2.34 149 2.34  36 3.34
 189  0.727  0.349  0.909-  22 1.88 155 2.34 230 2.34 231 2.34 150 2.34
 190  0.573  0.118  0.544- 108 0.69 151 2.34 232 2.34  81 2.41   9 3.30
 191  0.457  0.195  0.727- 160 2.34 152 2.34 233 2.34 232 2.34  54 3.05
 192  0.342  0.272  0.909-  13 1.83 161 2.34 153 2.34 234 2.34 233 2.34  43 3.30
 193  0.727  0.349  0.544-  36 1.96   6 2.08 235 2.34 154 2.34 105 3.17
 194  0.611  0.426  0.727- 236 2.34 163 2.34 155 2.34 235 2.34 105 2.80
 195  0.496  0.503  0.909-  67 1.36 164 2.34 237 2.34 236 2.34 156 2.34
 196  0.881  0.580  0.544- 238 2.34 157 2.34  60 2.46  33 2.64  87 3.23  12 3.24  32 3.30  84 3.37

 197  0.765  0.657  0.727- 239 2.34 166 2.34 158 2.34 238 2.34  33 3.09
 198  0.650  0.734  0.909-  19 1.89 167 2.34 240 2.34 159 2.34 239 2.34  91 3.30
 199  0.188  0.041  0.544-  99 1.38 241 2.34 184 2.34  72 2.98  39 3.23  27 3.27
 200  0.073  0.118  0.727- 185 2.34 242 2.34 148 2.34 241 2.34
 201  0.957  0.195  0.909- 149 2.34 242 2.34 186 2.34 243 2.34  79 2.91   4 3.10
 202  0.342  0.272  0.544-  54 1.42  24 2.03 244 2.34 160 2.34  96 3.39
 203  0.227  0.349  0.727- 172 2.34 245 2.34 161 2.34 244 2.34  96 3.04
 204  0.111  0.426  0.909-  58 2.21 173 2.34 245 2.34 246 2.34 162 2.34   4 3.19
 205  0.496  0.503  0.544-  78 1.62  51 2.27 105 2.32 247 2.34 163 2.34
 206  0.381  0.580  0.727- 248 2.34 175 2.34 164 2.34 247 2.34  51 2.78
 207  0.265  0.657  0.909-  10 1.84 176 2.34 249 2.34 248 2.34 165 2.34
 208  0.650  0.734  0.544- 102 1.43   3 2.09 166 2.34 250 2.34
 209  0.534  0.810  0.727- 178 2.34 167 2.34 251 2.34 250 2.34 102 3.08
 210  0.419  0.887  0.909-  64 2.27 179 2.34 168 2.34 251 2.34 252 2.34  37 3.04  16 3.12
 211  0.804  0.964  0.544-  30 1.47 226 2.34 169 2.34  57 3.06  90 3.13   9 3.28
 212  0.688  0.041  0.727- 227 2.34 151 2.34 170 2.34 226 2.34
 213  0.573  0.118  0.909-  70 2.24 152 2.34 228 2.34 227 2.34 171 2.34  97 3.06  25 3.18
 214  0.111  0.426  0.544- 253 2.34 172 2.34  69 2.38  96 2.61  42 3.13  86 3.31  15 3.32
 215  0.996  0.503  0.727- 157 2.34 254 2.34 253 2.34 173 2.34
 216  0.881  0.580  0.909-  76 2.30 158 2.34 254 2.34 255 2.34 174 2.34   1 3.11
 217  0.265  0.657  0.544-  93 1.86  21 2.05 256 2.34 175 2.34  51 3.19
 218  0.150  0.734  0.727- 257 2.34 181 2.34 256 2.34 176 2.34  93 3.30
 219  0.034  0.810  0.909- 182 2.34 257 2.34 258 2.34 177 2.34  55 2.86   1 3.20
 220  0.419  0.887  0.544-  48 0.59 259 2.34 178 2.34  75 2.44  27 3.25
 221  0.304  0.964  0.727- 184 2.34 179 2.34 260 2.34 259 2.34
 222  0.188  0.041  0.909- 185 2.34 260 2.34 180 2.34 261 2.34  61 2.84  16 3.15  88 3.28
 223  0.034  0.810  0.544-  39 2.24 262 2.34 181 2.34  84 2.66  66 3.00  12 3.32
 224  0.919  0.887  0.727- 182 2.34 169 2.34 263 2.34 262 2.34
 225  0.804  0.964  0.909- 170 2.34 263 2.34 264 2.34 183 2.34  73 2.93  25 3.16  46 3.32
 226  0.784  0.060  0.636- 128 2.34 211 2.34 109 2.34 212 2.34  90 2.86  30 3.20
 227  0.669  0.137  0.818- 129 2.34 212 2.34 110 2.34 213 2.34
 228  0.554  0.214  0.000-  70 1.47 213 2.34 111 2.34  97 3.06  22 3.13  43 3.28
 229  0.938  0.291  0.636- 112 2.34 187 2.34 188 2.34 131 2.34  87 2.84  45 3.15  15 3.28
 230  0.823  0.368  0.818- 113 2.34 132 2.34 189 2.34 188 2.34
 231  0.707  0.445  0.000- 114 2.34 189 2.34  22 2.35  76 2.59  94 3.04  49 3.23
 232  0.554  0.214  0.636- 190 2.34 110 2.34 118 2.34 191 2.34 108 2.93  54 3.16  81 3.32
 233  0.438  0.291  0.818- 191 2.34 111 2.34 119 2.34 192 2.34
 234  0.323  0.368  0.000-  13 0.69 192 2.34 120 2.34  85 2.41  43 3.30
 235  0.707  0.445  0.636- 113 2.34 193 2.34 121 2.34 194 2.34 105 2.91  33 3.10
 236  0.592  0.522  0.818- 114 2.34 194 2.34 122 2.34 195 2.34  67 3.34
 237  0.477  0.599  0.000-  67 1.96  40 2.08 195 2.34 123 2.34  10 3.17
 238  0.861  0.676  0.636-  84 2.21 143 2.34 196 2.34 124 2.34 197 2.34  33 3.19
 239  0.746  0.753  0.818- 144 2.34 197 2.34 125 2.34 198 2.34
 240  0.631  0.830  0.000- 198 2.34 126 2.34  91 2.46  64 2.64  19 3.23  46 3.24  74 3.30  25 3.37

 241  0.169  0.137  0.636-  99 2.27 199 2.34 116 2.34 200 2.34 130 2.34  72 3.04  45 3.12
 242  0.054  0.214  0.818- 200 2.34 117 2.34 131 2.34 201 2.34
 243  0.938  0.291  0.000-   4 1.38 201 2.34 132 2.34 103 2.98  79 3.23  34 3.27
 244  0.323  0.368  0.636-  96 2.24 119 2.34 202 2.34 133 2.34 203 2.34  24 3.06  54 3.18
 245  0.207  0.445  0.818- 120 2.34 203 2.34 134 2.34 204 2.34  58 3.05
 246  0.092  0.522  0.000-  58 1.42  31 2.03 204 2.34 135 2.34   1 3.39
 247  0.477  0.599  0.636-  51 1.88 205 2.34 122 2.34 136 2.34 206 2.34
 248  0.361  0.676  0.818- 206 2.34 123 2.34 137 2.34 207 2.34  10 2.80
 249  0.246  0.753  0.000-  82 1.62  55 2.27  10 2.32 207 2.34 138 2.34
 250  0.631  0.830  0.636- 102 2.30 125 2.34 139 2.34 208 2.34 209 2.34  30 3.11
 251  0.515  0.907  0.818- 126 2.34 140 2.34 209 2.34 210 2.34  64 3.09
 252  0.400  0.984  0.000-  16 1.43  37 2.09 141 2.34 210 2.34
 253  0.092  0.522  0.636-  42 1.83 214 2.34 134 2.34 142 2.34 215 2.34  69 3.30
 254  0.977  0.599  0.818- 135 2.34 215 2.34 143 2.34 216 2.34   1 3.04
 255  0.861  0.676  0.000- 216 2.34 144 2.34 100 2.38   1 2.61  73 3.13   2 3.31  49 3.32
 256  0.246  0.753  0.636-  93 1.36 217 2.34 137 2.34 145 2.34 218 2.34
 257  0.131  0.830  0.818- 218 2.34 146 2.34 138 2.34 219 2.34  55 2.78
 258  0.015  0.907  0.000-   7 1.86  28 2.05 147 2.34 219 2.34  55 3.19
 259  0.400  0.984  0.636-  48 1.89 140 2.34 115 2.34 220 2.34 221 2.34  27 3.30
 260  0.284  0.060  0.818- 116 2.34 141 2.34 221 2.34 222 2.34  16 3.08
 261  0.169  0.137  0.000-  61 0.59 117 2.34 222 2.34  88 2.44  34 3.25
 262  0.015  0.907  0.636-  39 1.84 223 2.34 146 2.34 127 2.34 224 2.34
 263  0.900  0.984  0.818- 128 2.34 147 2.34 224 2.34 225 2.34   7 3.30
 264  0.784  0.060  0.000-  79 2.24 225 2.34 129 2.34  25 2.66 106 3.00  46 3.32
 
 -----------------------------------------------------------------------------
|                                                                             |
|           W    W    AA    RRRRR   N    N  II  N    N   GGGG   !!!           |
|           W    W   A  A   R    R  NN   N  II  NN   N  G    G  !!!           |
|           W    W  A    A  R    R  N N  N  II  N N  N  G       !!!           |
|           W WW W  AAAAAA  RRRRR   N  N N  II  N  N N  G  GGG   !            |
|           WW  WW  A    A  R   R   N   NN  II  N   NN  G    G                |
|           W    W  A    A  R    R  N    N  II  N    N   GGGG   !!!           |
|                                                                             |
|     The distance between some ions is very small. Please check the          |
|     nearest-neighbor list in the OUTCAR file.                               |
|     I HOPE YOU KNOW WHAT YOU ARE DOING!                                     |
|                                                                             |
 -----------------------------------------------------------------------------

  LATTYP: Found a simple tetragonal cell.
 ALAT       =    19.4675998690
 C/A-ratio  =     0.7653871812
  
  Lattice vectors:
  
 A1 = (  19.4675998690,   0.0000000000,   0.0000000000)
 A2 = (   0.0000000000,  19.4675998690,   0.0000000000)
 A3 = (   0.0000000000,   0.0000000000,  14.9002513890)


Analysis of symmetry for initial positions (statically):
=====================================================================
 Subroutine PRICEL returns following result:
 
  LATTYP: Found a simple tetragonal cell.
 ALAT       =    13.7656718808
 C/A-ratio  =     1.0824209322
  
  Lattice vectors:
  
 A1 = (   9.7337999345,  -9.7337999345,   0.0000000000)
 A2 = (   9.7337999345,   9.7337999345,   0.0000000000)
 A3 = (   0.0000000000,   0.0000000000,  14.9002513890)
 
   2 primitive cells build up your supercell.
 

 Routine SETGRP: Setting up the symmetry group for a 
 simple tetragonal supercell.


 Subroutine GETGRP returns: Found  2 space group operations
 (whereof  1 operations were pure point group operations)
 out of a pool of 16 trial point group operations.


The static configuration has the point symmetry C_1 .
 The point group associated with its full space group is C_1h.


Analysis of symmetry for dynamics (positions and initial velocities):
=====================================================================
 Subroutine PRICEL returns following result:
 
  LATTYP: Found a simple tetragonal cell.
 ALAT       =    13.7656718808
 C/A-ratio  =     1.0824209322
  
  Lattice vectors:
  
 A1 = (   9.7337999345,  -9.7337999345,   0.0000000000)
 A2 = (   9.7337999345,   9.7337999345,   0.0000000000)
 A3 = (   0.0000000000,   0.0000000000,  14.9002513890)
 
   2 primitive cells build up your supercell.
 

 Routine SETGRP: Setting up the symmetry group for a 
 simple tetragonal supercell.


 Subroutine GETGRP returns: Found  2 space group operations
 (whereof  1 operations were pure point group operations)
 out of a pool of 16 trial point group operations.


The dynamic configuration has the point symmetry C_1 .
 The point group associated with its full space group is C_1h.


Analysis of structural, dynamic, and magnetic symmetry:
=====================================================================
 Subroutine PRICEL returns following result:
 
  LATTYP: Found a simple tetragonal cell.
 ALAT       =    13.7656718808
 C/A-ratio  =     1.0824209322
  
  Lattice vectors:
  
 A1 = (   9.7337999345,  -9.7337999345,   0.0000000000)
 A2 = (   9.7337999345,   9.7337999345,   0.0000000000)
 A3 = (   0.0000000000,   0.0000000000,  14.9002513890)
 
   2 primitive cells build up your supercell.
 

 Routine SETGRP: Setting up the symmetry group for a 
 simple tetragonal supercell.


 Subroutine GETGRP returns: Found  2 space group operations
 (whereof  1 operations were pure point group operations)
 out of a pool of 16 trial point group operations.


The overall configuration has the point symmetry C_1 .
 The point group associated with its full space group is C_1h.


 Subroutine INISYM returns: Found  2 space group operations
 (whereof  1 operations are pure point group operations),
 and found     2 'primitive' translations


----------------------------------------------------------------------------------------

                                     Primitive cell                                     

  volume of cell :    2823.5041

  direct lattice vectors                    reciprocal lattice vectors
     9.733799935 -9.733799935  0.000000000     0.051367401 -0.051367401  0.000000000
     9.733799935  9.733799935  0.000000000     0.051367401  0.051367401  0.000000000
     0.000000000  0.000000000 14.900251389     0.000000000  0.000000000  0.067112962

  length of vectors
    13.765671881 13.765671881 14.900251389     0.072644475  0.072644475  0.067112962

  position of ions in fractional coordinates (direct lattice)
     0.328368425  0.661701799  0.000000000
     0.161701738  0.495035112  0.217754737
     0.995035052  0.328368426  0.435509443
     0.661701769  0.328368455  0.000000000
     0.495035112  0.161701738  0.217754737
     0.328368441  0.995035067  0.435509443
     0.995035112  0.995035112  0.000000000
     0.828368425  0.828368425  0.217754737
     0.661701754  0.661701754  0.435509443
     0.661701768  0.995035142  0.000000000
     0.495035052  0.828368426  0.217754737
     0.328368425  0.661701799  0.435509443
     0.995035232  0.661701858  0.000000000
     0.828368545  0.495035171  0.217754737
     0.661701769  0.328368455  0.435509443
     0.328368545  0.328368545  0.000000000
     0.161701858  0.161701858  0.217754737
     0.995035112  0.995035112  0.435509443
     0.995035111  0.328368485  0.000000000
     0.828368380  0.161701724  0.217754737
     0.661701768  0.995035142  0.435509443
     0.328368456  0.995035082  0.000000000
     0.161701739  0.828368365  0.217754737
     0.995035112  0.661701738  0.435509443
     0.661701769  0.661701769  0.000000000
     0.495035052  0.495035052  0.217754737
     0.328368425  0.328368425  0.435509443
     0.161701687  0.995035179  0.108877368
     0.995035052  0.828368544  0.326632023
     0.828368411  0.661701843  0.544386804
     0.495035000  0.661701866  0.108877368
     0.328368365  0.495035231  0.326632023
     0.161701619  0.328368485  0.544386804
     0.828368425  0.328368545  0.108877368
     0.661701798  0.161701798  0.326632023
     0.495035067  0.995035187  0.544386804
     0.495035023  0.328368455  0.108877368
     0.328368336  0.161701768  0.326632023
     0.161701635  0.995035127  0.544386804
     0.828368336  0.995035202  0.108877368
     0.661701664  0.828368530  0.326632023
     0.495034948  0.661701814  0.544386804
     0.161701679  0.661701799  0.108877368
     0.995034992  0.495035112  0.326632023
     0.828368381  0.328368381  0.544386804
     0.828368381  0.661701813  0.108877368
     0.661701717  0.495035149  0.326632023
     0.495035023  0.328368455  0.544386804
     0.161701739  0.328368605  0.108877368
     0.995035112  0.161701978  0.326632023
     0.828368396  0.995035082  0.544386804
     0.495035037  0.995035157  0.108877368
     0.328368373  0.828368493  0.326632023
     0.161701679  0.661701799  0.544386804
     0.608539551  0.921708077  0.544386804
     0.416231736  0.883246526  0.726632059
     0.223923892  0.844784946  0.908877313
     0.531616687  0.306323409  0.544386804
     0.339308888  0.267861814  0.726632059
     0.147001028  0.229400278  0.908877313
     0.300847291  0.460169673  0.544386804
     0.108539403  0.421708047  0.726632059
     0.916231573  0.383246481  0.908877313
     0.223924201  0.844784897  0.544386804
     0.031616390  0.806323350  0.726632059
     0.839308500  0.767861724  0.908877313
     0.147001147  0.229400277  0.544386804
     0.954693317  0.190938711  0.726632059
     0.762385487  0.152477145  0.908877313
     0.070077956  0.614015758  0.544386804
     0.877770126  0.575554192  0.726632059
     0.685462422  0.537092574  0.908877313
     0.993155019  0.998630985  0.544386804
     0.800847083  0.960169583  0.726632059
     0.608539254  0.921708018  0.908877313
     0.916231870  0.383246422  0.544386804
     0.723924108  0.344784864  0.726632059
     0.531616240  0.306323260  0.908877313
     0.839308739  0.767861963  0.544386804
     0.647001013  0.729400263  0.726632059
     0.454693169  0.690938681  0.908877313
     0.762385875  0.152477175  0.544386804
     0.570078045  0.114015609  0.726632059
     0.377770200  0.075554028  0.908877313
     0.685462654  0.537092626  0.544386804
     0.493154824  0.498631060  0.726632059
     0.300846994  0.460169494  0.908877313
     0.454693452  0.690938726  0.544386804
     0.262385607  0.652477145  0.726632059
     0.070077717  0.614015639  0.908877313
     0.377770424  0.075554132  0.544386804
     0.185462653  0.037092507  0.726632059
     0.993154705  0.998630941  0.908877313
     0.877770365  0.075554073  0.635509431
     0.685462594  0.037092566  0.817754686
     0.493154720  0.998630956  0.000000238
     0.570078060  0.614015624  0.635509431
     0.377770245  0.575554073  0.817754686
     0.185462355  0.537092447  0.000000238
     0.493155017  0.998631015  0.635509431
     0.300847173  0.960169435  0.817754686
     0.108539257  0.921707901  0.000000238
     0.416231960  0.383246452  0.635509431
     0.223924100  0.344784916  0.817754686
     0.031616211  0.306323289  0.000000238
     0.185462833  0.537092805  0.635509431
     0.993155003  0.498631239  0.817754686
     0.800847053  0.460169435  0.000000238
     0.108539637  0.921707925  0.635509431
     0.916231692  0.883246362  0.817754686
     0.723923832  0.844784886  0.000000238
     0.031616509  0.306323349  0.635509431
     0.839308679  0.267861783  0.817754686
     0.647000908  0.229400158  0.000000238
     0.954693377  0.690938771  0.635509431
     0.762385667  0.652477205  0.817754686
     0.570077814  0.614015616  0.000000238
     0.800847307  0.460169509  0.635509431
     0.608539504  0.421707910  0.817754686
     0.416231602  0.383246332  0.000000238
     0.723924130  0.844784946  0.635509431
     0.531616360  0.806323320  0.817754686
     0.339308445  0.767861787  0.000000238
     0.647001118  0.229400188  0.635509431
     0.454693258  0.190938652  0.817754686
     0.262385443  0.152477101  0.000000238
     0.339308824  0.767861810  0.635509431
     0.147000909  0.729400277  0.817754686
     0.954693139  0.690938651  0.000000238
     0.262385770  0.152477190  0.635509431
     0.070077903  0.114015587  0.817754686
     0.877770067  0.075554013  0.000000238

  ion indices of the primitive-cell ions
   primitive index   ion index
                 1           1
                 2           2
                 3           3
                 4           4
                 5          65
                 6          66
                 7           7
                 8           8
                 9          69
                10          10
                11          11
                12          12
                13          73
                14          74
                15          15
                16          76
                17          77
                18          18
                19          19
                20          62
                21          21
                22          55
                23          56
                24          57
                25          58
                26          59
                27          60
                28          28
                29          29
                30          96
                31          31
                32          32
                33          33
                34          91
                35          35
                36          93
                37         103
                38         104
                39          39
                40          40
                41          41
                42          42
                43         100
                44         101
                45          45
                46          85
                47          86
                48          87
                49          49
                50          50
                51          90
                52          82
                53          83
                54          84
                55         217
                56         218
                57         219
                58         112
                59         113
                60         114
                61         196
                62         197
                63         198
                64         223
                65         224
                66         225
                67         121
                68         122
                69         123
                70         124
                71         125
                72         204
                73         127
                74         206
                75         207
                76         208
                77         131
                78         132
                79         211
                80         134
                81         135
                82         136
                83         137
                84         138
                85         214
                86         215
                87         216
                88         142
                89         143
                90         144
                91         145
                92         146
                93         147
                94         148
                95         248
                96         249
                97         253
                98         254
                99         255
               100         256
               101         257
               102         258
               103         157
               104         158
               105         159
               106         238
               107         239
               108         162
               109         262
               110         263
               111         165
               112         166
               113         167
               114         243
               115         169
               116         245
               117         246
               118         172
               119         173
               120         174
               121         175
               122         176
               123         177
               124         229
               125         230
               126         180
               127         181
               128         182
               129         183
               130         184
               131         185
               132         186

----------------------------------------------------------------------------------------

 
 
 KPOINTS: Automatic KPOINTS generated             

Automatic generation of k-mesh.
 Grid dimensions read from file:
 generate k-points for:    2    2    2

 Generating k-lattice:

  Cartesian coordinates                     Fractional coordinates (reciprocal lattice)
     0.025683700  0.000000000  0.000000000     0.500000000  0.000000000  0.000000000
     0.000000000  0.025683700  0.000000000     0.000000000  0.500000000  0.000000000
     0.000000000  0.000000000  0.033556481     0.000000000  0.000000000  0.500000000

  Length of vectors
     0.025683700  0.025683700  0.033556481

  Shift w.r.t. Gamma in fractional coordinates (k-lattice)
     0.000000000  0.000000000  0.000000000

 
 Subroutine IBZKPT returns following result:
 ===========================================
 
 Found      8 irreducible k-points:
 
 Following reciprocal coordinates:
            Coordinates               Weight
  0.000000  0.000000  0.000000      1.000000
  0.500000  0.000000  0.000000      1.000000
  0.000000  0.500000  0.000000      1.000000
  0.500000  0.500000  0.000000      1.000000
  0.000000  0.000000  0.500000      1.000000
  0.500000  0.000000  0.500000      1.000000
  0.000000  0.500000  0.500000      1.000000
  0.500000  0.500000  0.500000      1.000000
 
 Following cartesian coordinates:
            Coordinates               Weight
  0.000000  0.000000  0.000000      1.000000
  0.025684  0.000000  0.000000      1.000000
  0.000000  0.025684  0.000000      1.000000
  0.025684  0.025684  0.000000      1.000000
  0.000000  0.000000  0.033556      1.000000
  0.025684  0.000000  0.033556      1.000000
  0.000000  0.025684  0.033556      1.000000
  0.025684  0.025684  0.033556      1.000000
 
 -----------------------------------------------------------------------------
|                                                                             |
|           W    W    AA    RRRRR   N    N  II  N    N   GGGG   !!!           |
|           W    W   A  A   R    R  NN   N  II  NN   N  G    G  !!!           |
|           W    W  A    A  R    R  N N  N  II  N N  N  G       !!!           |
|           W WW W  AAAAAA  RRRRR   N  N N  II  N  N N  G  GGG   !            |
|           WW  WW  A    A  R   R   N   NN  II  N   NN  G    G                |
|           W    W  A    A  R    R  N    N  II  N    N   GGGG   !!!           |
|                                                                             |
|     The number of bands has been changed from the values supplied in        |
|     the INCAR file. This is a result of running the parallel version.       |
|     The orbitals not found in the WAVECAR file will be initialized with     |
|     random numbers, which is usually adequate. For correlated               |
|     calculations, however, you should redo the groundstate calculation.     |
|     I found NBANDS = 634. Now, NBANDS = 636.                                |
|                                                                             |
 -----------------------------------------------------------------------------



--------------------------------------------------------------------------------------------------------




 Dimension of arrays:
   k-points           NKPTS =      8   k-points in BZ     NKDIM =      8   number of bands    NBANDS=    636
   number of dos      NEDOS =    301   number of ions     NIONS =    264
   non local maximal  LDIM  =      5   non local SUM 2l+1 LMDIM =     13
   total plane-waves  NPLWV = ******
   max r-space proj   IRMAX =   4496   max aug-charges    IRDMAX= 208011
   dimension x,y,z NGX =   126 NGY =  126 NGZ =   96
   dimension x,y,z NGXF=   252 NGYF=  252 NGZF=  192
   support grid    NGXF=   504 NGYF=  504 NGZF=  384
   ions per type =             108 156
   NGX,Y,Z   is equivalent  to a cutoff of  10.76, 10.76, 10.71 a.u.
   NGXF,Y,Z  is equivalent  to a cutoff of  21.52, 21.52, 21.42 a.u.

 SYSTEM =  Si and Ge interface calculation         
 POSCAR =  Sn+Si                                   

 Startparameter for this run:
   NWRITE =      2    write-flag & timer
   PREC   = normal    normal or accurate (medium, high low for compatibility)
   ISTART =      0    job   : 0-new  1-cont  2-samecut
   ICHARG =      2    charge: 1-file 2-atom 10-const
   ISPIN  =      2    spin polarized calculation?
   LNONCOLLINEAR =      F non collinear calculations
   LSORBIT =      F    spin-orbit coupling
   INIWAV =      1    electr: 0-lowe 1-rand  2-diag
   LASPH  =      T    aspherical Exc in radial PAW
 Electronic Relaxation 1
   ENCUT  =  700.0 eV  51.45 Ry    7.17 a.u.  42.00 42.00 32.14*2*pi/ulx,y,z
   ENINI  =  700.0     initial cutoff
   ENAUG  =  900.0 eV  augmentation charge cutoff
   NELM   =    100;   NELMIN=  2; NELMDL= -5     # of ELM steps 
   EDIFF  = 0.1E-06   stopping-criterion for ELM
   LREAL  =      T    real-space projection
   NLSPLINE    = F    spline interpolate recip. space projectors
   LCOMPAT=      F    compatible to vasp.4.4
   GGA_COMPAT  = T    GGA compatible to vasp.4.4-vasp.4.6
   LMAXPAW     = -100 max onsite density
   LMAXMIX     =    6 max onsite mixed and CHGCAR
   VOSKOWN=      0    Vosko Wilk Nusair interpolation
   ROPT   =   -0.00050  -0.00050
 Ionic relaxation
   EDIFFG = 0.1E-05   stopping-criterion for IOM
   NSW    =      0    number of steps for IOM
   NBLOCK =      1;   KBLOCK =      1    inner block; outer block 
   IBRION =     -1    ionic relax: 0-MD 1-quasi-New 2-CG
   NFREE  =      0    steps in history (QN), initial steepest desc. (CG)
   ISIF   =      2    stress and relaxation
   IWAVPR =     10    prediction:  0-non 1-charg 2-wave 3-comb
   ISYM   =      2    0-nonsym 1-usesym 2-fastsym
   LCORR  =      T    Harris-Foulkes like correction to forces

   POTIM  = 0.5000    time-step for ionic-motion
   TEIN   =    0.0    initial temperature
   TEBEG  =    0.0;   TEEND  =   0.0 temperature during run
   SMASS  =  -3.00    Nose mass-parameter (am)
   estimated Nose-frequenzy (Omega)   =  0.10E-29 period in steps = 0.13E+47 mass=  -0.866E-26a.u.
   SCALEE = 1.0000    scale energy and forces
   NPACO  =    256;   APACO  = 10.0  distance and # of slots for P.C.
   PSTRESS=    0.0 pullay stress

  Mass of Ions in am
   POMASS = 118.71 28.09
  Ionic Valenz
   ZVAL   =   4.00  4.00
  Atomic Wigner-Seitz radii
   RWIGS  =  -1.00 -1.00
  virtual crystal weights 
   VCA    =   1.00  1.00
   NELECT =    1056.0000    total number of electrons
   NUPDOWN=       1.0000    fix difference up-down

 DOS related values:
   EMIN   =  10.00;   EMAX   =-10.00  energy-range for DOS
   EFERMI =   0.00;   METHOD = LEGACY      
   ISMEAR =     0;   SIGMA  =   0.01  broadening in eV -4-tet -1-fermi 0-gaus

 Electronic relaxation 2 (details)
   IALGO  =     38    algorithm
   LDIAG  =      T    sub-space diagonalisation (order eigenvalues)
   LSUBROT=      F    optimize rotation matrix (better conditioning)
   TURBO    =      0    0=normal 1=particle mesh
   IRESTART =      0    0=no restart 2=restart with 2 vectors
   NREBOOT  =      0    no. of reboots
   NMIN     =      0    reboot dimension
   EREF     =   0.00    reference energy to select bands
   IMIX   =      4    mixing-type and parameters
     AMIX     =   0.60;   BMIX     =  1.00
     AMIX_MAG =   2.40;   BMIX_MAG =  1.00
     AMIN     =   0.10
     WC   =   100.;   INIMIX=   1;  MIXPRE=   1;  MAXMIX= -45

 Intra band minimization:
   WEIMIN = 0.0000     energy-eigenvalue tresh-hold
   EBREAK =  0.39E-10  absolut break condition
   DEPER  =   0.30     relativ break condition  

   TIME   =   0.40     timestep for ELM

  volume/ion in A,a.u.               =      21.39       144.35
  Fermi-wavevector in a.u.,A,eV,Ry     =   0.936174  1.769113 11.924447  0.876422
  Thomas-Fermi vector in A             =   2.063157
 
 Write flags
   LWAVE        =      F    write WAVECAR
   LDOWNSAMPLE  =      F    k-point downsampling of WAVECAR
   LCHARG       =      T    write CHGCAR
   LVTOT        =      F    write LOCPOT, total local potential
   LVHAR        =      T    write LOCPOT, Hartree potential only
   WRT_POTENTIAL=  hartree ionic  ! write potential to hdf5 file
   LELF         =      F    write electronic localiz. function (ELF)
   LORBIT       =      0    0 simple, 1 ext, 2 COOP (PROOUT), +10 PAW based schemes


 Dipole corrections
   LMONO      =      F    monopole corrections only (constant potential shift)
   LDIPOL     =      F    correct potential (dipole corrections)
   IDIPOL     =      0    1-x, 2-y, 3-z, 4-all directions 
   EPSILON    =  1.0000000 bulk dielectric constant
   LVACPOTAV  =      F  vacuum potentials using an averaging scheme for the charge density
   VACPOTFLAT =  0.1000000 required flatness to determine vacuum potential
 Exchange correlation treatment:
   GGA     = PE    functional components
   XC_C    = 1    coefficients multiplying the functional components
   LIBXC   =     F    Libxc                    
   VOSKOWN =     0    Vosko Wilk Nusair interpolation
   LHFCALC =     F    Hartree Fock is set to
   LHFONE  =     F    Hartree Fock one center treatment
   AEXX    =    0.0000 exact exchange contribution

 Parameters of functionals:
   PE:
     No parameter
 
 Van der Waals corrections
   IVDW    =     0    specifies the selected vdW correction

 Linear response parameters
   LEPSILON=     F    determine dielectric tensor
   LRPA    =     F    only Hartree local field effects (RPA)
   LNABLA  =     F    use nabla operator in PAW spheres
   LVEL    =     F    velocity operator in full k-point grid
   CSHIFT  =0.1000    complex shift for real part using Kramers Kronig
   OMEGAMAX=  -1.0    maximum frequency
   DEG_THRESHOLD= 0.2000000E-02 threshold for treating states as degnerate
   RTIME   =   -0.100 relaxation time in fs
  (WPLASMAI=    0.000 imaginary part of plasma frequency in eV, 0.658/RTIME)
   DFIELD  = 0.0000000 0.0000000 0.0000000 field for delta impulse in time
 
  Optional k-point grid parameters
   LKPOINTS_OPT  =     F    use optional k-point grid
   KPOINTS_OPT_MODE=     1    mode for optional k-point grid
 
 Orbital magnetization related:
   ORBITALMAG=     F  switch on orbital magnetization
   LCHIMAG   =     F  perturbation theory with respect to B field
   DQ        =  0.001000  dq finite difference perturbation B field
   LLRAUG    =     F  two centre corrections for induced B field
   LBONE     =     F  B-component reconstruction in AE one-centre
   LVGVCALC  =     T  calculate vGv susceptibility
   LVGVAPPL  =     F  apply vGv susceptibility instead of pGv for G=0

 Random number generation:
   RANDOM_GENERATOR = DEFAULT
   PCG_SEED         = not used


--------------------------------------------------------------------------------------------------------


 Static calculation
 charge density and potential will be updated during run
 spin polarized calculation
 Variant of blocked Davidson
 Davidson routine will perform the subspace rotation
 perform sub-space diagonalisation
    after iterative eigenvector-optimisation
 modified Broyden-mixing scheme, WC =      100.0
 initial mixing is a Kerker type mixing with AMIX =  0.6000 and BMIX =      1.0000
 Hartree-type preconditioning will be used
 using additional bands          108
 real space projection scheme for non local part
 use partial core corrections
 calculate Harris-corrections to forces 
   (improved forces if not selfconsistent)
 use gradient corrections 
 use of overlap-Matrix (Vanderbilt PP)
 Gauss-broadening in eV      SIGMA  =   0.01


--------------------------------------------------------------------------------------------------------


  energy-cutoff  :      700.00
  volume of cell :     5647.01
      direct lattice vectors                 reciprocal lattice vectors
    19.467599869  0.000000000  0.000000000     0.051367401  0.000000000  0.000000000
     0.000000000 19.467599869  0.000000000     0.000000000  0.051367401  0.000000000
     0.000000000  0.000000000 14.900251389     0.000000000  0.000000000  0.067112962

  length of vectors
    19.467599869 19.467599869 14.900251389     0.051367401  0.051367401  0.067112962


 
 k-points in units of 2pi/SCALE and weight: Automatic KPOINTS generated             
   0.00000000  0.00000000  0.00000000       0.125
   0.02568370  0.00000000  0.00000000       0.125
   0.00000000  0.02568370  0.00000000       0.125
   0.02568370  0.02568370  0.00000000       0.125
   0.00000000  0.00000000  0.03355648       0.125
   0.02568370  0.00000000  0.03355648       0.125
   0.00000000  0.02568370  0.03355648       0.125
   0.02568370  0.02568370  0.03355648       0.125
 
 k-points in reciprocal lattice and weights: Automatic KPOINTS generated             
   0.00000000  0.00000000  0.00000000       0.125
   0.50000000  0.00000000  0.00000000       0.125
   0.00000000  0.50000000  0.00000000       0.125
   0.50000000  0.50000000  0.00000000       0.125
   0.00000000  0.00000000  0.50000000       0.125
   0.50000000  0.00000000  0.50000000       0.125
   0.00000000  0.50000000  0.50000000       0.125
   0.50000000  0.50000000  0.50000000       0.125
 
 position of ions in fractional coordinates (direct lattice) 
   0.99503511  0.66666669  0.00000000
   0.82836843  0.66666669  0.21775474
   0.66170174  0.66666669  0.43550944
   0.99503511  0.33333334  0.00000000
   0.82836843  0.33333334  0.21775474
   0.66170174  0.33333334  0.43550944
   0.99503511  0.00000000  0.00000000
   0.82836843  0.00000000  0.21775474
   0.66170174  0.00000000  0.43550944
   0.32836846  0.66666669  0.00000000
   0.16170174  0.66666669  0.21775474
   0.99503511  0.66666669  0.43550944
   0.32836846  0.33333334  0.00000000
   0.16170174  0.33333334  0.21775474
   0.99503511  0.33333334  0.43550944
   0.32836846  0.00000000  0.00000000
   0.16170174  0.00000000  0.21775474
   0.99503511  0.00000000  0.43550944
   0.66170180  0.66666669  0.00000000
   0.49503511  0.66666669  0.21775474
   0.32836846  0.66666669  0.43550944
   0.66170180  0.33333334  0.00000000
   0.49503511  0.33333334  0.21775474
   0.32836846  0.33333334  0.43550944
   0.66170180  0.00000000  0.00000000
   0.49503511  0.00000000  0.21775474
   0.32836846  0.00000000  0.43550944
   0.07836843  0.91666675  0.10887737
   0.91170180  0.91666675  0.32663202
   0.74503505  0.91666675  0.54438680
   0.07836843  0.58333343  0.10887737
   0.91170180  0.58333343  0.32663202
   0.74503505  0.58333343  0.54438680
   0.07836843  0.25000000  0.10887737
   0.91170180  0.25000000  0.32663202
   0.74503505  0.25000000  0.54438680
   0.41170177  0.91666675  0.10887737
   0.24503510  0.91666675  0.32663202
   0.07836838  0.91666675  0.54438680
   0.41170177  0.58333343  0.10887737
   0.24503510  0.58333343  0.32663202
   0.07836838  0.58333343  0.54438680
   0.41170177  0.25000000  0.10887737
   0.24503510  0.25000000  0.32663202
   0.07836838  0.25000000  0.54438680
   0.74503517  0.91666675  0.10887737
   0.57836855  0.91666675  0.32663202
   0.41170180  0.91666675  0.54438680
   0.74503517  0.58333343  0.10887737
   0.57836855  0.58333343  0.32663202
   0.41170180  0.58333343  0.54438680
   0.74503517  0.25000000  0.10887737
   0.57836855  0.25000000  0.32663202
   0.41170180  0.25000000  0.54438680
   0.16170177  0.83333331  0.00000000
   0.99503505  0.83333331  0.21775474
   0.82836843  0.83333331  0.43550944
   0.16170177  0.50000000  0.00000000
   0.99503505  0.50000000  0.21775474
   0.82836843  0.50000000  0.43550944
   0.16170177  0.16666667  0.00000000
   0.99503505  0.16666667  0.21775474
   0.82836843  0.16666667  0.43550944
   0.49503511  0.83333331  0.00000000
   0.32836843  0.83333331  0.21775474
   0.16170175  0.83333331  0.43550944
   0.49503511  0.50000000  0.00000000
   0.32836843  0.50000000  0.21775474
   0.16170175  0.50000000  0.43550944
   0.49503511  0.16666667  0.00000000
   0.32836843  0.16666667  0.21775474
   0.16170175  0.16666667  0.43550944
   0.82836855  0.83333331  0.00000000
   0.66170186  0.83333331  0.21775474
   0.49503520  0.83333331  0.43550944
   0.82836855  0.50000000  0.00000000
   0.66170186  0.50000000  0.21775474
   0.49503520  0.50000000  0.43550944
   0.82836855  0.16666667  0.00000000
   0.66170186  0.16666667  0.21775474
   0.49503520  0.16666667  0.43550944
   0.24503510  0.75000006  0.10887737
   0.07836843  0.75000006  0.32663202
   0.91170174  0.75000006  0.54438680
   0.24503510  0.41666672  0.10887737
   0.07836843  0.41666672  0.32663202
   0.91170174  0.41666672  0.54438680
   0.24503510  0.08333334  0.10887737
   0.07836843  0.08333334  0.32663202
   0.91170174  0.08333334  0.54438680
   0.57836848  0.75000006  0.10887737
   0.41170186  0.75000006  0.32663202
   0.24503513  0.75000006  0.54438680
   0.57836848  0.41666672  0.10887737
   0.41170186  0.41666672  0.32663202
   0.24503513  0.41666672  0.54438680
   0.57836848  0.08333334  0.10887737
   0.41170186  0.08333334  0.32663202
   0.24503513  0.08333334  0.54438680
   0.91170174  0.75000006  0.10887737
   0.74503505  0.75000006  0.32663202
   0.57836837  0.75000006  0.54438680
   0.91170174  0.41666672  0.10887737
   0.74503505  0.41666672  0.32663202
   0.57836837  0.41666672  0.54438680
   0.91170174  0.08333334  0.10887737
   0.74503505  0.08333334  0.32663202
   0.57836837  0.08333334  0.54438680
   0.76512390  0.15658416  0.54438680
   0.64973921  0.23350728  0.72663206
   0.53435451  0.31043044  0.90887731
   0.91897005  0.38735336  0.54438680
   0.80358535  0.46427646  0.72663206
   0.68820065  0.54119962  0.90887731
   0.38050845  0.07966107  0.54438680
   0.26512375  0.15658420  0.72663206
   0.14973906  0.23350733  0.90887731
   0.53435463  0.31043035  0.54438680
   0.41896990  0.38735348  0.72663206
   0.30358520  0.46427661  0.90887731
   0.68820071  0.54119956  0.54438680
   0.57281601  0.61812270  0.72663206
   0.45743132  0.69504583  0.90887731
   0.84204686  0.77196890  0.54438680
   0.72666216  0.84889203  0.72663206
   0.61127746  0.92581517  0.90887731
   0.99589300  0.00273798  0.54438680
   0.88050830  0.07966111  0.72663206
   0.76512361  0.15658425  0.90887731
   0.14973918  0.23350725  0.54438680
   0.03435449  0.31043038  0.72663206
   0.91896975  0.38735351  0.90887731
   0.30358535  0.46427652  0.54438680
   0.18820064  0.54119962  0.72663206
   0.07281593  0.61812276  0.90887731
   0.45743152  0.69504565  0.54438680
   0.34204683  0.77196878  0.72663206
   0.22666211  0.84889191  0.90887731
   0.61127764  0.92581505  0.54438680
   0.49589294  0.00273812  0.72663206
   0.38050824  0.07966125  0.90887731
   0.07281609  0.61812264  0.54438680
   0.95743138  0.69504577  0.72663206
   0.84204668  0.77196896  0.90887731
   0.22666228  0.84889185  0.54438680
   0.11127758  0.92581493  0.72663206
   0.99589282  0.00273812  0.90887731
   0.97666222  0.09889185  0.63550943
   0.86127752  0.17581499  0.81775469
   0.74589276  0.25273815  0.00000024
   0.59204686  0.02196884  0.63550943
   0.47666219  0.09889197  0.81775469
   0.36127743  0.17581510  0.00000024
   0.74589312  0.25273800  0.63550943
   0.63050842  0.32966116  0.81775469
   0.51512373  0.40658429  0.00000024
   0.89973921  0.48350725  0.63550943
   0.78435451  0.56043041  0.81775469
   0.66896975  0.63735354  0.00000024
   0.36127767  0.17581493  0.63550943
   0.24589297  0.25273806  0.81775469
   0.13050824  0.32966119  0.00000024
   0.51512379  0.40658423  0.63550943
   0.39973909  0.48350737  0.81775469
   0.28435436  0.56043053  0.00000024
   0.66896993  0.63735342  0.63550943
   0.55358523  0.71427655  0.81775469
   0.43820050  0.79119968  0.00000024
   0.82281607  0.86812270  0.63550943
   0.70743138  0.94504583  0.81775469
   0.59204668  0.02196896  0.00000024
   0.13050841  0.32966110  0.63550943
   0.01512371  0.40658420  0.81775469
   0.89973897  0.48350737  0.00000024
   0.28435454  0.56043041  0.63550943
   0.16896984  0.63735348  0.81775469
   0.05358512  0.71427667  0.00000024
   0.43820068  0.79119956  0.63550943
   0.32281598  0.86812270  0.81775469
   0.20743127  0.94504583  0.00000024
   0.05358532  0.71427649  0.63550943
   0.93820059  0.79119968  0.81775469
   0.82281589  0.86812276  0.00000024
   0.20743148  0.94504571  0.63550943
   0.09204674  0.02196884  0.81775469
   0.97666204  0.09889197  0.00000024
   0.95743150  0.19504575  0.54438680
   0.84204680  0.27196887  0.72663206
   0.72666210  0.34889203  0.90887731
   0.57281607  0.11812264  0.54438680
   0.45743138  0.19504577  0.72663206
   0.34204668  0.27196890  0.90887731
   0.72666234  0.34889194  0.54438680
   0.61127758  0.42581508  0.72663206
   0.49589291  0.50273824  0.90887731
   0.88050848  0.57966119  0.54438680
   0.76512373  0.65658432  0.72663206
   0.64973903  0.73350745  0.90887731
   0.18820074  0.04119954  0.54438680
   0.07281604  0.11812267  0.72663206
   0.95743132  0.19504580  0.90887731
   0.34204692  0.27196881  0.54438680
   0.22666222  0.34889194  0.72663206
   0.11127750  0.42581508  0.90887731
   0.49589306  0.50273812  0.54438680
   0.38050833  0.57966125  0.72663206
   0.26512364  0.65658438  0.90887731
   0.64973915  0.73350728  0.54438680
   0.53435445  0.81043041  0.72663206
   0.41896975  0.88735354  0.90887731
   0.80358535  0.96427661  0.54438680
   0.68820065  0.04119968  0.72663206
   0.57281596  0.11812282  0.90887731
   0.11127764  0.42581499  0.54438680
   0.99589294  0.50273812  0.72663206
   0.88050824  0.57966125  0.90887731
   0.26512381  0.65658426  0.54438680
   0.14973913  0.73350739  0.72663206
   0.03435442  0.81043053  0.90887731
   0.41896999  0.88735348  0.54438680
   0.30358526  0.96427661  0.72663206
   0.18820056  0.04119968  0.90887731
   0.03435455  0.81043035  0.54438680
   0.91896987  0.88735348  0.72663206
   0.80358511  0.96427661  0.90887731
   0.78435469  0.06043031  0.63550943
   0.66896993  0.13735345  0.81775469
   0.55358523  0.21427658  0.00000024
   0.93820065  0.29119953  0.63550943
   0.82281596  0.36812270  0.81775469
   0.70743120  0.44504583  0.00000024
   0.55358541  0.21427646  0.63550943
   0.43820071  0.29119960  0.81775469
   0.32281598  0.36812276  0.00000024
   0.70743161  0.44504571  0.63550943
   0.59204692  0.52196884  0.81775469
   0.47666219  0.59889197  0.00000024
   0.86127782  0.67581499  0.63550943
   0.74589312  0.75273812  0.81775469
   0.63050836  0.82966125  0.00000024
   0.16896996  0.13735335  0.63550943
   0.05358525  0.21427648  0.81775469
   0.93820053  0.29119962  0.00000024
   0.32281613  0.36812264  0.63550943
   0.20743144  0.44504577  0.81775469
   0.09204672  0.52196890  0.00000024
   0.47666228  0.59889185  0.63550943
   0.36127758  0.67581499  0.81775469
   0.24589284  0.75273812  0.00000024
   0.63050848  0.82966119  0.63550943
   0.51512379  0.90658432  0.81775469
   0.39973903  0.98350745  0.00000024
   0.09204684  0.52196878  0.63550943
   0.97666216  0.59889191  0.81775469
   0.86127740  0.67581505  0.00000024
   0.24589302  0.75273800  0.63550943
   0.13050830  0.82966113  0.81775469
   0.01512358  0.90658432  0.00000024
   0.39973924  0.98350733  0.63550943
   0.28435454  0.06043053  0.81775469
   0.16896982  0.13735366  0.00000024
   0.01512378  0.90658414  0.63550943
   0.89973903  0.98350733  0.81775469
   0.78435433  0.06043041  0.00000024
 
 position of ions in cartesian coordinates  (Angst):
  19.37094542 12.97840031  0.00000000
  16.12634504 12.97840031  3.24460032
  12.88174469 12.97840031  6.48920018
  19.37094542  6.48920014  0.00000000
  16.12634504  6.48920014  3.24460032
  12.88174469  6.48920014  6.48920018
  19.37094542  0.00000000  0.00000000
  16.12634504  0.00000000  3.24460032
  12.88174469  0.00000000  6.48920018
   6.39254569 12.97840031  0.00000000
   3.14794475 12.97840031  3.24460032
  19.37094542 12.97840031  6.48920018
   6.39254569  6.48920014  0.00000000
   3.14794475  6.48920014  3.24460032
  19.37094542  6.48920014  6.48920018
   6.39254569  0.00000000  0.00000000
   3.14794475  0.00000000  3.24460032
  19.37094542  0.00000000  6.48920018
  12.88174584 12.97840031  0.00000000
   9.63714548 12.97840031  3.24460032
   6.39254569 12.97840031  6.48920018
  12.88174584  6.48920014  0.00000000
   9.63714548  6.48920014  3.24460032
   6.39254569  6.48920014  6.48920018
  12.88174584  0.00000000  0.00000000
   9.63714548  0.00000000  3.24460032
   6.39254569  0.00000000  6.48920018
   1.52564530 17.84530142  1.62230015
  17.74864580 17.84530142  4.86689925
  14.50404428 17.84530142  8.11150023
   1.52564530 11.35610186  1.62230015
  17.74864580 11.35610186  4.86689925
  14.50404428 11.35610186  8.11150023
   1.52564530  4.86689997  1.62230015
  17.74864580  4.86689997  4.86689925
  14.50404428  4.86689997  8.11150023
   8.01484530 17.84530142  1.62230015
   4.77024522 17.84530142  4.86689925
   1.52564428 17.84530142  8.11150023
   8.01484530 11.35610186  1.62230015
   4.77024522 11.35610186  4.86689925
   1.52564428 11.35610186  8.11150023
   8.01484530  4.86689997  1.62230015
   4.77024522  4.86689997  4.86689925
   1.52564428  4.86689997  8.11150023
  14.50404662 17.84530142  1.62230015
  11.25944741 17.84530142  4.86689925
   8.01484587 17.84530142  8.11150023
  14.50404662 11.35610186  1.62230015
  11.25944741 11.35610186  4.86689925
   8.01484587 11.35610186  8.11150023
  14.50404662  4.86689997  1.62230015
  11.25944741  4.86689997  4.86689925
   8.01484587  4.86689997  8.11150023
   3.14794534 16.22299949  0.00000000
  19.37094425 16.22299949  3.24460032
  16.12634504 16.22299949  6.48920018
   3.14794534  9.73379993  0.00000000
  19.37094425  9.73379993  3.24460032
  16.12634504  9.73379993  6.48920018
   3.14794534  3.24460008  0.00000000
  19.37094425  3.24460008  3.24460032
  16.12634504  3.24460008  6.48920018
   9.63714548 16.22299949  0.00000000
   6.39254511 16.22299949  3.24460032
   3.14794504 16.22299949  6.48920018
   9.63714548  9.73379993  0.00000000
   6.39254511  9.73379993  3.24460032
   3.14794504  9.73379993  6.48920018
   9.63714548  3.24460008  0.00000000
   6.39254511  3.24460008  3.24460032
   3.14794504  3.24460008  6.48920018
  16.12634738 16.22299949  0.00000000
  12.88174700 16.22299949  3.24460032
   9.63714721 16.22299949  6.48920018
  16.12634738  9.73379993  0.00000000
  12.88174700  9.73379993  3.24460032
   9.63714721  9.73379993  6.48920018
  16.12634738  3.24460008  0.00000000
  12.88174700  3.24460008  3.24460032
   9.63714721  3.24460008  6.48920018
   4.77024522 14.60070107  1.62230015
   1.52564530 14.60070107  4.86689925
  17.74864465 14.60070107  8.11150023
   4.77024522  8.11150091  1.62230015
   1.52564530  8.11150091  4.86689925
  17.74864465  8.11150091  8.11150023
   4.77024522  1.62230018  1.62230015
   1.52564530  1.62230018  4.86689925
  17.74864465  1.62230018  8.11150023
  11.25944624 14.60070107  1.62230015
   8.01484704 14.60070107  4.86689925
   4.77024581 14.60070107  8.11150023
  11.25944624  8.11150091  1.62230015
   8.01484704  8.11150091  4.86689925
   4.77024581  8.11150091  8.11150023
  11.25944624  1.62230018  1.62230015
   8.01484704  1.62230018  4.86689925
   4.77024581  1.62230018  8.11150023
  17.74864465 14.60070107  1.62230015
  14.50404428 14.60070107  4.86689925
  11.25944393 14.60070107  8.11150023
  17.74864465  8.11150091  1.62230015
  14.50404428  8.11150091  4.86689925
  11.25944393  8.11150091  8.11150023
  17.74864465  1.62230018  1.62230015
  14.50404428  1.62230018  4.86689925
  11.25944393  1.62230018  8.11150023
  14.89512601  3.04831775  8.11150023
  12.64886288  4.54582622 10.82700035
  10.40259975  6.04333553 13.54250045
  17.89014119  7.54084024  8.11150023
  15.64387807  9.03834841 10.82700035
  13.39761494 10.53585775 13.54250045
   7.40758631  1.55080986  8.11150023
   5.16132318  3.04831861 10.82700035
   2.91506005  4.54582736 13.54250045
  10.40260207  6.04333380  8.11150023
   8.15633835  7.54084256 10.82700035
   5.91007524  9.03835131 13.54250045
  13.39761609 10.53585658  8.11150023
  11.15135296 12.03336534 10.82700035
   8.90508983 13.53087409 13.54250045
  16.39263128 15.02838168  8.11150023
  14.14636815 16.52589043 10.82700035
  11.90010502 18.02339918 13.54250045
  19.38764648  0.05330196  8.11150023
  17.14138334  1.55081060 10.82700035
  14.89512021  3.04831949 13.54250045
   2.91506236  4.54582563  8.11150023
   0.66879939  6.04333439 10.82700035
  17.89013538  7.54084314 13.54250045
   5.91007814  9.03834956  8.11150023
   3.66381472 10.53585775 10.82700035
   1.41755129 12.03336648 13.54250045
   8.90509390 13.53087060  8.11150023
   6.65883076 15.02837936 10.82700035
   4.41256734 16.52588811 13.54250045
  11.90010850 18.02339687  8.11150023
   9.65384537  0.05330459 10.82700035
   7.40758224  1.55081334 13.54250045
   1.41755448 12.03336417  8.11150023
  18.63889093 13.53087292 10.82700035
  16.39262780 15.02838284 13.54250045
   4.41257053 16.52588695  8.11150023
   2.16630740 18.02339455 10.82700035
  19.38764299  0.05330459 13.54250045
  19.01326929  1.92518704  9.46925028
  16.76700615  3.42269580 12.18475040
  14.52074186  4.92020514  0.00000355
  11.52573132  0.42768063  9.46925028
   9.27946877  1.92518936 12.18475040
   7.03320447  3.42269812  0.00000355
  14.52074882  4.92020224  9.46925028
  12.27448569  6.41771157 12.18475040
  10.02822256  7.91522033  0.00000355
  17.51576285  9.41272560  9.46925028
  15.26949972 10.91023494 12.18475040
  13.02323542 12.40774367  0.00000355
[...]
     11.25945      4.86690      4.86690        -0.060183     -0.013663     -0.064054
      8.01485      4.86690      8.11150        83.408384    -21.675413     -3.621077
      3.14795     16.22300      0.00000       -18.389358     -2.977636     15.272578
     19.37094     16.22300      3.24460         0.074806     -0.031000      0.318950
     16.12635     16.22300      6.48920        -2.093289      5.924659    -10.909909
      3.14795      9.73380      0.00000        83.408384    -21.675413      3.621077
     19.37094      9.73380      3.24460         0.022470      0.025370      0.494028
     16.12635      9.73380      6.48920         0.444319     -2.209791     -2.343717
      3.14795      3.24460      0.00000      -154.801932    619.114977     12.701285
     19.37094      3.24460      3.24460        -0.056308      0.027670      0.351335
     16.12635      3.24460      6.48920         6.707240      0.793206     -9.527684
      9.63715     16.22300      0.00000        78.718425     53.455277      2.332612
      6.39255     16.22300      3.24460        -0.230414     -0.102177      0.164588
      3.14795     16.22300      6.48920        -5.790557     -1.170116     -8.395085
      9.63715      9.73380      0.00000        -2.932088      2.150769     95.907403
      6.39255      9.73380      3.24460        -0.060183     -0.013663      0.064054
      3.14795      9.73380      6.48920        -0.068331      2.362775     -3.075899
      9.63715      3.24460      0.00000       -62.214154    -45.292700      2.722986
      6.39255      3.24460      3.24460        -0.119072      0.048688      0.530806
      3.14795      3.24460      6.48920         1.547477     -4.803416     -8.919621
     16.12635     16.22300      0.00000        71.991585   -452.633079     16.529482
     12.88175     16.22300      3.24460         0.142371     -0.077692      0.520390
      9.63715     16.22300      6.48920         0.667494     -0.149595     -1.427490
     16.12635      9.73380      0.00000       -83.643872     16.334115      2.518077
     12.88175      9.73380      3.24460         0.055634      0.026324      0.067201
      9.63715      9.73380      6.48920        -0.468458     -1.532915    -50.346497
     16.12635      3.24460      0.00000        20.322776      4.257804     17.563447
     12.88175      3.24460      3.24460         0.180985      0.098606      0.082643
      9.63715      3.24460      6.48920        -0.996333      0.451509     -1.578988
      4.77025     14.60070      1.62230        -0.468458     -1.532915     50.346497
      1.52565     14.60070      4.86690        -0.060183     -0.013663     -0.064054
     17.74864     14.60070      8.11150        83.408384    -21.675413     -3.621077
      4.77025      8.11150      1.62230        -0.996333      0.451509      1.578988
      1.52565      8.11150      4.86690        -0.119072      0.048688     -0.530806
     17.74864      8.11150      8.11150      -154.801932    619.114977    -12.701285
      4.77025      1.62230      1.62230         0.667494     -0.149595      1.427490
      1.52565      1.62230      4.86690        -0.230414     -0.102177     -0.164588
     17.74864      1.62230      8.11150       -18.389358     -2.977636    -15.272578
     11.25945     14.60070      1.62230         0.444319     -2.209791      2.343717
      8.01485     14.60070      4.86690         0.055634      0.026324     -0.067201
      4.77025     14.60070      8.11150        -2.932088      2.150769    -95.907403
     11.25945      8.11150      1.62230         6.707240      0.793206      9.527684
      8.01485      8.11150      4.86690         0.180985      0.098606     -0.082643
      4.77025      8.11150      8.11150       -62.214154    -45.292700     -2.722986
     11.25945      1.62230      1.62230        -2.093289      5.924659     10.909909
      8.01485      1.62230      4.86690         0.142371     -0.077692     -0.520390
      4.77025      1.62230      8.11150        78.718425     53.455277     -2.332612
     17.74864     14.60070      1.62230        -0.068331      2.362775      3.075899
     14.50404     14.60070      4.86690         0.022470      0.025370     -0.494028
     11.25944     14.60070      8.11150       -83.643872     16.334115     -2.518077
     17.74864      8.11150      1.62230         1.547477     -4.803416      8.919621
     14.50404      8.11150      4.86690        -0.056308      0.027670     -0.351335
     11.25944      8.11150      8.11150        20.322776      4.257804    -17.563447
     17.74864      1.62230      1.62230        -5.790557     -1.170116      8.395085
     14.50404      1.62230      4.86690         0.074806     -0.031000     -0.318950
     11.25944      1.62230      8.11150        71.991585   -452.633079    -16.529482
     14.89513      3.04832      8.11150        -2.474390    -21.317063      7.691609
     12.64886      4.54583     10.82700         0.062067     -0.335946      0.401698
     10.40260      6.04334     13.54250        -0.404013      0.173598     -0.756003
     17.89014      7.54084      8.11150       156.664529   -633.655377     -0.526836
     15.64388      9.03835     10.82700         0.058790      0.182009      0.522663
     13.39761     10.53586     13.54250        -0.741029      1.086183      0.204074
      7.40759      1.55081      8.11150         1.524679      1.645179      1.303300
      5.16132      3.04832     10.82700        -0.119858      0.472558      0.729834
      2.91506      4.54583     13.54250        -2.435400     14.015541    -14.843074
     10.40260      6.04333      8.11150        -2.166631     -5.047538     -0.324532
      8.15634      7.54084     10.82700        -0.048402      0.160426      0.364395
      5.91008      9.03835     13.54250         0.672805     -1.154083      0.263412
     13.39762     10.53586      8.11150       -76.364694    -56.219887      0.414352
     11.15135     12.03337     10.82700         0.037753     -0.204303      0.425370
      8.90509     13.53087     13.54250         0.200678     -0.285406     -0.754998
     16.39263     15.02838      8.11150       -79.065448     19.159042      8.783909
     14.14637     16.52589     10.82700         0.147173     -0.463356      0.777482
     11.90011     18.02340     13.54250        -2.695713     -4.380707     -4.014853
     19.38765      0.05330      8.11150         1.228363      1.129879     48.432890
     17.14138      1.55081     10.82700        -0.146404      0.113470      1.306440
     14.89512      3.04832     13.54250       -15.588812     -2.519170    -18.010962
      2.91506      4.54583      8.11150        80.709532    -13.732693      6.792340
      0.66880      6.04333     10.82700        -0.252862     -0.069081      0.609578
     17.89014      7.54084     13.54250        -2.972817      2.148986     -3.965248
      5.91008      9.03835      8.11150        59.737606     48.127692      0.338973
      3.66381     10.53586     10.82700        -0.027565     -0.147245      0.521120
      1.41755     12.03337     13.54250         3.454656     -2.139552     -4.291132
      8.90509     13.53087      8.11150         1.082846      3.169473     -0.326820
      6.65883     15.02838     10.82700        -0.051995      0.299970      0.357086
      4.41257     16.52589     13.54250        13.842578      3.311265    -15.555021
     11.90011     18.02340      8.11150        -2.152452     -2.072629      1.851880
      9.65385      0.05330     10.82700        -0.029968     -0.000045      0.430049
      7.40758      1.55081     13.54250         1.973091      3.327109     -2.889436
      1.41755     12.03336      8.11150       -74.866101    470.176587     -0.571106
     18.63889     13.53087     10.82700         0.258276      0.055206      0.673074
     16.39263     15.02838     13.54250         3.621766    -16.876586    -19.213041
      4.41257     16.52589      8.11150         3.666768     15.449794      6.713482
      2.16631     18.02339     10.82700         0.111918     -0.044338      1.285890
     19.38764      0.05330     13.54250         1.129061      4.058483    -98.038300
     19.01327      1.92519      9.46925        13.842578      3.311265     15.555021
     16.76701      3.42270     12.18475         0.111918     -0.044338     -1.285890
     14.52074      4.92021      0.00000         1.228363      1.129879    -48.432890
     11.52573      0.42768      9.46925         3.621766    -16.876586     19.213041
      9.27947      1.92519     12.18475         0.147173     -0.463356     -0.777482
      7.03320      3.42270      0.00000        -2.152452     -2.072629     -1.851880
     14.52075      4.92020      9.46925         1.129061      4.058483     98.038300
     12.27449      6.41771     12.18475        -0.146404      0.113470     -1.306440
     10.02822      7.91522      0.00000        -2.474390    -21.317063     -7.691609
     17.51576      9.41273      9.46925        -2.435400     14.015541     14.843074
     15.26950     10.91023     12.18475        -0.252862     -0.069081     -0.609578
     13.02324     12.40774      0.00000       156.664529   -633.655377      0.526836
      7.03321      3.42269      9.46925        -2.695713     -4.380707      4.014853
      4.78695      4.92020     12.18475        -0.029968     -0.000045     -0.430049
      2.54068      6.41771      0.00000         1.524679      1.645179     -1.303300
     10.02822      7.91522      9.46925       -15.588812     -2.519170     18.010962
      7.78196      9.41273     12.18475         0.062067     -0.335946     -0.401698
      5.53570     10.91024      0.00000        -2.166631     -5.047538      0.324532
     13.02324     12.40774      9.46925        -2.972817      2.148986      3.965248
     10.77698     13.90525     12.18475         0.058790      0.182009     -0.522663
      8.53071     15.40276      0.00000       -76.364694    -56.219887     -0.414352
     16.01825     16.90027      9.46925         3.454656     -2.139552      4.291132
     13.77199     18.39777     12.18475         0.258276      0.055206     -0.673074
     11.52573      0.42768      0.00000       -79.065448     19.159042     -8.783909
      2.54069      6.41771      9.46925         1.973091      3.327109      2.889436
      0.29442      7.91522     12.18475        -0.119858      0.472558     -0.729834
     17.51576      9.41273      0.00000        80.709532    -13.732693     -6.792340
      5.53570     10.91023      9.46925        -0.404013      0.173598      0.756003
      3.28944     12.40774     12.18475        -0.048402      0.160426     -0.364395
      1.04317     13.90525      0.00000        59.737606     48.127692     -0.338973
      8.53072     15.40276      9.46925        -0.741029      1.086183     -0.204074
      6.28445     16.90027     12.18475         0.037753     -0.204303     -0.425370
      4.03819     18.39777      0.00000         1.082846      3.169473      0.326820
      1.04318     13.90525      9.46925         0.672805     -1.154083     -0.263412
     18.26451     15.40276     12.18475        -0.027565     -0.147245     -0.521120
     16.01825     16.90027      0.00000       -74.866101    470.176587      0.571106
      4.03819     18.39777      9.46925         0.200678     -0.285406      0.754998
      1.79193      0.42768     12.18475        -0.051995      0.299970     -0.357086
     19.01327      1.92519      0.00000         3.666768     15.449794     -6.713482
     18.63889      3.79707      8.11150         1.082846      3.169473     -0.326820
     16.39263      5.29458     10.82700        -0.051995      0.299970      0.357086
     14.14637      6.79209     13.54250        13.842578      3.311265    -15.555021
     11.15135      2.29956      8.11150       -74.866101    470.176587     -0.571106
      8.90509      3.79707     10.82700         0.258276      0.055206      0.673074
      6.65883      5.29458     13.54250         3.621766    -16.876586    -19.213041
     14.14637      6.79209      8.11150         3.666768     15.449794      6.713482
     11.90011      8.28960     10.82700         0.111918     -0.044338      1.285890
      9.65384      9.78711     13.54250         1.129061      4.058483    -98.038300
     17.14139     11.28461      8.11150         1.524679      1.645179      1.303300
     14.89512     12.78212     10.82700        -0.119858      0.472558      0.729834
     12.64886     14.27963     13.54250        -2.435400     14.015541    -14.843074
      3.66382      0.80206      8.11150       -76.364694    -56.219887      0.414352
      1.41755      2.29956     10.82700         0.037753     -0.204303      0.425370
     18.63889      3.79707     13.54250         0.200678     -0.285406     -0.754998
      6.65883      5.29458      8.11150       -79.065448     19.159042      8.783909
      4.41257      6.79209     10.82700         0.147173     -0.463356      0.777482
      2.16631      8.28960     13.54250        -2.695713     -4.380707     -4.014853
      9.65385      9.78710      8.11150         1.228363      1.129879     48.432890
      7.40758     11.28461     10.82700        -0.146404      0.113470      1.306440
      5.16132     12.78212     13.54250       -15.588812     -2.519170    -18.010962
     12.64886     14.27963      8.11150        80.709532    -13.732693      6.792340
     10.40260     15.77713     10.82700        -0.252862     -0.069081      0.609578
      8.15634     17.27464     13.54250        -2.972817      2.148986     -3.965248
     15.64388     18.77215      8.11150        59.737606     48.127692      0.338973
     13.39761      0.80206     10.82700        -0.027565     -0.147245      0.521120
     11.15135      2.29957     13.54250         3.454656     -2.139552     -4.291132
      2.16631      8.28960      8.11150        -2.152452     -2.072629      1.851880
     19.38765      9.78710     10.82700        -0.029968     -0.000045      0.430049
     17.14138     11.28461     13.54250         1.973091      3.327109     -2.889436
      5.16132     12.78212      8.11150        -2.474390    -21.317063      7.691609
      2.91506     14.27963     10.82700         0.062067     -0.335946      0.401698
      0.66880     15.77714     13.54250        -0.404013      0.173598     -0.756003
      8.15634     17.27464      8.11150       156.664529   -633.655377     -0.526836
      5.91008     18.77215     10.82700         0.058790      0.182009      0.522663
      3.66381      0.80206     13.54250        -0.741029      1.086183      0.204074
      0.66880     15.77713      8.11150        -2.166631     -5.047538     -0.324532
     17.89014     17.27464     10.82700        -0.048402      0.160426      0.364395
     15.64387     18.77215     13.54250         0.672805     -1.154083      0.263412
     15.26950      1.17643      9.46925        -0.404013      0.173598      0.756003
     13.02324      2.67394     12.18475        -0.048402      0.160426     -0.364395
     10.77698      4.17145      0.00000        59.737606     48.127692     -0.338973
     18.26451      5.66896      9.46925        -0.741029      1.086183     -0.204074
     16.01825      7.16647     12.18475         0.037753     -0.204303     -0.425370
     13.77199      8.66397      0.00000         1.082846      3.169473      0.326820
     10.77698      4.17145      9.46925         0.672805     -1.154083     -0.263412
      8.53072      5.66896     12.18475        -0.027565     -0.147245     -0.521120
      6.28445      7.16647      0.00000       -74.866101    470.176587      0.571106
     13.77200      8.66397      9.46925         0.200678     -0.285406      0.754998
     11.52573     10.16148     12.18475        -0.051995      0.299970     -0.357086
      9.27947     11.65899      0.00000         3.666768     15.449794     -6.713482
     16.76701     13.15650      9.46925        -2.695713     -4.380707      4.014853
     14.52075     14.65400     12.18475        -0.029968     -0.000045     -0.430049
     12.27448     16.15151      0.00000         1.524679      1.645179     -1.303300
      3.28944      2.67394      9.46925        -2.972817      2.148986      3.965248
      1.04318      4.17145     12.18475         0.058790      0.182009     -0.522663
     18.26451      5.66896      0.00000       -76.364694    -56.219887     -0.414352
      6.28446      7.16646      9.46925         3.454656     -2.139552      4.291132
      4.03819      8.66397     12.18475         0.258276      0.055206     -0.673074
      1.79193     10.16148      0.00000       -79.065448     19.159042     -8.783909
      9.27947     11.65899      9.46925        13.842578      3.311265     15.555021
      7.03321     13.15650     12.18475         0.111918     -0.044338     -1.285890
      4.78694     14.65400      0.00000         1.228363      1.129879    -48.432890
     12.27449     16.15151      9.46925         1.973091      3.327109      2.889436
     10.02822     17.64902     12.18475        -0.119858      0.472558     -0.729834
      7.78196     19.14653      0.00000        80.709532    -13.732693     -6.792340
      1.79193     10.16148      9.46925         3.621766    -16.876586     19.213041
     19.01327     11.65899     12.18475         0.147173     -0.463356     -0.777482
     16.76700     13.15650      0.00000        -2.152452     -2.072629     -1.851880
      4.78695     14.65400      9.46925         1.129061      4.058483     98.038300
      2.54068     16.15151     12.18475        -0.146404      0.113470     -1.306440
      0.29442     17.64902      0.00000        -2.474390    -21.317063     -7.691609
      7.78196     19.14653      9.46925        -2.435400     14.015541     14.843074
      5.53570      1.17644     12.18475        -0.252862     -0.069081     -0.609578
      3.28944      2.67395      0.00000       156.664529   -633.655377      0.526836
      0.29442     17.64902      9.46925       -15.588812     -2.519170     18.010962
     17.51576     19.14653     12.18475         0.062067     -0.335946     -0.401698
     15.26950      1.17644      0.00000        -2.166631     -5.047538      0.324532
 -----------------------------------------------------------------------------------
    total drift:                                0.605036      0.158412     -0.003858


--------------------------------------------------------------------------------------------------------



  FREE ENERGIE OF THE ION-ELECTRON SYSTEM (eV)
  ---------------------------------------------------
  free  energy   TOTEN  =      1387.27171262 eV

  energy  without entropy=     1387.27676333  energy(sigma->0) =     1387.27423798
 


--------------------------------------------------------------------------------------------------------


    POTLOK:  cpu time      2.8808: real time      2.8994


--------------------------------------------------------------------------------------------------------


     LOOP+:  cpu time  12916.3208: real time  13046.5198
    4ORBIT:  cpu time      0.0000: real time      0.0000

 total amount of memory used by VASP MPI-rank0   721546. kBytes
=======================================================================

   base      :      30000. kBytes
   nonlr-proj:      24825. kBytes
   fftplans  :      31199. kBytes
   grid      :      23385. kBytes
   one-center:        275. kBytes
   wavefun   :     611862. kBytes
 
  
  
 General timing and accounting informations for this job:
 ========================================================
  
                  Total CPU time used (sec):    13169.097
                            User time (sec):    12604.583
                          System time (sec):      564.514
                         Elapsed time (sec):    13306.252
  
                   Maximum memory used (kb):     1024704.
                   Average memory used (kb):          N/A
  
                          Minor page faults:      1529392
                          Major page faults:         2506
                 Voluntary context switches:         5608
