  84  84   0   0
  0.2183197E+02  0.5431000E-09  0.1629300E-08  0.2072485E-08  0.5000000E-15
  1.000000000000000E-004
  CAR 
 Si and Ge interface calculation         
      7.91790644     -9.11324633  301      4.46053684      1.00000000
     -9.113  0.0000E+00  0.0000E+00  0.0000E+00  0.0000E+00
     -9.056  0.0000E+00  0.0000E+00  0.0000E+00  0.0000E+00
     -9.000  0.0000E+00  0.0000E+00  0.0000E+00  0.0000E+00
     -8.943  0.0000E+00  0.0000E+00  0.0000E+00  0.0000E+00
     -8.886  0.0000E+00  0.0000E+00  0.0000E+00  0.0000E+00
     -8.829  0.0000E+00  0.0000E+00  0.0000E+00  0.0000E+00
     -8.773  0.0000E+00  0.0000E+00  0.0000E+00  0.0000E+00
     -8.716  0.0000E+00  0.0000E+00  0.0000E+00  0.0000E+00
     -8.659  0.0000E+00  0.0000E+00  0.0000E+00  0.0000E+00
     -8.602  0.0000E+00  0.0000E+00  0.0000E+00  0.0000E+00
     -8.546  0.0000E+00  0.0000E+00  0.0000E+00  0.0000E+00
     -8.489  0.0000E+00  0.0000E+00  0.0000E+00  0.0000E+00
     -8.432  0.0000E+00  0.0000E+00  0.0000E+00  0.0000E+00
     -8.375  0.2420E-06  0.6111E-09  0.1374E-07  0.3469E-10
     -8.318  0.2913E+01  0.2723E+01  0.1654E+00  0.1546E+00
     -8.262  0.2464E-01  0.2125E+00  0.1668E+00  0.1667E+00
     -8.205  0.1070E+02  0.9233E+01  0.7745E+00  0.6909E+00
     -8.148  0.1084E+01  0.2511E+01  0.8361E+00  0.8335E+00
     -8.091  0.1086E+02  0.8144E+01  0.1453E+01  0.1296E+01
     -8.035  0.3769E+01  0.6532E+01  0.1667E+01  0.1667E+01
     -7.978  0.4163E+01  0.2853E+01  0.1903E+01  0.1829E+01
     -7.921  0.4699E+01  0.5777E+01  0.2170E+01  0.2157E+01
     -7.864  0.1103E+02  0.8911E+01  0.2796E+01  0.2662E+01
     -7.808  0.1238E+02  0.1423E+02  0.3499E+01  0.3470E+01
     -7.751  0.1842E+02  0.1518E+02  0.4545E+01  0.4332E+01
     -7.694  0.8039E+01  0.1176E+02  0.5001E+01  0.5000E+01
     -7.637  0.7536E+01  0.7251E+01  0.5429E+01  0.5411E+01
     -7.580  0.1572E+02  0.1216E+02  0.6321E+01  0.6102E+01
     -7.524  0.1338E+02  0.1657E+02  0.7081E+01  0.7042E+01
     -7.467  0.1955E+02  0.1669E+02  0.8191E+01  0.7990E+01
     -7.410  0.8361E+01  0.1162E+02  0.8666E+01  0.8649E+01
     -7.353  0.1048E+02  0.5559E+01  0.9261E+01  0.8965E+01
     -7.297  0.1503E+02  0.1701E+02  0.1011E+02  0.9930E+01
     -7.240  0.1887E+02  0.1704E+02  0.1119E+02  0.1090E+02
     -7.183  0.2134E+02  0.2423E+02  0.1240E+02  0.1227E+02
     -7.126  0.1227E+02  0.1131E+02  0.1309E+02  0.1292E+02
     -7.070  0.2193E+02  0.1781E+02  0.1434E+02  0.1393E+02
     -7.013  0.1779E+02  0.2213E+02  0.1535E+02  0.1518E+02
     -6.956  0.2342E+02  0.2190E+02  0.1668E+02  0.1643E+02
     -6.899  0.1945E+02  0.1846E+02  0.1778E+02  0.1747E+02
     -6.842  0.1994E+02  0.2304E+02  0.1891E+02  0.1878E+02
     -6.786  0.1874E+02  0.1616E+02  0.1998E+02  0.1970E+02
     -6.729  0.2048E+02  0.2077E+02  0.2114E+02  0.2088E+02
     -6.672  0.1754E+02  0.1777E+02  0.2214E+02  0.2189E+02
     -6.615  0.1438E+02  0.1470E+02  0.2295E+02  0.2272E+02
     -6.559  0.1195E+02  0.1481E+02  0.2363E+02  0.2356E+02
     -6.502  0.2238E+02  0.2030E+02  0.2490E+02  0.2472E+02
     -6.445  0.3044E+02  0.2571E+02  0.2663E+02  0.2617E+02
     -6.388  0.2354E+02  0.2716E+02  0.2797E+02  0.2772E+02
     -6.331  0.2148E+02  0.2261E+02  0.2919E+02  0.2900E+02
     -6.275  0.2828E+02  0.2802E+02  0.3079E+02  0.3059E+02
     -6.218  0.3700E+02  0.3765E+02  0.3289E+02  0.3273E+02
     -6.161  0.2977E+02  0.2800E+02  0.3458E+02  0.3432E+02
     -6.104  0.3178E+02  0.3206E+02  0.3639E+02  0.3614E+02
     -6.048  0.1931E+02  0.2165E+02  0.3748E+02  0.3737E+02
     -5.991  0.2588E+02  0.2196E+02  0.3895E+02  0.3861E+02
     -5.934  0.2442E+02  0.2944E+02  0.4034E+02  0.4028E+02
     -5.877  0.2462E+02  0.2398E+02  0.4174E+02  0.4165E+02
     -5.821  0.1761E+02  0.1454E+02  0.4274E+02  0.4247E+02
     -5.764  0.1262E+02  0.1559E+02  0.4345E+02  0.4336E+02
     -5.707  0.1921E+02  0.1753E+02  0.4454E+02  0.4435E+02
     -5.650  0.3507E+02  0.3217E+02  0.4653E+02  0.4618E+02
     -5.593  0.3397E+02  0.3239E+02  0.4846E+02  0.4802E+02
     -5.537  0.2512E+02  0.2809E+02  0.4989E+02  0.4961E+02
     -5.480  0.2495E+02  0.2743E+02  0.5130E+02  0.5117E+02
     -5.423  0.3720E+02  0.3418E+02  0.5342E+02  0.5311E+02
     -5.366  0.3103E+02  0.2945E+02  0.5518E+02  0.5478E+02
     -5.310  0.3113E+02  0.3319E+02  0.5695E+02  0.5667E+02
     -5.253  0.3592E+02  0.3390E+02  0.5898E+02  0.5859E+02
     -5.196  0.3197E+02  0.3273E+02  0.6080E+02  0.6045E+02
     -5.139  0.2124E+02  0.2398E+02  0.6201E+02  0.6181E+02
     -5.083  0.2454E+02  0.2645E+02  0.6340E+02  0.6331E+02
     -5.026  0.1121E+02  0.9712E+01  0.6403E+02  0.6386E+02
     -4.969  0.1344E+02  0.1311E+02  0.6480E+02  0.6461E+02
     -4.912  0.1477E+02  0.1479E+02  0.6564E+02  0.6545E+02
     -4.855  0.1514E+02  0.1624E+02  0.6650E+02  0.6637E+02
     -4.799  0.2186E+02  0.1858E+02  0.6774E+02  0.6742E+02
     -4.742  0.1199E+02  0.1738E+02  0.6842E+02  0.6841E+02
     -4.685  0.1522E+02  0.1202E+02  0.6928E+02  0.6909E+02
     -4.628  0.2153E+02  0.1842E+02  0.7050E+02  0.7014E+02
     -4.572  0.2941E+02  0.2994E+02  0.7217E+02  0.7184E+02
     -4.515  0.2030E+02  0.2395E+02  0.7333E+02  0.7320E+02
     -4.458  0.2103E+02  0.2060E+02  0.7452E+02  0.7437E+02
     -4.401  0.1429E+02  0.1403E+02  0.7533E+02  0.7516E+02
     -4.345  0.1419E+02  0.1477E+02  0.7614E+02  0.7600E+02
     -4.288  0.1863E+02  0.1980E+02  0.7719E+02  0.7713E+02
     -4.231  0.1648E+02  0.1346E+02  0.7813E+02  0.7789E+02
     -4.174  0.1426E+02  0.1420E+02  0.7894E+02  0.7870E+02
     -4.117  0.2321E+02  0.2393E+02  0.8026E+02  0.8006E+02
     -4.061  0.1396E+02  0.1473E+02  0.8105E+02  0.8089E+02
     -4.004  0.1526E+02  0.1360E+02  0.8192E+02  0.8166E+02
     -3.947  0.3258E+02  0.2790E+02  0.8376E+02  0.8325E+02
     -3.890  0.1842E+02  0.2499E+02  0.8481E+02  0.8467E+02
     -3.834  0.2791E+02  0.2399E+02  0.8640E+02  0.8603E+02
     -3.777  0.1714E+02  0.2063E+02  0.8737E+02  0.8720E+02
     -3.720  0.1309E+02  0.1374E+02  0.8811E+02  0.8798E+02
     -3.663  0.1624E+02  0.1422E+02  0.8903E+02  0.8879E+02
     -3.607  0.8934E+01  0.1120E+02  0.8954E+02  0.8942E+02
     -3.550  0.2548E+02  0.2123E+02  0.9099E+02  0.9063E+02
     -3.493  0.1432E+02  0.1640E+02  0.9180E+02  0.9156E+02
     -3.436  0.2268E+02  0.2380E+02  0.9309E+02  0.9291E+02
     -3.379  0.2894E+02  0.2515E+02  0.9473E+02  0.9434E+02
     -3.323  0.2126E+02  0.2369E+02  0.9594E+02  0.9568E+02
     -3.266  0.2529E+02  0.2426E+02  0.9737E+02  0.9706E+02
     -3.209  0.2605E+02  0.2737E+02  0.9885E+02  0.9861E+02
     -3.152  0.2925E+02  0.2814E+02  0.1005E+03  0.1002E+03
     -3.096  0.3315E+02  0.3280E+02  0.1024E+03  0.1021E+03
     -3.039  0.2918E+02  0.3174E+02  0.1041E+03  0.1039E+03
     -2.982  0.2622E+02  0.2439E+02  0.1055E+03  0.1053E+03
     -2.925  0.2058E+02  0.2025E+02  0.1067E+03  0.1064E+03
     -2.868  0.2641E+02  0.2893E+02  0.1082E+03  0.1081E+03
     -2.812  0.2817E+02  0.2639E+02  0.1098E+03  0.1096E+03
     -2.755  0.2253E+02  0.2261E+02  0.1111E+03  0.1108E+03
     -2.698  0.2948E+02  0.2637E+02  0.1128E+03  0.1123E+03
     -2.641  0.1877E+02  0.2192E+02  0.1138E+03  0.1136E+03
     -2.585  0.2164E+02  0.2334E+02  0.1151E+03  0.1149E+03
     -2.528  0.2083E+02  0.1928E+02  0.1162E+03  0.1160E+03
     -2.471  0.2558E+02  0.2490E+02  0.1177E+03  0.1174E+03
     -2.414  0.2135E+02  0.2281E+02  0.1189E+03  0.1187E+03
     -2.358  0.2430E+02  0.2137E+02  0.1203E+03  0.1199E+03
     -2.301  0.1850E+02  0.1821E+02  0.1213E+03  0.1210E+03
     -2.244  0.2458E+02  0.2711E+02  0.1227E+03  0.1225E+03
     -2.187  0.2315E+02  0.2118E+02  0.1240E+03  0.1237E+03
     -2.130  0.2400E+02  0.2041E+02  0.1254E+03  0.1249E+03
     -2.074  0.3386E+02  0.3933E+02  0.1273E+03  0.1271E+03
     -2.017  0.2177E+02  0.2067E+02  0.1286E+03  0.1283E+03
     -1.960  0.2802E+02  0.2679E+02  0.1302E+03  0.1298E+03
     -1.903  0.2794E+02  0.3099E+02  0.1317E+03  0.1315E+03
     -1.847  0.3155E+02  0.2812E+02  0.1335E+03  0.1331E+03
     -1.790  0.1827E+02  0.2214E+02  0.1346E+03  0.1344E+03
     -1.733  0.1962E+02  0.1788E+02  0.1357E+03  0.1354E+03
     -1.676  0.1729E+02  0.1646E+02  0.1367E+03  0.1363E+03
     -1.620  0.2095E+02  0.2349E+02  0.1379E+03  0.1377E+03
     -1.563  0.1159E+02  0.1068E+02  0.1385E+03  0.1383E+03
     -1.506  0.1922E+02  0.1975E+02  0.1396E+03  0.1394E+03
     -1.449  0.1888E+02  0.1785E+02  0.1407E+03  0.1404E+03
     -1.392  0.1473E+02  0.1880E+02  0.1415E+03  0.1415E+03
     -1.336  0.1596E+02  0.1073E+02  0.1424E+03  0.1421E+03
     -1.279  0.1914E+02  0.1880E+02  0.1435E+03  0.1432E+03
     -1.222  0.1603E+02  0.1543E+02  0.1444E+03  0.1440E+03
     -1.165  0.2168E+02  0.1992E+02  0.1456E+03  0.1452E+03
     -1.109  0.1728E+02  0.2348E+02  0.1466E+03  0.1465E+03
     -1.052  0.1394E+02  0.1409E+02  0.1474E+03  0.1473E+03
     -0.995  0.6292E+01  0.7289E+01  0.1478E+03  0.1477E+03
     -0.938  0.1624E+02  0.1343E+02  0.1487E+03  0.1485E+03
     -0.882  0.1577E+02  0.1786E+02  0.1496E+03  0.1495E+03
     -0.825  0.2313E+02  0.1967E+02  0.1509E+03  0.1506E+03
     -0.768  0.1231E+02  0.1540E+02  0.1516E+03  0.1515E+03
     -0.711  0.1739E+02  0.1425E+02  0.1526E+03  0.1523E+03
     -0.654  0.1140E+02  0.1433E+02  0.1532E+03  0.1531E+03
     -0.598  0.1221E+02  0.1052E+02  0.1539E+03  0.1537E+03
     -0.541  0.1865E+02  0.1881E+02  0.1550E+03  0.1548E+03
     -0.484  0.1564E+02  0.1434E+02  0.1559E+03  0.1556E+03
     -0.427  0.1612E+02  0.1705E+02  0.1568E+03  0.1566E+03
     -0.371  0.1178E+02  0.1286E+02  0.1575E+03  0.1573E+03
     -0.314  0.1327E+02  0.1256E+02  0.1582E+03  0.1580E+03
     -0.257  0.1231E+02  0.1503E+02  0.1589E+03  0.1588E+03
     -0.200  0.6291E+01  0.4135E+01  0.1593E+03  0.1591E+03
     -0.144  0.6463E+01  0.8838E+01  0.1596E+03  0.1596E+03
     -0.087  0.1039E+02  0.8787E+01  0.1602E+03  0.1601E+03
     -0.030  0.1606E+02  0.1610E+02  0.1611E+03  0.1610E+03
      0.027  0.2253E+02  0.2184E+02  0.1624E+03  0.1622E+03
      0.084  0.2557E+02  0.2497E+02  0.1639E+03  0.1637E+03
      0.140  0.3101E+02  0.3213E+02  0.1656E+03  0.1655E+03
      0.197  0.3767E+02  0.3345E+02  0.1678E+03  0.1674E+03
      0.254  0.3102E+02  0.3297E+02  0.1695E+03  0.1692E+03
      0.311  0.5047E+02  0.5078E+02  0.1724E+03  0.1721E+03
      0.367  0.3860E+02  0.3650E+02  0.1746E+03  0.1742E+03
      0.424  0.4968E+02  0.4457E+02  0.1774E+03  0.1767E+03
      0.481  0.4836E+02  0.5122E+02  0.1802E+03  0.1796E+03
      0.538  0.4624E+02  0.4844E+02  0.1828E+03  0.1824E+03
      0.595  0.4219E+02  0.4041E+02  0.1852E+03  0.1847E+03
      0.651  0.4000E+02  0.4229E+02  0.1874E+03  0.1871E+03
      0.708  0.5231E+02  0.5028E+02  0.1904E+03  0.1899E+03
      0.765  0.5137E+02  0.5190E+02  0.1933E+03  0.1929E+03
      0.822  0.4914E+02  0.5248E+02  0.1961E+03  0.1959E+03
      0.878  0.4061E+02  0.3795E+02  0.1984E+03  0.1980E+03
      0.935  0.4904E+02  0.4990E+02  0.2012E+03  0.2009E+03
      0.992  0.4857E+02  0.4911E+02  0.2040E+03  0.2036E+03
      1.049  0.4378E+02  0.4012E+02  0.2064E+03  0.2059E+03
      1.105  0.4589E+02  0.4864E+02  0.2091E+03  0.2087E+03
      1.162  0.4839E+02  0.4617E+02  0.2118E+03  0.2113E+03
      1.219  0.4487E+02  0.4385E+02  0.2143E+03  0.2138E+03
      1.276  0.5448E+02  0.5580E+02  0.2174E+03  0.2170E+03
      1.333  0.3407E+02  0.3796E+02  0.2194E+03  0.2191E+03
      1.389  0.5954E+02  0.5377E+02  0.2228E+03  0.2222E+03
      1.446  0.5566E+02  0.5668E+02  0.2259E+03  0.2254E+03
      1.503  0.5587E+02  0.5574E+02  0.2291E+03  0.2286E+03
      1.560  0.6079E+02  0.5971E+02  0.2325E+03  0.2319E+03
      1.616  0.4513E+02  0.4748E+02  0.2351E+03  0.2346E+03
      1.673  0.5926E+02  0.5713E+02  0.2385E+03  0.2379E+03
      1.730  0.3779E+02  0.3675E+02  0.2406E+03  0.2400E+03
      1.787  0.6772E+02  0.6957E+02  0.2445E+03  0.2439E+03
      1.843  0.4822E+02  0.5111E+02  0.2472E+03  0.2468E+03
      1.900  0.5656E+02  0.5421E+02  0.2504E+03  0.2499E+03
      1.957  0.5835E+02  0.5496E+02  0.2537E+03  0.2530E+03
      2.014  0.4623E+02  0.5094E+02  0.2563E+03  0.2559E+03
      2.071  0.3638E+02  0.3534E+02  0.2584E+03  0.2579E+03
      2.127  0.4347E+02  0.4810E+02  0.2609E+03  0.2606E+03
      2.184  0.5073E+02  0.4791E+02  0.2638E+03  0.2634E+03
      2.241  0.4714E+02  0.4692E+02  0.2664E+03  0.2660E+03
      2.298  0.4631E+02  0.4534E+02  0.2691E+03  0.2686E+03
      2.354  0.4848E+02  0.4622E+02  0.2718E+03  0.2712E+03
      2.411  0.4947E+02  0.5019E+02  0.2746E+03  0.2741E+03
      2.468  0.3943E+02  0.4022E+02  0.2769E+03  0.2764E+03
      2.525  0.3838E+02  0.4164E+02  0.2790E+03  0.2787E+03
      2.581  0.4888E+02  0.4580E+02  0.2818E+03  0.2813E+03
      2.638  0.4569E+02  0.4533E+02  0.2844E+03  0.2839E+03
      2.695  0.3880E+02  0.4107E+02  0.2866E+03  0.2862E+03
      2.752  0.4974E+02  0.4798E+02  0.2894E+03  0.2890E+03
      2.809  0.3007E+02  0.3311E+02  0.2911E+03  0.2908E+03
      2.865  0.5895E+02  0.5196E+02  0.2945E+03  0.2938E+03
      2.922  0.2930E+02  0.3491E+02  0.2962E+03  0.2958E+03
      2.979  0.4587E+02  0.3779E+02  0.2988E+03  0.2979E+03
      3.036  0.3906E+02  0.4956E+02  0.3010E+03  0.3007E+03
      3.092  0.4958E+02  0.4321E+02  0.3038E+03  0.3032E+03
      3.149  0.2874E+02  0.3403E+02  0.3054E+03  0.3051E+03
      3.206  0.3820E+02  0.3955E+02  0.3076E+03  0.3074E+03
      3.263  0.2582E+02  0.2209E+02  0.3091E+03  0.3086E+03
      3.319  0.3445E+02  0.3244E+02  0.3110E+03  0.3104E+03
      3.376  0.2884E+02  0.3059E+02  0.3126E+03  0.3122E+03
      3.433  0.2895E+02  0.2884E+02  0.3143E+03  0.3138E+03
      3.490  0.1749E+02  0.2087E+02  0.3153E+03  0.3150E+03
      3.547  0.1626E+02  0.1554E+02  0.3162E+03  0.3159E+03
      3.603  0.2197E+02  0.2004E+02  0.3175E+03  0.3170E+03
      3.660  0.1929E+02  0.2192E+02  0.3185E+03  0.3183E+03
      3.717  0.1802E+02  0.1847E+02  0.3196E+03  0.3193E+03
      3.774  0.2258E+02  0.1971E+02  0.3209E+03  0.3204E+03
      3.830  0.1579E+02  0.1798E+02  0.3217E+03  0.3215E+03
      3.887  0.1199E+02  0.9067E+01  0.3224E+03  0.3220E+03
      3.944  0.2298E+02  0.2413E+02  0.3237E+03  0.3233E+03
      4.001  0.2556E+02  0.2271E+02  0.3252E+03  0.3246E+03
      4.058  0.2999E+02  0.2930E+02  0.3269E+03  0.3263E+03
      4.114  0.1491E+02  0.1860E+02  0.3277E+03  0.3274E+03
      4.171  0.2582E+02  0.2022E+02  0.3292E+03  0.3285E+03
      4.228  0.2133E+02  0.2195E+02  0.3304E+03  0.3297E+03
      4.285  0.2822E+02  0.1751E+02  0.3320E+03  0.3307E+03
      4.341  0.2270E+02  0.3596E+02  0.3333E+03  0.3328E+03
      4.398  0.2010E+02  0.1921E+02  0.3344E+03  0.3339E+03
      4.455  0.2074E+02  0.1786E+02  0.3356E+03  0.3349E+03
      4.512  0.2272E+02  0.2400E+02  0.3369E+03  0.3363E+03
      4.568  0.2714E+02  0.2561E+02  0.3385E+03  0.3377E+03
      4.625  0.3189E+02  0.2754E+02  0.3403E+03  0.3393E+03
      4.682  0.1886E+02  0.2974E+02  0.3413E+03  0.3410E+03
      4.739  0.1820E+02  0.1758E+02  0.3424E+03  0.3420E+03
      4.796  0.8636E+01  0.9595E+01  0.3429E+03  0.3425E+03
      4.852  0.1830E+02  0.1392E+02  0.3439E+03  0.3433E+03
      4.909  0.1598E+02  0.1937E+02  0.3448E+03  0.3444E+03
      4.966  0.2463E+02  0.2216E+02  0.3462E+03  0.3456E+03
      5.023  0.1435E+02  0.1793E+02  0.3470E+03  0.3467E+03
      5.079  0.2191E+02  0.2245E+02  0.3483E+03  0.3479E+03
      5.136  0.2670E+02  0.2773E+02  0.3498E+03  0.3495E+03
      5.193  0.2526E+02  0.2097E+02  0.3512E+03  0.3507E+03
      5.250  0.2948E+02  0.3269E+02  0.3529E+03  0.3526E+03
      5.306  0.2418E+02  0.2367E+02  0.3543E+03  0.3539E+03
      5.363  0.3048E+02  0.2338E+02  0.3560E+03  0.3552E+03
      5.420  0.1531E+02  0.2516E+02  0.3569E+03  0.3567E+03
      5.477  0.3014E+02  0.2291E+02  0.3586E+03  0.3580E+03
      5.534  0.2688E+02  0.3076E+02  0.3601E+03  0.3597E+03
      5.590  0.3198E+02  0.2777E+02  0.3619E+03  0.3613E+03
      5.647  0.2822E+02  0.2994E+02  0.3635E+03  0.3630E+03
      5.704  0.3797E+02  0.3736E+02  0.3657E+03  0.3651E+03
      5.761  0.2575E+02  0.2763E+02  0.3671E+03  0.3667E+03
      5.817  0.3181E+02  0.2958E+02  0.3689E+03  0.3684E+03
      5.874  0.4647E+02  0.4330E+02  0.3716E+03  0.3708E+03
      5.931  0.2904E+02  0.3699E+02  0.3732E+03  0.3729E+03
      5.988  0.3767E+02  0.3524E+02  0.3754E+03  0.3749E+03
      6.044  0.3455E+02  0.3761E+02  0.3773E+03  0.3770E+03
      6.101  0.4359E+02  0.3879E+02  0.3798E+03  0.3792E+03
      6.158  0.3265E+02  0.3313E+02  0.3816E+03  0.3811E+03
      6.215  0.4797E+02  0.4848E+02  0.3844E+03  0.3839E+03
      6.272  0.5036E+02  0.5068E+02  0.3872E+03  0.3868E+03
      6.328  0.3354E+02  0.3700E+02  0.3891E+03  0.3889E+03
      6.385  0.4643E+02  0.4644E+02  0.3918E+03  0.3915E+03
      6.442  0.4399E+02  0.3941E+02  0.3943E+03  0.3937E+03
      6.499  0.3871E+02  0.3863E+02  0.3965E+03  0.3959E+03
      6.555  0.4605E+02  0.4835E+02  0.3991E+03  0.3987E+03
      6.612  0.3052E+02  0.3122E+02  0.4008E+03  0.4004E+03
      6.669  0.2061E+02  0.2454E+02  0.4020E+03  0.4018E+03
      6.726  0.1659E+02  0.1447E+02  0.4029E+03  0.4027E+03
      6.782  0.2835E+02  0.2962E+02  0.4045E+03  0.4043E+03
      6.839  0.2184E+02  0.2222E+02  0.4058E+03  0.4056E+03
      6.896  0.1545E+02  0.1673E+02  0.4067E+03  0.4065E+03
      6.953  0.7927E+01  0.7460E+01  0.4071E+03  0.4070E+03
      7.010  0.1054E+02  0.1222E+02  0.4077E+03  0.4077E+03
      7.066  0.3838E+01  0.4376E+01  0.4079E+03  0.4079E+03
      7.123  0.5873E-01  0.2517E-01  0.4079E+03  0.4079E+03
      7.180  0.1409E+01  0.1465E+01  0.4080E+03  0.4080E+03
      7.237  0.0000E+00  0.0000E+00  0.4080E+03  0.4080E+03
      7.293  0.0000E+00  0.0000E+00  0.4080E+03  0.4080E+03
      7.350  0.0000E+00  0.0000E+00  0.4080E+03  0.4080E+03
      7.407  0.0000E+00  0.0000E+00  0.4080E+03  0.4080E+03
      7.464  0.0000E+00  0.0000E+00  0.4080E+03  0.4080E+03
      7.521  0.0000E+00  0.0000E+00  0.4080E+03  0.4080E+03
      7.577  0.0000E+00  0.0000E+00  0.4080E+03  0.4080E+03
      7.634  0.0000E+00  0.0000E+00  0.4080E+03  0.4080E+03
      7.691  0.0000E+00  0.0000E+00  0.4080E+03  0.4080E+03
      7.748  0.0000E+00  0.0000E+00  0.4080E+03  0.4080E+03
      7.804  0.0000E+00  0.0000E+00  0.4080E+03  0.4080E+03
      7.861  0.0000E+00  0.0000E+00  0.4080E+03  0.4080E+03
      7.918  0.0000E+00  0.0000E+00  0.4080E+03  0.4080E+03
