Si and Ge interface calculation         
           1
     5.431000    0.000000    0.000000
     0.000000   16.293001    0.000000
     0.000000    0.000000   20.724850
   Si   Ge
    36    48
Direct configuration=     1
   0.01779686  0.66666675  0.00000000
   0.51779687  0.66666675  0.13102630
   0.01779687  0.66666675  0.26205260
   0.01779686  0.33333337  0.00000000
   0.51779687  0.33333337  0.13102630
   0.01779687  0.33333337  0.26205260
   0.01779686  0.00000000  0.00000000
   0.51779687  0.00000000  0.13102630
   0.01779687  0.00000000  0.26205260
   0.26779687  0.91666675  0.06551315
   0.76779693  0.91666675  0.19653946
   0.26779699  0.91666675  0.32756573
   0.26779687  0.58333343  0.06551315
   0.76779693  0.58333343  0.19653946
   0.26779699  0.58333343  0.32756573
   0.26779687  0.25000000  0.06551315
   0.76779693  0.25000000  0.19653946
   0.26779699  0.25000000  0.32756573
   0.51779687  0.83333331  0.00000000
   0.01779687  0.83333331  0.13102630
   0.51779699  0.83333331  0.26205260
   0.51779687  0.50000000  0.00000000
   0.01779687  0.50000000  0.13102630
   0.51779699  0.50000000  0.26205260
   0.51779687  0.16666669  0.00000000
   0.01779687  0.16666669  0.13102630
   0.51779699  0.16666669  0.26205260
   0.76779693  0.75000006  0.06551315
   0.26779687  0.75000006  0.19653946
   0.76779699  0.75000006  0.32756573
   0.76779693  0.41666669  0.06551315
   0.26779687  0.41666669  0.19653946
   0.76779699  0.41666669  0.32756573
   0.76779693  0.08333335  0.06551315
   0.26779687  0.08333335  0.19653946
   0.76779699  0.08333335  0.32756573
   0.53037256  0.46216699  0.42248627
   0.03037262  0.08716698  0.51900494
   0.53037256  0.71216697  0.61552358
   0.03037238  0.33716708  0.71204221
   0.53037268  0.96216697  0.80856091
   0.03037262  0.58716697  0.90507960
   0.53037256  0.96216697  0.42248627
   0.03037262  0.58716697  0.51900500
   0.53037256  0.21216697  0.61552358
   0.03037238  0.83716720  0.71204221
   0.53037268  0.46216697  0.80856091
   0.03037262  0.08716697  0.90507948
   0.53037256  0.71216697  0.42248627
   0.03037262  0.33716697  0.51900494
   0.53037256  0.96216697  0.61552358
   0.03037238  0.58716708  0.71204227
   0.53037268  0.21216702  0.80856091
   0.03037262  0.83716697  0.90507960
   0.53037256  0.21216698  0.42248627
   0.03037262  0.83716697  0.51900494
   0.53037256  0.46216697  0.61552358
   0.03037238  0.08716708  0.71204227
   0.53037268  0.71216708  0.80856091
   0.03037262  0.33716697  0.90507948
   0.28037262  0.58716702  0.42248627
   0.78037256  0.21216699  0.51900494
   0.28037262  0.83716697  0.61552358
   0.78037244  0.46216708  0.71204221
   0.28037262  0.08716702  0.80856091
   0.78037244  0.71216697  0.90507960
   0.28037262  0.08716698  0.42248627
   0.78037256  0.71216697  0.51900494
   0.28037262  0.33716697  0.61552358
   0.78037244  0.96216708  0.71204227
   0.28037262  0.58716708  0.80856091
   0.78037244  0.21216685  0.90507948
   0.28037262  0.83716702  0.42248625
   0.78037256  0.46216702  0.51900494
   0.28037262  0.08716701  0.61552358
   0.78037244  0.71216714  0.71204221
   0.28037262  0.33716708  0.80856091
   0.78037244  0.96216697  0.90507948
   0.28037262  0.33716697  0.42248627
   0.78037256  0.96216697  0.51900500
   0.28037262  0.58716697  0.61552358
   0.78037244  0.21216708  0.71204227
   0.28037262  0.83716697  0.80856091
   0.78037244  0.46216697  0.90507948
