<?xml version="1.0" encoding="ISO-8859-1"?>
<modeling>
 <generator>
  <i name="program" type="string">vasp </i>
  <i name="version" type="string">6.4.3  </i>
  <i name="subversion" type="string">19Mar24 (build Oct 22 2024 11:23:12) complex                          parallel </i>
  <i name="platform" type="string">LinuxIFC </i>
  <i name="date" type="string">2025 06 04 </i>
  <i name="time" type="string">00:25:19 </i>
 </generator>
 <incar>
  <i type="string" name="SYSTEM">Si and Ge interface calculation</i>
  <i type="int" name="ISTART">     0</i>
  <i type="logical" name="ADDGRID"> T  </i>
  <i type="int" name="ISPIN">     2</i>
  <i name="AMIX">      0.60000000</i>
  <i type="int" name="ICHARG">     2</i>
  <i type="int" name="NELM">   100</i>
  <i name="EDIFF">      0.00000010</i>
  <i name="ENCUT">    700.00000000</i>
  <i name="ENAUG">    900.00000000</i>
  <i type="int" name="NBANDS">   116</i>
  <i name="NUPDOWN">      1.00000000</i>
  <i name="NELECT">    192.00000000</i>
  <i type="string" name="LREAL">AUTO</i>
  <i type="int" name="ISMEAR">     0</i>
  <i name="SIGMA">      0.01000000</i>
  <i type="int" name="LMAXMIX">     6</i>
  <i type="logical" name="LWAVE"> F  </i>
  <i type="logical" name="LVTOT"> F  </i>
  <i type="logical" name="LVHAR"> T  </i>
  <i type="logical" name="LASPH"> T  </i>
  <i type="logical" name="LMIXTAU"> T  </i>
 </incar>
 <primitive_cell>
  <structure name="primitive_cell" >
   <crystal>
    <varray name="basis" >
     <v>      -1.21440940      -3.64322554       0.00000000 </v>
     <v>       0.00000000       0.00000000       9.05166912 </v>
     <v>     -10.92967754       3.64322580       0.00000000 </v>
    </varray>
    <i name="volume">    400.47886238 </i>
    <varray name="rec_basis" >
     <v>      -0.08234461      -0.24703382       0.00000000 </v>
     <v>       0.00000000       0.00000000       0.11047686 </v>
     <v>      -0.08234460       0.02744822       0.00000000 </v>
    </varray>
   </crystal>
   <varray name="positions" >
    <v>       0.98220313       0.00000000       0.32740107 </v>
    <v>       0.48220298       0.29999992       0.16073446 </v>
    <v>       0.98220290       0.59999984       0.99406784 </v>
    <v>       0.98220314       0.00000000       0.99406772 </v>
    <v>       0.48220303       0.29999992       0.82740112 </v>
    <v>       0.98220277       0.59999984       0.66073443 </v>
    <v>       0.98220320       0.00000000       0.66073439 </v>
    <v>       0.48220295       0.29999992       0.49406773 </v>
    <v>       0.98220284       0.59999984       0.32740113 </v>
    <v>       0.98220305       0.14999996       0.82740107 </v>
    <v>       0.48220285       0.44999999       0.66073444 </v>
    <v>       0.98220253       0.74999982       0.49406769 </v>
    <v>       0.98220302       0.14999996       0.16073446 </v>
    <v>       0.48220295       0.44999999       0.99406775 </v>
    <v>       0.98220263       0.74999982       0.82740113 </v>
    <v>       0.98220307       0.14999996       0.49406775 </v>
    <v>       0.48220289       0.44999999       0.32740105 </v>
    <v>       0.98220260       0.74999982       0.16073440 </v>
    <v>       0.04776863       0.74999982       0.02653815 </v>
    <v>       0.54776884       0.84999984       0.30431598 </v>
    <v>       0.04776901       0.94999999       0.58209379 </v>
    <v>       0.54776879       0.79999989       0.91542710 </v>
    <v>       0.04776896       0.89999992       0.19320492 </v>
    <v>       0.54776914       0.99999994       0.47098278 </v>
   </varray>
  </structure>
  <varray name="primitive_index" >
   <v type="int" >        1 </v>
   <v type="int" >       26 </v>
   <v type="int" >       27 </v>
   <v type="int" >       22 </v>
   <v type="int" >        5 </v>
   <v type="int" >       24 </v>
   <v type="int" >       19 </v>
   <v type="int" >        8 </v>
   <v type="int" >        9 </v>
   <v type="int" >       31 </v>
   <v type="int" >       32 </v>
   <v type="int" >       33 </v>
   <v type="int" >       13 </v>
   <v type="int" >       35 </v>
   <v type="int" >       36 </v>
   <v type="int" >       28 </v>
   <v type="int" >       17 </v>
   <v type="int" >       18 </v>
   <v type="int" >       40 </v>
   <v type="int" >       38 </v>
   <v type="int" >       39 </v>
   <v type="int" >       43 </v>
   <v type="int" >       44 </v>
   <v type="int" >       48 </v>
  </varray>
 </primitive_cell>
 <kpoints>
  <generation param="Gamma">
   <v type="int" name="divisions">       4        4        3 </v>
   <v name="usershift">      0.00000000       0.00000000       0.00000000 </v>
   <v name="genvec1">      0.25000000      -0.00000000       0.00000000 </v>
   <v name="genvec2">      0.00000000       0.25000000       0.00000000 </v>
   <v name="genvec3">      0.00000000       0.00000000       0.33333333 </v>
   <v name="shift">      0.00000000       0.00000000       0.00000000 </v>
  </generation>
  <varray name="kpointlist" >
   <v>       0.00000000       0.00000000       0.00000000 </v>
   <v>       0.25000000       0.00000000       0.00000000 </v>
   <v>       0.00000000       0.25000000       0.00000000 </v>
   <v>       0.50000000       0.00000000       0.00000000 </v>
   <v>       0.00000000       0.50000000       0.00000000 </v>
   <v>       0.25000000       0.25000000       0.00000000 </v>
   <v>       0.50000000       0.25000000       0.00000000 </v>
   <v>       0.25000000       0.50000000       0.00000000 </v>
   <v>      -0.25000000       0.25000000       0.00000000 </v>
   <v>       0.50000000       0.50000000       0.00000000 </v>
   <v>       0.00000000       0.00000000       0.33333333 </v>
   <v>       0.25000000       0.00000000       0.33333333 </v>
   <v>      -0.25000000      -0.00000000       0.33333333 </v>
   <v>       0.00000000       0.25000000      -0.33333333 </v>
   <v>       0.00000000      -0.25000000      -0.33333333 </v>
   <v>       0.50000000       0.00000000       0.33333333 </v>
   <v>       0.00000000       0.50000000      -0.33333333 </v>
   <v>       0.25000000       0.25000000       0.33333333 </v>
   <v>      -0.25000000      -0.25000000       0.33333333 </v>
   <v>       0.50000000       0.25000000       0.33333333 </v>
   <v>       0.50000000      -0.25000000       0.33333333 </v>
   <v>       0.25000000       0.50000000      -0.33333333 </v>
   <v>      -0.25000000       0.50000000      -0.33333333 </v>
   <v>      -0.25000000       0.25000000       0.33333333 </v>
   <v>       0.25000000      -0.25000000       0.33333333 </v>
   <v>       0.50000000       0.50000000       0.33333333 </v>
  </varray>
  <varray name="weights" >
   <v>       0.02083333 </v>
   <v>       0.04166667 </v>
   <v>       0.04166667 </v>
   <v>       0.02083333 </v>
   <v>       0.02083333 </v>
   <v>       0.04166667 </v>
   <v>       0.04166667 </v>
   <v>       0.04166667 </v>
   <v>       0.04166667 </v>
   <v>       0.02083333 </v>
   <v>       0.04166667 </v>
   <v>       0.04166667 </v>
   <v>       0.04166667 </v>
   <v>       0.04166667 </v>
   <v>       0.04166667 </v>
   <v>       0.04166667 </v>
   <v>       0.04166667 </v>
   <v>       0.04166667 </v>
   <v>       0.04166667 </v>
   <v>       0.04166667 </v>
   <v>       0.04166667 </v>
   <v>       0.04166667 </v>
   <v>       0.04166667 </v>
   <v>       0.04166667 </v>
   <v>       0.04166667 </v>
   <v>       0.04166667 </v>
  </varray>
 </kpoints>
 <parameters>
  <separator name="general" >
   <i type="string" name="SYSTEM">Si and Ge interface calculation</i>
   <i type="logical" name="LCOMPAT"> F  </i>
  </separator>
  <separator name="electronic" >
   <i type="string" name="PREC">normal</i>
   <i name="ENMAX">    700.00000000</i>
   <i name="ENAUG">    900.00000000</i>
   <i name="EDIFF">      0.00000010</i>
   <i type="int" name="IALGO">    38</i>
   <i type="int" name="IWAVPR">    10</i>
   <i type="int" name="NBANDS">   116</i>
   <i type="int" name="NBANDSLOW">    -1</i>
   <i type="int" name="NBANDSHIGH">    -1</i>
   <i name="NELECT">    192.00000000</i>
   <i type="int" name="TURBO">     0</i>
   <i type="int" name="IRESTART">     0</i>
   <i type="int" name="NREBOOT">     0</i>
   <i type="int" name="NMIN">     0</i>
   <i name="EREF">      0.00000000</i>
   <separator name="electronic smearing" >
    <i type="int" name="ISMEAR">     0</i>
    <i name="SIGMA">      0.01000000</i>
    <i name="KSPACING">      0.50000000</i>
    <i type="logical" name="KGAMMA"> T  </i>
    <i type="logical" name="KBLOWUP"> T  </i>
   </separator>
   <separator name="electronic projectors" >
    <i type="logical" name="LREAL"> T  </i>
    <v name="ROPT">     -0.00050000</v>
    <i type="int" name="LMAXPAW">  -100</i>
    <i type="int" name="LMAXMIX">     6</i>
    <i type="logical" name="NLSPLINE"> F  </i>
   </separator>
   <separator name="electronic startup" >
    <i type="int" name="ISTART">     0</i>
    <i type="int" name="ICHARG">     2</i>
    <i type="int" name="INIWAV">     1</i>
   </separator>
   <separator name="electronic spin" >
    <i type="int" name="ISPIN">     2</i>
    <i type="logical" name="LNONCOLLINEAR"> F  </i>
    <v name="MAGMOM">      0.02083333      0.02083333      0.02083333      0.02083333      0.02083333      0.02083333      0.02083333      0.02083333      0.02083333      0.02083333      0.02083333      0.02083333      0.02083333      0.02083333      0.02083333      0.02083333      0.02083333      0.02083333      0.02083333      0.02083333
      0.02083333      0.02083333      0.02083333      0.02083333      0.02083333      0.02083333      0.02083333      0.02083333      0.02083333      0.02083333      0.02083333      0.02083333      0.02083333      0.02083333      0.02083333      0.02083333      0.02083333      0.02083333      0.02083333      0.02083333
      0.02083333      0.02083333      0.02083333      0.02083333      0.02083333      0.02083333      0.02083333      0.02083333</v>
    <i name="NUPDOWN">      1.00000000</i>
    <i type="logical" name="LSORBIT"> F  </i>
    <v name="SAXIS">      0.00000000      0.00000000      1.00000000</v>
    <i type="logical" name="LSPIRAL"> F  </i>
    <v name="QSPIRAL">      0.00000000      0.00000000      0.00000000</v>
    <i type="logical" name="LZEROZ"> F  </i>
   </separator>
   <separator name="electronic exchange-correlation" >
    <i type="logical" name="LASPH"> T  </i>
   </separator>
   <separator name="electronic convergence" >
    <i type="int" name="NELM">   100</i>
    <i type="int" name="NELMDL">    -5</i>
    <i type="int" name="NELMIN">     2</i>
    <i name="ENINI">    700.00000000</i>
    <separator name="electronic convergence detail" >
     <i type="logical" name="LDIAG"> T  </i>
     <i type="logical" name="LSUBROT"> F  </i>
     <i name="WEIMIN">      0.00000000</i>
     <i name="EBREAK">      0.00000000</i>
     <i name="DEPER">      0.30000000</i>
     <i type="int" name="NRMM">     4</i>
     <i name="TIME">      0.40000000</i>
    </separator>
   </separator>
   <separator name="electronic mixer" >
    <i name="AMIX">      0.60000000</i>
    <i name="BMIX">      1.00000000</i>
    <i name="AMIN">      0.10000000</i>
    <i name="AMIX_MAG">      2.40000000</i>
    <i name="BMIX_MAG">      1.00000000</i>
    <separator name="electronic mixer details" >
     <i type="int" name="IMIX">     4</i>
     <i type="logical" name="MIXFIRST"> F  </i>
     <i type="int" name="MAXMIX">   -45</i>
     <i name="WC">    100.00000000</i>
     <i type="int" name="INIMIX">     1</i>
     <i type="int" name="MIXPRE">     1</i>
     <i type="int" name="MREMOVE">     5</i>
    </separator>
   </separator>
   <separator name="electronic dipolcorrection" >
    <i type="logical" name="LDIPOL"> F  </i>
    <i type="logical" name="LMONO"> F  </i>
    <i type="int" name="IDIPOL">     0</i>
    <i name="EPSILON">      1.00000000</i>
    <v name="DIPOL">   -100.00000000   -100.00000000   -100.00000000</v>
    <i name="EFIELD">      0.00000000</i>
    <i type="logical" name="LVACPOTAV"> F  </i>
   </separator>
  </separator>
  <separator name="grids" >
   <i type="int" name="NGX">    80</i>
   <i type="int" name="NGY">    80</i>
   <i type="int" name="NGZ">    60</i>
   <i type="int" name="NGXF">   160</i>
   <i type="int" name="NGYF">   160</i>
   <i type="int" name="NGZF">   120</i>
   <i type="logical" name="ADDGRID"> T  </i>
  </separator>
  <separator name="ionic" >
   <i type="int" name="NSW">     0</i>
   <i type="int" name="IBRION">    -1</i>
   <i type="int" name="MDALGO">     0</i>
   <i type="int" name="ISIF">     2</i>
   <i name="PSTRESS">      0.00000000</i>
   <i name="EDIFFG">      0.00000100</i>
   <i type="int" name="NFREE">     0</i>
   <i name="POTIM">      0.50000000</i>
   <i name="SMASS">     -3.00000000</i>
   <i name="SCALEE">      1.00000000</i>
  </separator>
  <separator name="ionic md" >
   <i name="TEBEG">      0.00010000</i>
   <i name="TEEND">      0.00010000</i>
   <i type="int" name="NBLOCK">     1</i>
   <i type="int" name="KBLOCK">     1</i>
   <i type="int" name="NPACO">   256</i>
   <i name="APACO">     10.00000000</i>
  </separator>
  <separator name="symmetry" >
   <i type="int" name="ISYM">     2</i>
   <i name="SYMPREC">      0.00001000</i>
  </separator>
  <separator name="dos" >
   <i type="int" name="LORBIT">     0</i>
   <v name="RWIGS">     -1.00000000</v>
   <i type="int" name="NEDOS">   301</i>
   <i name="EMIN">     10.00000000</i>
   <i name="EMAX">    -10.00000000</i>
   <i name="EFERMI">      0.00000000</i>
  </separator>
  <separator name="writing" >
   <i type="int" name="NWRITE">     2</i>
   <i type="logical" name="LWAVE"> F  </i>
   <i type="logical" name="LDOWNSAMPLE"> F  </i>
   <i type="logical" name="LCHARG"> T  </i>
   <i type="logical" name="LPARD"> F  </i>
   <i type="logical" name="LVTOT"> F  </i>
   <i type="logical" name="LVHAR"> T  </i>
   <i type="logical" name="LELF"> F  </i>
   <i type="logical" name="LOPTICS"> F  </i>
   <v name="STM">      0.00000000      0.00000000      0.00000000      0.00000000      0.00000000      0.00000000      0.00000000</v>
  </separator>
  <separator name="performance" >
   <i type="int" name="NPAR">     4</i>
   <i type="int" name="NSIM">     4</i>
   <i type="int" name="NBLK">    -1</i>
   <i type="logical" name="LPLANE"> T  </i>
   <i type="logical" name="LSCALAPACK"> T  </i>
   <i type="logical" name="LSCAAWARE"> F  </i>
   <i type="logical" name="LSCALU"> F  </i>
   <i type="logical" name="LASYNC"> F  </i>
   <i type="logical" name="LORBITALREAL"> F  </i>
  </separator>
  <separator name="miscellaneous" >
   <i type="int" name="IDIOT">     3</i>
   <i type="int" name="PHON_NSTRUCT">    -1</i>
   <i type="logical" name="LMUSIC"> F  </i>
   <v name="POMASS">     28.08500000</v>
   <v name="DARWINR">      0.00000000</v>
   <v name="DARWINV">      1.00000000</v>
   <i type="logical" name="LCORR"> T  </i>
  </separator>
  <i type="logical" name="GGA_COMPAT"> T  </i>
  <i type="logical" name="LBERRY"> F  </i>
  <i type="int" name="ICORELEVEL">     0</i>
  <i type="logical" name="LDAU"> F  </i>
  <i type="int" name="I_CONSTRAINED_M">     0</i>
  <separator name="electronic exchange-correlation" >
   <i type="string" name="GGA    ">PE</i>
   <i type="string" name="XC_C">1</i>
   <i type="int" name="VOSKOWN">     0</i>
   <i type="logical" name="LHFCALC"> F  </i>
   <i type="string" name="PRECFOCK"></i>
   <i type="logical" name="LSYMGRAD"> F  </i>
   <i type="logical" name="LHFONE"> F  </i>
   <i type="logical" name="LRHFCALC"> F  </i>
   <i type="logical" name="LTHOMAS"> F  </i>
   <i type="logical" name="LMODELHF"> F  </i>
   <i type="logical" name="LFOCKACE"> F  </i>
   <i name="ENCUT4O">     -1.00000000</i>
   <i type="int" name="EXXOEP">     0</i>
   <i type="int" name="FOURORBIT">     0</i>
   <i name="AEXX">      0.00000000</i>
   <i name="HFALPHA">      0.00000000</i>
   <i name="MCALPHA">      0.00000000</i>
   <i name="ALDAX">      1.00000000</i>
   <i name="AGGAX">      1.00000000</i>
   <i name="AMGGAX">      1.00000000</i>
   <i name="ALDAC">      1.00000000</i>
   <i name="AGGAC">      1.00000000</i>
   <i name="AMGGAC">      1.00000000</i>
   <i type="int" name="NKREDX">     1</i>
   <i type="int" name="NKREDY">     1</i>
   <i type="int" name="NKREDZ">     1</i>
   <i type="logical" name="SHIFTRED"> F  </i>
   <i type="logical" name="ODDONLY"> F  </i>
   <i type="logical" name="EVENONLY"> F  </i>
   <i type="int" name="LMAXFOCK">     0</i>
   <i type="int" name="NMAXFOCKAE">     0</i>
   <i type="logical" name="LFOCKAEDFT"> F  </i>
   <i name="HFSCREEN">      0.00000000</i>
   <i name="HFSCREENC">      0.00000000</i>
   <i type="int" name="NBANDSGWLOW">     0</i>
  </separator>
  <separator name="vdW DFT" >
   <i type="logical" name="LUSE_VDW"> F  </i>
   <i type="int" name="IVDW_NL">    -1</i>
   <i type="logical" name="LSPIN_VDW"> F  </i>
   <i name="ZAB_VDW">     -0.84910000</i>
   <i name="GAMMA_VDW">      1.39626340</i>
   <i name="ALPHA_VDW">      0.00000000</i>
   <i name="PARAM1">      0.12340000</i>
   <i name="PARAM2">      1.00000000</i>
   <i name="BPARAM">      6.30000000</i>
   <i name="CPARAM">      0.00930000</i>
  </separator>
  <separator name="model GW" >
   <i type="int" name="MODEL_GW">     0</i>
   <i name="MODEL_EPS0">     10.01197098</i>
   <i name="MODEL_ALPHA">      1.00000000</i>
  </separator>
  <separator name="linear response parameters" >
   <i type="logical" name="LEPSILON"> F  </i>
   <i type="logical" name="LRPA"> F  </i>
   <i type="logical" name="LNABLA"> F  </i>
   <i type="logical" name="LVEL"> F  </i>
   <i name="CSHIFT">      0.10000000</i>
   <i name="OMEGAMAX">     -1.00000000</i>
   <i name="DEG_THRESHOLD">      0.00200000</i>
   <i name="RTIME">     -0.10000000</i>
   <i name="WPLASMAI">      0.00000000</i>
   <v name="DFIELD">      0.00000000      0.00000000      0.00000000</v>
   <v name="WPLASMA">      0.00000000      0.00000000      0.00000000      0.00000000      0.00000000      0.00000000      0.00000000      0.00000000      0.00000000</v>
  </separator>
  <separator name="orbital magnetization" >
   <i type="logical" name="NUCIND"> F  </i>
   <v name="MAGPOS">      0.00000000      0.00000000      0.00000000</v>
   <i type="logical" name="LNICSALL"> T  </i>
   <i type="logical" name="ORBITALMAG"> F  </i>
   <i type="logical" name="LMAGBLOCH"> F  </i>
   <i type="logical" name="LCHIMAG"> F  </i>
   <i type="logical" name="LGAUGE"> T  </i>
   <i type="int" name="MAGATOM">     0</i>
   <v name="MAGDIPOL">      0.00000000      0.00000000      0.00000000</v>
   <v name="AVECCONST">      0.00000000      0.00000000      0.00000000</v>
  </separator>
  <separator name="response functions" >
   <i type="logical" name="LALL_IN_ONE"> F  </i>
   <i type="int" name="IALL_IN_ONE">    -1</i>
   <i type="int" name="NBANDS_WAVE">    -1</i>
   <i type="logical" name="LFINITE_TEMPERATURE"> F  </i>
   <i type="logical" name="LADDER"> F  </i>
   <i type="logical" name="LRPAFORCE"> F  </i>
   <i type="logical" name="LFXC"> F  </i>
   <i type="logical" name="LHARTREE"> T  </i>
   <i type="int" name="IBSE">     0</i>
   <v type="int" name="KPOINT">    -1     0     0     0</v>
   <i type="logical" name="LTCTC"> F  </i>
   <i type="logical" name="LTCTE"> F  </i>
   <i type="logical" name="LTETE"> F  </i>
   <i type="logical" name="LTRIPLET"> F  </i>
   <i type="logical" name="LFXCEPS"> F  </i>
   <i type="logical" name="LFXHEG"> F  </i>
   <i type="int" name="NATURALO">     2</i>
   <i type="logical" name="LHOLEGF"> F  </i>
   <i type="logical" name="L2ORDER"> F  </i>
   <i type="logical" name="LDMP1"> F  </i>
   <i type="logical" name="LMP2LT"> F  </i>
   <i type="logical" name="LSMP2LT"> F  </i>
   <i type="logical" name="LGWLF"> F  </i>
   <i name="ENCUTGW">     -1.60000002</i>
   <i name="ENCUTGWSOFT">     -1.60000002</i>
   <i name="ENCUTLF">     -1.00000000</i>
   <i type="logical" name="ESF_SPLINES"> F  </i>
   <i name="ESF_CONV">      0.01000000</i>
   <i type="int" name="ESF_NINTER">    15</i>
   <i type="int" name="LMAXMP2">    -1</i>
   <i name="SCISSOR">      0.00000000</i>
   <i type="int" name="NOMEGA">     0</i>
   <i type="int" name="NOMEGAR">     0</i>
   <i type="int" name="NBANDSGW">    -1</i>
   <i type="int" name="NBANDSO">    -1</i>
   <i type="int" name="NBANDSV">    -1</i>
   <i type="int" name="NELMGW">     1</i>
   <i type="int" name="NELMHF">     1</i>
   <i type="int" name="DIM">     3</i>
   <i type="int" name="IESPILON">     4</i>
   <i type="int" name="ANTIRES">     0</i>
   <i name="OMEGAMAX">    -30.00000000</i>
   <i name="OMEGAMIN">    -30.00000000</i>
   <i name="OMEGATL">   -200.00000000</i>
   <i type="int" name="OMEGAGRID">     0</i>
   <i name="CSHIFT">     -0.10000000</i>
   <i type="logical" name="LSELFENERGY"> F  </i>
   <i type="logical" name="LSPECTRAL"> F  </i>
   <i type="logical" name="LSPECTRALGW"> F  </i>
   <i type="logical" name="LSINGLES"> F  </i>
   <i type="logical" name="LFERMIGW"> F  </i>
   <i type="logical" name="ODDONLYGW"> F  </i>
   <i type="logical" name="EVENONLYGW"> F  </i>
   <i type="int" name="NKREDLFX">     1</i>
   <i type="int" name="NKREDLFY">     1</i>
   <i type="int" name="NKREDLFZ">     1</i>
   <i type="int" name="MAXMEM">  2800</i>
   <i type="int" name="TELESCOPE">     0</i>
   <i type="int" name="NTAUPAR">    -1</i>
   <i type="int" name="NOMEGAPAR">    -1</i>
   <i name="DAMP_NEWTON">      0.80000001</i>
   <i name="LAMBDA">      1.00000000</i>
  </separator>
  <separator name="External order field" >
   <i name="OFIELD_KAPPA">      0.00000000</i>
   <v name="OFIELD_K">      0.00000000      0.00000000      0.00000000</v>
   <i name="OFIELD_Q6_NEAR">      0.00000000</i>
   <i name="OFIELD_Q6_FAR">      0.00000000</i>
   <i name="OFIELD_A">      0.00000000</i>
  </separator>
  <separator name="optional k-points parameters" >
   <i type="int" name="KPOINTS_OPT_MODE">     1</i>
   <i type="logical" name="LKPOINTS_OPT"> F  </i>
  </separator>
 </parameters>
 <atominfo>
  <atoms>      48 </atoms>
  <types>       1 </types>
  <array name="atoms" >
   <dimension dim="1">ion</dimension>
   <field type="string">element</field>
   <field type="int">atomtype</field>
   <set>
    <rc><c>Si</c><c>   1</c></rc>
    <rc><c>Si</c><c>   1</c></rc>
    <rc><c>Si</c><c>   1</c></rc>
    <rc><c>Si</c><c>   1</c></rc>
    <rc><c>Si</c><c>   1</c></rc>
    <rc><c>Si</c><c>   1</c></rc>
    <rc><c>Si</c><c>   1</c></rc>
    <rc><c>Si</c><c>   1</c></rc>
    <rc><c>Si</c><c>   1</c></rc>
    <rc><c>Si</c><c>   1</c></rc>
    <rc><c>Si</c><c>   1</c></rc>
    <rc><c>Si</c><c>   1</c></rc>
    <rc><c>Si</c><c>   1</c></rc>
    <rc><c>Si</c><c>   1</c></rc>
    <rc><c>Si</c><c>   1</c></rc>
    <rc><c>Si</c><c>   1</c></rc>
    <rc><c>Si</c><c>   1</c></rc>
    <rc><c>Si</c><c>   1</c></rc>
    <rc><c>Si</c><c>   1</c></rc>
    <rc><c>Si</c><c>   1</c></rc>
    <rc><c>Si</c><c>   1</c></rc>
    <rc><c>Si</c><c>   1</c></rc>
    <rc><c>Si</c><c>   1</c></rc>
    <rc><c>Si</c><c>   1</c></rc>
    <rc><c>Si</c><c>   1</c></rc>
    <rc><c>Si</c><c>   1</c></rc>
    <rc><c>Si</c><c>   1</c></rc>
    <rc><c>Si</c><c>   1</c></rc>
    <rc><c>Si</c><c>   1</c></rc>
    <rc><c>Si</c><c>   1</c></rc>
    <rc><c>Si</c><c>   1</c></rc>
    <rc><c>Si</c><c>   1</c></rc>
    <rc><c>Si</c><c>   1</c></rc>
    <rc><c>Si</c><c>   1</c></rc>
    <rc><c>Si</c><c>   1</c></rc>
    <rc><c>Si</c><c>   1</c></rc>
    <rc><c>Si</c><c>   1</c></rc>
    <rc><c>Si</c><c>   1</c></rc>
    <rc><c>Si</c><c>   1</c></rc>
    <rc><c>Si</c><c>   1</c></rc>
    <rc><c>Si</c><c>   1</c></rc>
    <rc><c>Si</c><c>   1</c></rc>
    <rc><c>Si</c><c>   1</c></rc>
    <rc><c>Si</c><c>   1</c></rc>
    <rc><c>Si</c><c>   1</c></rc>
    <rc><c>Si</c><c>   1</c></rc>
    <rc><c>Si</c><c>   1</c></rc>
    <rc><c>Si</c><c>   1</c></rc>
   </set>
  </array>
  <array name="atomtypes" >
   <dimension dim="1">type</dimension>
   <field type="int">atomspertype</field>
   <field type="string">element</field>
   <field>mass</field>
   <field>valence</field>
   <field type="string">pseudopotential</field>
   <set>
    <rc><c>  48</c><c>Si</c><c>     28.08500000</c><c>      4.00000000</c><c>  PAW_PBE Si 05Jan2001                  </c></rc>
   </set>
  </array>
 </atominfo>
 <structure name="initialpos" >
  <crystal>
   <varray name="basis" >
    <v>      12.14408588       0.00000000       0.00000000 </v>
    <v>      -9.71526814       7.28645134       0.00000000 </v>
    <v>       0.00000000       0.00000000       9.05166912 </v>
   </varray>
   <i name="volume">    800.95767830 </i>
   <varray name="rec_basis" >
    <v>       0.08234461       0.10979281       0.00000000 </v>
    <v>       0.00000000       0.13724102       0.00000000 </v>
    <v>       0.00000000       0.00000000       0.11047686 </v>
   </varray>
  </crystal>
  <varray name="positions" >
   <v>       0.34519792       0.67259896       0.00000000 </v>
   <v>       0.67853129       0.83926570       0.29999992 </v>
   <v>       0.01186466       0.00593245       0.59999984 </v>
   <v>       0.01186457       0.00593229       0.00000000 </v>
   <v>       0.34519795       0.17259903       0.29999992 </v>
   <v>       0.67853135       0.33926579       0.59999984 </v>
   <v>       0.67853135       0.33926567       0.00000000 </v>
   <v>       0.01186466       0.50593239       0.29999992 </v>
   <v>       0.34519804       0.67259914       0.59999984 </v>
   <v>       0.09519780       0.92259896       0.14999996 </v>
   <v>       0.42853129       0.08926570       0.44999999 </v>
   <v>       0.76186478       0.25593257       0.74999982 </v>
   <v>       0.42853129       0.58926570       0.14999996 </v>
   <v>       0.76186466       0.75593245       0.44999999 </v>
   <v>       0.09519815       0.92259926       0.74999982 </v>
   <v>       0.76186460       0.25593230       0.14999996 </v>
   <v>       0.09519804       0.42259908       0.44999999 </v>
   <v>       0.42853153       0.58926588       0.74999982 </v>
   <v>       0.17853121       0.83926558       0.00000000 </v>
   <v>       0.51186460       0.00593233       0.29999992 </v>
   <v>       0.84519798       0.17259896       0.59999984 </v>
   <v>       0.51186460       0.50593227       0.00000000 </v>
   <v>       0.84519798       0.67259908       0.29999992 </v>
   <v>       0.17853141       0.83926582       0.59999984 </v>
   <v>       0.84519798       0.17259899       0.00000000 </v>
   <v>       0.17853129       0.33926573       0.29999992 </v>
   <v>       0.51186466       0.50593245       0.59999984 </v>
   <v>       0.26186460       0.75593233       0.14999996 </v>
   <v>       0.59519798       0.92259908       0.44999999 </v>
   <v>       0.92853147       0.08926594       0.74999982 </v>
   <v>       0.59519798       0.42259899       0.14999996 </v>
   <v>       0.92853141       0.58926576       0.44999999 </v>
   <v>       0.26186490       0.75593257       0.74999982 </v>
   <v>       0.92853135       0.08926568       0.14999996 </v>
   <v>       0.26186466       0.25593239       0.44999999 </v>
   <v>       0.59519815       0.42259923       0.74999982 </v>
   <v>       0.96284664       0.98938477       0.74999982 </v>
   <v>       0.57395762       0.87827355       0.84999984 </v>
   <v>       0.18506861       0.76716238       0.94999999 </v>
   <v>       0.46284664       0.48938474       0.74999982 </v>
   <v>       0.07395760       0.37827355       0.84999984 </v>
   <v>       0.68506861       0.26716232       0.94999999 </v>
   <v>       0.76840210       0.68382913       0.79999989 </v>
   <v>       0.37951308       0.57271797       0.89999992 </v>
   <v>       0.99062407       0.46160674       0.99999994 </v>
   <v>       0.26840210       0.18382914       0.79999989 </v>
   <v>       0.87951308       0.07271797       0.89999992 </v>
   <v>       0.49062407       0.96160680       0.99999994 </v>
  </varray>
 </structure>
 <calculation>
  <scstep>
   <time name="dav">   10.59   10.71</time>
   <time name="total">   11.05   11.17</time>
   <energy>
    <i name="alphaZ">     96.83389705 </i>
    <i name="ewald">  -4995.97766704 </i>
    <i name="hartreedc">   -722.94066442 </i>
    <i name="XCdc">   -423.78816292 </i>
    <i name="pawpsdc">   4229.94053997 </i>
    <i name="pawaedc">  -3385.46287860 </i>
    <i name="eentropy">     -0.00067878 </i>
    <i name="bandstr">   1239.01921564 </i>
    <i name="atom">   4947.19793617 </i>
    <i name="e_fr_energy">    984.82153707 </i>
    <i name="e_wo_entrp">    984.82221585 </i>
    <i name="e_0_energy">    984.82187646 </i>
   </energy>
  </scstep>
  <scstep>
   <time name="dav">   12.03   12.17</time>
   <time name="total">   12.03   12.17</time>
   <energy>
    <i name="e_fr_energy">     16.47957584 </i>
    <i name="e_wo_entrp">     16.48056597 </i>
    <i name="e_0_energy">     16.48007091 </i>
   </energy>
  </scstep>
  <scstep>
   <time name="dav">   12.77   12.91</time>
   <time name="total">   12.77   12.92</time>
   <energy>
    <i name="e_fr_energy">    -75.65379335 </i>
    <i name="e_wo_entrp">    -75.65292676 </i>
    <i name="e_0_energy">    -75.65336006 </i>
   </energy>
  </scstep>
  <scstep>
   <time name="dav">   13.26   13.41</time>
   <time name="total">   13.26   13.42</time>
   <energy>
    <i name="e_fr_energy">    -80.87783652 </i>
    <i name="e_wo_entrp">    -80.87715126 </i>
    <i name="e_0_energy">    -80.87749389 </i>
   </energy>
  </scstep>
  <scstep>
   <time name="dav">   12.83   12.97</time>
   <time name="total">   13.50   13.65</time>
   <energy>
    <i name="e_fr_energy">    -81.06324997 </i>
    <i name="e_wo_entrp">    -81.06253957 </i>
    <i name="e_0_energy">    -81.06289477 </i>
   </energy>
  </scstep>
  <scstep>
   <time name="dav">   12.00   12.14</time>
   <time name="total">   13.10   13.24</time>
   <energy>
    <i name="e_fr_energy">    -47.43440347 </i>
    <i name="e_wo_entrp">    -47.43332700 </i>
    <i name="e_0_energy">    -47.43386523 </i>
   </energy>
  </scstep>
  <scstep>
   <time name="dav">   11.40   11.53</time>
   <time name="total">   12.48   12.62</time>
   <energy>
    <i name="e_fr_energy">    -46.12967976 </i>
    <i name="e_wo_entrp">    -46.12853837 </i>
    <i name="e_0_energy">    -46.12910907 </i>
   </energy>
  </scstep>
  <scstep>
   <time name="dav">   12.11   12.25</time>
   <time name="total">   13.19   13.34</time>
   <energy>
    <i name="e_fr_energy">    -45.77287730 </i>
    <i name="e_wo_entrp">    -45.77227692 </i>
    <i name="e_0_energy">    -45.77257711 </i>
   </energy>
  </scstep>
  <scstep>
   <time name="dav">   11.90   12.04</time>
   <time name="total">   12.98   13.13</time>
   <energy>
    <i name="e_fr_energy">    -45.46437628 </i>
    <i name="e_wo_entrp">    -45.46338794 </i>
    <i name="e_0_energy">    -45.46388211 </i>
   </energy>
  </scstep>
  <scstep>
   <time name="dav">   11.98   12.12</time>
   <time name="total">   13.07   13.21</time>
   <energy>
    <i name="e_fr_energy">    -45.16619718 </i>
    <i name="e_wo_entrp">    -45.16491337 </i>
    <i name="e_0_energy">    -45.16555528 </i>
   </energy>
  </scstep>
  <scstep>
   <time name="dav">   12.14   12.29</time>
   <time name="total">   13.25   13.41</time>
   <energy>
    <i name="e_fr_energy">    -45.18864776 </i>
    <i name="e_wo_entrp">    -45.18762645 </i>
    <i name="e_0_energy">    -45.18813711 </i>
   </energy>
  </scstep>
  <scstep>
   <time name="dav">   12.00   12.13</time>
   <time name="total">   13.08   13.23</time>
   <energy>
    <i name="e_fr_energy">    -45.18682536 </i>
    <i name="e_wo_entrp">    -45.18575481 </i>
    <i name="e_0_energy">    -45.18629008 </i>
   </energy>
  </scstep>
  <scstep>
   <time name="dav">   12.38   12.53</time>
   <time name="total">   13.47   13.62</time>
   <energy>
    <i name="e_fr_energy">    -45.18866899 </i>
    <i name="e_wo_entrp">    -45.18755384 </i>
    <i name="e_0_energy">    -45.18811142 </i>
   </energy>
  </scstep>
  <scstep>
   <time name="dav">   12.04   12.18</time>
   <time name="total">   13.16   13.31</time>
   <energy>
    <i name="e_fr_energy">    -45.18702260 </i>
    <i name="e_wo_entrp">    -45.18594822 </i>
    <i name="e_0_energy">    -45.18648541 </i>
   </energy>
  </scstep>
  <scstep>
   <time name="dav">   11.63   11.76</time>
   <time name="total">   12.71   12.85</time>
   <energy>
    <i name="e_fr_energy">    -45.18717580 </i>
    <i name="e_wo_entrp">    -45.18609940 </i>
    <i name="e_0_energy">    -45.18663760 </i>
   </energy>
  </scstep>
  <scstep>
   <time name="dav">   12.37   12.50</time>
   <time name="total">   13.45   13.60</time>
   <energy>
    <i name="e_fr_energy">    -45.18718658 </i>
    <i name="e_wo_entrp">    -45.18610687 </i>
    <i name="e_0_energy">    -45.18664672 </i>
   </energy>
  </scstep>
  <scstep>
   <time name="dav">   12.13   12.27</time>
   <time name="total">   13.21   13.36</time>
   <energy>
    <i name="e_fr_energy">    -45.18717135 </i>
    <i name="e_wo_entrp">    -45.18609128 </i>
    <i name="e_0_energy">    -45.18663131 </i>
   </energy>
  </scstep>
  <scstep>
   <time name="dav">   12.05   12.19</time>
   <time name="total">   13.14   13.28</time>
   <energy>
    <i name="e_fr_energy">    -45.18716995 </i>
    <i name="e_wo_entrp">    -45.18609044 </i>
    <i name="e_0_energy">    -45.18663019 </i>
   </energy>
  </scstep>
  <scstep>
   <time name="dav">   11.90   12.03</time>
   <time name="total">   12.99   13.13</time>
   <energy>
    <i name="e_fr_energy">    -45.18716984 </i>
    <i name="e_wo_entrp">    -45.18609043 </i>
    <i name="e_0_energy">    -45.18663013 </i>
   </energy>
  </scstep>
  <scstep>
   <time name="dav">   12.29   12.43</time>
   <time name="total">   13.41   13.56</time>
   <energy>
    <i name="e_fr_energy">    -45.18717050 </i>
    <i name="e_wo_entrp">    -45.18609101 </i>
    <i name="e_0_energy">    -45.18663076 </i>
   </energy>
  </scstep>
  <scstep>
   <time name="dav">    8.58    8.68</time>
   <time name="total">    9.68    9.79</time>
   <energy>
    <i name="e_fr_energy">    -45.18717062 </i>
    <i name="e_wo_entrp">    -45.18609119 </i>
    <i name="e_0_energy">    -45.18663091 </i>
   </energy>
  </scstep>
  <scstep>
   <time name="dav">    7.93    8.02</time>
   <time name="total">    9.02    9.11</time>
   <energy>
    <i name="e_fr_energy">    -45.18717052 </i>
    <i name="e_wo_entrp">    -45.18609116 </i>
    <i name="e_0_energy">    -45.18663084 </i>
   </energy>
  </scstep>
  <scstep>
   <time name="dav">    7.72    7.81</time>
   <time name="total">    8.14    8.23</time>
   <energy>
    <i name="alphaZ">     96.83389705 </i>
    <i name="ewald">  -4995.97766704 </i>
    <i name="hartreedc">   -885.38306617 </i>
    <i name="XCdc">   -405.74585670 </i>
    <i name="pawpsdc">  40468.11447897 </i>
    <i name="pawaedc"> -39636.85643226 </i>
    <i name="eentropy">     -0.00107933 </i>
    <i name="bandstr">    366.63061883 </i>
    <i name="atom">   4947.19793617 </i>
    <i name="e_fr_energy">    -45.18717047 </i>
    <i name="e_wo_entrp">    -45.18609114 </i>
    <i name="e_0_energy">    -45.18663080 </i>
   </energy>
  </scstep>
  <structure>
   <crystal>
    <varray name="basis" >
     <v>      12.14408588       0.00000000       0.00000000 </v>
     <v>      -9.71526814       7.28645134       0.00000000 </v>
     <v>       0.00000000       0.00000000       9.05166912 </v>
    </varray>
    <i name="volume">    800.95767830 </i>
    <varray name="rec_basis" >
     <v>       0.08234461       0.10979281       0.00000000 </v>
     <v>       0.00000000       0.13724102       0.00000000 </v>
     <v>       0.00000000       0.00000000       0.11047686 </v>
    </varray>
   </crystal>
   <varray name="positions" >
    <v>       0.34519792       0.67259896       0.00000000 </v>
    <v>       0.67853129       0.83926570       0.29999992 </v>
    <v>       0.01186466       0.00593245       0.59999984 </v>
    <v>       0.01186457       0.00593229       0.00000000 </v>
    <v>       0.34519795       0.17259903       0.29999992 </v>
    <v>       0.67853135       0.33926579       0.59999984 </v>
    <v>       0.67853135       0.33926567       0.00000000 </v>
    <v>       0.01186466       0.50593239       0.29999992 </v>
    <v>       0.34519804       0.67259914       0.59999984 </v>
    <v>       0.09519780       0.92259896       0.14999996 </v>
    <v>       0.42853129       0.08926570       0.44999999 </v>
    <v>       0.76186478       0.25593257       0.74999982 </v>
    <v>       0.42853129       0.58926570       0.14999996 </v>
    <v>       0.76186466       0.75593245       0.44999999 </v>
    <v>       0.09519815       0.92259926       0.74999982 </v>
    <v>       0.76186460       0.25593230       0.14999996 </v>
    <v>       0.09519804       0.42259908       0.44999999 </v>
    <v>       0.42853153       0.58926588       0.74999982 </v>
    <v>       0.17853121       0.83926558       0.00000000 </v>
    <v>       0.51186460       0.00593233       0.29999992 </v>
    <v>       0.84519798       0.17259896       0.59999984 </v>
    <v>       0.51186460       0.50593227       0.00000000 </v>
    <v>       0.84519798       0.67259908       0.29999992 </v>
    <v>       0.17853141       0.83926582       0.59999984 </v>
    <v>       0.84519798       0.17259899       0.00000000 </v>
    <v>       0.17853129       0.33926573       0.29999992 </v>
    <v>       0.51186466       0.50593245       0.59999984 </v>
    <v>       0.26186460       0.75593233       0.14999996 </v>
    <v>       0.59519798       0.92259908       0.44999999 </v>
    <v>       0.92853147       0.08926594       0.74999982 </v>
    <v>       0.59519798       0.42259899       0.14999996 </v>
    <v>       0.92853141       0.58926576       0.44999999 </v>
    <v>       0.26186490       0.75593257       0.74999982 </v>
    <v>       0.92853135       0.08926568       0.14999996 </v>
    <v>       0.26186466       0.25593239       0.44999999 </v>
    <v>       0.59519815       0.42259923       0.74999982 </v>
    <v>       0.96284664       0.98938477       0.74999982 </v>
    <v>       0.57395762       0.87827355       0.84999984 </v>
    <v>       0.18506861       0.76716238       0.94999999 </v>
    <v>       0.46284664       0.48938474       0.74999982 </v>
    <v>       0.07395760       0.37827355       0.84999984 </v>
    <v>       0.68506861       0.26716232       0.94999999 </v>
    <v>       0.76840210       0.68382913       0.79999989 </v>
    <v>       0.37951308       0.57271797       0.89999992 </v>
    <v>       0.99062407       0.46160674       0.99999994 </v>
    <v>       0.26840210       0.18382914       0.79999989 </v>
    <v>       0.87951308       0.07271797       0.89999992 </v>
    <v>       0.49062407       0.96160680       0.99999994 </v>
   </varray>
  </structure>
  <varray name="forces" >
   <v>     -10.47751699       2.95253913       8.52665836 </v>
   <v>       0.02766474      -0.06458950       0.10127723 </v>
   <v>      15.69874066       5.00443927     -52.08539389 </v>
   <v>       1.65834484      -0.14759135       0.99799392 </v>
   <v>       0.03457563      -0.04891262      -0.02853006 </v>
   <v>       0.02116883       0.13593073      -0.17364919 </v>
   <v>    -117.32007883      77.95239734      67.82688246 </v>
   <v>      -0.24610966       0.06941056       0.50018717 </v>
   <v>      -0.07874377       0.05814825      -0.50982309 </v>
   <v>      -0.31663880       0.22811489       0.15823381 </v>
   <v>      -0.19010958      -0.00502718      -0.00704068 </v>
   <v>       2.13967946      -0.08097622      -3.02414951 </v>
   <v>       0.30607785       0.14948594       1.17974372 </v>
   <v>       0.05093807      -0.18674728      -0.58779631 </v>
   <v>       3.73599984      -5.87520602      -1.06534968 </v>
   <v>       0.48910477      -1.78123942       4.32135486 </v>
   <v>      -0.13957215      -0.04927569      -0.27493125 </v>
   <v>     -13.55245804      20.26066002     -52.84114609 </v>
   <v>    -117.32007883      77.95239734      67.82688246 </v>
   <v>      -0.24610966       0.06941056       0.50018717 </v>
   <v>      -0.07874377       0.05814825      -0.50982309 </v>
   <v>       1.65834484      -0.14759135       0.99799392 </v>
   <v>       0.03457563      -0.04891262      -0.02853006 </v>
   <v>       0.02116883       0.13593073      -0.17364919 </v>
   <v>     -10.47751699       2.95253913       8.52665836 </v>
   <v>       0.02766474      -0.06458950       0.10127723 </v>
   <v>      15.69874066       5.00443927     -52.08539389 </v>
   <v>       0.48910477      -1.78123942       4.32135486 </v>
   <v>      -0.13957215      -0.04927569      -0.27493125 </v>
   <v>     -13.55245804      20.26066002     -52.84114609 </v>
   <v>      -0.31663880       0.22811489       0.15823381 </v>
   <v>      -0.19010958      -0.00502718      -0.00704068 </v>
   <v>       2.13967946      -0.08097622      -3.02414951 </v>
   <v>       0.30607785       0.14948594       1.17974372 </v>
   <v>       0.05093807      -0.18674728      -0.58779631 </v>
   <v>       3.73599984      -5.87520602      -1.06534968 </v>
   <v>      10.05360575     -19.87227111      51.79756801 </v>
   <v>       0.85518677       1.70665329      -1.80152180 </v>
   <v>     111.20180927     -77.42040286     -67.17929240 </v>
   <v>      10.05360575     -19.87227111      51.79756801 </v>
   <v>       0.85518677       1.70665329      -1.80152180 </v>
   <v>     111.20180927     -77.42040286     -67.17929240 </v>
   <v>      -0.05089527       5.12551643       2.61616444 </v>
   <v>      -5.75131636     -10.41354018      43.52074512 </v>
   <v>       1.85054295       2.30248357      -1.96818515 </v>
   <v>      -0.05089527       5.12551643       2.61616444 </v>
   <v>      -5.75131636     -10.41354018      43.52074512 </v>
   <v>       1.85054295       2.30248357      -1.96818515 </v>
  </varray>
  <varray name="stress" >
   <v>     770.07538454    -353.46817642    -428.99238230 </v>
   <v>    -353.46818007     376.84736843     107.88678081 </v>
   <v>    -428.99239219     107.88678519     830.95667991 </v>
  </varray>
  <energy>
   <i name="e_fr_energy">    -45.18717047 </i>
   <i name="e_wo_entrp">    -45.18609114 </i>
   <i name="e_0_energy">    -45.18663080 </i>
  </energy>
  <time name="totalsc">  304.58  308.03</time>
  <eigenvalues>
   <array>
    <dimension dim="1">band</dimension>
    <dimension dim="2">kpoint</dimension>
    <dimension dim="3">spin</dimension>
    <field>eigene</field>
    <field>occ</field>
    <set>
     <set comment="spin 1">
      <set comment="kpoint 1">
       <r>   -7.9790    1.0000 </r>
       <r>   -7.1889    1.0000 </r>
       <r>   -7.1797    1.0000 </r>
       <r>   -6.2183    1.0000 </r>
       <r>   -5.9904    1.0000 </r>
       <r>   -5.1448    1.0000 </r>
       <r>   -4.0239    1.0000 </r>
       <r>   -3.7800    1.0000 </r>
       <r>   -3.7356    1.0000 </r>
       <r>   -3.6824    1.0000 </r>
       <r>   -3.4039    1.0000 </r>
       <r>   -3.3211    1.0000 </r>
       <r>   -2.9693    1.0000 </r>
       <r>   -2.8064    1.0000 </r>
       <r>   -2.7818    1.0000 </r>
       <r>   -2.4931    1.0000 </r>
       <r>   -2.2848    1.0000 </r>
       <r>   -2.1056    1.0000 </r>
       <r>   -2.0183    1.0000 </r>
       <r>   -1.7296    1.0000 </r>
       <r>   -1.6009    1.0000 </r>
       <r>   -1.5375    1.0000 </r>
       <r>   -1.4936    1.0000 </r>
       <r>   -1.2093    1.0000 </r>
       <r>   -0.7463    1.0000 </r>
       <r>   -0.5120    1.0000 </r>
       <r>   -0.4416    1.0000 </r>
       <r>   -0.2727    1.0000 </r>
       <r>   -0.2280    1.0000 </r>
       <r>   -0.0876    1.0000 </r>
       <r>   -0.0744    1.0000 </r>
       <r>    0.3128    1.0000 </r>
       <r>    0.3206    1.0000 </r>
       <r>    0.4497    1.0000 </r>
       <r>    0.6036    1.0000 </r>
       <r>    0.7391    1.0000 </r>
       <r>    1.0138    1.0000 </r>
       <r>    1.1511    1.0000 </r>
       <r>    1.2110    1.0000 </r>
       <r>    1.4719    1.0000 </r>
       <r>    1.5961    1.0000 </r>
       <r>    1.6020    1.0000 </r>
       <r>    1.6649    1.0000 </r>
       <r>    1.8864    1.0000 </r>
       <r>    1.9190    1.0000 </r>
       <r>    2.1697    1.0000 </r>
       <r>    2.2002    1.0000 </r>
       <r>    2.4706    1.0000 </r>
       <r>    2.5347    1.0000 </r>
       <r>    2.6945    1.0000 </r>
       <r>    2.8794    1.0000 </r>
       <r>    2.9616    1.0000 </r>
       <r>    3.1277    1.0000 </r>
       <r>    3.2278    1.0000 </r>
       <r>    3.3514    1.0000 </r>
       <r>    3.3825    1.0000 </r>
       <r>    3.5531    1.0000 </r>
       <r>    3.5816    1.0000 </r>
       <r>    3.8032    1.0000 </r>
       <r>    3.9908    1.0000 </r>
       <r>    4.0507    1.0000 </r>
       <r>    4.0958    1.0000 </r>
       <r>    4.3766    1.0000 </r>
       <r>    4.5623    1.0000 </r>
       <r>    4.5960    1.0000 </r>
       <r>    4.6764    1.0000 </r>
       <r>    4.7649    1.0000 </r>
       <r>    4.8242    1.0000 </r>
       <r>    4.9822    1.0000 </r>
       <r>    5.0017    1.0000 </r>
       <r>    5.0716    1.0000 </r>
       <r>    5.1564    1.0000 </r>
       <r>    5.3216    1.0000 </r>
       <r>    5.3689    1.0000 </r>
       <r>    5.4069    1.0000 </r>
       <r>    5.4816    1.0000 </r>
       <r>    5.5070    1.0000 </r>
       <r>    5.6431    1.0000 </r>
       <r>    5.7158    1.0000 </r>
       <r>    5.7593    1.0000 </r>
       <r>    5.8473    1.0000 </r>
       <r>    5.9565    1.0000 </r>
       <r>    5.9756    1.0000 </r>
       <r>    5.9877    1.0000 </r>
       <r>    6.1962    1.0000 </r>
       <r>    6.3646    1.0000 </r>
       <r>    6.4762    1.0000 </r>
       <r>    6.7742    1.0000 </r>
       <r>    7.0188    1.0000 </r>
       <r>    7.1082    1.0000 </r>
       <r>    7.2879    1.0000 </r>
       <r>    7.3265    1.0000 </r>
       <r>    7.5817    1.0000 </r>
       <r>    7.7323    1.0000 </r>
       <r>    7.8610    1.0000 </r>
       <r>    7.9373    1.0000 </r>
       <r>    8.0117    1.0000 </r>
       <r>    8.1184    0.0496 </r>
       <r>    8.3435    0.0000 </r>
       <r>    8.3937    0.0000 </r>
       <r>    8.3971    0.0000 </r>
       <r>    8.5162    0.0000 </r>
       <r>    8.5841    0.0000 </r>
       <r>    8.6654    0.0000 </r>
       <r>    8.7442    0.0000 </r>
       <r>    8.8694    0.0000 </r>
       <r>    9.0025    0.0000 </r>
       <r>    9.0478    0.0000 </r>
       <r>    9.0895    0.0000 </r>
       <r>    9.1691    0.0000 </r>
       <r>    9.2424    0.0000 </r>
       <r>    9.3010    0.0000 </r>
       <r>    9.3711    0.0000 </r>
       <r>    9.5592    0.0000 </r>
       <r>    9.7914    0.0000 </r>
       <r>    9.8343    0.0000 </r>
      </set>
      <set comment="kpoint 2">
       <r>   -7.8842    1.0000 </r>
       <r>   -7.3325    1.0000 </r>
       <r>   -7.0669    1.0000 </r>
       <r>   -6.2762    1.0000 </r>
       <r>   -6.1008    1.0000 </r>
       <r>   -5.3653    1.0000 </r>
       <r>   -3.9795    1.0000 </r>
       <r>   -3.6719    1.0000 </r>
       <r>   -3.6219    1.0000 </r>
       <r>   -3.5360    1.0000 </r>
       <r>   -3.2501    1.0000 </r>
       <r>   -3.2349    1.0000 </r>
       <r>   -2.9203    1.0000 </r>
       <r>   -2.8187    1.0000 </r>
       <r>   -2.6311    1.0000 </r>
       <r>   -2.5307    1.0000 </r>
       <r>   -2.3568    1.0000 </r>
       <r>   -2.2279    1.0000 </r>
       <r>   -2.1760    1.0000 </r>
       <r>   -1.9657    1.0000 </r>
       <r>   -1.7276    1.0000 </r>
       <r>   -1.4370    1.0000 </r>
       <r>   -1.3973    1.0000 </r>
       <r>   -1.0917    1.0000 </r>
       <r>   -0.5439    1.0000 </r>
       <r>   -0.5351    1.0000 </r>
       <r>   -0.3206    1.0000 </r>
       <r>   -0.2885    1.0000 </r>
       <r>   -0.1735    1.0000 </r>
       <r>   -0.0634    1.0000 </r>
       <r>    0.0380    1.0000 </r>
       <r>    0.2872    1.0000 </r>
       <r>    0.4343    1.0000 </r>
       <r>    0.4607    1.0000 </r>
       <r>    0.5786    1.0000 </r>
       <r>    0.6798    1.0000 </r>
       <r>    0.7641    1.0000 </r>
       <r>    0.9046    1.0000 </r>
       <r>    1.1565    1.0000 </r>
       <r>    1.2580    1.0000 </r>
       <r>    1.4518    1.0000 </r>
       <r>    1.5934    1.0000 </r>
       <r>    1.6068    1.0000 </r>
       <r>    1.9490    1.0000 </r>
       <r>    2.0894    1.0000 </r>
       <r>    2.1370    1.0000 </r>
       <r>    2.2607    1.0000 </r>
       <r>    2.3522    1.0000 </r>
       <r>    2.4898    1.0000 </r>
       <r>    2.7105    1.0000 </r>
       <r>    2.7664    1.0000 </r>
       <r>    3.0909    1.0000 </r>
       <r>    3.2769    1.0000 </r>
       <r>    3.3683    1.0000 </r>
       <r>    3.4140    1.0000 </r>
       <r>    3.5136    1.0000 </r>
       <r>    3.6023    1.0000 </r>
       <r>    3.6630    1.0000 </r>
       <r>    3.8332    1.0000 </r>
       <r>    3.9384    1.0000 </r>
       <r>    4.1253    1.0000 </r>
       <r>    4.1423    1.0000 </r>
       <r>    4.2916    1.0000 </r>
       <r>    4.3688    1.0000 </r>
       <r>    4.5432    1.0000 </r>
       <r>    4.5708    1.0000 </r>
       <r>    4.5885    1.0000 </r>
       <r>    4.7291    1.0000 </r>
       <r>    4.8400    1.0000 </r>
       <r>    4.8573    1.0000 </r>
       <r>    4.9760    1.0000 </r>
       <r>    5.0271    1.0000 </r>
       <r>    5.1324    1.0000 </r>
       <r>    5.2484    1.0000 </r>
       <r>    5.2555    1.0000 </r>
       <r>    5.3867    1.0000 </r>
       <r>    5.4658    1.0000 </r>
       <r>    5.4977    1.0000 </r>
       <r>    5.7031    1.0000 </r>
       <r>    5.7465    1.0000 </r>
       <r>    5.8988    1.0000 </r>
       <r>    5.9603    1.0000 </r>
       <r>    6.0547    1.0000 </r>
       <r>    6.0886    1.0000 </r>
       <r>    6.2726    1.0000 </r>
       <r>    6.4912    1.0000 </r>
       <r>    6.5030    1.0000 </r>
       <r>    6.9201    1.0000 </r>
       <r>    6.9373    1.0000 </r>
       <r>    7.0609    1.0000 </r>
       <r>    7.0858    1.0000 </r>
       <r>    7.5371    1.0000 </r>
       <r>    7.6585    1.0000 </r>
       <r>    7.7548    1.0000 </r>
       <r>    7.8700    1.0000 </r>
       <r>    8.0132    1.0000 </r>
       <r>    8.1743    0.0000 </r>
       <r>    8.2699    0.0000 </r>
       <r>    8.2777    0.0000 </r>
       <r>    8.4476    0.0000 </r>
       <r>    8.5763    0.0000 </r>
       <r>    8.6942    0.0000 </r>
       <r>    8.7414    0.0000 </r>
       <r>    8.7815    0.0000 </r>
       <r>    8.9114    0.0000 </r>
       <r>    9.0268    0.0000 </r>
       <r>    9.0908    0.0000 </r>
       <r>    9.1108    0.0000 </r>
       <r>    9.2567    0.0000 </r>
       <r>    9.3538    0.0000 </r>
       <r>    9.4182    0.0000 </r>
       <r>    9.5645    0.0000 </r>
       <r>    9.7002    0.0000 </r>
       <r>    9.7194    0.0000 </r>
       <r>    9.7945    0.0000 </r>
       <r>    9.9308    0.0000 </r>
      </set>
      <set comment="kpoint 3">
       <r>   -7.8842    1.0000 </r>
       <r>   -7.3325    1.0000 </r>
       <r>   -7.0671    1.0000 </r>
       <r>   -6.2765    1.0000 </r>
       <r>   -6.1004    1.0000 </r>
       <r>   -5.3646    1.0000 </r>
       <r>   -3.9798    1.0000 </r>
       <r>   -3.6712    1.0000 </r>
       <r>   -3.6192    1.0000 </r>
       <r>   -3.5378    1.0000 </r>
       <r>   -3.2502    1.0000 </r>
       <r>   -3.2373    1.0000 </r>
       <r>   -2.9172    1.0000 </r>
       <r>   -2.8364    1.0000 </r>
       <r>   -2.6337    1.0000 </r>
       <r>   -2.5269    1.0000 </r>
       <r>   -2.3253    1.0000 </r>
       <r>   -2.2293    1.0000 </r>
       <r>   -2.2256    1.0000 </r>
       <r>   -1.8828    1.0000 </r>
       <r>   -1.7743    1.0000 </r>
       <r>   -1.3872    1.0000 </r>
       <r>   -1.3661    1.0000 </r>
       <r>   -1.1775    1.0000 </r>
       <r>   -0.5560    1.0000 </r>
       <r>   -0.5427    1.0000 </r>
       <r>   -0.3599    1.0000 </r>
       <r>   -0.2188    1.0000 </r>
       <r>   -0.1661    1.0000 </r>
       <r>   -0.1619    1.0000 </r>
       <r>    0.0841    1.0000 </r>
       <r>    0.2294    1.0000 </r>
       <r>    0.4514    1.0000 </r>
       <r>    0.4878    1.0000 </r>
       <r>    0.5390    1.0000 </r>
       <r>    0.7615    1.0000 </r>
       <r>    0.7659    1.0000 </r>
       <r>    0.9709    1.0000 </r>
       <r>    1.1558    1.0000 </r>
       <r>    1.3665    1.0000 </r>
       <r>    1.3758    1.0000 </r>
       <r>    1.5835    1.0000 </r>
       <r>    1.6764    1.0000 </r>
       <r>    1.8551    1.0000 </r>
       <r>    2.0055    1.0000 </r>
       <r>    2.0983    1.0000 </r>
       <r>    2.3101    1.0000 </r>
       <r>    2.3874    1.0000 </r>
       <r>    2.4475    1.0000 </r>
       <r>    2.7316    1.0000 </r>
       <r>    2.7975    1.0000 </r>
       <r>    3.0887    1.0000 </r>
       <r>    3.2580    1.0000 </r>
       <r>    3.3421    1.0000 </r>
       <r>    3.3756    1.0000 </r>
       <r>    3.4784    1.0000 </r>
       <r>    3.5214    1.0000 </r>
       <r>    3.6568    1.0000 </r>
       <r>    3.8593    1.0000 </r>
       <r>    3.9039    1.0000 </r>
       <r>    4.1229    1.0000 </r>
       <r>    4.1985    1.0000 </r>
       <r>    4.3482    1.0000 </r>
       <r>    4.4020    1.0000 </r>
       <r>    4.5532    1.0000 </r>
       <r>    4.6259    1.0000 </r>
       <r>    4.6849    1.0000 </r>
       <r>    4.7394    1.0000 </r>
       <r>    4.7941    1.0000 </r>
       <r>    4.8794    1.0000 </r>
       <r>    4.9332    1.0000 </r>
       <r>    4.9741    1.0000 </r>
       <r>    5.1302    1.0000 </r>
       <r>    5.2527    1.0000 </r>
       <r>    5.2919    1.0000 </r>
       <r>    5.3789    1.0000 </r>
       <r>    5.4686    1.0000 </r>
       <r>    5.5285    1.0000 </r>
       <r>    5.7086    1.0000 </r>
       <r>    5.7129    1.0000 </r>
       <r>    5.8766    1.0000 </r>
       <r>    5.9697    1.0000 </r>
       <r>    6.0599    1.0000 </r>
       <r>    6.1307    1.0000 </r>
       <r>    6.3521    1.0000 </r>
       <r>    6.4526    1.0000 </r>
       <r>    6.5087    1.0000 </r>
       <r>    6.8416    1.0000 </r>
       <r>    6.9545    1.0000 </r>
       <r>    7.0309    1.0000 </r>
       <r>    7.0596    1.0000 </r>
       <r>    7.5142    1.0000 </r>
       <r>    7.7174    1.0000 </r>
       <r>    7.7597    1.0000 </r>
       <r>    7.8472    1.0000 </r>
       <r>    7.9737    1.0000 </r>
       <r>    8.0868    0.9977 </r>
       <r>    8.2049    0.0000 </r>
       <r>    8.3512    0.0000 </r>
       <r>    8.3965    0.0000 </r>
       <r>    8.6214    0.0000 </r>
       <r>    8.6352    0.0000 </r>
       <r>    8.7452    0.0000 </r>
       <r>    8.8295    0.0000 </r>
       <r>    8.9210    0.0000 </r>
       <r>    9.0165    0.0000 </r>
       <r>    9.0968    0.0000 </r>
       <r>    9.2224    0.0000 </r>
       <r>    9.2802    0.0000 </r>
       <r>    9.3291    0.0000 </r>
       <r>    9.4056    0.0000 </r>
       <r>    9.5596    0.0000 </r>
       <r>    9.6377    0.0000 </r>
       <r>    9.6916    0.0000 </r>
       <r>    9.8124    0.0000 </r>
       <r>    9.8664    0.0000 </r>
      </set>
      <set comment="kpoint 4">
       <r>   -7.6316    1.0000 </r>
       <r>   -7.6316    1.0000 </r>
       <r>   -6.7408    1.0000 </r>
       <r>   -6.7408    1.0000 </r>
       <r>   -5.7778    1.0000 </r>
       <r>   -5.7778    1.0000 </r>
       <r>   -3.8225    1.0000 </r>
       <r>   -3.8225    1.0000 </r>
       <r>   -3.3873    1.0000 </r>
       <r>   -3.3873    1.0000 </r>
       <r>   -3.1371    1.0000 </r>
       <r>   -3.1371    1.0000 </r>
       <r>   -2.8563    1.0000 </r>
       <r>   -2.8563    1.0000 </r>
       <r>   -2.7013    1.0000 </r>
       <r>   -2.7013    1.0000 </r>
       <r>   -2.3129    1.0000 </r>
       <r>   -2.3129    1.0000 </r>
       <r>   -1.9910    1.0000 </r>
       <r>   -1.9910    1.0000 </r>
       <r>   -1.6064    1.0000 </r>
       <r>   -1.6064    1.0000 </r>
       <r>   -1.1178    1.0000 </r>
       <r>   -1.1178    1.0000 </r>
       <r>   -0.5478    1.0000 </r>
       <r>   -0.5478    1.0000 </r>
       <r>   -0.2992    1.0000 </r>
       <r>   -0.2992    1.0000 </r>
       <r>   -0.1707    1.0000 </r>
       <r>   -0.1707    1.0000 </r>
       <r>    0.0940    1.0000 </r>
       <r>    0.0940    1.0000 </r>
       <r>    0.3079    1.0000 </r>
       <r>    0.3079    1.0000 </r>
       <r>    0.5300    1.0000 </r>
       <r>    0.5300    1.0000 </r>
       <r>    0.7473    1.0000 </r>
       <r>    0.7473    1.0000 </r>
       <r>    1.2131    1.0000 </r>
       <r>    1.2131    1.0000 </r>
       <r>    1.5161    1.0000 </r>
       <r>    1.5161    1.0000 </r>
       <r>    2.0039    1.0000 </r>
       <r>    2.0040    1.0000 </r>
       <r>    2.1090    1.0000 </r>
       <r>    2.1090    1.0000 </r>
       <r>    2.5607    1.0000 </r>
       <r>    2.5607    1.0000 </r>
       <r>    2.8843    1.0000 </r>
       <r>    2.8843    1.0000 </r>
       <r>    2.9591    1.0000 </r>
       <r>    2.9591    1.0000 </r>
       <r>    3.2930    1.0000 </r>
       <r>    3.2930    1.0000 </r>
       <r>    3.4809    1.0000 </r>
       <r>    3.4809    1.0000 </r>
       <r>    3.5798    1.0000 </r>
       <r>    3.5798    1.0000 </r>
       <r>    3.6508    1.0000 </r>
       <r>    3.6508    1.0000 </r>
       <r>    3.8830    1.0000 </r>
       <r>    3.8830    1.0000 </r>
       <r>    4.0046    1.0000 </r>
       <r>    4.0046    1.0000 </r>
       <r>    4.2419    1.0000 </r>
       <r>    4.2419    1.0000 </r>
       <r>    4.4942    1.0000 </r>
       <r>    4.4942    1.0000 </r>
       <r>    4.7796    1.0000 </r>
       <r>    4.7796    1.0000 </r>
       <r>    4.8825    1.0000 </r>
       <r>    4.8825    1.0000 </r>
       <r>    5.1368    1.0000 </r>
       <r>    5.1368    1.0000 </r>
       <r>    5.3142    1.0000 </r>
       <r>    5.3142    1.0000 </r>
       <r>    5.4766    1.0000 </r>
       <r>    5.4766    1.0000 </r>
       <r>    5.7268    1.0000 </r>
       <r>    5.7268    1.0000 </r>
       <r>    6.0779    1.0000 </r>
       <r>    6.0779    1.0000 </r>
       <r>    6.2743    1.0000 </r>
       <r>    6.2743    1.0000 </r>
       <r>    6.6426    1.0000 </r>
       <r>    6.6426    1.0000 </r>
       <r>    6.9268    1.0000 </r>
       <r>    6.9268    1.0000 </r>
       <r>    7.2289    1.0000 </r>
       <r>    7.2289    1.0000 </r>
       <r>    7.4372    1.0000 </r>
       <r>    7.4372    1.0000 </r>
       <r>    7.7245    1.0000 </r>
       <r>    7.7245    1.0000 </r>
       <r>    7.9632    1.0000 </r>
       <r>    7.9632    1.0000 </r>
       <r>    8.2237    0.0000 </r>
       <r>    8.2237    0.0000 </r>
       <r>    8.5724    0.0000 </r>
       <r>    8.5724    0.0000 </r>
       <r>    8.7232    0.0000 </r>
       <r>    8.7232    0.0000 </r>
       <r>    8.8132    0.0000 </r>
       <r>    8.8132    0.0000 </r>
       <r>    8.9328    0.0000 </r>
       <r>    8.9328    0.0000 </r>
       <r>    9.1861    0.0000 </r>
       <r>    9.1861    0.0000 </r>
       <r>    9.3596    0.0000 </r>
       <r>    9.3596    0.0000 </r>
       <r>    9.4383    0.0000 </r>
       <r>    9.4383    0.0000 </r>
       <r>    9.5675    0.0000 </r>
       <r>    9.5675    0.0000 </r>
       <r>    9.8653    0.0000 </r>
       <r>    9.8661    0.0000 </r>
      </set>
      <set comment="kpoint 5">
       <r>   -7.6315    1.0000 </r>
       <r>   -7.6315    1.0000 </r>
       <r>   -6.7413    1.0000 </r>
       <r>   -6.7413    1.0000 </r>
       <r>   -5.7769    1.0000 </r>
       <r>   -5.7769    1.0000 </r>
       <r>   -3.8223    1.0000 </r>
       <r>   -3.8223    1.0000 </r>
       <r>   -3.3835    1.0000 </r>
       <r>   -3.3835    1.0000 </r>
       <r>   -3.1489    1.0000 </r>
       <r>   -3.1489    1.0000 </r>
       <r>   -2.8628    1.0000 </r>
       <r>   -2.8628    1.0000 </r>
       <r>   -2.6881    1.0000 </r>
       <r>   -2.6881    1.0000 </r>
       <r>   -2.3123    1.0000 </r>
       <r>   -2.3123    1.0000 </r>
       <r>   -2.0079    1.0000 </r>
       <r>   -2.0079    1.0000 </r>
       <r>   -1.5616    1.0000 </r>
       <r>   -1.5616    1.0000 </r>
       <r>   -1.0884    1.0000 </r>
       <r>   -1.0884    1.0000 </r>
       <r>   -0.6000    1.0000 </r>
       <r>   -0.6000    1.0000 </r>
       <r>   -0.4263    1.0000 </r>
       <r>   -0.4263    1.0000 </r>
       <r>   -0.1540    1.0000 </r>
       <r>   -0.1540    1.0000 </r>
       <r>    0.1385    1.0000 </r>
       <r>    0.1385    1.0000 </r>
       <r>    0.3419    1.0000 </r>
       <r>    0.3419    1.0000 </r>
       <r>    0.5337    1.0000 </r>
       <r>    0.5337    1.0000 </r>
       <r>    0.8312    1.0000 </r>
       <r>    0.8312    1.0000 </r>
       <r>    1.1819    1.0000 </r>
       <r>    1.1819    1.0000 </r>
       <r>    1.5547    1.0000 </r>
       <r>    1.5547    1.0000 </r>
       <r>    1.9315    1.0000 </r>
       <r>    1.9315    1.0000 </r>
       <r>    2.2319    1.0000 </r>
       <r>    2.2319    1.0000 </r>
       <r>    2.5552    1.0000 </r>
       <r>    2.5552    1.0000 </r>
       <r>    2.6364    1.0000 </r>
       <r>    2.6364    1.0000 </r>
       <r>    3.0175    1.0000 </r>
       <r>    3.0175    1.0000 </r>
       <r>    3.2863    1.0000 </r>
       <r>    3.2863    1.0000 </r>
       <r>    3.4399    1.0000 </r>
       <r>    3.4399    1.0000 </r>
       <r>    3.5830    1.0000 </r>
       <r>    3.5830    1.0000 </r>
       <r>    3.7229    1.0000 </r>
       <r>    3.7229    1.0000 </r>
       <r>    3.8606    1.0000 </r>
       <r>    3.8606    1.0000 </r>
       <r>    4.0086    1.0000 </r>
       <r>    4.0086    1.0000 </r>
       <r>    4.2406    1.0000 </r>
       <r>    4.2406    1.0000 </r>
       <r>    4.5892    1.0000 </r>
       <r>    4.5892    1.0000 </r>
       <r>    4.6883    1.0000 </r>
       <r>    4.6883    1.0000 </r>
       <r>    4.9053    1.0000 </r>
       <r>    4.9053    1.0000 </r>
       <r>    5.1779    1.0000 </r>
       <r>    5.1779    1.0000 </r>
       <r>    5.3775    1.0000 </r>
       <r>    5.3775    1.0000 </r>
       <r>    5.4472    1.0000 </r>
       <r>    5.4472    1.0000 </r>
       <r>    5.8403    1.0000 </r>
       <r>    5.8403    1.0000 </r>
       <r>    6.0827    1.0000 </r>
       <r>    6.0827    1.0000 </r>
       <r>    6.2007    1.0000 </r>
       <r>    6.2007    1.0000 </r>
       <r>    6.6324    1.0000 </r>
       <r>    6.6324    1.0000 </r>
       <r>    6.9528    1.0000 </r>
       <r>    6.9528    1.0000 </r>
       <r>    7.1319    1.0000 </r>
       <r>    7.1319    1.0000 </r>
       <r>    7.4703    1.0000 </r>
       <r>    7.4703    1.0000 </r>
       <r>    7.7209    1.0000 </r>
       <r>    7.7209    1.0000 </r>
       <r>    7.9907    1.0000 </r>
       <r>    7.9907    1.0000 </r>
       <r>    8.1255    0.0041 </r>
       <r>    8.1255    0.0041 </r>
       <r>    8.5486    0.0000 </r>
       <r>    8.5486    0.0000 </r>
       <r>    8.6982    0.0000 </r>
       <r>    8.6982    0.0000 </r>
       <r>    8.8514    0.0000 </r>
       <r>    8.8514    0.0000 </r>
       <r>    8.9128    0.0000 </r>
       <r>    8.9128    0.0000 </r>
       <r>    9.1372    0.0000 </r>
       <r>    9.1372    0.0000 </r>
       <r>    9.2501    0.0000 </r>
       <r>    9.2501    0.0000 </r>
       <r>    9.5182    0.0000 </r>
       <r>    9.5182    0.0000 </r>
       <r>    9.6129    0.0000 </r>
       <r>    9.6129    0.0000 </r>
       <r>    9.7933    0.0000 </r>
       <r>    9.7934    0.0000 </r>
      </set>
      <set comment="kpoint 6">
       <r>   -7.6355    1.0000 </r>
       <r>   -7.6275    1.0000 </r>
       <r>   -6.7604    1.0000 </r>
       <r>   -6.7208    1.0000 </r>
       <r>   -5.8101    1.0000 </r>
       <r>   -5.7448    1.0000 </r>
       <r>   -3.9073    1.0000 </r>
       <r>   -3.7135    1.0000 </r>
       <r>   -3.4268    1.0000 </r>
       <r>   -3.3346    1.0000 </r>
       <r>   -3.1939    1.0000 </r>
       <r>   -3.0799    1.0000 </r>
       <r>   -3.0169    1.0000 </r>
       <r>   -2.8448    1.0000 </r>
       <r>   -2.6987    1.0000 </r>
       <r>   -2.5132    1.0000 </r>
       <r>   -2.3904    1.0000 </r>
       <r>   -2.3270    1.0000 </r>
       <r>   -2.0351    1.0000 </r>
       <r>   -1.9341    1.0000 </r>
       <r>   -1.6719    1.0000 </r>
       <r>   -1.4759    1.0000 </r>
       <r>   -1.1905    1.0000 </r>
       <r>   -0.9831    1.0000 </r>
       <r>   -0.7569    1.0000 </r>
       <r>   -0.6446    1.0000 </r>
       <r>   -0.3617    1.0000 </r>
       <r>   -0.2908    1.0000 </r>
       <r>   -0.0973    1.0000 </r>
       <r>   -0.0828    1.0000 </r>
       <r>    0.1194    1.0000 </r>
       <r>    0.1398    1.0000 </r>
       <r>    0.3125    1.0000 </r>
       <r>    0.4481    1.0000 </r>
       <r>    0.4522    1.0000 </r>
       <r>    0.5254    1.0000 </r>
       <r>    0.7303    1.0000 </r>
       <r>    0.7678    1.0000 </r>
       <r>    1.1376    1.0000 </r>
       <r>    1.2133    1.0000 </r>
       <r>    1.5401    1.0000 </r>
       <r>    1.5792    1.0000 </r>
       <r>    1.8076    1.0000 </r>
       <r>    1.9700    1.0000 </r>
       <r>    2.1905    1.0000 </r>
       <r>    2.2708    1.0000 </r>
       <r>    2.4464    1.0000 </r>
       <r>    2.6463    1.0000 </r>
       <r>    2.7401    1.0000 </r>
       <r>    2.8430    1.0000 </r>
       <r>    2.9505    1.0000 </r>
       <r>    3.1714    1.0000 </r>
       <r>    3.2579    1.0000 </r>
       <r>    3.3650    1.0000 </r>
       <r>    3.4255    1.0000 </r>
       <r>    3.4514    1.0000 </r>
       <r>    3.4802    1.0000 </r>
       <r>    3.5944    1.0000 </r>
       <r>    3.6348    1.0000 </r>
       <r>    3.6485    1.0000 </r>
       <r>    3.7399    1.0000 </r>
       <r>    3.9898    1.0000 </r>
       <r>    4.0596    1.0000 </r>
       <r>    4.0689    1.0000 </r>
       <r>    4.2091    1.0000 </r>
       <r>    4.3067    1.0000 </r>
       <r>    4.4355    1.0000 </r>
       <r>    4.4451    1.0000 </r>
       <r>    4.7268    1.0000 </r>
       <r>    4.7830    1.0000 </r>
       <r>    4.7836    1.0000 </r>
       <r>    5.0047    1.0000 </r>
       <r>    5.0130    1.0000 </r>
       <r>    5.0999    1.0000 </r>
       <r>    5.2738    1.0000 </r>
       <r>    5.3679    1.0000 </r>
       <r>    5.6297    1.0000 </r>
       <r>    5.7152    1.0000 </r>
       <r>    5.7398    1.0000 </r>
       <r>    5.8610    1.0000 </r>
       <r>    5.9337    1.0000 </r>
       <r>    6.1770    1.0000 </r>
       <r>    6.2464    1.0000 </r>
       <r>    6.3697    1.0000 </r>
       <r>    6.6085    1.0000 </r>
       <r>    6.6089    1.0000 </r>
       <r>    6.7032    1.0000 </r>
       <r>    6.9780    1.0000 </r>
       <r>    7.1092    1.0000 </r>
       <r>    7.1501    1.0000 </r>
       <r>    7.3801    1.0000 </r>
       <r>    7.5034    1.0000 </r>
       <r>    7.7334    1.0000 </r>
       <r>    7.8785    1.0000 </r>
       <r>    7.9105    1.0000 </r>
       <r>    8.0878    0.9964 </r>
       <r>    8.1929    0.0000 </r>
       <r>    8.2219    0.0000 </r>
       <r>    8.3253    0.0000 </r>
       <r>    8.4728    0.0000 </r>
       <r>    8.5360    0.0000 </r>
       <r>    8.7381    0.0000 </r>
       <r>    8.7945    0.0000 </r>
       <r>    8.9363    0.0000 </r>
       <r>    9.0109    0.0000 </r>
       <r>    9.0833    0.0000 </r>
       <r>    9.1309    0.0000 </r>
       <r>    9.2198    0.0000 </r>
       <r>    9.3218    0.0000 </r>
       <r>    9.3645    0.0000 </r>
       <r>    9.5164    0.0000 </r>
       <r>    9.5507    0.0000 </r>
       <r>    9.6125    0.0000 </r>
       <r>    9.6990    0.0000 </r>
       <r>    9.7302    0.0000 </r>
       <r>    9.8143    0.0000 </r>
      </set>
      <set comment="kpoint 7">
       <r>   -7.8772    1.0000 </r>
       <r>   -7.3363    1.0000 </r>
       <r>   -7.0963    1.0000 </r>
       <r>   -6.2496    1.0000 </r>
       <r>   -6.0543    1.0000 </r>
       <r>   -5.4106    1.0000 </r>
       <r>   -4.1255    1.0000 </r>
       <r>   -3.6039    1.0000 </r>
       <r>   -3.5162    1.0000 </r>
       <r>   -3.4586    1.0000 </r>
       <r>   -3.2646    1.0000 </r>
       <r>   -3.1542    1.0000 </r>
       <r>   -2.9884    1.0000 </r>
       <r>   -2.8805    1.0000 </r>
       <r>   -2.6901    1.0000 </r>
       <r>   -2.6195    1.0000 </r>
       <r>   -2.4053    1.0000 </r>
       <r>   -2.2722    1.0000 </r>
       <r>   -2.1027    1.0000 </r>
       <r>   -1.8660    1.0000 </r>
       <r>   -1.6982    1.0000 </r>
       <r>   -1.4332    1.0000 </r>
       <r>   -1.3530    1.0000 </r>
       <r>   -1.0233    1.0000 </r>
       <r>   -0.5950    1.0000 </r>
       <r>   -0.5634    1.0000 </r>
       <r>   -0.4846    1.0000 </r>
       <r>   -0.3248    1.0000 </r>
       <r>   -0.1610    1.0000 </r>
       <r>    0.0125    1.0000 </r>
       <r>    0.1418    1.0000 </r>
       <r>    0.3028    1.0000 </r>
       <r>    0.3521    1.0000 </r>
       <r>    0.4769    1.0000 </r>
       <r>    0.6785    1.0000 </r>
       <r>    0.7804    1.0000 </r>
       <r>    0.8349    1.0000 </r>
       <r>    0.8810    1.0000 </r>
       <r>    1.0359    1.0000 </r>
       <r>    1.2646    1.0000 </r>
       <r>    1.4052    1.0000 </r>
       <r>    1.5677    1.0000 </r>
       <r>    1.6236    1.0000 </r>
       <r>    1.6941    1.0000 </r>
       <r>    1.9639    1.0000 </r>
       <r>    2.1576    1.0000 </r>
       <r>    2.3241    1.0000 </r>
       <r>    2.3501    1.0000 </r>
       <r>    2.5708    1.0000 </r>
       <r>    2.6587    1.0000 </r>
       <r>    2.9507    1.0000 </r>
       <r>    3.0994    1.0000 </r>
       <r>    3.3383    1.0000 </r>
       <r>    3.3673    1.0000 </r>
       <r>    3.5063    1.0000 </r>
       <r>    3.6071    1.0000 </r>
       <r>    3.6699    1.0000 </r>
       <r>    3.7923    1.0000 </r>
       <r>    3.8480    1.0000 </r>
       <r>    3.9158    1.0000 </r>
       <r>    4.0064    1.0000 </r>
       <r>    4.1034    1.0000 </r>
       <r>    4.2147    1.0000 </r>
       <r>    4.3323    1.0000 </r>
       <r>    4.3608    1.0000 </r>
       <r>    4.4654    1.0000 </r>
       <r>    4.5739    1.0000 </r>
       <r>    4.7478    1.0000 </r>
       <r>    4.7709    1.0000 </r>
       <r>    4.8030    1.0000 </r>
       <r>    4.9066    1.0000 </r>
       <r>    5.0765    1.0000 </r>
       <r>    5.1102    1.0000 </r>
       <r>    5.1876    1.0000 </r>
       <r>    5.2459    1.0000 </r>
       <r>    5.3781    1.0000 </r>
       <r>    5.4924    1.0000 </r>
       <r>    5.6174    1.0000 </r>
       <r>    5.6297    1.0000 </r>
       <r>    5.7672    1.0000 </r>
       <r>    5.9590    1.0000 </r>
       <r>    6.0055    1.0000 </r>
       <r>    6.1157    1.0000 </r>
       <r>    6.1800    1.0000 </r>
       <r>    6.3158    1.0000 </r>
       <r>    6.5953    1.0000 </r>
       <r>    6.5989    1.0000 </r>
       <r>    6.8131    1.0000 </r>
       <r>    6.9387    1.0000 </r>
       <r>    7.1423    1.0000 </r>
       <r>    7.1459    1.0000 </r>
       <r>    7.3656    1.0000 </r>
       <r>    7.6124    1.0000 </r>
       <r>    7.8315    1.0000 </r>
       <r>    7.8547    1.0000 </r>
       <r>    7.9624    1.0000 </r>
       <r>    8.2059    0.0000 </r>
       <r>    8.3081    0.0000 </r>
       <r>    8.4511    0.0000 </r>
       <r>    8.4783    0.0000 </r>
       <r>    8.5121    0.0000 </r>
       <r>    8.6982    0.0000 </r>
       <r>    8.7347    0.0000 </r>
       <r>    8.7402    0.0000 </r>
       <r>    8.9087    0.0000 </r>
       <r>    8.9136    0.0000 </r>
       <r>    9.1161    0.0000 </r>
       <r>    9.1425    0.0000 </r>
       <r>    9.2908    0.0000 </r>
       <r>    9.3248    0.0000 </r>
       <r>    9.4545    0.0000 </r>
       <r>    9.5501    0.0000 </r>
       <r>    9.6960    0.0000 </r>
       <r>    9.7080    0.0000 </r>
       <r>    9.8415    0.0000 </r>
       <r>    9.9436    0.0000 </r>
      </set>
      <set comment="kpoint 8">
       <r>   -7.8772    1.0000 </r>
       <r>   -7.3363    1.0000 </r>
       <r>   -7.0965    1.0000 </r>
       <r>   -6.2500    1.0000 </r>
       <r>   -6.0540    1.0000 </r>
       <r>   -5.4100    1.0000 </r>
       <r>   -4.1258    1.0000 </r>
       <r>   -3.6029    1.0000 </r>
       <r>   -3.5103    1.0000 </r>
       <r>   -3.4608    1.0000 </r>
       <r>   -3.2708    1.0000 </r>
       <r>   -3.1540    1.0000 </r>
       <r>   -2.9871    1.0000 </r>
       <r>   -2.8959    1.0000 </r>
       <r>   -2.6907    1.0000 </r>
       <r>   -2.6198    1.0000 </r>
       <r>   -2.3726    1.0000 </r>
       <r>   -2.2731    1.0000 </r>
       <r>   -2.1528    1.0000 </r>
       <r>   -1.8225    1.0000 </r>
       <r>   -1.6711    1.0000 </r>
       <r>   -1.4056    1.0000 </r>
       <r>   -1.3453    1.0000 </r>
       <r>   -1.1063    1.0000 </r>
       <r>   -0.6039    1.0000 </r>
       <r>   -0.5991    1.0000 </r>
       <r>   -0.4785    1.0000 </r>
       <r>   -0.2848    1.0000 </r>
       <r>   -0.1349    1.0000 </r>
       <r>   -0.0529    1.0000 </r>
       <r>    0.1554    1.0000 </r>
       <r>    0.2359    1.0000 </r>
       <r>    0.3689    1.0000 </r>
       <r>    0.4755    1.0000 </r>
       <r>    0.6931    1.0000 </r>
       <r>    0.8032    1.0000 </r>
       <r>    0.8721    1.0000 </r>
       <r>    1.0032    1.0000 </r>
       <r>    1.0514    1.0000 </r>
       <r>    1.2918    1.0000 </r>
       <r>    1.3284    1.0000 </r>
       <r>    1.5269    1.0000 </r>
       <r>    1.6368    1.0000 </r>
       <r>    1.6987    1.0000 </r>
       <r>    1.9665    1.0000 </r>
       <r>    2.1266    1.0000 </r>
       <r>    2.3146    1.0000 </r>
       <r>    2.3770    1.0000 </r>
       <r>    2.5001    1.0000 </r>
       <r>    2.7040    1.0000 </r>
       <r>    3.0134    1.0000 </r>
       <r>    3.1051    1.0000 </r>
       <r>    3.1654    1.0000 </r>
       <r>    3.3273    1.0000 </r>
       <r>    3.4220    1.0000 </r>
       <r>    3.6272    1.0000 </r>
       <r>    3.6724    1.0000 </r>
       <r>    3.8073    1.0000 </r>
       <r>    3.8507    1.0000 </r>
       <r>    3.9616    1.0000 </r>
       <r>    4.0547    1.0000 </r>
       <r>    4.1232    1.0000 </r>
       <r>    4.2119    1.0000 </r>
       <r>    4.3617    1.0000 </r>
       <r>    4.3805    1.0000 </r>
       <r>    4.4470    1.0000 </r>
       <r>    4.6288    1.0000 </r>
       <r>    4.7048    1.0000 </r>
       <r>    4.7179    1.0000 </r>
       <r>    4.8351    1.0000 </r>
       <r>    4.9380    1.0000 </r>
       <r>    5.1147    1.0000 </r>
       <r>    5.1465    1.0000 </r>
       <r>    5.2061    1.0000 </r>
       <r>    5.2975    1.0000 </r>
       <r>    5.3563    1.0000 </r>
       <r>    5.4945    1.0000 </r>
       <r>    5.6139    1.0000 </r>
       <r>    5.6406    1.0000 </r>
       <r>    5.7131    1.0000 </r>
       <r>    5.9644    1.0000 </r>
       <r>    5.9855    1.0000 </r>
       <r>    6.0796    1.0000 </r>
       <r>    6.1809    1.0000 </r>
       <r>    6.4055    1.0000 </r>
       <r>    6.5785    1.0000 </r>
       <r>    6.6206    1.0000 </r>
       <r>    6.7761    1.0000 </r>
       <r>    6.9430    1.0000 </r>
       <r>    7.0760    1.0000 </r>
       <r>    7.1298    1.0000 </r>
       <r>    7.3930    1.0000 </r>
       <r>    7.5936    1.0000 </r>
       <r>    7.8359    1.0000 </r>
       <r>    7.8469    1.0000 </r>
       <r>    7.9999    1.0000 </r>
       <r>    8.1316    0.0002 </r>
       <r>    8.2489    0.0000 </r>
       <r>    8.3931    0.0000 </r>
       <r>    8.4509    0.0000 </r>
       <r>    8.4927    0.0000 </r>
       <r>    8.6021    0.0000 </r>
       <r>    8.7976    0.0000 </r>
       <r>    8.8540    0.0000 </r>
       <r>    8.8943    0.0000 </r>
       <r>    9.0169    0.0000 </r>
       <r>    9.0870    0.0000 </r>
       <r>    9.1636    0.0000 </r>
       <r>    9.2887    0.0000 </r>
       <r>    9.3104    0.0000 </r>
       <r>    9.5244    0.0000 </r>
       <r>    9.5688    0.0000 </r>
       <r>    9.6318    0.0000 </r>
       <r>    9.7988    0.0000 </r>
       <r>    9.8823    0.0000 </r>
       <r>    9.9639    0.0000 </r>
      </set>
      <set comment="kpoint 9">
       <r>   -7.9738    1.0000 </r>
       <r>   -7.2013    1.0000 </r>
       <r>   -7.1910    1.0000 </r>
       <r>   -6.1853    1.0000 </r>
       <r>   -5.9722    1.0000 </r>
       <r>   -5.1761    1.0000 </r>
       <r>   -4.1490    1.0000 </r>
       <r>   -3.7418    1.0000 </r>
       <r>   -3.7231    1.0000 </r>
       <r>   -3.6184    1.0000 </r>
       <r>   -3.2817    1.0000 </r>
       <r>   -3.2703    1.0000 </r>
       <r>   -3.1185    1.0000 </r>
       <r>   -2.7817    1.0000 </r>
       <r>   -2.7449    1.0000 </r>
       <r>   -2.5407    1.0000 </r>
       <r>   -2.3925    1.0000 </r>
       <r>   -2.2048    1.0000 </r>
       <r>   -2.0502    1.0000 </r>
       <r>   -1.7158    1.0000 </r>
       <r>   -1.5240    1.0000 </r>
       <r>   -1.3954    1.0000 </r>
       <r>   -1.3850    1.0000 </r>
       <r>   -1.1335    1.0000 </r>
       <r>   -0.7346    1.0000 </r>
       <r>   -0.6727    1.0000 </r>
       <r>   -0.5930    1.0000 </r>
       <r>   -0.3410    1.0000 </r>
       <r>   -0.3144    1.0000 </r>
       <r>    0.0067    1.0000 </r>
       <r>    0.0749    1.0000 </r>
       <r>    0.2954    1.0000 </r>
       <r>    0.3534    1.0000 </r>
       <r>    0.6067    1.0000 </r>
       <r>    0.6180    1.0000 </r>
       <r>    0.7820    1.0000 </r>
       <r>    0.9607    1.0000 </r>
       <r>    1.1069    1.0000 </r>
       <r>    1.1546    1.0000 </r>
       <r>    1.3486    1.0000 </r>
       <r>    1.4863    1.0000 </r>
       <r>    1.5919    1.0000 </r>
       <r>    1.7558    1.0000 </r>
       <r>    1.8095    1.0000 </r>
       <r>    1.9548    1.0000 </r>
       <r>    2.1778    1.0000 </r>
       <r>    2.2888    1.0000 </r>
       <r>    2.4697    1.0000 </r>
       <r>    2.5271    1.0000 </r>
       <r>    2.6322    1.0000 </r>
       <r>    2.6816    1.0000 </r>
       <r>    3.0026    1.0000 </r>
       <r>    3.2655    1.0000 </r>
       <r>    3.3295    1.0000 </r>
       <r>    3.4273    1.0000 </r>
       <r>    3.5400    1.0000 </r>
       <r>    3.5627    1.0000 </r>
       <r>    3.6713    1.0000 </r>
       <r>    3.8533    1.0000 </r>
       <r>    3.9576    1.0000 </r>
       <r>    4.0326    1.0000 </r>
       <r>    4.1399    1.0000 </r>
       <r>    4.2986    1.0000 </r>
       <r>    4.3413    1.0000 </r>
       <r>    4.5624    1.0000 </r>
       <r>    4.6329    1.0000 </r>
       <r>    4.6822    1.0000 </r>
       <r>    4.7657    1.0000 </r>
       <r>    4.7697    1.0000 </r>
       <r>    4.7860    1.0000 </r>
       <r>    4.9897    1.0000 </r>
       <r>    5.2620    1.0000 </r>
       <r>    5.2894    1.0000 </r>
       <r>    5.4023    1.0000 </r>
       <r>    5.5447    1.0000 </r>
       <r>    5.6286    1.0000 </r>
       <r>    5.6669    1.0000 </r>
       <r>    5.6894    1.0000 </r>
       <r>    5.6969    1.0000 </r>
       <r>    5.8586    1.0000 </r>
       <r>    5.8792    1.0000 </r>
       <r>    5.9413    1.0000 </r>
       <r>    6.0271    1.0000 </r>
       <r>    6.1483    1.0000 </r>
       <r>    6.1683    1.0000 </r>
       <r>    6.3541    1.0000 </r>
       <r>    6.4237    1.0000 </r>
       <r>    6.7265    1.0000 </r>
       <r>    6.9301    1.0000 </r>
       <r>    7.2229    1.0000 </r>
       <r>    7.2497    1.0000 </r>
       <r>    7.3532    1.0000 </r>
       <r>    7.4132    1.0000 </r>
       <r>    7.7268    1.0000 </r>
       <r>    7.7528    1.0000 </r>
       <r>    8.0295    1.0000 </r>
       <r>    8.0760    1.0000 </r>
       <r>    8.1241    0.0073 </r>
       <r>    8.2369    0.0000 </r>
       <r>    8.4123    0.0000 </r>
       <r>    8.4345    0.0000 </r>
[...]
       <r>     9.0266    14.7481   211.5413 </r>
       <r>     9.0927    23.3604   213.0859 </r>
       <r>     9.1588    20.9726   214.4726 </r>
       <r>     9.2248    16.6566   215.5743 </r>
       <r>     9.2909    25.8438   217.2820 </r>
       <r>     9.3570    20.6989   218.6498 </r>
       <r>     9.4231    30.6843   220.6773 </r>
       <r>     9.4891    21.3386   222.0899 </r>
       <r>     9.5552    24.2909   223.6954 </r>
       <r>     9.6213    25.7591   225.3989 </r>
       <r>     9.6874    14.2874   226.3456 </r>
       <r>     9.7534    20.8818   227.7256 </r>
       <r>     9.8195    27.5421   229.5455 </r>
       <r>     9.8856    18.1171   230.7444 </r>
       <r>     9.9517     9.4550   231.3701 </r>
       <r>    10.0178     9.2620   231.9837 </r>
       <r>    10.0838     0.2369   232.0000 </r>
       <r>    10.1499     0.0000   232.0000 </r>
       <r>    10.2160     0.0000   232.0000 </r>
       <r>    10.2821     0.0000   232.0000 </r>
       <r>    10.3481     0.0000   232.0000 </r>
       <r>    10.4142     0.0000   232.0000 </r>
       <r>    10.4803     0.0000   232.0000 </r>
       <r>    10.5464     0.0000   232.0000 </r>
       <r>    10.6124     0.0000   232.0000 </r>
       <r>    10.6785     0.0000   232.0000 </r>
       <r>    10.7446     0.0000   232.0000 </r>
       <r>    10.8107     0.0000   232.0000 </r>
       <r>    10.8767     0.0000   232.0000 </r>
       <r>    10.9428     0.0000   232.0000 </r>
      </set>
      <set comment="spin 2">
       <r>    -8.8800     0.0000     0.0000 </r>
       <r>    -8.8140     0.0000     0.0000 </r>
       <r>    -8.7479     0.0000     0.0000 </r>
       <r>    -8.6818     0.0000     0.0000 </r>
       <r>    -8.6157     0.0000     0.0000 </r>
       <r>    -8.5497     0.0000     0.0000 </r>
       <r>    -8.4836     0.0000     0.0000 </r>
       <r>    -8.4175     0.0000     0.0000 </r>
       <r>    -8.3514     0.0000     0.0000 </r>
       <r>    -8.2854     0.0000     0.0000 </r>
       <r>    -8.2193     0.0000     0.0000 </r>
       <r>    -8.1532     0.0000     0.0000 </r>
       <r>    -8.0871     0.0000     0.0000 </r>
       <r>    -8.0211     0.0000     0.0000 </r>
       <r>    -7.9550     0.2249     0.0149 </r>
       <r>    -7.8889     7.3421     0.5000 </r>
       <r>    -7.8228    15.1089     1.4983 </r>
       <r>    -7.7567     0.0000     1.5000 </r>
       <r>    -7.6907     0.0000     1.5000 </r>
       <r>    -7.6246     0.0048     1.5003 </r>
       <r>    -7.5585    15.1292     2.5000 </r>
       <r>    -7.4924     0.0000     2.5000 </r>
       <r>    -7.4264     0.0000     2.5000 </r>
       <r>    -7.3603     0.0000     2.5000 </r>
       <r>    -7.2942    12.7995     3.3457 </r>
       <r>    -7.2281     2.3345     3.5000 </r>
       <r>    -7.1621     6.4536     3.9264 </r>
       <r>    -7.0960     8.6738     4.5000 </r>
       <r>    -7.0299    11.2696     5.2447 </r>
       <r>    -6.9638     3.8635     5.5000 </r>
       <r>    -6.8978     0.0000     5.5000 </r>
       <r>    -6.8317     0.0000     5.5000 </r>
       <r>    -6.7656     0.0000     5.5000 </r>
       <r>    -6.6995     8.8318     6.0836 </r>
       <r>    -6.6335     6.2950     6.5000 </r>
       <r>    -6.5674     0.0000     6.5000 </r>
       <r>    -6.5013     0.0000     6.5000 </r>
       <r>    -6.4352     0.0000     6.5000 </r>
       <r>    -6.3691     0.0000     6.5000 </r>
       <r>    -6.3031     0.0000     6.5000 </r>
       <r>    -6.2370     4.0857     6.7700 </r>
       <r>    -6.1709    13.1265     7.6373 </r>
       <r>    -6.1048     5.4395     7.9992 </r>
       <r>    -6.0388     8.7639     8.5791 </r>
       <r>    -5.9727     6.3748     9.0003 </r>
       <r>    -5.9066     7.3760     9.4877 </r>
       <r>    -5.8405     0.1861     9.5000 </r>
       <r>    -5.7745     2.4376     9.6611 </r>
       <r>    -5.7084    12.2262    10.4689 </r>
       <r>    -5.6423     0.4285    10.5000 </r>
       <r>    -5.5762     0.0000    10.5000 </r>
       <r>    -5.5102     0.0000    10.5000 </r>
       <r>    -5.4441     0.0000    10.5000 </r>
       <r>    -5.3780     3.5607    10.7353 </r>
       <r>    -5.3119    11.5635    11.4993 </r>
       <r>    -5.2459     0.0000    11.5000 </r>
       <r>    -5.1798     0.4146    11.5274 </r>
       <r>    -5.1137     6.1056    11.9308 </r>
       <r>    -5.0476     1.0467    12.0000 </r>
       <r>    -4.9815     0.0000    12.0000 </r>
       <r>    -4.9155     0.0000    12.0000 </r>
       <r>    -4.8494     0.0000    12.0000 </r>
       <r>    -4.7833     0.0000    12.0000 </r>
       <r>    -4.7172     0.0000    12.0000 </r>
       <r>    -4.6512     0.0000    12.0000 </r>
       <r>    -4.5851     0.0000    12.0000 </r>
       <r>    -4.5190     0.0000    12.0000 </r>
       <r>    -4.4529     0.0000    12.0000 </r>
       <r>    -4.3869     0.0000    12.0000 </r>
       <r>    -4.3208     1.2491    12.0825 </r>
       <r>    -4.2547     3.4966    12.3144 </r>
       <r>    -4.1886     5.9602    12.7082 </r>
       <r>    -4.1226     5.7563    13.0887 </r>
       <r>    -4.0565     4.3235    13.3750 </r>
       <r>    -3.9904     2.2269    13.5222 </r>
       <r>    -3.9243     8.6931    14.0966 </r>
       <r>    -3.8583    11.9763    14.8882 </r>
       <r>    -3.7922     7.2138    15.3668 </r>
       <r>    -3.7261     1.5231    15.4685 </r>
       <r>    -3.6600    14.9178    16.4542 </r>
       <r>    -3.5939    12.7119    17.2943 </r>
       <r>    -3.5279    11.5985    18.0625 </r>
       <r>    -3.4618    14.1333    18.9973 </r>
       <r>    -3.3957    11.0151    19.7284 </r>
       <r>    -3.3296     6.0033    20.1251 </r>
       <r>    -3.2636    10.8188    20.8401 </r>
       <r>    -3.1975    16.6387    21.9395 </r>
       <r>    -3.1314     8.9952    22.5339 </r>
       <r>    -3.0653    11.2352    23.2763 </r>
       <r>    -2.9993     6.7726    23.7240 </r>
       <r>    -2.9332     9.7156    24.3661 </r>
       <r>    -2.8671     9.7991    25.0142 </r>
       <r>    -2.8010    14.1897    25.9518 </r>
       <r>    -2.7350    10.1230    26.6242 </r>
       <r>    -2.6689    10.0240    27.2868 </r>
       <r>    -2.6028    15.5911    28.3190 </r>
       <r>    -2.5367    11.4384    29.0749 </r>
       <r>    -2.4706    17.6366    30.2406 </r>
       <r>    -2.4046     9.3784    30.8603 </r>
       <r>    -2.3385    15.7224    31.8993 </r>
       <r>    -2.2724    13.7973    32.8111 </r>
       <r>    -2.2063    12.9437    33.6667 </r>
       <r>    -2.1403    12.5002    34.4929 </r>
       <r>    -2.0742    15.2789    35.5025 </r>
       <r>    -2.0081    11.7844    36.2814 </r>
       <r>    -1.9420    11.8009    37.0614 </r>
       <r>    -1.8760    11.3090    37.8092 </r>
       <r>    -1.8099     7.5209    38.3061 </r>
       <r>    -1.7438    15.0284    39.2992 </r>
       <r>    -1.6777    10.6754    40.0046 </r>
       <r>    -1.6117     8.8915    40.5938 </r>
       <r>    -1.5456    14.3760    41.5454 </r>
       <r>    -1.4795     5.7873    41.9303 </r>
       <r>    -1.4134    15.8182    42.9755 </r>
       <r>    -1.3474    20.7559    44.3470 </r>
       <r>    -1.2813    14.6603    45.3181 </r>
       <r>    -1.2152    13.4948    46.2106 </r>
       <r>    -1.1491    11.2551    46.9570 </r>
       <r>    -1.0830    13.2437    47.8344 </r>
       <r>    -1.0170     9.3034    48.4509 </r>
       <r>    -0.9509    12.9473    49.3069 </r>
       <r>    -0.8848    12.9764    50.1659 </r>
       <r>    -0.8187    11.5809    50.9311 </r>
       <r>    -0.7527     9.1733    51.5381 </r>
       <r>    -0.6866     9.4644    52.1636 </r>
       <r>    -0.6205     8.9162    52.7527 </r>
       <r>    -0.5544    15.9596    53.8079 </r>
       <r>    -0.4884    17.8501    54.9892 </r>
       <r>    -0.4223    14.0639    55.9202 </r>
       <r>    -0.3562     8.0793    56.4559 </r>
       <r>    -0.2901    10.0560    57.1203 </r>
       <r>    -0.2241    12.9492    57.9766 </r>
       <r>    -0.1580    10.2839    58.6561 </r>
       <r>    -0.0919    17.2923    59.7987 </r>
       <r>    -0.0258    13.9656    60.7216 </r>
       <r>     0.0402     9.4737    61.3494 </r>
       <r>     0.1063     9.2573    61.9612 </r>
       <r>     0.1724    19.3297    63.2384 </r>
       <r>     0.2385     5.4275    63.5982 </r>
       <r>     0.3046     8.2190    64.1413 </r>
       <r>     0.3706    11.5411    64.9040 </r>
       <r>     0.4367     8.7670    65.4833 </r>
       <r>     0.5028    17.8207    66.6612 </r>
       <r>     0.5689    12.4276    67.4825 </r>
       <r>     0.6349     7.0208    67.9468 </r>
       <r>     0.7010     9.2420    68.5575 </r>
       <r>     0.7671    17.7630    69.7316 </r>
       <r>     0.8332    16.3112    70.8097 </r>
       <r>     0.8992     9.1703    71.4156 </r>
       <r>     0.9653     8.5054    71.9777 </r>
       <r>     1.0314    12.7720    72.8219 </r>
       <r>     1.0975    11.1799    73.5608 </r>
       <r>     1.1635    12.4750    74.3851 </r>
       <r>     1.2296    17.7147    75.5560 </r>
       <r>     1.2957    14.4840    76.5131 </r>
       <r>     1.3618    19.3440    77.7915 </r>
       <r>     1.4278    13.4548    78.6815 </r>
       <r>     1.4939     8.0902    79.2161 </r>
       <r>     1.5600    27.4602    81.0310 </r>
       <r>     1.6261    20.2923    82.3754 </r>
       <r>     1.6922    20.1527    83.7074 </r>
       <r>     1.7582    22.4049    85.1879 </r>
       <r>     1.8243    13.5025    86.0815 </r>
       <r>     1.8904    15.3294    87.0944 </r>
       <r>     1.9565    11.0075    87.8235 </r>
       <r>     2.0225    13.5437    88.7185 </r>
       <r>     2.0886    15.6501    89.7526 </r>
       <r>     2.1547    22.1537    91.2166 </r>
       <r>     2.2208    13.4894    92.1098 </r>
       <r>     2.2868    12.2480    92.9214 </r>
       <r>     2.3529    13.4205    93.8082 </r>
       <r>     2.4190    21.2730    95.2183 </r>
       <r>     2.4851    17.5023    96.3751 </r>
       <r>     2.5511    18.3307    97.5892 </r>
       <r>     2.6172    15.3575    98.6066 </r>
       <r>     2.6833     9.4118    99.2300 </r>
       <r>     2.7494    17.4096   100.3809 </r>
       <r>     2.8154    13.0673   101.2473 </r>
       <r>     2.8815    13.5652   102.1437 </r>
       <r>     2.9476    10.4111   102.8333 </r>
       <r>     3.0137    11.5997   103.5998 </r>
       <r>     3.0798     8.2554   104.1456 </r>
       <r>     3.1458    21.1092   105.5404 </r>
       <r>     3.2119     8.4981   106.1030 </r>
       <r>     3.2780    10.7565   106.8142 </r>
       <r>     3.3441    15.7686   107.8563 </r>
       <r>     3.4101    18.0674   109.0512 </r>
       <r>     3.4762    20.7830   110.4247 </r>
       <r>     3.5423    17.4259   111.5793 </r>
       <r>     3.6084    16.2437   112.6535 </r>
       <r>     3.6744    30.4459   114.6665 </r>
       <r>     3.7405    15.3094   115.6787 </r>
       <r>     3.8066     9.7024   116.3207 </r>
       <r>     3.8727    19.8846   117.6347 </r>
       <r>     3.9387    21.1667   119.0341 </r>
       <r>     4.0048    12.1673   119.8380 </r>
       <r>     4.0709    16.7627   120.9459 </r>
       <r>     4.1370    20.6788   122.3134 </r>
       <r>     4.2030    15.1444   123.3141 </r>
       <r>     4.2691    24.5409   124.9374 </r>
       <r>     4.3352    20.4327   126.2879 </r>
       <r>     4.4013    23.4620   127.8403 </r>
       <r>     4.4674    20.9612   129.2271 </r>
       <r>     4.5334    13.7984   130.1419 </r>
       <r>     4.5995    20.7071   131.5115 </r>
       <r>     4.6656    21.7271   132.9483 </r>
       <r>     4.7317    28.8284   134.8537 </r>
       <r>     4.7977    24.9225   136.5018 </r>
       <r>     4.8638    20.8613   137.8830 </r>
       <r>     4.9299    21.2347   139.2864 </r>
       <r>     4.9960    19.8339   140.5970 </r>
       <r>     5.0620    16.8167   141.7093 </r>
       <r>     5.1281    16.7578   142.8184 </r>
       <r>     5.1942    20.2171   144.1550 </r>
       <r>     5.2603    19.1891   145.4236 </r>
       <r>     5.3263    30.6522   147.4515 </r>
       <r>     5.3924    27.4003   149.2657 </r>
       <r>     5.4585    19.4880   150.5549 </r>
       <r>     5.5246    25.7580   152.2570 </r>
       <r>     5.5906    15.1717   153.2602 </r>
       <r>     5.6567    21.7955   154.7009 </r>
       <r>     5.7228    18.1235   155.8988 </r>
       <r>     5.7889    30.8404   157.9381 </r>
       <r>     5.8550    19.1436   159.2051 </r>
       <r>     5.9210    24.3012   160.8110 </r>
       <r>     5.9871    16.8800   161.9270 </r>
       <r>     6.0532    17.6147   163.0931 </r>
       <r>     6.1193    25.1237   164.7531 </r>
       <r>     6.1853    12.0733   165.5539 </r>
       <r>     6.2514    19.1006   166.8160 </r>
       <r>     6.3175    12.6631   167.6530 </r>
       <r>     6.3836    17.1303   168.7864 </r>
       <r>     6.4496    19.6642   170.0882 </r>
       <r>     6.5157    12.5769   170.9202 </r>
       <r>     6.5818    15.7409   171.9603 </r>
       <r>     6.6479    17.8660   173.1415 </r>
       <r>     6.7139    16.0920   174.2078 </r>
       <r>     6.7800     7.5382   174.7085 </r>
       <r>     6.8461    17.2062   175.8459 </r>
       <r>     6.9122     9.5346   176.4760 </r>
       <r>     6.9782    12.9898   177.3344 </r>
       <r>     7.0443    11.6171   178.1020 </r>
       <r>     7.1104    12.1128   178.9034 </r>
       <r>     7.1765    15.1664   179.9076 </r>
       <r>     7.2426    20.7078   181.2788 </r>
       <r>     7.3086    11.1725   182.0200 </r>
       <r>     7.3747     4.7900   182.3365 </r>
       <r>     7.4408    11.9559   183.1267 </r>
       <r>     7.5069     9.3079   183.7431 </r>
       <r>     7.5729    15.5452   184.7711 </r>
       <r>     7.6390     9.2322   185.3818 </r>
       <r>     7.7051    10.4697   186.0740 </r>
       <r>     7.7712    22.3519   187.5510 </r>
       <r>     7.8372    15.8800   188.6061 </r>
       <r>     7.9033    16.5370   189.6989 </r>
       <r>     7.9694    12.4769   190.5272 </r>
       <r>     8.0355    14.7950   191.5062 </r>
       <r>     8.1015    11.6353   192.2757 </r>
       <r>     8.1676    20.3913   193.6231 </r>
       <r>     8.2337     9.3096   194.2431 </r>
       <r>     8.2998    20.0825   195.5702 </r>
       <r>     8.3658    23.5573   197.1272 </r>
       <r>     8.4319    17.8490   198.3083 </r>
       <r>     8.4980    28.0965   200.1648 </r>
       <r>     8.5641    20.9845   201.5522 </r>
       <r>     8.6302    12.7652   202.3970 </r>
       <r>     8.6962    18.1982   203.6005 </r>
       <r>     8.7623    27.3395   205.4070 </r>
       <r>     8.8284    22.8549   206.9200 </r>
       <r>     8.8945    18.6499   208.1538 </r>
       <r>     8.9605    26.6600   209.9156 </r>
       <r>     9.0266    17.0283   211.0439 </r>
       <r>     9.0927    21.4689   212.4629 </r>
       <r>     9.1588    22.0409   213.9217 </r>
       <r>     9.2248    20.1823   215.2557 </r>
       <r>     9.2909    20.9353   216.6421 </r>
       <r>     9.3570    21.8002   218.0864 </r>
       <r>     9.4231    25.6673   219.7836 </r>
       <r>     9.4891    26.1863   221.5164 </r>
       <r>     9.5552    23.6009   223.0792 </r>
       <r>     9.6213    25.8643   224.7890 </r>
       <r>     9.6874    18.0901   225.9864 </r>
       <r>     9.7534    21.9496   227.4376 </r>
       <r>     9.8195    20.7493   228.8102 </r>
       <r>     9.8856    22.3252   230.2878 </r>
       <r>     9.9517     9.6626   230.9274 </r>
       <r>    10.0178    13.4783   231.8180 </r>
       <r>    10.0838     2.7401   232.0000 </r>
       <r>    10.1499     0.0000   232.0000 </r>
       <r>    10.2160     0.0000   232.0000 </r>
       <r>    10.2821     0.0000   232.0000 </r>
       <r>    10.3481     0.0000   232.0000 </r>
       <r>    10.4142     0.0000   232.0000 </r>
       <r>    10.4803     0.0000   232.0000 </r>
       <r>    10.5464     0.0000   232.0000 </r>
       <r>    10.6124     0.0000   232.0000 </r>
       <r>    10.6785     0.0000   232.0000 </r>
       <r>    10.7446     0.0000   232.0000 </r>
       <r>    10.8107     0.0000   232.0000 </r>
       <r>    10.8767     0.0000   232.0000 </r>
       <r>    10.9428     0.0000   232.0000 </r>
      </set>
     </set>
    </array>
   </total>
  </dos>
 </calculation>
 <structure name="finalpos" >
  <crystal>
   <varray name="basis" >
    <v>      12.14408588       0.00000000       0.00000000 </v>
    <v>      -9.71526814       7.28645134       0.00000000 </v>
    <v>       0.00000000       0.00000000       9.05166912 </v>
   </varray>
   <i name="volume">    800.95767830 </i>
   <varray name="rec_basis" >
    <v>       0.08234461       0.10979281       0.00000000 </v>
    <v>       0.00000000       0.13724102       0.00000000 </v>
    <v>       0.00000000       0.00000000       0.11047686 </v>
   </varray>
  </crystal>
  <varray name="positions" >
   <v>       0.34519792       0.67259896       0.00000000 </v>
   <v>       0.67853129       0.83926570       0.29999992 </v>
   <v>       0.01186466       0.00593245       0.59999984 </v>
   <v>       0.01186457       0.00593229       0.00000000 </v>
   <v>       0.34519795       0.17259903       0.29999992 </v>
   <v>       0.67853135       0.33926579       0.59999984 </v>
   <v>       0.67853135       0.33926567       0.00000000 </v>
   <v>       0.01186466       0.50593239       0.29999992 </v>
   <v>       0.34519804       0.67259914       0.59999984 </v>
   <v>       0.09519780       0.92259896       0.14999996 </v>
   <v>       0.42853129       0.08926570       0.44999999 </v>
   <v>       0.76186478       0.25593257       0.74999982 </v>
   <v>       0.42853129       0.58926570       0.14999996 </v>
   <v>       0.76186466       0.75593245       0.44999999 </v>
   <v>       0.09519815       0.92259926       0.74999982 </v>
   <v>       0.76186460       0.25593230       0.14999996 </v>
   <v>       0.09519804       0.42259908       0.44999999 </v>
   <v>       0.42853153       0.58926588       0.74999982 </v>
   <v>       0.17853121       0.83926558       0.00000000 </v>
   <v>       0.51186460       0.00593233       0.29999992 </v>
   <v>       0.84519798       0.17259896       0.59999984 </v>
   <v>       0.51186460       0.50593227       0.00000000 </v>
   <v>       0.84519798       0.67259908       0.29999992 </v>
   <v>       0.17853141       0.83926582       0.59999984 </v>
   <v>       0.84519798       0.17259899       0.00000000 </v>
   <v>       0.17853129       0.33926573       0.29999992 </v>
   <v>       0.51186466       0.50593245       0.59999984 </v>
   <v>       0.26186460       0.75593233       0.14999996 </v>
   <v>       0.59519798       0.92259908       0.44999999 </v>
   <v>       0.92853147       0.08926594       0.74999982 </v>
   <v>       0.59519798       0.42259899       0.14999996 </v>
   <v>       0.92853141       0.58926576       0.44999999 </v>
   <v>       0.26186490       0.75593257       0.74999982 </v>
   <v>       0.92853135       0.08926568       0.14999996 </v>
   <v>       0.26186466       0.25593239       0.44999999 </v>
   <v>       0.59519815       0.42259923       0.74999982 </v>
   <v>       0.96284664       0.98938477       0.74999982 </v>
   <v>       0.57395762       0.87827355       0.84999984 </v>
   <v>       0.18506861       0.76716238       0.94999999 </v>
   <v>       0.46284664       0.48938474       0.74999982 </v>
   <v>       0.07395760       0.37827355       0.84999984 </v>
   <v>       0.68506861       0.26716232       0.94999999 </v>
   <v>       0.76840210       0.68382913       0.79999989 </v>
   <v>       0.37951308       0.57271797       0.89999992 </v>
   <v>       0.99062407       0.46160674       0.99999994 </v>
   <v>       0.26840210       0.18382914       0.79999989 </v>
   <v>       0.87951308       0.07271797       0.89999992 </v>
   <v>       0.49062407       0.96160680       0.99999994 </v>
  </varray>
 </structure>
</modeling>
