Si and Ge interface calculation         
           1
    16.293001    0.000000    0.000000
   -10.862000   12.144086    0.000000
     0.000000    0.000000    7.006474
   Si   C 
    36    84
Direct configuration=     1
   0.97435850  0.98290563  0.00000000
   0.67435843  0.78290558  0.17332670
   0.37435842  0.58290553  0.34665340
   0.30769178  0.98290563  0.00000000
   0.00769173  0.78290558  0.17332670
   0.70769167  0.58290553  0.34665340
   0.64102507  0.98290563  0.00000000
   0.34102503  0.78290558  0.17332670
   0.04102499  0.58290553  0.34665340
   0.15769197  0.63290560  0.08666317
   0.85769194  0.43290553  0.25998989
   0.55769193  0.23290551  0.43331653
   0.49102521  0.63290560  0.08666317
   0.19102515  0.43290553  0.25998989
   0.89102519  0.23290551  0.43331653
   0.82435846  0.63290560  0.08666317
   0.52435839  0.43290553  0.25998989
   0.22435850  0.23290551  0.43331653
   0.14102516  0.48290560  0.00000000
   0.84102511  0.28290549  0.17332670
   0.54102510  0.08290543  0.34665340
   0.47435844  0.48290560  0.00000000
   0.17435838  0.28290549  0.17332670
   0.87435836  0.08290543  0.34665340
   0.80769169  0.48290560  0.00000000
   0.50769168  0.28290549  0.17332670
   0.20769163  0.08290543  0.34665340
   0.99102521  0.13290566  0.08666318
   0.69102514  0.93290561  0.25998989
   0.39102519  0.73290557  0.43331653
   0.32435846  0.13290566  0.08666318
   0.02435841  0.93290561  0.25998989
   0.72435844  0.73290557  0.43331653
   0.65769166  0.13290566  0.08666318
   0.35769162  0.93290561  0.25998989
   0.05769165  0.73290557  0.43331653
   0.30259258  0.70695710  0.57436830
   0.54544979  0.67838573  0.68820030
   0.78830701  0.64981413  0.80203235
   0.58830684  0.84981430  0.57436830
   0.83116406  0.82124281  0.68820030
   0.07402134  0.79267132  0.80203235
   0.87402105  0.99267137  0.57436830
   0.11687827  0.96409988  0.68820030
   0.35973561  0.93552846  0.80203235
   0.15973544  0.13552856  0.57436830
   0.40259266  0.10695708  0.68820030
   0.64545000  0.07838559  0.80203235
   0.44544971  0.27838564  0.57436830
   0.68830693  0.24981427  0.68820030
   0.93116414  0.22124279  0.80203235
   0.73116398  0.42124295  0.57436830
   0.97402126  0.39267135  0.68820030
   0.21687841  0.36409998  0.80203235
   0.01687825  0.56410003  0.57436830
   0.25973546  0.53552842  0.68820030
   0.50259268  0.50695705  0.80203235
   0.13830674  0.79981428  0.63128424
   0.38116407  0.77124280  0.74511617
   0.62402129  0.74267131  0.85894823
   0.42402095  0.94267142  0.63128418
   0.66687822  0.91409993  0.74511629
   0.90973544  0.88552844  0.85894823
   0.70973527  0.08552861  0.63128418
   0.95259255  0.05695713  0.74511629
   0.19544983  0.02838564  0.85894823
   0.99544966  0.22838569  0.63128418
   0.23830700  0.19981420  0.74511629
   0.48116422  0.17124283  0.85894823
   0.28116381  0.37124288  0.63128418
   0.52402115  0.34267139  0.74511629
   0.76687825  0.31409991  0.85894823
   0.56687826  0.51410008  0.63128424
   0.80973554  0.48552847  0.74511629
   0.05259275  0.45695710  0.85894823
   0.85259241  0.65695715  0.63128424
   0.09544969  0.62838566  0.74511629
   0.33830690  0.59981418  0.85894823
   0.94544983  0.77838576  0.57436830
   0.18830693  0.74981421  0.68820030
   0.43116426  0.72124279  0.80203235
   0.23116422  0.92124289  0.57436830
   0.47402132  0.89267135  0.68820030
   0.71687841  0.86409986  0.80203235
   0.51687831  0.06410003  0.57436830
   0.75973552  0.03552854  0.68820030
   0.00259280  0.00695705  0.80203235
   0.80259252  0.20695710  0.57436830
   0.04544973  0.17838573  0.68820030
   0.28830707  0.14981425  0.80203235
   0.08830690  0.34981430  0.57436830
   0.33116412  0.32124281  0.68820030
   0.57402122  0.29267132  0.80203235
   0.37402111  0.49267149  0.57436830
   0.61687839  0.46410012  0.68820035
   0.85973567  0.43552852  0.80203235
   0.65973544  0.63552856  0.57436830
   0.90259260  0.60695720  0.68820035
   0.14544988  0.57838571  0.80203235
   0.49544972  0.72838575  0.63128418
   0.73830700  0.69981420  0.74511629
   0.98116428  0.67124271  0.85894823
   0.78116387  0.87124288  0.63128418
   0.02402115  0.84267139  0.74511629
   0.26687837  0.81409991  0.85894823
   0.06687808  0.01409996  0.63128418
   0.30973554  0.98552859  0.74511629
   0.55259275  0.95695710  0.85894823
   0.35259235  0.15695715  0.63128418
   0.59544969  0.12838566  0.74511617
   0.83830690  0.09981418  0.85894823
   0.63830680  0.29981422  0.63128418
   0.88116413  0.27124274  0.74511629
   0.12402129  0.24267125  0.85894823
   0.92402113  0.44267142  0.63128418
   0.16687846  0.41409993  0.74511629
   0.40973568  0.38552856  0.85894823
   0.20973527  0.58552861  0.63128418
   0.45259261  0.55695713  0.74511629
   0.69544983  0.52838564  0.85894823
