       N       E                     dE             d eps       ncg     rms          rms(c)
DAV:   1     0.141667390844E+04    0.14167E+04   -0.16916E+05  9280   0.171E+03
DAV:   2    -0.716831413383E+03   -0.21335E+04   -0.20655E+04 10848   0.215E+02
DAV:   3    -0.945045670949E+03   -0.22821E+03   -0.21898E+03 11456   0.665E+01
DAV:   4    -0.955768965247E+03   -0.10723E+02   -0.10313E+02 11344   0.139E+01
DAV:   5    -0.956259710859E+03   -0.49075E+00   -0.48378E+00 12088   0.268E+00    0.654E+01
DAV:   6    -0.973615156950E+03   -0.17355E+02   -0.56517E+02 10256   0.442E+01    0.303E+01
DAV:   7    -0.923934238918E+03    0.49681E+02   -0.92706E+01 11368   0.286E+01    0.259E+01
DAV:   8    -0.930984058589E+03   -0.70498E+01   -0.10485E+02 11504   0.147E+01    0.205E+01
DAV:   9    -0.922715669445E+03    0.82684E+01   -0.11009E+02 10048   0.172E+01    0.734E+00
DAV:  10    -0.921881217699E+03    0.83445E+00   -0.20193E+01 10944   0.760E+00    0.455E+00
DAV:  11    -0.921245921748E+03    0.63530E+00   -0.43157E+00 10664   0.314E+00    0.297E+00
DAV:  12    -0.920846298328E+03    0.39962E+00   -0.20835E+00 10360   0.183E+00    0.156E+00
DAV:  13    -0.920810529952E+03    0.35768E-01   -0.37146E-01 11120   0.103E+00    0.751E-01
DAV:  14    -0.920795914689E+03    0.14615E-01   -0.72785E-02 10624   0.446E-01    0.360E-01
DAV:  15    -0.920795319521E+03    0.59517E-03   -0.13419E-02 11048   0.222E-01    0.250E-01
DAV:  16    -0.920794781572E+03    0.53795E-03   -0.74215E-03 11016   0.132E-01    0.145E-01
DAV:  17    -0.920794891176E+03   -0.10960E-03   -0.17310E-03 11312   0.645E-02    0.105E-01
DAV:  18    -0.920794727668E+03    0.16351E-03   -0.96965E-04 10376   0.429E-02    0.479E-02
DAV:  19    -0.920794723404E+03    0.42646E-05   -0.15663E-04 10928   0.227E-02    0.229E-02
DAV:  20    -0.920794722232E+03    0.11713E-05   -0.64216E-05 10536   0.112E-02    0.166E-02
DAV:  21    -0.920794719997E+03    0.22354E-05   -0.11732E-05 10640   0.569E-03    0.104E-02
DAV:  22    -0.920794720364E+03   -0.36760E-06   -0.24078E-05 10424   0.594E-03    0.225E-03
DAV:  23    -0.920794720793E+03   -0.42840E-06   -0.23108E-06 11424   0.259E-03    0.184E-03
DAV:  24    -0.920794720387E+03    0.40585E-06   -0.23032E-07  7352   0.794E-04    0.977E-04
DAV:  25    -0.920794720256E+03    0.13117E-06   -0.14879E-07  6056   0.600E-04    0.394E-04
DAV:  26    -0.920794720275E+03   -0.19512E-07   -0.36955E-08  5576   0.364E-04
   1 F= -.92079472E+03 E0= -.92079358E+03  d E =-.227401E-02  mag=     1.0000
