  84  84   0   0
  0.2183197E+02  0.5431000E-09  0.1629300E-08  0.2072485E-08  0.5000000E-15
  1.000000000000000E-004
  CAR 
 Si and Ge interface calculation         
      7.92021867     -9.11341967  301      4.45951146      1.00000000
     -9.113  0.0000E+00  0.0000E+00  0.0000E+00  0.0000E+00
     -9.057  0.0000E+00  0.0000E+00  0.0000E+00  0.0000E+00
     -9.000  0.0000E+00  0.0000E+00  0.0000E+00  0.0000E+00
     -8.943  0.0000E+00  0.0000E+00  0.0000E+00  0.0000E+00
     -8.886  0.0000E+00  0.0000E+00  0.0000E+00  0.0000E+00
     -8.830  0.0000E+00  0.0000E+00  0.0000E+00  0.0000E+00
     -8.773  0.0000E+00  0.0000E+00  0.0000E+00  0.0000E+00
     -8.716  0.0000E+00  0.0000E+00  0.0000E+00  0.0000E+00
     -8.659  0.0000E+00  0.0000E+00  0.0000E+00  0.0000E+00
     -8.602  0.0000E+00  0.0000E+00  0.0000E+00  0.0000E+00
     -8.546  0.0000E+00  0.0000E+00  0.0000E+00  0.0000E+00
     -8.489  0.0000E+00  0.0000E+00  0.0000E+00  0.0000E+00
     -8.432  0.0000E+00  0.0000E+00  0.0000E+00  0.0000E+00
     -8.375  0.2410E-06  0.6364E-09  0.1368E-07  0.3614E-10
     -8.319  0.2913E+01  0.2726E+01  0.1654E+00  0.1548E+00
     -8.262  0.2457E-01  0.2094E+00  0.1668E+00  0.1667E+00
     -8.205  0.1069E+02  0.9237E+01  0.7739E+00  0.6911E+00
     -8.148  0.1093E+01  0.2506E+01  0.8360E+00  0.8335E+00
     -8.091  0.1084E+02  0.8151E+01  0.1451E+01  0.1296E+01
     -8.035  0.3793E+01  0.6523E+01  0.1667E+01  0.1667E+01
     -7.978  0.4139E+01  0.2830E+01  0.1902E+01  0.1827E+01
     -7.921  0.4721E+01  0.5828E+01  0.2170E+01  0.2158E+01
     -7.864  0.1114E+02  0.9115E+01  0.2802E+01  0.2676E+01
     -7.808  0.1227E+02  0.1392E+02  0.3499E+01  0.3466E+01
     -7.751  0.1833E+02  0.1530E+02  0.4539E+01  0.4335E+01
     -7.694  0.8132E+01  0.1170E+02  0.5001E+01  0.5000E+01
     -7.637  0.7520E+01  0.7262E+01  0.5428E+01  0.5412E+01
     -7.580  0.1508E+02  0.1157E+02  0.6284E+01  0.6069E+01
     -7.524  0.1409E+02  0.1762E+02  0.7084E+01  0.7069E+01
     -7.467  0.1935E+02  0.1604E+02  0.8183E+01  0.7980E+01
     -7.410  0.8507E+01  0.1186E+02  0.8666E+01  0.8653E+01
     -7.353  0.1054E+02  0.5520E+01  0.9264E+01  0.8967E+01
     -7.296  0.1501E+02  0.1696E+02  0.1012E+02  0.9930E+01
     -7.240  0.1832E+02  0.1745E+02  0.1116E+02  0.1092E+02
     -7.183  0.2201E+02  0.2410E+02  0.1241E+02  0.1229E+02
     -7.126  0.1211E+02  0.1093E+02  0.1309E+02  0.1291E+02
     -7.069  0.2180E+02  0.1797E+02  0.1433E+02  0.1393E+02
     -7.013  0.1751E+02  0.2100E+02  0.1533E+02  0.1512E+02
     -6.956  0.2300E+02  0.2258E+02  0.1663E+02  0.1640E+02
     -6.899  0.2047E+02  0.2032E+02  0.1779E+02  0.1756E+02
     -6.842  0.1987E+02  0.2153E+02  0.1892E+02  0.1878E+02
     -6.785  0.1844E+02  0.1607E+02  0.1997E+02  0.1969E+02
     -6.729  0.2095E+02  0.2103E+02  0.2116E+02  0.2089E+02
     -6.672  0.1726E+02  0.1757E+02  0.2214E+02  0.2189E+02
     -6.615  0.1450E+02  0.1429E+02  0.2296E+02  0.2270E+02
     -6.558  0.1172E+02  0.1488E+02  0.2363E+02  0.2354E+02
     -6.502  0.2266E+02  0.2072E+02  0.2491E+02  0.2472E+02
     -6.445  0.3044E+02  0.2575E+02  0.2664E+02  0.2618E+02
     -6.388  0.2349E+02  0.2731E+02  0.2798E+02  0.2773E+02
     -6.331  0.2140E+02  0.2252E+02  0.2919E+02  0.2901E+02
     -6.274  0.2841E+02  0.2798E+02  0.3080E+02  0.3060E+02
     -6.218  0.3684E+02  0.3767E+02  0.3290E+02  0.3274E+02
     -6.161  0.2993E+02  0.2810E+02  0.3460E+02  0.3433E+02
     -6.104  0.3173E+02  0.3177E+02  0.3640E+02  0.3614E+02
     -6.047  0.1921E+02  0.2174E+02  0.3749E+02  0.3737E+02
     -5.991  0.2594E+02  0.2193E+02  0.3896E+02  0.3862E+02
     -5.934  0.2428E+02  0.2949E+02  0.4034E+02  0.4029E+02
     -5.877  0.2464E+02  0.2400E+02  0.4174E+02  0.4165E+02
     -5.820  0.1776E+02  0.1451E+02  0.4275E+02  0.4248E+02
     -5.763  0.1250E+02  0.1558E+02  0.4346E+02  0.4336E+02
     -5.707  0.1926E+02  0.1758E+02  0.4455E+02  0.4436E+02
     -5.650  0.3516E+02  0.3223E+02  0.4655E+02  0.4619E+02
     -5.593  0.3412E+02  0.3244E+02  0.4848E+02  0.4803E+02
     -5.536  0.2493E+02  0.2812E+02  0.4990E+02  0.4963E+02
     -5.480  0.2476E+02  0.2717E+02  0.5131E+02  0.5117E+02
     -5.423  0.3744E+02  0.3434E+02  0.5343E+02  0.5312E+02
     -5.366  0.3108E+02  0.2940E+02  0.5520E+02  0.5479E+02
     -5.309  0.3107E+02  0.3341E+02  0.5696E+02  0.5669E+02
     -5.252  0.3586E+02  0.3342E+02  0.5900E+02  0.5859E+02
     -5.196  0.3201E+02  0.3307E+02  0.6081E+02  0.6046E+02
     -5.139  0.2119E+02  0.2368E+02  0.6202E+02  0.6181E+02
     -5.082  0.2447E+02  0.2649E+02  0.6341E+02  0.6331E+02
     -5.025  0.1125E+02  0.9797E+01  0.6405E+02  0.6387E+02
     -4.969  0.1340E+02  0.1334E+02  0.6481E+02  0.6463E+02
     -4.912  0.1466E+02  0.1461E+02  0.6564E+02  0.6546E+02
     -4.855  0.1512E+02  0.1611E+02  0.6650E+02  0.6637E+02
     -4.798  0.2207E+02  0.1870E+02  0.6775E+02  0.6743E+02
     -4.741  0.1175E+02  0.1723E+02  0.6842E+02  0.6841E+02
     -4.685  0.1530E+02  0.1211E+02  0.6929E+02  0.6910E+02
     -4.628  0.2166E+02  0.1883E+02  0.7052E+02  0.7017E+02
     -4.571  0.2947E+02  0.2971E+02  0.7219E+02  0.7185E+02
     -4.514  0.2023E+02  0.2378E+02  0.7334E+02  0.7320E+02
     -4.458  0.2087E+02  0.2053E+02  0.7452E+02  0.7437E+02
     -4.401  0.1410E+02  0.1395E+02  0.7532E+02  0.7516E+02
     -4.344  0.1431E+02  0.1495E+02  0.7614E+02  0.7601E+02
     -4.287  0.1872E+02  0.1973E+02  0.7720E+02  0.7713E+02
     -4.230  0.1660E+02  0.1359E+02  0.7814E+02  0.7790E+02
     -4.174  0.1468E+02  0.1425E+02  0.7897E+02  0.7871E+02
     -4.117  0.2271E+02  0.2383E+02  0.8026E+02  0.8007E+02
     -4.060  0.1397E+02  0.1471E+02  0.8106E+02  0.8090E+02
     -4.003  0.1535E+02  0.1356E+02  0.8193E+02  0.8167E+02
     -3.947  0.3241E+02  0.2812E+02  0.8377E+02  0.8327E+02
     -3.890  0.1844E+02  0.2510E+02  0.8482E+02  0.8469E+02
     -3.833  0.2791E+02  0.2396E+02  0.8640E+02  0.8605E+02
     -3.776  0.1725E+02  0.2031E+02  0.8738E+02  0.8721E+02
     -3.719  0.1302E+02  0.1378E+02  0.8812E+02  0.8799E+02
     -3.663  0.1628E+02  0.1451E+02  0.8904E+02  0.8881E+02
     -3.606  0.8945E+01  0.1106E+02  0.8955E+02  0.8944E+02
     -3.549  0.2574E+02  0.2119E+02  0.9101E+02  0.9064E+02
     -3.492  0.1423E+02  0.1637E+02  0.9182E+02  0.9157E+02
     -3.436  0.2262E+02  0.2377E+02  0.9311E+02  0.9292E+02
     -3.379  0.2890E+02  0.2546E+02  0.9475E+02  0.9437E+02
     -3.322  0.2164E+02  0.2344E+02  0.9597E+02  0.9570E+02
     -3.265  0.2511E+02  0.2433E+02  0.9740E+02  0.9708E+02
     -3.208  0.2601E+02  0.2744E+02  0.9888E+02  0.9864E+02
     -3.152  0.2927E+02  0.2803E+02  0.1005E+03  0.1002E+03
     -3.095  0.3287E+02  0.3279E+02  0.1024E+03  0.1021E+03
     -3.038  0.2916E+02  0.3175E+02  0.1041E+03  0.1039E+03
     -2.981  0.2626E+02  0.2457E+02  0.1056E+03  0.1053E+03
     -2.925  0.2054E+02  0.2006E+02  0.1067E+03  0.1064E+03
     -2.868  0.2646E+02  0.2885E+02  0.1082E+03  0.1081E+03
     -2.811  0.2809E+02  0.2624E+02  0.1098E+03  0.1096E+03
     -2.754  0.2264E+02  0.2296E+02  0.1111E+03  0.1109E+03
     -2.697  0.2935E+02  0.2637E+02  0.1128E+03  0.1124E+03
     -2.641  0.1904E+02  0.2180E+02  0.1138E+03  0.1136E+03
     -2.584  0.2130E+02  0.2334E+02  0.1151E+03  0.1149E+03
     -2.527  0.2089E+02  0.1943E+02  0.1162E+03  0.1160E+03
     -2.470  0.2582E+02  0.2482E+02  0.1177E+03  0.1174E+03
     -2.414  0.2123E+02  0.2259E+02  0.1189E+03  0.1187E+03
     -2.357  0.2445E+02  0.2166E+02  0.1203E+03  0.1199E+03
     -2.300  0.1849E+02  0.1799E+02  0.1214E+03  0.1210E+03
     -2.243  0.2439E+02  0.2714E+02  0.1227E+03  0.1225E+03
     -2.186  0.2316E+02  0.2110E+02  0.1241E+03  0.1237E+03
     -2.130  0.2459E+02  0.2047E+02  0.1255E+03  0.1249E+03
     -2.073  0.3362E+02  0.3909E+02  0.1274E+03  0.1271E+03
     -2.016  0.2160E+02  0.2091E+02  0.1286E+03  0.1283E+03
     -1.959  0.2794E+02  0.2706E+02  0.1302E+03  0.1298E+03
     -1.903  0.2744E+02  0.3029E+02  0.1317E+03  0.1315E+03
     -1.846  0.3212E+02  0.2866E+02  0.1336E+03  0.1332E+03
     -1.789  0.1797E+02  0.2204E+02  0.1346E+03  0.1344E+03
     -1.732  0.1982E+02  0.1806E+02  0.1357E+03  0.1354E+03
     -1.675  0.1740E+02  0.1626E+02  0.1367E+03  0.1364E+03
     -1.619  0.2069E+02  0.2341E+02  0.1379E+03  0.1377E+03
     -1.562  0.1181E+02  0.1067E+02  0.1385E+03  0.1383E+03
     -1.505  0.1891E+02  0.1961E+02  0.1396E+03  0.1394E+03
     -1.448  0.1922E+02  0.1805E+02  0.1407E+03  0.1404E+03
     -1.392  0.1429E+02  0.1859E+02  0.1415E+03  0.1415E+03
     -1.335  0.1623E+02  0.1091E+02  0.1424E+03  0.1421E+03
     -1.278  0.1936E+02  0.1894E+02  0.1435E+03  0.1432E+03
     -1.221  0.1601E+02  0.1543E+02  0.1444E+03  0.1441E+03
     -1.164  0.2194E+02  0.2026E+02  0.1457E+03  0.1452E+03
     -1.108  0.1675E+02  0.2283E+02  0.1466E+03  0.1465E+03
     -1.051  0.1388E+02  0.1422E+02  0.1474E+03  0.1473E+03
     -0.994  0.6214E+01  0.7140E+01  0.1478E+03  0.1477E+03
     -0.937  0.1660E+02  0.1362E+02  0.1487E+03  0.1485E+03
     -0.880  0.1534E+02  0.1778E+02  0.1496E+03  0.1495E+03
     -0.824  0.2343E+02  0.1996E+02  0.1509E+03  0.1506E+03
     -0.767  0.1224E+02  0.1512E+02  0.1516E+03  0.1515E+03
     -0.710  0.1759E+02  0.1437E+02  0.1526E+03  0.1523E+03
     -0.653  0.1096E+02  0.1425E+02  0.1532E+03  0.1531E+03
     -0.597  0.1247E+02  0.1056E+02  0.1539E+03  0.1537E+03
     -0.540  0.1854E+02  0.1877E+02  0.1550E+03  0.1548E+03
     -0.483  0.1576E+02  0.1446E+02  0.1559E+03  0.1556E+03
     -0.426  0.1602E+02  0.1704E+02  0.1568E+03  0.1566E+03
     -0.369  0.1188E+02  0.1264E+02  0.1575E+03  0.1573E+03
     -0.313  0.1317E+02  0.1267E+02  0.1582E+03  0.1580E+03
     -0.256  0.1209E+02  0.1503E+02  0.1589E+03  0.1589E+03
     -0.199  0.6458E+01  0.4233E+01  0.1593E+03  0.1591E+03
     -0.142  0.6489E+01  0.8524E+01  0.1596E+03  0.1596E+03
     -0.086  0.1052E+02  0.9058E+01  0.1602E+03  0.1601E+03
     -0.029  0.1600E+02  0.1601E+02  0.1612E+03  0.1610E+03
      0.028  0.2250E+02  0.2196E+02  0.1624E+03  0.1623E+03
      0.085  0.2572E+02  0.2510E+02  0.1639E+03  0.1637E+03
      0.142  0.3081E+02  0.3210E+02  0.1656E+03  0.1655E+03
      0.198  0.3827E+02  0.3394E+02  0.1678E+03  0.1674E+03
      0.255  0.3083E+02  0.3252E+02  0.1696E+03  0.1693E+03
      0.312  0.5053E+02  0.5085E+02  0.1724E+03  0.1722E+03
      0.369  0.3830E+02  0.3675E+02  0.1746E+03  0.1743E+03
      0.425  0.5041E+02  0.4491E+02  0.1775E+03  0.1768E+03
      0.482  0.4842E+02  0.5076E+02  0.1802E+03  0.1797E+03
      0.539  0.4562E+02  0.4870E+02  0.1828E+03  0.1824E+03
      0.596  0.4265E+02  0.4066E+02  0.1852E+03  0.1848E+03
      0.653  0.3983E+02  0.4192E+02  0.1875E+03  0.1871E+03
      0.709  0.5223E+02  0.5050E+02  0.1905E+03  0.1900E+03
      0.766  0.5121E+02  0.5182E+02  0.1934E+03  0.1929E+03
      0.823  0.4899E+02  0.5216E+02  0.1961E+03  0.1959E+03
      0.880  0.4118E+02  0.3804E+02  0.1985E+03  0.1981E+03
      0.936  0.4873E+02  0.4998E+02  0.2013E+03  0.2009E+03
      0.993  0.4868E+02  0.4897E+02  0.2040E+03  0.2037E+03
      1.050  0.4386E+02  0.4009E+02  0.2065E+03  0.2060E+03
      1.107  0.4562E+02  0.4909E+02  0.2091E+03  0.2088E+03
      1.164  0.4838E+02  0.4633E+02  0.2118E+03  0.2114E+03
      1.220  0.4520E+02  0.4360E+02  0.2144E+03  0.2139E+03
      1.277  0.5456E+02  0.5584E+02  0.2175E+03  0.2170E+03
      1.334  0.3359E+02  0.3746E+02  0.2194E+03  0.2192E+03
      1.391  0.6036E+02  0.5482E+02  0.2228E+03  0.2223E+03
      1.447  0.5541E+02  0.5653E+02  0.2260E+03  0.2255E+03
      1.504  0.5572E+02  0.5542E+02  0.2292E+03  0.2286E+03
      1.561  0.6132E+02  0.5983E+02  0.2326E+03  0.2320E+03
      1.618  0.4461E+02  0.4718E+02  0.2352E+03  0.2347E+03
      1.675  0.5912E+02  0.5802E+02  0.2385E+03  0.2380E+03
      1.731  0.3860E+02  0.3617E+02  0.2407E+03  0.2400E+03
      1.788  0.6722E+02  0.6930E+02  0.2445E+03  0.2440E+03
      1.845  0.4808E+02  0.5045E+02  0.2473E+03  0.2468E+03
      1.902  0.5639E+02  0.5505E+02  0.2505E+03  0.2500E+03
      1.958  0.5906E+02  0.5495E+02  0.2538E+03  0.2531E+03
      2.015  0.4533E+02  0.5141E+02  0.2564E+03  0.2560E+03
      2.072  0.3649E+02  0.3439E+02  0.2585E+03  0.2580E+03
      2.129  0.4312E+02  0.4749E+02  0.2609E+03  0.2607E+03
      2.186  0.5098E+02  0.4862E+02  0.2638E+03  0.2634E+03
      2.242  0.4725E+02  0.4712E+02  0.2665E+03  0.2661E+03
      2.299  0.4662E+02  0.4566E+02  0.2691E+03  0.2687E+03
      2.356  0.4830E+02  0.4639E+02  0.2719E+03  0.2713E+03
      2.413  0.4935E+02  0.5004E+02  0.2747E+03  0.2742E+03
      2.469  0.4033E+02  0.3954E+02  0.2770E+03  0.2764E+03
      2.526  0.3765E+02  0.4138E+02  0.2791E+03  0.2788E+03
      2.583  0.4889E+02  0.4659E+02  0.2819E+03  0.2814E+03
      2.640  0.4562E+02  0.4507E+02  0.2845E+03  0.2840E+03
      2.697  0.3887E+02  0.4091E+02  0.2867E+03  0.2863E+03
      2.753  0.4923E+02  0.4814E+02  0.2895E+03  0.2890E+03
      2.810  0.2979E+02  0.3215E+02  0.2912E+03  0.2908E+03
      2.867  0.5949E+02  0.5391E+02  0.2945E+03  0.2939E+03
      2.924  0.2932E+02  0.3372E+02  0.2962E+03  0.2958E+03
      2.980  0.4656E+02  0.3844E+02  0.2989E+03  0.2980E+03
      3.037  0.3851E+02  0.4898E+02  0.3010E+03  0.3008E+03
      3.094  0.4932E+02  0.4365E+02  0.3038E+03  0.3033E+03
      3.151  0.2876E+02  0.3328E+02  0.3055E+03  0.3052E+03
      3.208  0.3736E+02  0.3939E+02  0.3076E+03  0.3074E+03
      3.264  0.2627E+02  0.2244E+02  0.3091E+03  0.3087E+03
      3.321  0.3457E+02  0.3247E+02  0.3111E+03  0.3105E+03
      3.378  0.2891E+02  0.3150E+02  0.3127E+03  0.3123E+03
      3.435  0.2857E+02  0.2755E+02  0.3143E+03  0.3139E+03
      3.491  0.1770E+02  0.2041E+02  0.3153E+03  0.3150E+03
      3.548  0.1606E+02  0.1606E+02  0.3162E+03  0.3159E+03
      3.605  0.2158E+02  0.2016E+02  0.3175E+03  0.3171E+03
      3.662  0.1983E+02  0.2155E+02  0.3186E+03  0.3183E+03
      3.719  0.1736E+02  0.1806E+02  0.3196E+03  0.3193E+03
      3.775  0.2342E+02  0.2006E+02  0.3209E+03  0.3205E+03
      3.832  0.1499E+02  0.1863E+02  0.3218E+03  0.3215E+03
      3.889  0.1300E+02  0.9296E+01  0.3225E+03  0.3221E+03
      3.946  0.2342E+02  0.2351E+02  0.3238E+03  0.3234E+03
      4.002  0.2493E+02  0.2263E+02  0.3252E+03  0.3247E+03
      4.059  0.2944E+02  0.2937E+02  0.3269E+03  0.3263E+03
      4.116  0.1545E+02  0.1878E+02  0.3278E+03  0.3274E+03
      4.173  0.2606E+02  0.2041E+02  0.3293E+03  0.3286E+03
      4.230  0.2034E+02  0.2190E+02  0.3304E+03  0.3298E+03
      4.286  0.2961E+02  0.1821E+02  0.3321E+03  0.3308E+03
      4.343  0.2182E+02  0.3535E+02  0.3333E+03  0.3328E+03
      4.400  0.2075E+02  0.1883E+02  0.3345E+03  0.3339E+03
      4.457  0.2006E+02  0.1805E+02  0.3357E+03  0.3349E+03
      4.513  0.2323E+02  0.2440E+02  0.3370E+03  0.3363E+03
      4.570  0.2660E+02  0.2597E+02  0.3385E+03  0.3378E+03
      4.627  0.3230E+02  0.2710E+02  0.3403E+03  0.3393E+03
      4.684  0.1835E+02  0.2923E+02  0.3414E+03  0.3410E+03
      4.741  0.1801E+02  0.1840E+02  0.3424E+03  0.3420E+03
      4.797  0.8802E+01  0.8046E+01  0.3429E+03  0.3425E+03
      4.854  0.1821E+02  0.1430E+02  0.3439E+03  0.3433E+03
      4.911  0.1609E+02  0.1948E+02  0.3448E+03  0.3444E+03
      4.968  0.2489E+02  0.2244E+02  0.3462E+03  0.3457E+03
      5.025  0.1392E+02  0.1710E+02  0.3470E+03  0.3467E+03
      5.081  0.2282E+02  0.2279E+02  0.3483E+03  0.3480E+03
      5.138  0.2708E+02  0.2814E+02  0.3499E+03  0.3496E+03
      5.195  0.2346E+02  0.2031E+02  0.3512E+03  0.3507E+03
      5.252  0.3023E+02  0.3363E+02  0.3529E+03  0.3526E+03
      5.308  0.2555E+02  0.2300E+02  0.3544E+03  0.3539E+03
      5.365  0.3011E+02  0.2429E+02  0.3561E+03  0.3553E+03
      5.422  0.1457E+02  0.2352E+02  0.3569E+03  0.3566E+03
      5.479  0.3034E+02  0.2388E+02  0.3586E+03  0.3580E+03
      5.536  0.2628E+02  0.3034E+02  0.3601E+03  0.3597E+03
      5.592  0.3172E+02  0.2891E+02  0.3619E+03  0.3614E+03
      5.649  0.2993E+02  0.3033E+02  0.3636E+03  0.3631E+03
      5.706  0.3706E+02  0.3890E+02  0.3657E+03  0.3653E+03
      5.763  0.2562E+02  0.2534E+02  0.3672E+03  0.3667E+03
      5.819  0.3180E+02  0.2805E+02  0.3690E+03  0.3683E+03
      5.876  0.4686E+02  0.4555E+02  0.3716E+03  0.3709E+03
      5.933  0.2868E+02  0.3591E+02  0.3733E+03  0.3729E+03
      5.990  0.3736E+02  0.3636E+02  0.3754E+03  0.3750E+03
      6.047  0.3447E+02  0.3666E+02  0.3773E+03  0.3771E+03
      6.103  0.4383E+02  0.3934E+02  0.3798E+03  0.3793E+03
      6.160  0.3349E+02  0.3321E+02  0.3817E+03  0.3812E+03
      6.217  0.4813E+02  0.4814E+02  0.3845E+03  0.3839E+03
      6.274  0.5043E+02  0.5044E+02  0.3873E+03  0.3868E+03
      6.330  0.3296E+02  0.3699E+02  0.3892E+03  0.3889E+03
      6.387  0.4600E+02  0.4622E+02  0.3918E+03  0.3915E+03
      6.444  0.4430E+02  0.4082E+02  0.3943E+03  0.3939E+03
      6.501  0.3878E+02  0.3787E+02  0.3965E+03  0.3960E+03
      6.558  0.4598E+02  0.4988E+02  0.3991E+03  0.3988E+03
      6.614  0.2944E+02  0.2881E+02  0.4008E+03  0.4005E+03
      6.671  0.2038E+02  0.2426E+02  0.4020E+03  0.4018E+03
      6.728  0.1767E+02  0.1547E+02  0.4030E+03  0.4027E+03
      6.785  0.2808E+02  0.2873E+02  0.4046E+03  0.4044E+03
      6.841  0.2155E+02  0.2228E+02  0.4058E+03  0.4056E+03
      6.898  0.1518E+02  0.1682E+02  0.4067E+03  0.4066E+03
      6.955  0.8190E+01  0.7270E+01  0.4071E+03  0.4070E+03
      7.012  0.1103E+02  0.1245E+02  0.4078E+03  0.4077E+03
      7.069  0.2924E+01  0.3870E+01  0.4079E+03  0.4079E+03
      7.125  0.3106E-01  0.2569E-02  0.4079E+03  0.4079E+03
      7.182  0.1437E+01  0.1465E+01  0.4080E+03  0.4080E+03
      7.239  0.0000E+00  0.0000E+00  0.4080E+03  0.4080E+03
      7.296  0.0000E+00  0.0000E+00  0.4080E+03  0.4080E+03
      7.352  0.0000E+00  0.0000E+00  0.4080E+03  0.4080E+03
      7.409  0.0000E+00  0.0000E+00  0.4080E+03  0.4080E+03
      7.466  0.0000E+00  0.0000E+00  0.4080E+03  0.4080E+03
      7.523  0.0000E+00  0.0000E+00  0.4080E+03  0.4080E+03
      7.580  0.0000E+00  0.0000E+00  0.4080E+03  0.4080E+03
      7.636  0.0000E+00  0.0000E+00  0.4080E+03  0.4080E+03
      7.693  0.0000E+00  0.0000E+00  0.4080E+03  0.4080E+03
      7.750  0.0000E+00  0.0000E+00  0.4080E+03  0.4080E+03
      7.807  0.0000E+00  0.0000E+00  0.4080E+03  0.4080E+03
      7.863  0.0000E+00  0.0000E+00  0.4080E+03  0.4080E+03
      7.920  0.0000E+00  0.0000E+00  0.4080E+03  0.4080E+03
