Si and Ge interface calculation         
           1
    11.315600    0.000000    0.000000
   -11.315600   16.002676    0.000000
     0.000000    0.000000   25.604219
   Ge   Sn
    96    72
Direct configuration=     1
   0.46906772  0.98968923  0.00000002
   0.09406771  0.86468923  0.07812521
   0.71906763  0.73968923  0.15625042
   0.34406769  0.61468923  0.23437558
   0.96906781  0.48968929  0.31250077
   0.59406769  0.36468923  0.39062598
   0.96906769  0.98968923  0.00000002
   0.59406769  0.86468923  0.07812521
   0.21906763  0.73968923  0.15625042
   0.84406769  0.61468923  0.23437558
   0.46906781  0.48968929  0.31250077
   0.09406769  0.36468923  0.39062598
   0.46906769  0.48968923  0.00000001
   0.09406770  0.36468923  0.07812521
   0.71906757  0.23968922  0.15625042
   0.34406769  0.11468923  0.23437558
   0.96906781  0.98968923  0.31250077
   0.59406769  0.86468923  0.39062598
   0.96906769  0.48968923  0.00000001
   0.59406769  0.36468923  0.07812521
   0.21906757  0.23968922  0.15625042
   0.84406769  0.11468923  0.23437558
   0.46906769  0.98968923  0.31250077
   0.09406757  0.86468923  0.39062598
   0.71906769  0.23968923  0.00000002
   0.34406766  0.11468923  0.07812521
   0.96906757  0.98968923  0.15625042
   0.59406769  0.86468923  0.23437558
   0.21906769  0.73968923  0.31250077
   0.84406757  0.61468923  0.39062598
   0.21906768  0.23968923  0.00000002
   0.84406769  0.11468923  0.07812521
   0.46906763  0.98968923  0.15625042
   0.09406769  0.86468923  0.23437558
   0.71906781  0.73968923  0.31250077
   0.34406769  0.61468923  0.39062598
   0.71906763  0.73968923  0.00000002
   0.34406766  0.61468923  0.07812522
   0.96906757  0.48968920  0.15625043
   0.59406763  0.36468923  0.23437561
   0.21906769  0.23968925  0.31250080
   0.84406769  0.11468923  0.39062598
   0.21906769  0.73968923  0.00000002
   0.84406769  0.61468923  0.07812522
   0.46906757  0.48968920  0.15625043
   0.09406769  0.36468923  0.23437561
   0.71906769  0.23968925  0.31250080
   0.34406757  0.11468923  0.39062598
   0.46906766  0.36468923  0.00000002
   0.09406769  0.23968923  0.07812522
   0.71906763  0.11468921  0.15625043
   0.34406769  0.98968923  0.23437561
   0.96906781  0.86468923  0.31250077
   0.59406769  0.73968923  0.39062598
   0.96906769  0.36468923  0.00000002
   0.59406769  0.23968923  0.07812522
   0.21906763  0.11468921  0.15625043
   0.84406769  0.98968923  0.23437561
   0.46906781  0.86468923  0.31250077
   0.09406769  0.73968923  0.39062598
   0.46906775  0.86468929  0.00000000
   0.09406774  0.73968929  0.07812521
   0.71906769  0.61468929  0.15625040
   0.34406769  0.48968929  0.23437558
   0.96906781  0.36468929  0.31250077
   0.59406769  0.23968929  0.39062595
   0.96906769  0.86468929  0.00000000
   0.59406757  0.73968929  0.07812521
   0.21906757  0.61468929  0.15625040
   0.84406757  0.48968929  0.23437558
   0.46906757  0.36468929  0.31250077
   0.09406769  0.23968929  0.39062595
   0.71906769  0.11468922  0.00000002
   0.34406766  0.98968923  0.07812521
   0.96906763  0.86468923  0.15625042
   0.59406769  0.73968923  0.23437561
   0.21906769  0.61468923  0.31250077
   0.84406769  0.48968923  0.39062598
   0.21906768  0.11468922  0.00000002
   0.84406769  0.98968923  0.07812521
   0.46906763  0.86468923  0.15625042
   0.09406769  0.73968923  0.23437561
   0.71906781  0.61468923  0.31250077
   0.34406769  0.48968923  0.39062598
   0.71906769  0.61468923  0.00000001
   0.34406769  0.48968923  0.07812522
   0.96906763  0.36468923  0.15625042
   0.59406769  0.23968923  0.23437561
   0.21906775  0.11468925  0.31250077
   0.84406757  0.98968923  0.39062598
   0.21906772  0.61468923  0.00000001
   0.84406769  0.48968923  0.07812522
   0.46906763  0.36468923  0.15625042
   0.09406769  0.23968923  0.23437561
   0.71906781  0.11468925  0.31250077
   0.34406769  0.98968923  0.39062598
   0.51202714  0.76156938  0.47129920
   0.76202714  0.01156938  0.56090468
   0.01202738  0.26156956  0.65051025
   0.26202762  0.51156968  0.74011576
   0.51202750  0.76156968  0.82972127
   0.76202762  0.01156986  0.91932684
   0.17869380  0.09490260  0.47129920
   0.42869383  0.34490266  0.56090474
   0.67869407  0.59490281  0.65051025
   0.92869425  0.84490293  0.74011582
   0.17869426  0.09490306  0.82972127
   0.42869437  0.34490317  0.91932684
   0.84536052  0.42823595  0.47129920
   0.09536064  0.67823601  0.56090474
   0.34536076  0.92823613  0.65051025
   0.59536099  0.17823631  0.74011576
   0.84536087  0.42823631  0.82972127
   0.09536123  0.67823654  0.91932684
   0.34536049  0.92823601  0.47129917
   0.59536046  0.17823607  0.56090468
   0.84536070  0.42823619  0.65051025
   0.09536099  0.67823631  0.74011576
   0.34536076  0.92823643  0.82972127
   0.59536099  0.17823666  0.91932684
   0.67869389  0.59490263  0.47129920
   0.92869377  0.84490269  0.56090474
   0.17869402  0.09490282  0.65051025
   0.42869425  0.34490305  0.74011576
   0.67869425  0.59490293  0.82972127
   0.92869413  0.84490317  0.91932684
   0.01202726  0.26156929  0.47129920
   0.26202738  0.51156938  0.56090474
   0.51202750  0.76156950  0.65051025
   0.76202762  0.01156974  0.74011576
   0.01202750  0.26156968  0.82972127
   0.26202786  0.51156992  0.91932684
   0.26202720  0.76156926  0.47129917
   0.51202726  0.01156926  0.56090474
   0.76202726  0.26156944  0.65051025
   0.01202750  0.51156956  0.74011576
   0.26202750  0.76156956  0.82972127
   0.51202750  0.01156986  0.91932684
   0.59536052  0.42823595  0.47129920
   0.84536052  0.67823595  0.56090474
   0.09536076  0.92823613  0.65051025
   0.34536087  0.17823619  0.74011576
   0.59536076  0.42823631  0.82972127
   0.84536087  0.67823643  0.91932684
   0.92869383  0.09490260  0.47129920
   0.17869391  0.34490266  0.56090474
   0.42869401  0.59490275  0.65051025
   0.67869425  0.84490293  0.74011582
   0.92869437  0.09490306  0.82972127
   0.17869438  0.34490305  0.91932684
   0.42869383  0.59490269  0.47129920
   0.67869389  0.84490263  0.56090474
   0.92869395  0.09490282  0.65051025
   0.17869414  0.34490293  0.74011582
   0.42869413  0.59490293  0.82972127
   0.67869425  0.84490317  0.91932678
   0.09536052  0.92823595  0.47129920
   0.34536064  0.17823607  0.56090474
   0.59536076  0.42823619  0.65051025
   0.84536099  0.67823631  0.74011582
   0.09536087  0.92823631  0.82972127
   0.34536135  0.17823666  0.91932678
   0.76202720  0.26156932  0.47129920
   0.01202714  0.51156932  0.56090474
   0.26202726  0.76156950  0.65051025
   0.51202738  0.01156962  0.74011576
   0.76202738  0.26156968  0.82972127
   0.01202738  0.51156980  0.91932684
