 vasp.6.4.3 19Mar24 (build Oct 22 2024 11:23:12) complex                        
  
 executed on             LinuxIFC date 2025.06.11  12:15:28
 running   64 mpi-ranks, on    4 nodes
 distrk:  each k-point on   64 cores,    1 groups
 distr:  one band on NCORE=  16 cores,    4 groups


--------------------------------------------------------------------------------------------------------


 INCAR:
   SYSTEM = Si and Ge interface calculation
   ISTART = 0
   ICHARG = 2
   LWAVE = .FALSE.
   LREAL = AUTO
   ENCUT = 700
   ENAUG = 900
   ADDGRID = .TRUE.
   LMAXMIX = 6
   LASPH = .TRUE.
   LMIXTAU = .TRUE.
   NCORE = 16
   NELM = 100
   NBANDS = 634
   EDIFF = 1d-7
   AMIX = 0.6
   ISMEAR = 0
   SIGMA = 0.01
   NELECT = 1056
   ISPIN = 2
   NUPDOWN = 1
   LVTOT = .FALSE.
   LVHAR = .TRUE.

 POTCAR:    PAW_PBE Sn 08Apr2002                  
 POTCAR:    PAW_PBE Si 05Jan2001                  
 -----------------------------------------------------------------------------
|                                                                             |
|           W    W    AA    RRRRR   N    N  II  N    N   GGGG   !!!           |
|           W    W   A  A   R    R  NN   N  II  NN   N  G    G  !!!           |
|           W    W  A    A  R    R  N N  N  II  N N  N  G       !!!           |
|           W WW W  AAAAAA  RRRRR   N  N N  II  N  N N  G  GGG   !            |
|           WW  WW  A    A  R   R   N   NN  II  N   NN  G    G                |
|           W    W  A    A  R    R  N    N  II  N    N   GGGG   !!!           |
|                                                                             |
|     You use a magnetic or noncollinear calculation, but did not specify     |
|     the initial magnetic moment with the MAGMOM tag. Note that a            |
|     default of 3.788e-3 will be used for all atoms. This ferromagnetic      |
|     setup may break the symmetry of the crystal, in particular it may       |
|     rule out finding an antiferromagnetic solution. Thence, we              |
|     recommend setting the initial magnetic moment manually or verifying     |
|     carefully that this magnetic setup is desired.                          |
|                                                                             |
 -----------------------------------------------------------------------------

 POTCAR:    PAW_PBE Sn 08Apr2002                  
   VRHFIN =Sn: s2p2                                                                                 
   LEXCH  = PE                                                                                      
   EATOM  =    94.0860 eV,    6.9151 Ry                                                             
                                                                                                    
   TITEL  = PAW_PBE Sn 08Apr2002                                                                    
   LULTRA =        F    use ultrasoft PP ?                                                          
   IUNSCR =        1    unscreen: 0-lin 1-nonlin 2-no                                               
   RPACOR =    2.000    partial core radius                                                         
   POMASS =  118.710; ZVAL   =    4.000    mass and valenz                                          
   RCORE  =    3.000    outmost cutoff radius                                                       
   RWIGS  =    2.960; RWIGS  =    1.566    wigner-seitz radius (au A)                               
   ENMAX  =  103.236; ENMIN  =   77.427 eV                                                          
   ICORE  =        3    local potential                                                             
   LCOR   =        T    correct aug charges                                                         
   LPAW   =        T    paw PP                                                                      
   EAUG   =  263.585                                                                                
   DEXC   =    0.000                                                                                
   RMAX   =    3.078    core radius for proj-oper                                                   
   RAUG   =    1.300    factor for augmentation sphere                                              
   RDEP   =    3.022    radius for radial grids                                                     
   RDEPT  =    2.655    core radius for aug-charge                                                  
                                                                                                    
   Atomic configuration                                                                             
   13 entries                                                                                       
     n  l   j            E        occ.                                                              
     1  0  0.50    -29007.2859   2.0000                                                             
     2  0  0.50     -4378.8056   2.0000                                                             
     2  1  1.50     -3930.4293   6.0000                                                             
     3  0  0.50      -845.0264   2.0000                                                             
     3  1  1.50      -698.5725   6.0000                                                             
     3  2  2.50      -473.2839  10.0000                                                             
     4  0  0.50      -133.9036   2.0000                                                             
     4  1  1.50       -89.6752   6.0000                                                             
     4  2  2.50       -25.8375  10.0000                                                             
     5  0  0.50       -10.5484   2.0000                                                             
     5  1  0.50        -3.6940   2.0000                                                             
     5  2  1.50        -1.3606   0.0000                                                             
     4  3  2.50        -4.0817   0.0000                                                             
   Description                                                                                      
     l       E           TYP  RCUT    TYP  RCUT                                                     
     0    -10.5483727     23  3.000                                                                 
     0     27.2116520     23  3.000                                                                 
     1     -3.6939829     23  3.000                                                                 
     1      1.9821976     23  3.000                                                                 
     2     -1.3605826     23  3.000                                                                 
     3     -2.7211652     23  3.000                                                                 
  local pseudopotential read in
  partial core-charges read in
  partial kinetic energy density read in
  atomic valenz-charges read in
  non local Contribution for L=           0  read in
    real space projection operators read in
  non local Contribution for L=           0  read in
    real space projection operators read in
  non local Contribution for L=           1  read in
    real space projection operators read in
  non local Contribution for L=           1  read in
    real space projection operators read in
  non local Contribution for L=           2  read in
    real space projection operators read in
    PAW grid and wavefunctions read in
 
   number of l-projection  operators is LMAX  =           5
   number of lm-projection operators is LMMAX =          13
 
 POTCAR:    PAW_PBE Si 05Jan2001                  
   VRHFIN =Si: s2p2                                                                                 
   LEXCH  = PE                                                                                      
   EATOM  =   103.0669 eV,    7.5752 Ry                                                             
                                                                                                    
   TITEL  = PAW_PBE Si 05Jan2001                                                                    
   LULTRA =        F    use ultrasoft PP ?                                                          
   IUNSCR =        1    unscreen: 0-lin 1-nonlin 2-no                                               
   RPACOR =    1.500    partial core radius                                                         
   POMASS =   28.085; ZVAL   =    4.000    mass and valenz                                          
   RCORE  =    1.900    outmost cutoff radius                                                       
   RWIGS  =    2.480; RWIGS  =    1.312    wigner-seitz radius (au A)                               
   ENMAX  =  245.345; ENMIN  =  184.009 eV                                                          
   ICORE  =        2    local potential                                                             
   LCOR   =        T    correct aug charges                                                         
   LPAW   =        T    paw PP                                                                      
   EAUG   =  322.069                                                                                
   DEXC   =    0.000                                                                                
   RMAX   =    1.950    core radius for proj-oper                                                   
   RAUG   =    1.300    factor for augmentation sphere                                              
   RDEP   =    1.993    radius for radial grids                                                     
   RDEPT  =    1.837    core radius for aug-charge                                                  
                                                                                                    
   Atomic configuration                                                                             
    6 entries                                                                                       
     n  l   j            E        occ.                                                              
     1  0  0.50     -1785.8828   2.0000                                                             
     2  0  0.50      -139.4969   2.0000                                                             
     2  1  1.50       -95.5546   6.0000                                                             
     3  0  0.50       -10.8127   2.0000                                                             
     3  1  0.50        -4.0811   2.0000                                                             
     3  2  1.50        -4.0817   0.0000                                                             
   Description                                                                                      
     l       E           TYP  RCUT    TYP  RCUT                                                     
     0    -10.8127223     23  1.900                                                                 
     0     -7.6451159     23  1.900                                                                 
     1     -4.0811372     23  1.900                                                                 
     1      2.4879257     23  1.900                                                                 
     2     -4.0817478      7  1.900                                                                 
  local pseudopotential read in
  partial core-charges read in
  partial kinetic energy density read in
  atomic valenz-charges read in
  non local Contribution for L=           0  read in
    real space projection operators read in
  non local Contribution for L=           0  read in
    real space projection operators read in
  non local Contribution for L=           1  read in
    real space projection operators read in
  non local Contribution for L=           1  read in
    real space projection operators read in
    PAW grid and wavefunctions read in
 
   number of l-projection  operators is LMAX  =           4
   number of lm-projection operators is LMMAX =           8
 
 Optimization of the real space projectors (new method)

 maximal supplied QI-value         = 12.47
 optimisation between [QCUT,QGAM] = [ 12.47, 27.06] = [ 43.56,205.12] Ry 
 Optimized for a Real-space Cutoff    1.58 Angstroem

   l    n(q)    QCUT    max X(q) W(low)/X(q) W(high)/X(q)  e(spline) 
   0     13    12.472    14.688    0.45E-04    0.45E-04    0.25E-05
   0     13    12.472     7.308    0.94E-04    0.11E-03    0.61E-05
   1     12    12.472    45.102    0.34E-03    0.14E-03    0.21E-05
   1     12    12.472    30.691    0.31E-03    0.13E-03    0.20E-05
   2     12    12.472     7.156    0.86E-04    0.11E-03    0.17E-05
 WARNING: PSMAXN for non-local potential too small
          PSMAXN should be >   13.5545592237991       NTYP=           1
 Optimization of the real space projectors (new method)

 maximal supplied QI-value         = 19.84
 optimisation between [QCUT,QGAM] = [ 13.49, 26.99] = [ 50.98,203.92] Ry 
 Optimized for a Real-space Cutoff    1.07 Angstroem

   l    n(q)    QCUT    max X(q) W(low)/X(q) W(high)/X(q)  e(spline) 
   0      9    13.493   159.560    0.22E-03    0.15E-03    0.72E-07
   0      9    13.493   115.863    0.21E-03    0.15E-03    0.71E-07
   1      8    13.493    88.339    0.15E-03    0.11E-03    0.13E-06
   1      8    13.493    48.592    0.15E-03    0.10E-03    0.13E-06
  PAW_PBE Sn 08Apr2002                  :
 energy of atom  1       EATOM=  -94.0860
 kinetic energy error for atom=    0.0000 (will be added to EATOM!!)
  PAW_PBE Si 05Jan2001                  :
 energy of atom  2       EATOM= -103.0669
 kinetic energy error for atom=    0.0003 (will be added to EATOM!!)
 
 
 POSCAR: Sn+Si
  positions in direct lattice
  No initial velocities read in


 exchange-correlation table for PE
   RHO(1)=    0.500       N(1)  =     2000
   RHO(2)=  100.500       N(2)  =     4000
 


--------------------------------------------------------------------------------------------------------


 ion  position               nearest neighbor table
   1  0.016  0.374  0.890- 246 2.28 201 2.34 132 2.34
   2  0.828  0.667  0.170-  49 2.81 202 2.81 100 2.81 109 2.81
   3  0.662  0.667  0.340- 139 2.81 124 2.81 109 2.81 102 2.81
   4  0.169  0.604  0.890- 204 2.34 135 2.34 261 2.93
   5  0.939  0.758  0.890- 216 2.34 144 2.34 243 2.97  73 3.34
   6  0.662  0.333  0.340- 208 2.81  36 2.81 190 2.81 105 2.81
   7  0.995  0.000  0.000-  28 2.81 106 2.81  59 2.84  62 2.96
   8  0.977  0.566  0.890- 132 2.34 216 2.34 243 2.89
   9  0.662  0.000  0.340-  47 2.81 121 2.81 214 2.81 108 2.81
  10  0.785  0.528  0.890-  76 2.33 114 2.34 189 2.34
  11  0.162  0.667  0.170- 193 2.81  31 2.81  83 2.81  82 2.81
  12  0.995  0.667  0.340-  42 2.81 202 2.81  83 2.81 112 2.81
  13  0.328  0.333  0.000-  43 2.81  85 2.81  56 3.34 234 3.40  58 3.44
  14  0.669  0.104  0.890- 126 2.34 213 2.34  25 2.93
  15  0.995  0.333  0.340- 220 2.81 217 2.81 205 2.81  87 2.81
  16  0.746  0.720  0.890- 198 2.34 114 2.34  19 2.86  73 3.44
  17  0.592  0.489  0.890- 111 2.34 195 2.34 123 2.84
  18  0.995  0.000  0.340- 136 2.81  29 2.81  89 2.81  90 2.81
  19  0.662  0.667  0.000-  49 2.81 141 2.81  16 2.86 237 2.98
  20  0.477  0.066  0.890- 210 2.34  91 2.34  70 2.89
  21  0.328  0.667  0.340-  51 2.81 193 2.81 184 2.81 211 2.81
  22  0.662  0.333  0.000-  80 2.30  94 2.81  52 2.81
  23  0.054  0.181  0.890- 201 2.34 147 2.34  61 2.98
  24  0.328  0.333  0.340-  54 2.81  96 2.81  44 2.81 133 2.81
  25  0.662  0.000  0.000-  46 2.81  97 2.81 240 2.85  14 2.93
  26  0.495  0.000  0.170-  98 2.81  37 2.81  47 2.81  97 2.81
  27  0.208  0.412  0.606- 203 2.34  38 2.34 131 2.34 107 2.34  96 3.53
  28  0.078  0.917  0.085- 156 2.81   7 2.81  55 2.81 153 2.81
  29  0.912  0.917  0.255- 174 2.81  18 2.81 153 2.81  57 2.81
  30  0.766  0.624  0.535- 124 2.28 166 2.34 235 2.34
  31  0.078  0.583  0.085-  11 2.81 243 2.81 261 2.81 258 2.81
  32  0.419  0.354  0.535- 244 2.34 160 2.34  54 2.93
  33  0.919  0.854  0.535- 169 2.34 238 2.34 112 2.93
  34  0.078  0.250  0.085- 171 2.81  61 2.81 246 2.81 183 2.81
  35  0.342  0.739  0.535- 256 2.34 175 2.34 184 2.84
  36  0.745  0.250  0.425-   6 2.81  63 2.81 101 2.84 104 2.96
  37  0.412  0.917  0.085- 159 2.81  26 2.81  64 2.81  65 2.81
  38  0.227  0.316  0.535-  27 2.34 241 2.34  96 2.89
  39  0.535  0.778  0.535- 102 2.33 247 2.34 178 2.34
  40  0.412  0.583  0.085- 231 2.81 252 2.81 123 2.81  68 2.81
  41  0.804  0.431  0.535- 235 2.34 154 2.34  87 2.98
  42  0.078  0.583  0.425-  12 2.81  69 2.81 107 3.34 142 3.40  84 3.44
  43  0.412  0.250  0.085-  13 2.81  70 2.81 150 2.81 186 2.81
  44  0.245  0.250  0.255- 150 2.81 171 2.81  72 2.81  24 2.81
  45  0.496  0.970  0.535- 259 2.34 178 2.34  48 2.86 108 3.44
  46  0.745  0.917  0.085- 174 2.81  25 2.81  74 2.81  73 2.81
  47  0.578  0.917  0.255-   9 2.81  26 2.81  74 2.81  75 2.81
  48  0.412  0.917  0.425- 172 2.81  75 2.81  45 2.86 145 2.98
  49  0.745  0.583  0.085-   2 2.81  19 2.81 177 2.81  76 2.81
  50  0.689  0.008  0.535- 250 2.34 151 2.34 121 2.97 108 3.34
  51  0.412  0.583  0.425-  95 2.30  21 2.81  78 2.81
  52  0.745  0.250  0.085- 255 2.81 228 2.81  79 2.81  22 2.81
  53  0.727  0.816  0.535- 166 2.34 250 2.34 121 2.89
  54  0.412  0.250  0.425-  24 2.81  81 2.81 115 2.85  32 2.93
  55  0.162  0.833  0.000-  77 2.30  82 2.81  28 2.81
  56  0.439  0.258  0.890- 192 2.34  91 2.34  70 2.97  13 3.34
  57  0.828  0.833  0.340- 112 2.81 109 2.81 121 2.81  29 2.81
  58  0.246  0.220  0.890- 117 2.34 222 2.34  61 2.86  13 3.44
  59  0.092  0.989  0.890- 147 2.34 219 2.34   7 2.84
  60  0.828  0.500  0.340-  87 2.81 190 2.81 124 2.81 202 2.81
  61  0.162  0.167  0.000-  88 2.81  34 2.81  58 2.86  23 2.98
  62  0.900  0.951  0.890- 225 2.34 144 2.34   7 2.96  73 3.40
  63  0.828  0.167  0.340-  90 2.81  36 2.81 217 2.81 214 2.81
  64  0.495  0.833  0.000- 168 2.28 141 2.81  37 2.81  67 3.71
  65  0.328  0.833  0.170-  82 2.81 211 2.81 130 2.81  37 2.81
  66  0.162  0.833  0.340-  83 2.81 184 2.81 130 2.81 136 2.81
  67  0.535  0.778  0.819- 248 2.34 168 2.34 167 2.34 237 2.34  64 3.71
  68  0.328  0.500  0.170-  85 2.81 133 2.81 193 2.81  40 2.81
  69  0.162  0.500  0.340- 205 2.81  96 2.81 193 2.81  42 2.81
  70  0.495  0.167  0.000-  43 2.81  97 2.81  20 2.89  56 2.97  91 3.53
  71  0.823  0.335  0.890- 189 2.34 129 2.34
  72  0.162  0.167  0.340-  89 2.81  44 2.81 220 2.81  99 2.81
  73  0.828  0.833  0.000- 100 2.81  46 2.81   5 3.34  62 3.40  16 3.44
  74  0.662  0.833  0.170- 109 2.81 141 2.81  47 2.81  46 2.81
  75  0.495  0.833  0.340- 102 2.81 211 2.81  47 2.81  48 2.81
  76  0.828  0.500  0.000-  10 2.33 103 2.81  49 2.81
  77  0.131  0.797  0.890-  55 2.30 219 2.34 135 2.34
  78  0.495  0.500  0.340- 105 2.81 133 2.81 139 2.81  51 2.81
  79  0.828  0.167  0.000- 264 2.25 106 2.81  52 2.81
  80  0.631  0.297  0.890-  22 2.30 213 2.34 111 2.34
  81  0.495  0.167  0.340- 108 2.81  98 2.81 208 2.81  54 2.81
  82  0.245  0.750  0.085-  65 2.81  55 2.81  11 2.81 231 2.81
  83  0.078  0.750  0.255- 153 2.81  66 2.81  11 2.81  12 2.81
  84  0.996  0.470  0.535- 229 2.34 157 2.34  87 2.86  42 3.44
  85  0.245  0.417  0.085-  68 2.81 261 2.81 171 2.81  13 2.81
  86  0.573  0.585  0.535- 247 2.34 163 2.34
  87  0.912  0.417  0.425-  60 2.81  15 2.81  84 2.86  41 2.98
  88  0.245  0.083  0.085- 150 2.81  61 2.81 156 2.81 159 2.81
  89  0.078  0.083  0.255- 156 2.81 183 2.81  72 2.81  18 2.81
  90  0.912  0.083  0.425-  92 2.30  63 2.81  18 2.81
  91  0.458  0.162  0.819- 260 2.34  20 2.34  56 2.34 152 2.34  70 3.53
  92  0.881  0.047  0.535-  90 2.30 226 2.34 169 2.34
  93  0.285  0.028  0.606- 221 2.34 199 2.34 146 2.34 145 2.34  99 3.71
  94  0.578  0.417  0.085- 177 2.81 123 2.81  22 2.81 186 2.81
  95  0.381  0.547  0.535-  51 2.30 244 2.34 175 2.34
  96  0.245  0.417  0.425-  69 2.81  24 2.81  38 2.89 107 2.97  27 3.53
  97  0.578  0.083  0.085-  25 2.81 228 2.81  70 2.81  26 2.81
  98  0.412  0.083  0.255-  26 2.81  81 2.81 150 2.81 172 2.81
  99  0.245  0.083  0.425- 199 2.28 172 2.81  72 2.81  93 3.71
 100  0.912  0.750  0.085-  73 2.81 153 2.81   2 2.81 243 2.81
 101  0.842  0.239  0.535- 226 2.34 154 2.34  36 2.84
 102  0.578  0.750  0.425-  39 2.33  75 2.81   3 2.81
 103  0.912  0.417  0.085-  76 2.81 258 2.81 255 2.81 246 2.81
 104  0.650  0.201  0.535- 232 2.34 151 2.34  36 2.96 108 3.40
 105  0.578  0.417  0.425- 118 2.25  78 2.81   6 2.81
 106  0.912  0.083  0.085-  79 2.81 183 2.81 174 2.81   7 2.81
 107  0.189  0.508  0.535- 253 2.34  27 2.34  96 2.97  42 3.34
 108  0.578  0.083  0.425-  81 2.81   9 2.81  50 3.34 104 3.40  45 3.44
 109  0.745  0.750  0.255-  74 2.81  57 2.81   2 2.81   3 2.81
 110  0.727  0.316  0.677- 232 2.34 227 2.34 154 2.34 155 2.34
 111  0.612  0.393  0.819- 233 2.34  80 2.34  17 2.34 155 2.34
 112  0.912  0.750  0.425-  57 2.81  12 2.81 196 2.85  33 2.93
 113  0.881  0.547  0.677- 235 2.34 230 2.34 157 2.34 158 2.34
 114  0.766  0.624  0.819- 236 2.34  10 2.34 158 2.34  16 2.34
 115  0.458  0.162  0.535- 259 2.34 160 2.34  54 2.85
 116  0.342  0.239  0.677- 260 2.34 241 2.34 161 2.34 160 2.34
 117  0.227  0.316  0.819-  58 2.34 242 2.34 162 2.34 161 2.34
 118  0.612  0.393  0.535- 105 2.25 232 2.34 163 2.34
 119  0.496  0.470  0.677- 244 2.34 163 2.34 164 2.34 233 2.34
 120  0.381  0.547  0.819- 245 2.34 164 2.34 234 2.34 165 2.34
 121  0.745  0.917  0.425-   9 2.81  57 2.81  53 2.89  50 2.97
 122  0.650  0.701  0.677- 247 2.34 167 2.34 166 2.34 236 2.34
 123  0.495  0.500  0.000-  94 2.81  40 2.81  17 2.84 234 2.96
 124  0.745  0.583  0.425-  30 2.28   3 2.81  60 2.81
 125  0.804  0.931  0.677- 250 2.34 170 2.34 169 2.34 239 2.34
 126  0.689  0.008  0.819- 251 2.34  14 2.34 170 2.34 240 2.34
 127  0.073  0.085  0.535- 262 2.34 148 2.34
 128  0.958  0.162  0.677- 226 2.34 263 2.34 148 2.34 149 2.34
 129  0.842  0.239  0.819- 227 2.34 264 2.34 149 2.34  71 2.34
 130  0.245  0.917  0.255- 156 2.81 172 2.81  65 2.81  66 2.81
 131  0.112  0.393  0.677- 229 2.34 173 2.34  27 2.34 242 2.34
 132  0.996  0.470  0.819- 230 2.34   8 2.34   1 2.34 173 2.34
 133  0.412  0.417  0.255- 186 2.81  78 2.81  68 2.81  24 2.81
 134  0.266  0.624  0.677- 253 2.34 176 2.34 245 2.34 175 2.34
 135  0.150  0.701  0.819- 254 2.34   4 2.34 176 2.34  77 2.34
 136  0.078  0.917  0.425- 223 2.25  18 2.81  66 2.81
 137  0.419  0.854  0.677- 256 2.34 248 2.34 178 2.34 179 2.34
 138  0.304  0.931  0.819- 257 2.34 249 2.34 179 2.34 180 2.34
 139  0.578  0.583  0.255-   3 2.81 252 2.81 177 2.81  78 2.81
 140  0.573  0.085  0.677- 259 2.34 251 2.34 152 2.34 151 2.34
 141  0.578  0.750  0.085-  74 2.81  64 2.81  19 2.81 252 2.81
 142  0.150  0.701  0.535- 253 2.34 181 2.34 184 2.96  42 3.40
 143  0.035  0.778  0.677- 238 2.34 254 2.34 182 2.34 181 2.34
 144  0.919  0.854  0.819- 239 2.34  62 2.34   5 2.34 182 2.34
 145  0.304  0.931  0.535- 256 2.34  93 2.34  48 2.98
 146  0.189  0.008  0.677- 257 2.34 262 2.34  93 2.34 185 2.34
 147  0.073  0.085  0.819- 263 2.34  59 2.34  23 2.34 185 2.34
 148  0.054  0.181  0.606- 200 2.34 128 2.34 187 2.34 127 2.34
 149  0.939  0.258  0.748- 188 2.34 128 2.34 201 2.34 129 2.34
 150  0.328  0.167  0.170-  44 2.81  88 2.81  43 2.81  98 2.81
 151  0.669  0.104  0.606- 212 2.34 104 2.34  50 2.34 140 2.34
 152  0.554  0.181  0.748- 213 2.34 191 2.34 140 2.34  91 2.34
 153  0.995  0.833  0.170- 100 2.81  83 2.81  29 2.81  28 2.81
 154  0.823  0.335  0.606- 188 2.34 101 2.34 110 2.34  41 2.34
 155  0.708  0.412  0.748- 189 2.34 110 2.34 194 2.34 111 2.34
 156  0.162  0.000  0.170- 130 2.81  28 2.81  89 2.81  88 2.81
 157  0.977  0.566  0.606- 215 2.34 113 2.34  84 2.34 196 2.34
 158  0.862  0.643  0.748- 216 2.34 114 2.34 197 2.34 113 2.34
 159  0.328  0.000  0.000- 180 2.33  37 2.81  88 2.81
 160  0.439  0.258  0.606- 191 2.34 115 2.34 116 2.34  32 2.34
 161  0.323  0.335  0.748- 192 2.34 116 2.34 203 2.34 117 2.34
 162  0.208  0.412  0.890- 204 2.34 117 2.34 261 2.85
 163  0.592  0.489  0.606- 194 2.34 119 2.34  86 2.34 118 2.34
 164  0.477  0.566  0.748- 119 2.34 195 2.34 206 2.34 120 2.34
 165  0.362  0.643  0.890- 231 2.25 207 2.34 120 2.34
 166  0.746  0.720  0.606- 197 2.34  30 2.34  53 2.34 122 2.34
 167  0.631  0.797  0.748- 122 2.34 209 2.34 198 2.34  67 2.34
 168  0.516  0.874  0.890-  64 2.28 210 2.34  67 2.34
 169  0.900  0.951  0.606- 224 2.34  33 2.34  92 2.34 125 2.34
 170  0.785  0.028  0.748- 225 2.34 125 2.34 212 2.34 126 2.34
 171  0.162  0.333  0.170- 205 2.81  44 2.81  34 2.81  85 2.81
 172  0.328  0.000  0.340-  48 2.81 130 2.81  99 2.81  98 2.81
 173  0.092  0.489  0.748- 131 2.34 204 2.34 215 2.34 132 2.34
 174  0.828  0.000  0.170-  46 2.81  29 2.81 106 2.81 214 2.81
 175  0.362  0.643  0.606- 206 2.34  35 2.34 134 2.34  95 2.34
 176  0.246  0.720  0.748- 134 2.34 207 2.34 218 2.34 135 2.34
 177  0.662  0.500  0.170- 190 2.81  94 2.81 139 2.81  49 2.81
 178  0.516  0.874  0.606- 209 2.34 137 2.34  45 2.34  39 2.34
 179  0.400  0.951  0.748- 210 2.34 221 2.34 137 2.34 138 2.34
 180  0.285  0.028  0.890- 159 2.33 222 2.34 138 2.34
 181  0.131  0.797  0.606- 218 2.34 142 2.34 223 2.34 143 2.34
 182  0.016  0.874  0.748- 224 2.34 219 2.34 143 2.34 144 2.34
 183  0.995  0.167  0.170- 217 2.81 106 2.81  89 2.81  34 2.81
 184  0.245  0.750  0.425-  66 2.81  21 2.81  35 2.84 142 2.96
 185  0.169  0.104  0.748- 200 2.34 222 2.34 147 2.34 146 2.34
 186  0.495  0.333  0.170- 133 2.81  43 2.81 208 2.81  94 2.81
 187  0.035  0.278  0.535- 220 2.33 229 2.34 148 2.34
 188  0.919  0.354  0.677- 154 2.34 229 2.34 230 2.34 149 2.34
 189  0.804  0.431  0.819- 155 2.34 230 2.34  10 2.34  71 2.34
 190  0.745  0.417  0.255- 177 2.81  60 2.81 255 2.81   6 2.81
 191  0.535  0.278  0.677- 160 2.34 233 2.34 152 2.34 232 2.34
 192  0.419  0.354  0.819- 161 2.34  56 2.34 234 2.34 233 2.34
 193  0.245  0.583  0.255-  11 2.81  21 2.81  68 2.81  69 2.81
 194  0.689  0.508  0.677- 163 2.34 236 2.34 155 2.34 235 2.34
 195  0.573  0.585  0.819- 237 2.34 164 2.34 236 2.34  17 2.34
 196  0.958  0.662  0.535- 238 2.34 157 2.34 112 2.85
 197  0.842  0.739  0.677- 239 2.34 166 2.34 158 2.34 238 2.34
 198  0.727  0.816  0.819- 240 2.34 167 2.34  16 2.34 239 2.34
 199  0.266  0.124  0.535-  99 2.28 241 2.34  93 2.34
 200  0.150  0.201  0.677- 242 2.34 185 2.34 148 2.34 241 2.34
 201  0.035  0.278  0.819-  23 2.34 149 2.34 242 2.34   1 2.34
 202  0.912  0.583  0.255-   2 2.81  12 2.81 258 2.81  60 2.81
 203  0.304  0.431  0.677-  27 2.34 245 2.34 244 2.34 161 2.34
 204  0.189  0.508  0.819- 173 2.34 162 2.34   4 2.34 245 2.34
 205  0.078  0.417  0.255- 258 2.81 171 2.81  69 2.81  15 2.81
 206  0.458  0.662  0.677- 248 2.34 175 2.34 247 2.34 164 2.34
 207  0.342  0.739  0.819- 249 2.34 176 2.34 165 2.34 248 2.34
 208  0.578  0.250  0.255-   6 2.81 228 2.81  81 2.81 186 2.81
 209  0.612  0.893  0.677- 178 2.34 167 2.34 251 2.34 250 2.34
 210  0.496  0.970  0.819- 179 2.34  20 2.34 168 2.34 251 2.34
 211  0.412  0.750  0.255- 252 2.81  75 2.81  65 2.81  21 2.81
 212  0.766  0.124  0.677- 227 2.34 151 2.34 170 2.34 226 2.34
 213  0.650  0.201  0.819- 152 2.34  80 2.34  14 2.34 227 2.34
 214  0.745  0.083  0.255- 228 2.81 174 2.81   9 2.81  63 2.81
 215  0.073  0.585  0.677- 157 2.34 254 2.34 253 2.34 173 2.34
 216  0.958  0.662  0.819- 158 2.34   5 2.34   8 2.34 254 2.34
 217  0.912  0.250  0.255- 183 2.81 255 2.81  15 2.81  63 2.81
 218  0.227  0.816  0.677- 257 2.34 181 2.34 256 2.34 176 2.34
 219  0.112  0.893  0.819- 182 2.34  59 2.34 257 2.34  77 2.34
 220  0.078  0.250  0.425- 187 2.33  15 2.81  72 2.81
 221  0.381  0.047  0.677-  93 2.34 179 2.34 259 2.34 260 2.34
 222  0.266  0.124  0.819- 185 2.34 180 2.34 260 2.34  58 2.34
 223  0.112  0.893  0.535- 136 2.25 262 2.34 181 2.34
 224  0.996  0.970  0.677- 169 2.34 182 2.34 263 2.34 262 2.34
 225  0.881  0.047  0.819- 170 2.34  62 2.34 264 2.34 263 2.34
 226  0.862  0.143  0.606- 128 2.34  92 2.34 101 2.34 212 2.34
 227  0.746  0.220  0.748- 129 2.34 212 2.34 110 2.34 213 2.34
 228  0.662  0.167  0.170- 214 2.81 208 2.81  52 2.81  97 2.81
 229  0.016  0.374  0.606- 188 2.34  84 2.34 187 2.34 131 2.34
 230  0.900  0.451  0.748- 113 2.34 188 2.34 132 2.34 189 2.34
 231  0.328  0.667  0.000- 165 2.25  40 2.81  82 2.81
 232  0.631  0.297  0.606- 110 2.34 104 2.34 118 2.34 191 2.34
 233  0.516  0.374  0.748- 191 2.34 111 2.34 119 2.34 192 2.34
 234  0.400  0.451  0.890- 192 2.34 120 2.34 123 2.96  13 3.40
 235  0.785  0.528  0.606- 113 2.34  41 2.34  30 2.34 194 2.34
 236  0.669  0.604  0.748- 194 2.34 114 2.34 122 2.34 195 2.34
 237  0.554  0.681  0.890- 195 2.34  67 2.34  19 2.98
 238  0.939  0.758  0.606- 143 2.34 196 2.34  33 2.34 197 2.34
 239  0.823  0.835  0.748- 144 2.34 197 2.34 125 2.34 198 2.34
 240  0.708  0.912  0.890- 198 2.34 126 2.34  25 2.85
 241  0.246  0.220  0.606- 116 2.34 199 2.34 200 2.34  38 2.34
 242  0.131  0.297  0.748- 200 2.34 117 2.34 131 2.34 201 2.34
 243  0.995  0.667  0.000-  31 2.81 100 2.81   8 2.89   5 2.97
 244  0.400  0.451  0.606- 119 2.34  32 2.34 203 2.34  95 2.34
 245  0.285  0.528  0.748- 120 2.34 203 2.34 134 2.34 204 2.34
 246  0.995  0.333  0.000-   1 2.28  34 2.81 103 2.81
 247  0.554  0.681  0.606- 122 2.34  86 2.34  39 2.34 206 2.34
 248  0.439  0.758  0.748- 206 2.34  67 2.34 137 2.34 207 2.34
 249  0.323  0.835  0.890- 207 2.34 138 2.34
 250  0.708  0.912  0.606- 125 2.34  50 2.34  53 2.34 209 2.34
 251  0.592  0.989  0.748- 126 2.34 140 2.34 209 2.34 210 2.34
 252  0.495  0.667  0.170- 211 2.81  40 2.81 139 2.81 141 2.81
 253  0.169  0.604  0.606- 134 2.34 107 2.34 215 2.34 142 2.34
 254  0.054  0.681  0.748- 215 2.34 135 2.34 143 2.34 216 2.34
 255  0.828  0.333  0.170-  52 2.81 217 2.81 103 2.81 190 2.81
 256  0.323  0.835  0.606-  35 2.34 137 2.34 218 2.34 145 2.34
 257  0.208  0.912  0.748- 146 2.34 218 2.34 138 2.34 219 2.34
 258  0.995  0.500  0.170- 103 2.81 205 2.81 202 2.81  31 2.81
 259  0.477  0.066  0.606- 140 2.34  45 2.34 115 2.34 221 2.34
 260  0.362  0.143  0.748- 116 2.34  91 2.34 221 2.34 222 2.34
 261  0.162  0.500  0.000-  85 2.81  31 2.81 162 2.85   4 2.93
 262  0.092  0.989  0.606- 146 2.34 223 2.34 127 2.34 224 2.34
 263  0.977  0.066  0.748- 224 2.34 128 2.34 147 2.34 225 2.34
 264  0.862  0.143  0.890-  79 2.25 129 2.34 225 2.34
 
  LATTYP: Found a simple tetragonal cell.
 ALAT       =    19.4675998690
 C/A-ratio  =     0.9811303026
  
  Lattice vectors:
  
 A1 = (  19.4675998690,   0.0000000000,   0.0000000000)
 A2 = (   0.0000000000,  19.4675998690,   0.0000000000)
 A3 = (   0.0000000000,   0.0000000000,  19.1002521510)


Analysis of symmetry for initial positions (statically):
=====================================================================
 Subroutine PRICEL returns:
 Original cell was already a primitive cell.
 

 Routine SETGRP: Setting up the symmetry group for a 
 simple tetragonal supercell.


 Subroutine GETGRP returns: Found  1 space group operations
 (whereof  1 operations were pure point group operations)
 out of a pool of 16 trial point group operations.


The static configuration has the point symmetry C_1 .


Analysis of symmetry for dynamics (positions and initial velocities):
=====================================================================
 Subroutine PRICEL returns:
 Original cell was already a primitive cell.
 

 Routine SETGRP: Setting up the symmetry group for a 
 simple tetragonal supercell.


 Subroutine GETGRP returns: Found  1 space group operations
 (whereof  1 operations were pure point group operations)
 out of a pool of 16 trial point group operations.


The dynamic configuration has the point symmetry C_1 .


Analysis of structural, dynamic, and magnetic symmetry:
=====================================================================
 Subroutine PRICEL returns:
 Original cell was already a primitive cell.
 

 Routine SETGRP: Setting up the symmetry group for a 
 simple tetragonal supercell.


 Subroutine GETGRP returns: Found  1 space group operations
 (whereof  1 operations were pure point group operations)
 out of a pool of 16 trial point group operations.


The overall configuration has the point symmetry C_1 .


 Subroutine INISYM returns: Found  1 space group operations
 (whereof  1 operations are pure point group operations),
 and found     1 'primitive' translations


----------------------------------------------------------------------------------------

                                     Primitive cell                                     

  volume of cell :    7238.7558

  direct lattice vectors                    reciprocal lattice vectors
    19.467599869  0.000000000  0.000000000     0.051367401  0.000000000  0.000000000
     0.000000000 19.467599869  0.000000000     0.000000000  0.051367401  0.000000000
     0.000000000  0.000000000 19.100252151     0.000000000  0.000000000  0.052355330

  length of vectors
    19.467599869 19.467599869 19.100252151     0.051367401  0.051367401  0.052355330

  position of ions in fractional coordinates (direct lattice)
     0.015520096  0.373673856  0.890053868
     0.828368425  0.666666687  0.169872105
     0.661701739  0.666666687  0.339744180
     0.169366300  0.604443133  0.890053868
     0.938596964  0.758289278  0.890053868
     0.661701739  0.333333343  0.339744180
     0.995035112  0.000000000  0.000000000
     0.977058530  0.565981567  0.890053868
     0.661701739  0.000000000  0.339744180
     0.784750760  0.527520061  0.890053868
     0.161701739  0.666666687  0.169872105
     0.995035112  0.666666687  0.339744180
     0.328368455  0.333333343  0.000000000
     0.669366241  0.104443185  0.890053868
     0.995035112  0.333333343  0.339744180
     0.746289313  0.719827771  0.890053868
     0.592443287  0.489058524  0.890053868
     0.995035112  0.000000000  0.339744180
     0.661701798  0.666666687  0.000000000
     0.477058619  0.065981627  0.890053868
     0.328368455  0.666666687  0.339744180
     0.661701798  0.333333343  0.000000000
     0.053981662  0.181366205  0.890053868
     0.328368455  0.333333343  0.339744180
     0.661701798  0.000000000  0.000000000
     0.495035112  0.000000000  0.169872105
     0.207827985  0.412135333  0.605711937
     0.078368433  0.916666746  0.084936053
     0.911701798  0.916666746  0.254808098
     0.765520275  0.623673797  0.534626484
     0.078368433  0.583333433  0.084936053
     0.419366509  0.354443043  0.534626484
     0.919366419  0.854443133  0.534626484
     0.078368433  0.250000000  0.084936053
     0.342443407  0.739058495  0.534626484
     0.745035052  0.250000000  0.424680233
     0.411701769  0.916666746  0.084936053
     0.227058768  0.315981477  0.534626484
     0.534751117  0.777519882  0.534626484
     0.411701769  0.583333433  0.084936053
     0.803981900  0.431366175  0.534626484
     0.078368381  0.583333433  0.424680233
     0.411701769  0.250000000  0.084936053
     0.245035097  0.250000000  0.254808098
     0.496289581  0.969827712  0.534626484
     0.745035172  0.916666746  0.084936053
     0.578368545  0.916666746  0.254808098
     0.411701798  0.916666746  0.424680233
     0.745035172  0.583333433  0.084936053
     0.688597202  0.008289218  0.534626484
     0.411701798  0.583333433  0.424680233
     0.745035172  0.250000000  0.084936053
     0.727058709  0.815981507  0.534626484
     0.411701798  0.250000000  0.424680233
     0.161701769  0.833333313  0.000000000
     0.438597023  0.258289337  0.890053868
     0.828368425  0.833333313  0.339744180
     0.246289402  0.219827890  0.890053868
     0.092443161  0.989058554  0.890053868
     0.828368425  0.500000000  0.339744180
     0.161701769  0.166666672  0.000000000
     0.900135458  0.950596988  0.890053868
     0.828368425  0.166666672  0.339744180
     0.495035112  0.833333313  0.000000000
     0.328368425  0.833333313  0.169872105
     0.161701754  0.833333313  0.339744180
     0.534750879  0.777520061  0.818968296
     0.328368425  0.500000000  0.169872105
     0.161701754  0.500000000  0.339744180
     0.495035112  0.166666672  0.000000000
     0.823212326  0.335212380  0.890053868
     0.161701754  0.166666672  0.339744180
     0.828368545  0.833333313  0.000000000
     0.661701858  0.833333313  0.169872105
     0.495035201  0.833333313  0.339744180
     0.828368545  0.500000000  0.000000000
     0.130904704  0.796750903  0.890053868
     0.495035201  0.500000000  0.339744180
     0.828368545  0.166666672  0.000000000
     0.630904794  0.296750814  0.890053868
     0.495035201  0.166666672  0.339744180
     0.245035097  0.750000060  0.084936053
     0.078368433  0.750000060  0.254808098
     0.996289611  0.469827592  0.534626484
     0.245035097  0.416666716  0.084936053
     0.573212624  0.585212350  0.534626484
     0.911701739  0.416666716  0.424680233
     0.245035097  0.083333343  0.084936053
     0.078368433  0.083333343  0.254808098
     0.911701739  0.083333343  0.424680233
     0.457827836  0.162135482  0.818968296
     0.880904913  0.046750784  0.534626484
     0.284751058  0.027519941  0.605711937
     0.578368485  0.416666716  0.084936053
     0.380904943  0.546750724  0.534626484
     0.245035127  0.416666716  0.424680233
     0.578368485  0.083333343  0.084936053
     0.411701858  0.083333343  0.254808098
     0.245035127  0.083333343  0.424680233
     0.911701739  0.750000060  0.084936053
     0.842443466  0.239058375  0.534626484
     0.578368366  0.750000060  0.424680233
     0.911701739  0.416666716  0.084936053
     0.650135636  0.200596869  0.534626484
     0.578368366  0.416666716  0.424680233
     0.911701739  0.083333343  0.084936053
     0.188597232  0.508289218  0.534626484
     0.578368366  0.083333343  0.424680233
     0.745035052  0.750000060  0.254808098
     0.727058768  0.315981507  0.676797330
     0.611674070  0.392904669  0.818968296
     0.911701739  0.750000060  0.424680233
     0.880904913  0.546750665  0.676797330
     0.765520215  0.623673856  0.818968296
     0.457828045  0.162135303  0.534626484
     0.342443347  0.239058435  0.676797330
     0.227058649  0.315981567  0.818968296
     0.611674190  0.392904580  0.534626484
     0.496289492  0.469827712  0.676797330
     0.380904794  0.546750844  0.818968296
     0.745035052  0.916666746  0.424680233
     0.650135577  0.700596929  0.676797330
     0.495035112  0.500000000  0.000000000
     0.745035052  0.583333433  0.424680233
     0.803981721  0.931366265  0.676797330
     0.688597023  0.008289337  0.818968296
     0.073212624  0.085212208  0.534626484
     0.957827866  0.162135333  0.676797330
     0.842443168  0.239058465  0.818968296
     0.245035097  0.916666746  0.254808098
     0.111674070  0.392904609  0.676797330
     0.996289313  0.469827741  0.818968296
     0.411701858  0.416666716  0.254808098
     0.265520215  0.623673856  0.676797330
     0.150135517  0.700596988  0.818968296
     0.078368381  0.916666746  0.424680233
     0.419366419  0.854443014  0.676797330
     0.303981692  0.931366146  0.818968296
     0.578368545  0.583333433  0.254808098
     0.573212504  0.085212342  0.676797330
     0.578368485  0.750000060  0.084936053
     0.150135666  0.700596869  0.534626484
     0.034750938  0.777520001  0.676797330
     0.919366241  0.854443192  0.818968296
     0.303981870  0.931366086  0.534626484
     0.188597172  0.008289099  0.676797330
     0.073212385  0.085212342  0.818968296
     0.053981781  0.181366086  0.605711937
     0.938597083  0.258289218  0.747882783
     0.328368425  0.166666672  0.169872105
     0.669366419  0.104443066  0.605711937
     0.553981781  0.181366205  0.747882783
     0.995035052  0.833333313  0.169872105
     0.823212683  0.335212231  0.605711937
     0.707827985  0.412135392  0.747882783
     0.161701739  0.000000000  0.169872105
     0.977058768  0.565981448  0.605711937
     0.861674070  0.642904639  0.747882783
     0.328368455  0.000000000  0.000000000
     0.438597262  0.258289158  0.605711937
     0.323212564  0.335212290  0.747882783
     0.207827836  0.412135422  0.890053868
     0.592443347  0.489058465  0.605711937
     0.477058679  0.565981567  0.747882783
     0.361673951  0.642904758  0.890053868
     0.746289492  0.719827652  0.605711937
     0.630904794  0.796750784  0.747882783
     0.515520096  0.873673916  0.890053868
     0.900135636  0.950596929  0.605711937
     0.784750938  0.027520061  0.747882783
     0.161701739  0.333333343  0.169872105
     0.328368455  0.000000000  0.339744180
     0.092443295  0.489058435  0.747882783
     0.828368425  0.000000000  0.169872105
     0.361674130  0.642904639  0.605711937
     0.246289432  0.719827712  0.747882783
     0.661701858  0.500000000  0.169872105
     0.515520275  0.873673797  0.605711937
     0.400135577  0.950596929  0.747882783
     0.284750849  0.027520061  0.890053868
     0.130904898  0.796750724  0.605711937
     0.015520215  0.873673916  0.747882783
     0.995035052  0.166666672  0.169872105
     0.245035127  0.750000060  0.424680233
     0.169366330  0.104443066  0.747882783
     0.495035112  0.333333343  0.169872105
     0.034751058  0.277519971  0.534626484
     0.919366360  0.354443103  0.676797330
     0.803981662  0.431366265  0.818968296
     0.745035052  0.416666716  0.254808098
     0.534750938  0.277520001  0.676797330
     0.419366270  0.354443133  0.818968296
     0.245035097  0.583333433  0.254808098
     0.688597143  0.508289278  0.676797330
     0.573212504  0.585212469  0.818968296
     0.957828045  0.662135422  0.534626484
     0.842443287  0.739058554  0.676797330
     0.727058589  0.815981686  0.818968296
     0.265520334  0.123673767  0.534626484
     0.150135636  0.200596899  0.676797330
     0.034750938  0.277520031  0.818968296
     0.911701798  0.583333433  0.254808098
     0.303981811  0.431366175  0.676797330
     0.188597083  0.508289278  0.818968296
     0.078368433  0.416666716  0.254808098
     0.457827926  0.662135482  0.676797330
     0.342443228  0.739058614  0.818968296
     0.578368545  0.250000000  0.254808098
     0.611674011  0.892904639  0.676797330
     0.496289343  0.969827771  0.818968296
     0.411701858  0.750000060  0.254808098
     0.765520215  0.123673908  0.676797330
     0.650135517  0.200597048  0.818968296
     0.745035052  0.083333343  0.254808098
     0.073212504  0.585212350  0.676797330
     0.957827806  0.662135482  0.818968296
     0.911701798  0.250000000  0.254808098
     0.227058709  0.815981627  0.676797330
     0.111674003  0.892904758  0.818968296
     0.078368381  0.250000000  0.424680233
     0.380904853  0.046750784  0.676797330
     0.265520155  0.123673908  0.818968296
     0.111674130  0.892904580  0.534626484
     0.996289432  0.969827712  0.676797330
     0.880904675  0.046750784  0.818968296
     0.861674249  0.142904535  0.605711937
     0.746289492  0.219827682  0.747882783
     0.661701858  0.166666672  0.169872105
     0.015520215  0.373673767  0.605711937
     0.900135517  0.450596929  0.747882783
     0.328368455  0.666666687  0.000000000
     0.630904973  0.296750695  0.605711937
     0.515520275  0.373673826  0.747882783
     0.400135577  0.450596988  0.890053868
     0.784751177  0.527519941  0.605711937
     0.669366479  0.604443073  0.747882783
     0.553981781  0.681366205  0.890053868
     0.938597381  0.758289218  0.605711937
     0.823212683  0.835212350  0.747882783
     0.707827926  0.912135482  0.890053868
     0.246289551  0.219827563  0.605711937
     0.130904838  0.296750695  0.747882783
     0.995035112  0.666666687  0.000000000
     0.400135726  0.450596869  0.605711937
     0.284751028  0.527520001  0.747882783
     0.995035112  0.333333343  0.000000000
     0.553981841  0.681366086  0.605711937
     0.438597172  0.758289218  0.747882783
     0.323212415  0.835212350  0.890053868
     0.707828045  0.912135422  0.605711937
     0.592443347  0.989058554  0.747882783
     0.495035112  0.666666687  0.169872105
     0.169366419  0.604443014  0.605711937
     0.053981781  0.681366146  0.747882783
     0.828368425  0.333333343  0.169872105
     0.323212594  0.835212231  0.605711937
     0.207827896  0.912135363  0.747882783
     0.995035052  0.500000000  0.169872105
     0.477058828  0.065981507  0.605711937
     0.361674130  0.142904758  0.747882783
     0.161701769  0.500000000  0.000000000
     0.092443362  0.989058375  0.605711937
     0.977058589  0.065981507  0.747882783
     0.861673892  0.142904639  0.890053868

  ion indices of the primitive-cell ions
   primitive index   ion index
                 1           1
                 2           2
                 3           3
                 4           4
                 5           5
                 6           6
                 7           7
                 8           8
                 9           9
                10          10
                11          11
                12          12
                13          13
                14          14
                15          15
                16          16
                17          17
                18          18
                19          19
                20          20
                21          21
                22          22
                23          23
                24          24
                25          25
                26          26
                27          27
                28          28
                29          29
                30          30
                31          31
                32          32
                33          33
                34          34
                35          35
                36          36
                37          37
                38          38
                39          39
                40          40
                41          41
                42          42
                43          43
                44          44
                45          45
                46          46
                47          47
                48          48
                49          49
                50          50
                51          51
                52          52
                53          53
                54          54
                55          55
                56          56
                57          57
                58          58
                59          59
                60          60
                61          61
                62          62
                63          63
                64          64
                65          65
                66          66
                67          67
                68          68
                69          69
                70          70
                71          71
                72          72
                73          73
                74          74
                75          75
                76          76
                77          77
                78          78
                79          79
                80          80
                81          81
                82          82
                83          83
                84          84
                85          85
                86          86
                87          87
                88          88
                89          89
                90          90
                91          91
                92          92
                93          93
                94          94
                95          95
                96          96
                97          97
                98          98
                99          99
               100         100
               101         101
               102         102
               103         103
               104         104
               105         105
               106         106
               107         107
               108         108
               109         109
               110         110
               111         111
               112         112
               113         113
               114         114
               115         115
               116         116
               117         117
               118         118
               119         119
               120         120
               121         121
               122         122
               123         123
               124         124
               125         125
               126         126
               127         127
               128         128
               129         129
               130         130
               131         131
               132         132
               133         133
               134         134
               135         135
               136         136
               137         137
               138         138
               139         139
               140         140
               141         141
               142         142
               143         143
               144         144
               145         145
               146         146
               147         147
               148         148
               149         149
               150         150
               151         151
               152         152
               153         153
               154         154
               155         155
               156         156
               157         157
               158         158
               159         159
               160         160
               161         161
               162         162
               163         163
               164         164
               165         165
               166         166
               167         167
               168         168
               169         169
               170         170
               171         171
               172         172
               173         173
               174         174
               175         175
               176         176
               177         177
               178         178
               179         179
               180         180
               181         181
               182         182
               183         183
               184         184
               185         185
               186         186
               187         187
               188         188
               189         189
               190         190
               191         191
               192         192
               193         193
               194         194
               195         195
               196         196
               197         197
               198         198
               199         199
               200         200
               201         201
               202         202
               203         203
               204         204
               205         205
               206         206
               207         207
               208         208
               209         209
               210         210
               211         211
               212         212
               213         213
               214         214
               215         215
               216         216
               217         217
               218         218
               219         219
               220         220
               221         221
               222         222
               223         223
               224         224
               225         225
               226         226
               227         227
               228         228
               229         229
               230         230
               231         231
               232         232
               233         233
               234         234
               235         235
               236         236
               237         237
               238         238
               239         239
               240         240
               241         241
               242         242
               243         243
               244         244
               245         245
               246         246
               247         247
               248         248
               249         249
               250         250
               251         251
               252         252
               253         253
               254         254
               255         255
               256         256
               257         257
               258         258
               259         259
               260         260
               261         261
               262         262
               263         263
               264         264

----------------------------------------------------------------------------------------

 
 
 KPOINTS: Automatic KPOINTS generated             

Automatic generation of k-mesh.
 Grid dimensions read from file:
 generate k-points for:    2    2    2

 Generating k-lattice:

  Cartesian coordinates                     Fractional coordinates (reciprocal lattice)
     0.025683700  0.000000000  0.000000000     0.500000000  0.000000000  0.000000000
     0.000000000  0.025683700  0.000000000     0.000000000  0.500000000  0.000000000
     0.000000000  0.000000000  0.026177665     0.000000000  0.000000000  0.500000000

  Length of vectors
     0.025683700  0.025683700  0.026177665

  Shift w.r.t. Gamma in fractional coordinates (k-lattice)
     0.000000000  0.000000000  0.000000000

 
 Subroutine IBZKPT returns following result:
 ===========================================
 
 Found      8 irreducible k-points:
 
 Following reciprocal coordinates:
            Coordinates               Weight
  0.000000  0.000000  0.000000      1.000000
  0.500000  0.000000  0.000000      1.000000
  0.000000  0.500000  0.000000      1.000000
  0.500000  0.500000  0.000000      1.000000
  0.000000  0.000000  0.500000      1.000000
  0.500000  0.000000  0.500000      1.000000
  0.000000  0.500000  0.500000      1.000000
  0.500000  0.500000  0.500000      1.000000
 
 Following cartesian coordinates:
            Coordinates               Weight
  0.000000  0.000000  0.000000      1.000000
  0.025684  0.000000  0.000000      1.000000
  0.000000  0.025684  0.000000      1.000000
  0.025684  0.025684  0.000000      1.000000
  0.000000  0.000000  0.026178      1.000000
  0.025684  0.000000  0.026178      1.000000
  0.000000  0.025684  0.026178      1.000000
  0.025684  0.025684  0.026178      1.000000
 
 -----------------------------------------------------------------------------
|                                                                             |
|           W    W    AA    RRRRR   N    N  II  N    N   GGGG   !!!           |
|           W    W   A  A   R    R  NN   N  II  NN   N  G    G  !!!           |
|           W    W  A    A  R    R  N N  N  II  N N  N  G       !!!           |
|           W WW W  AAAAAA  RRRRR   N  N N  II  N  N N  G  GGG   !            |
|           WW  WW  A    A  R   R   N   NN  II  N   NN  G    G                |
|           W    W  A    A  R    R  N    N  II  N    N   GGGG   !!!           |
|                                                                             |
|     The number of bands has been changed from the values supplied in        |
|     the INCAR file. This is a result of running the parallel version.       |
|     The orbitals not found in the WAVECAR file will be initialized with     |
|     random numbers, which is usually adequate. For correlated               |
|     calculations, however, you should redo the groundstate calculation.     |
|     I found NBANDS = 634. Now, NBANDS = 636.                                |
|                                                                             |
 -----------------------------------------------------------------------------



--------------------------------------------------------------------------------------------------------




 Dimension of arrays:
   k-points           NKPTS =      8   k-points in BZ     NKDIM =      8   number of bands    NBANDS=    636
   number of dos      NEDOS =    301   number of ions     NIONS =    264
   non local maximal  LDIM  =      5   non local SUM 2l+1 LMDIM =     13
   total plane-waves  NPLWV = ******
   max r-space proj   IRMAX =   4602   max aug-charges    IRDMAX= 212976
   dimension x,y,z NGX =   126 NGY =  126 NGZ =  126
   dimension x,y,z NGXF=   252 NGYF=  252 NGZF=  252
   support grid    NGXF=   504 NGYF=  504 NGZF=  504
   ions per type =             108 156
   NGX,Y,Z   is equivalent  to a cutoff of  10.76, 10.76, 10.97 a.u.
   NGXF,Y,Z  is equivalent  to a cutoff of  21.52, 21.52, 21.93 a.u.

 SYSTEM =  Si and Ge interface calculation         
 POSCAR =  Sn+Si                                   

 Startparameter for this run:
   NWRITE =      2    write-flag & timer
   PREC   = normal    normal or accurate (medium, high low for compatibility)
   ISTART =      0    job   : 0-new  1-cont  2-samecut
   ICHARG =      2    charge: 1-file 2-atom 10-const
   ISPIN  =      2    spin polarized calculation?
   LNONCOLLINEAR =      F non collinear calculations
   LSORBIT =      F    spin-orbit coupling
   INIWAV =      1    electr: 0-lowe 1-rand  2-diag
   LASPH  =      T    aspherical Exc in radial PAW
 Electronic Relaxation 1
   ENCUT  =  700.0 eV  51.45 Ry    7.17 a.u.  42.00 42.00 41.20*2*pi/ulx,y,z
   ENINI  =  700.0     initial cutoff
   ENAUG  =  900.0 eV  augmentation charge cutoff
   NELM   =    100;   NELMIN=  2; NELMDL= -5     # of ELM steps 
   EDIFF  = 0.1E-06   stopping-criterion for ELM
   LREAL  =      T    real-space projection
   NLSPLINE    = F    spline interpolate recip. space projectors
   LCOMPAT=      F    compatible to vasp.4.4
   GGA_COMPAT  = T    GGA compatible to vasp.4.4-vasp.4.6
   LMAXPAW     = -100 max onsite density
   LMAXMIX     =    6 max onsite mixed and CHGCAR
   VOSKOWN=      0    Vosko Wilk Nusair interpolation
   ROPT   =   -0.00050  -0.00050
 Ionic relaxation
   EDIFFG = 0.1E-05   stopping-criterion for IOM
   NSW    =      0    number of steps for IOM
   NBLOCK =      1;   KBLOCK =      1    inner block; outer block 
   IBRION =     -1    ionic relax: 0-MD 1-quasi-New 2-CG
   NFREE  =      0    steps in history (QN), initial steepest desc. (CG)
   ISIF   =      2    stress and relaxation
   IWAVPR =     10    prediction:  0-non 1-charg 2-wave 3-comb
   ISYM   =      2    0-nonsym 1-usesym 2-fastsym
   LCORR  =      T    Harris-Foulkes like correction to forces

   POTIM  = 0.5000    time-step for ionic-motion
   TEIN   =    0.0    initial temperature
   TEBEG  =    0.0;   TEEND  =   0.0 temperature during run
   SMASS  =  -3.00    Nose mass-parameter (am)
   estimated Nose-frequenzy (Omega)   =  0.10E-29 period in steps = 0.13E+47 mass=  -0.866E-26a.u.
   SCALEE = 1.0000    scale energy and forces
   NPACO  =    256;   APACO  = 10.0  distance and # of slots for P.C.
   PSTRESS=    0.0 pullay stress

  Mass of Ions in am
   POMASS = 118.71 28.09
  Ionic Valenz
   ZVAL   =   4.00  4.00
  Atomic Wigner-Seitz radii
   RWIGS  =  -1.00 -1.00
  virtual crystal weights 
   VCA    =   1.00  1.00
   NELECT =    1056.0000    total number of electrons
   NUPDOWN=       1.0000    fix difference up-down

 DOS related values:
   EMIN   =  10.00;   EMAX   =-10.00  energy-range for DOS
   EFERMI =   0.00;   METHOD = LEGACY      
   ISMEAR =     0;   SIGMA  =   0.01  broadening in eV -4-tet -1-fermi 0-gaus

 Electronic relaxation 2 (details)
   IALGO  =     38    algorithm
   LDIAG  =      T    sub-space diagonalisation (order eigenvalues)
   LSUBROT=      F    optimize rotation matrix (better conditioning)
   TURBO    =      0    0=normal 1=particle mesh
   IRESTART =      0    0=no restart 2=restart with 2 vectors
   NREBOOT  =      0    no. of reboots
   NMIN     =      0    reboot dimension
   EREF     =   0.00    reference energy to select bands
   IMIX   =      4    mixing-type and parameters
     AMIX     =   0.60;   BMIX     =  1.00
     AMIX_MAG =   2.40;   BMIX_MAG =  1.00
     AMIN     =   0.10
     WC   =   100.;   INIMIX=   1;  MIXPRE=   1;  MAXMIX= -45

 Intra band minimization:
   WEIMIN = 0.0000     energy-eigenvalue tresh-hold
   EBREAK =  0.39E-10  absolut break condition
   DEPER  =   0.30     relativ break condition  

   TIME   =   0.40     timestep for ELM

  volume/ion in A,a.u.               =      27.42       185.04
  Fermi-wavevector in a.u.,A,eV,Ry     =   0.861803  1.628572 10.105114  0.742705
  Thomas-Fermi vector in A             =   1.979511
 
 Write flags
   LWAVE        =      F    write WAVECAR
   LDOWNSAMPLE  =      F    k-point downsampling of WAVECAR
   LCHARG       =      T    write CHGCAR
   LVTOT        =      F    write LOCPOT, total local potential
   LVHAR        =      T    write LOCPOT, Hartree potential only
   WRT_POTENTIAL=  hartree ionic  ! write potential to hdf5 file
   LELF         =      F    write electronic localiz. function (ELF)
   LORBIT       =      0    0 simple, 1 ext, 2 COOP (PROOUT), +10 PAW based schemes


 Dipole corrections
   LMONO      =      F    monopole corrections only (constant potential shift)
   LDIPOL     =      F    correct potential (dipole corrections)
   IDIPOL     =      0    1-x, 2-y, 3-z, 4-all directions 
   EPSILON    =  1.0000000 bulk dielectric constant
   LVACPOTAV  =      F  vacuum potentials using an averaging scheme for the charge density
   VACPOTFLAT =  0.1000000 required flatness to determine vacuum potential
 Exchange correlation treatment:
   GGA     = PE    functional components
   XC_C    = 1    coefficients multiplying the functional components
   LIBXC   =     F    Libxc                    
   VOSKOWN =     0    Vosko Wilk Nusair interpolation
   LHFCALC =     F    Hartree Fock is set to
   LHFONE  =     F    Hartree Fock one center treatment
   AEXX    =    0.0000 exact exchange contribution

 Parameters of functionals:
   PE:
     No parameter
 
 Van der Waals corrections
   IVDW    =     0    specifies the selected vdW correction

 Linear response parameters
   LEPSILON=     F    determine dielectric tensor
   LRPA    =     F    only Hartree local field effects (RPA)
   LNABLA  =     F    use nabla operator in PAW spheres
   LVEL    =     F    velocity operator in full k-point grid
   CSHIFT  =0.1000    complex shift for real part using Kramers Kronig
   OMEGAMAX=  -1.0    maximum frequency
   DEG_THRESHOLD= 0.2000000E-02 threshold for treating states as degnerate
   RTIME   =   -0.100 relaxation time in fs
  (WPLASMAI=    0.000 imaginary part of plasma frequency in eV, 0.658/RTIME)
   DFIELD  = 0.0000000 0.0000000 0.0000000 field for delta impulse in time
 
  Optional k-point grid parameters
   LKPOINTS_OPT  =     F    use optional k-point grid
   KPOINTS_OPT_MODE=     1    mode for optional k-point grid
 
 Orbital magnetization related:
   ORBITALMAG=     F  switch on orbital magnetization
   LCHIMAG   =     F  perturbation theory with respect to B field
   DQ        =  0.001000  dq finite difference perturbation B field
   LLRAUG    =     F  two centre corrections for induced B field
   LBONE     =     F  B-component reconstruction in AE one-centre
   LVGVCALC  =     T  calculate vGv susceptibility
   LVGVAPPL  =     F  apply vGv susceptibility instead of pGv for G=0

 Random number generation:
   RANDOM_GENERATOR = DEFAULT
   PCG_SEED         = not used


--------------------------------------------------------------------------------------------------------


 Static calculation
 charge density and potential will be updated during run
 spin polarized calculation
 Variant of blocked Davidson
 Davidson routine will perform the subspace rotation
 perform sub-space diagonalisation
    after iterative eigenvector-optimisation
 modified Broyden-mixing scheme, WC =      100.0
 initial mixing is a Kerker type mixing with AMIX =  0.6000 and BMIX =      1.0000
 Hartree-type preconditioning will be used
 using additional bands          108
 real space projection scheme for non local part
 use partial core corrections
 calculate Harris-corrections to forces 
   (improved forces if not selfconsistent)
 use gradient corrections 
 use of overlap-Matrix (Vanderbilt PP)
 Gauss-broadening in eV      SIGMA  =   0.01


--------------------------------------------------------------------------------------------------------


  energy-cutoff  :      700.00
  volume of cell :     7238.76
      direct lattice vectors                 reciprocal lattice vectors
    19.467599869  0.000000000  0.000000000     0.051367401  0.000000000  0.000000000
     0.000000000 19.467599869  0.000000000     0.000000000  0.051367401  0.000000000
     0.000000000  0.000000000 19.100252151     0.000000000  0.000000000  0.052355330

  length of vectors
    19.467599869 19.467599869 19.100252151     0.051367401  0.051367401  0.052355330


 
 k-points in units of 2pi/SCALE and weight: Automatic KPOINTS generated             
   0.00000000  0.00000000  0.00000000       0.125
   0.02568370  0.00000000  0.00000000       0.125
   0.00000000  0.02568370  0.00000000       0.125
   0.02568370  0.02568370  0.00000000       0.125
   0.00000000  0.00000000  0.02617766       0.125
   0.02568370  0.00000000  0.02617766       0.125
   0.00000000  0.02568370  0.02617766       0.125
   0.02568370  0.02568370  0.02617766       0.125
 
 k-points in reciprocal lattice and weights: Automatic KPOINTS generated             
   0.00000000  0.00000000  0.00000000       0.125
   0.50000000  0.00000000  0.00000000       0.125
   0.00000000  0.50000000  0.00000000       0.125
   0.50000000  0.50000000  0.00000000       0.125
   0.00000000  0.00000000  0.50000000       0.125
   0.50000000  0.00000000  0.50000000       0.125
   0.00000000  0.50000000  0.50000000       0.125
   0.50000000  0.50000000  0.50000000       0.125
 
 position of ions in fractional coordinates (direct lattice) 
   0.01552010  0.37367386  0.89005387
   0.82836843  0.66666669  0.16987211
   0.66170174  0.66666669  0.33974418
   0.16936630  0.60444313  0.89005387
   0.93859696  0.75828928  0.89005387
   0.66170174  0.33333334  0.33974418
   0.99503511  0.00000000  0.00000000
   0.97705853  0.56598157  0.89005387
   0.66170174  0.00000000  0.33974418
   0.78475076  0.52752006  0.89005387
   0.16170174  0.66666669  0.16987211
   0.99503511  0.66666669  0.33974418
   0.32836846  0.33333334  0.00000000
   0.66936624  0.10444319  0.89005387
   0.99503511  0.33333334  0.33974418
   0.74628931  0.71982777  0.89005387
   0.59244329  0.48905852  0.89005387
   0.99503511  0.00000000  0.33974418
   0.66170180  0.66666669  0.00000000
   0.47705862  0.06598163  0.89005387
   0.32836846  0.66666669  0.33974418
   0.66170180  0.33333334  0.00000000
   0.05398166  0.18136621  0.89005387
   0.32836846  0.33333334  0.33974418
   0.66170180  0.00000000  0.00000000
   0.49503511  0.00000000  0.16987211
   0.20782799  0.41213533  0.60571194
   0.07836843  0.91666675  0.08493605
   0.91170180  0.91666675  0.25480810
   0.76552028  0.62367380  0.53462648
   0.07836843  0.58333343  0.08493605
   0.41936651  0.35444304  0.53462648
   0.91936642  0.85444313  0.53462648
   0.07836843  0.25000000  0.08493605
   0.34244341  0.73905850  0.53462648
   0.74503505  0.25000000  0.42468023
   0.41170177  0.91666675  0.08493605
   0.22705877  0.31598148  0.53462648
   0.53475112  0.77751988  0.53462648
   0.41170177  0.58333343  0.08493605
   0.80398190  0.43136618  0.53462648
   0.07836838  0.58333343  0.42468023
   0.41170177  0.25000000  0.08493605
   0.24503510  0.25000000  0.25480810
   0.49628958  0.96982771  0.53462648
   0.74503517  0.91666675  0.08493605
   0.57836855  0.91666675  0.25480810
   0.41170180  0.91666675  0.42468023
   0.74503517  0.58333343  0.08493605
   0.68859720  0.00828922  0.53462648
   0.41170180  0.58333343  0.42468023
   0.74503517  0.25000000  0.08493605
   0.72705871  0.81598151  0.53462648
   0.41170180  0.25000000  0.42468023
   0.16170177  0.83333331  0.00000000
   0.43859702  0.25828934  0.89005387
   0.82836843  0.83333331  0.33974418
   0.24628940  0.21982789  0.89005387
   0.09244316  0.98905855  0.89005387
   0.82836843  0.50000000  0.33974418
   0.16170177  0.16666667  0.00000000
   0.90013546  0.95059699  0.89005387
   0.82836843  0.16666667  0.33974418
   0.49503511  0.83333331  0.00000000
   0.32836843  0.83333331  0.16987211
   0.16170175  0.83333331  0.33974418
   0.53475088  0.77752006  0.81896830
   0.32836843  0.50000000  0.16987211
   0.16170175  0.50000000  0.33974418
   0.49503511  0.16666667  0.00000000
   0.82321233  0.33521238  0.89005387
   0.16170175  0.16666667  0.33974418
   0.82836855  0.83333331  0.00000000
   0.66170186  0.83333331  0.16987211
   0.49503520  0.83333331  0.33974418
   0.82836855  0.50000000  0.00000000
   0.13090470  0.79675090  0.89005387
   0.49503520  0.50000000  0.33974418
   0.82836855  0.16666667  0.00000000
   0.63090479  0.29675081  0.89005387
   0.49503520  0.16666667  0.33974418
   0.24503510  0.75000006  0.08493605
   0.07836843  0.75000006  0.25480810
   0.99628961  0.46982759  0.53462648
   0.24503510  0.41666672  0.08493605
   0.57321262  0.58521235  0.53462648
   0.91170174  0.41666672  0.42468023
   0.24503510  0.08333334  0.08493605
   0.07836843  0.08333334  0.25480810
   0.91170174  0.08333334  0.42468023
   0.45782784  0.16213548  0.81896830
   0.88090491  0.04675078  0.53462648
   0.28475106  0.02751994  0.60571194
   0.57836848  0.41666672  0.08493605
   0.38090494  0.54675072  0.53462648
   0.24503513  0.41666672  0.42468023
   0.57836848  0.08333334  0.08493605
   0.41170186  0.08333334  0.25480810
   0.24503513  0.08333334  0.42468023
   0.91170174  0.75000006  0.08493605
   0.84244347  0.23905837  0.53462648
   0.57836837  0.75000006  0.42468023
   0.91170174  0.41666672  0.08493605
   0.65013564  0.20059687  0.53462648
   0.57836837  0.41666672  0.42468023
   0.91170174  0.08333334  0.08493605
   0.18859723  0.50828922  0.53462648
   0.57836837  0.08333334  0.42468023
   0.74503505  0.75000006  0.25480810
   0.72705877  0.31598151  0.67679733
   0.61167407  0.39290467  0.81896830
   0.91170174  0.75000006  0.42468023
   0.88090491  0.54675066  0.67679733
   0.76552022  0.62367386  0.81896830
   0.45782804  0.16213530  0.53462648
   0.34244335  0.23905843  0.67679733
   0.22705865  0.31598157  0.81896830
   0.61167419  0.39290458  0.53462648
   0.49628949  0.46982771  0.67679733
   0.38090479  0.54675084  0.81896830
   0.74503505  0.91666675  0.42468023
   0.65013558  0.70059693  0.67679733
   0.49503511  0.50000000  0.00000000
   0.74503505  0.58333343  0.42468023
   0.80398172  0.93136627  0.67679733
   0.68859702  0.00828934  0.81896830
   0.07321262  0.08521221  0.53462648
   0.95782787  0.16213533  0.67679733
   0.84244317  0.23905846  0.81896830
   0.24503510  0.91666675  0.25480810
   0.11167407  0.39290461  0.67679733
   0.99628931  0.46982774  0.81896830
   0.41170186  0.41666672  0.25480810
   0.26552022  0.62367386  0.67679733
   0.15013552  0.70059699  0.81896830
   0.07836838  0.91666675  0.42468023
   0.41936642  0.85444301  0.67679733
   0.30398169  0.93136615  0.81896830
   0.57836855  0.58333343  0.25480810
   0.57321250  0.08521234  0.67679733
   0.57836848  0.75000006  0.08493605
   0.15013567  0.70059687  0.53462648
   0.03475094  0.77752000  0.67679733
   0.91936624  0.85444319  0.81896830
   0.30398187  0.93136609  0.53462648
   0.18859717  0.00828910  0.67679733
   0.07321238  0.08521234  0.81896830
   0.05398178  0.18136609  0.60571194
   0.93859708  0.25828922  0.74788278
   0.32836843  0.16666667  0.16987211
   0.66936642  0.10444307  0.60571194
   0.55398178  0.18136621  0.74788278
   0.99503505  0.83333331  0.16987211
   0.82321268  0.33521223  0.60571194
   0.70782799  0.41213539  0.74788278
   0.16170174  0.00000000  0.16987211
   0.97705877  0.56598145  0.60571194
   0.86167407  0.64290464  0.74788278
   0.32836846  0.00000000  0.00000000
   0.43859726  0.25828916  0.60571194
   0.32321256  0.33521229  0.74788278
   0.20782784  0.41213542  0.89005387
   0.59244335  0.48905846  0.60571194
   0.47705868  0.56598157  0.74788278
   0.36167395  0.64290476  0.89005387
   0.74628949  0.71982765  0.60571194
   0.63090479  0.79675078  0.74788278
   0.51552010  0.87367392  0.89005387
   0.90013564  0.95059693  0.60571194
   0.78475094  0.02752006  0.74788278
   0.16170174  0.33333334  0.16987211
   0.32836846  0.00000000  0.33974418
   0.09244330  0.48905843  0.74788278
   0.82836843  0.00000000  0.16987211
   0.36167413  0.64290464  0.60571194
   0.24628943  0.71982771  0.74788278
   0.66170186  0.50000000  0.16987211
   0.51552028  0.87367380  0.60571194
   0.40013558  0.95059693  0.74788278
   0.28475085  0.02752006  0.89005387
   0.13090490  0.79675072  0.60571194
   0.01552022  0.87367392  0.74788278
   0.99503505  0.16666667  0.16987211
   0.24503513  0.75000006  0.42468023
   0.16936633  0.10444307  0.74788278
   0.49503511  0.33333334  0.16987211
   0.03475106  0.27751997  0.53462648
   0.91936636  0.35444310  0.67679733
   0.80398166  0.43136627  0.81896830
   0.74503505  0.41666672  0.25480810
   0.53475094  0.27752000  0.67679733
   0.41936627  0.35444313  0.81896830
   0.24503510  0.58333343  0.25480810
   0.68859714  0.50828928  0.67679733
   0.57321250  0.58521247  0.81896830
   0.95782804  0.66213542  0.53462648
   0.84244329  0.73905855  0.67679733
   0.72705859  0.81598169  0.81896830
   0.26552033  0.12367377  0.53462648
   0.15013564  0.20059690  0.67679733
   0.03475094  0.27752003  0.81896830
   0.91170180  0.58333343  0.25480810
   0.30398181  0.43136618  0.67679733
   0.18859708  0.50828928  0.81896830
   0.07836843  0.41666672  0.25480810
   0.45782793  0.66213548  0.67679733
   0.34244323  0.73905861  0.81896830
   0.57836855  0.25000000  0.25480810
   0.61167401  0.89290464  0.67679733
   0.49628934  0.96982777  0.81896830
   0.41170186  0.75000006  0.25480810
   0.76552022  0.12367391  0.67679733
   0.65013552  0.20059705  0.81896830
   0.74503505  0.08333334  0.25480810
   0.07321250  0.58521235  0.67679733
   0.95782781  0.66213548  0.81896830
   0.91170180  0.25000000  0.25480810
   0.22705871  0.81598163  0.67679733
   0.11167400  0.89290476  0.81896830
   0.07836838  0.25000000  0.42468023
   0.38090485  0.04675078  0.67679733
   0.26552015  0.12367391  0.81896830
   0.11167413  0.89290458  0.53462648
   0.99628943  0.96982771  0.67679733
   0.88090467  0.04675078  0.81896830
   0.86167425  0.14290453  0.60571194
   0.74628949  0.21982768  0.74788278
   0.66170186  0.16666667  0.16987211
   0.01552022  0.37367377  0.60571194
   0.90013552  0.45059693  0.74788278
   0.32836846  0.66666669  0.00000000
   0.63090497  0.29675070  0.60571194
   0.51552028  0.37367383  0.74788278
   0.40013558  0.45059699  0.89005387
   0.78475118  0.52751994  0.60571194
   0.66936648  0.60444307  0.74788278
   0.55398178  0.68136621  0.89005387
   0.93859738  0.75828922  0.60571194
   0.82321268  0.83521235  0.74788278
   0.70782793  0.91213548  0.89005387
   0.24628955  0.21982756  0.60571194
   0.13090484  0.29675070  0.74788278
   0.99503511  0.66666669  0.00000000
   0.40013573  0.45059687  0.60571194
   0.28475103  0.52752000  0.74788278
   0.99503511  0.33333334  0.00000000
   0.55398184  0.68136609  0.60571194
   0.43859717  0.75828922  0.74788278
   0.32321242  0.83521235  0.89005387
   0.70782804  0.91213542  0.60571194
   0.59244335  0.98905855  0.74788278
   0.49503511  0.66666669  0.16987211
   0.16936642  0.60444301  0.60571194
   0.05398178  0.68136615  0.74788278
   0.82836843  0.33333334  0.16987211
   0.32321259  0.83521223  0.60571194
   0.20782790  0.91213536  0.74788278
   0.99503505  0.50000000  0.16987211
   0.47705883  0.06598151  0.60571194
   0.36167413  0.14290476  0.74788278
   0.16170177  0.50000000  0.00000000
   0.09244336  0.98905837  0.60571194
   0.97705859  0.06598151  0.74788278
   0.86167389  0.14290464  0.89005387
 
 position of ions in cartesian coordinates  (Angst):
   0.30213902  7.27453311 17.00025331
  16.12634504 12.97840031  3.24460004
  12.88174469 12.97840031  6.48919950
   3.29715536 11.76705706 17.00025331
  18.27223013 14.76207225 17.00025331
  12.88174469  6.48920014  6.48919950
  19.37094542  0.00000000  0.00000000
  19.02098451 11.01830268 17.00025331
  12.88174469  0.00000000  6.48919950
  15.27721379 10.26954947 17.00025331
   3.14794475 12.97840031  3.24460004
  19.37094542 12.97840031  6.48919950
   6.39254569  6.48920014  0.00000000
  13.03095415  2.03325813 17.00025331
  19.37094542  6.48920014  6.48919950
  14.52846173 14.01331902 17.00025331
  11.53344886  9.52079566 17.00025331
  19.37094542  0.00000000  6.48919950
  12.88174584 12.97840031  0.00000000
   9.28718631  1.28450391 17.00025331
   6.39254569 12.97840031  6.48919950
  12.88174584  6.48920014  0.00000000
   1.05089340  3.53076471 17.00025331
   6.39254569  6.48920014  6.48919950
  12.88174584  0.00000000  0.00000000
   9.63714548  0.00000000  3.24460004
   4.04591205  8.02328575 11.56925073
   1.52564530 17.84530142  1.62230003
  17.74864580 17.84530142  4.86689892
  14.90284241 12.14143193 10.21150065
   1.52564530 11.35610186  1.62230003
   8.16405940  6.90015534 10.21150065
  17.89785758 16.63395702 10.21150065
   1.52564530  4.86689997  1.62230003
   6.66655123 14.38769506 10.21150065
  14.50404428  4.86689997  8.11149953
   8.01484530 17.84530142  1.62230003
   4.42028924  6.15140096 10.21150065
  10.41032078 15.13644595 10.21150065
   8.01484530 11.35610186  1.62230003
  15.65159793  8.39766409 10.21150065
   1.52564428 11.35610186  8.11149953
   8.01484530  4.86689997  1.62230003
   4.77024522  4.86689997  4.86689892
   9.66156698 18.88021784 10.21150065
  14.50404662 17.84530142  1.62230003
  11.25944741 17.84530142  4.86689892
   8.01484587 17.84530142  8.11149953
  14.50404662 11.35610186  1.62230003
  13.40533480  0.16137118 10.21150065
   8.01484587 11.35610186  8.11149953
  14.50404662  4.86689997  1.62230003
  14.15408803 15.88520148 10.21150065
   8.01484587  4.86689997  8.11149953
   3.14794534 16.22299949  0.00000000
   8.53843135  5.02827346 17.00025331
  16.12634504 16.22299949  6.48919950
   4.79466353  4.27952140 17.00025331
   1.79964647 19.25459618 17.00025331
  16.12634504  9.73379993  6.48919950
   3.14794534  3.24460008  0.00000000
  17.52347692 18.50584180 17.00025331
  16.12634504  3.24460008  6.48919950
   9.63714548 16.22299949  0.00000000
   6.39254511 16.22299949  3.24460004
   3.14794504 16.22299949  6.48919950
  10.41031614 15.13644944 15.64250096
   6.39254511  9.73379993  3.24460004
   3.14794504  9.73379993  6.48919950
   9.63714548  3.24460008  0.00000000
  16.02596817  6.52578048 17.00025331
   3.14794504  3.24460008  6.48919950
  16.12634738 16.22299949  0.00000000
  12.88174700 16.22299949  3.24460004
   9.63714721 16.22299949  6.48919950
  16.12634738  9.73379993  0.00000000
   2.54840040 15.51082777 17.00025331
   9.63714721  9.73379993  6.48919950
  16.12634738  3.24460008  0.00000000
  12.28220209  5.77702611 17.00025331
   9.63714721  3.24460008  6.48919950
   4.77024522 14.60070107  1.62230003
   1.52564530 14.60070107  4.86689892
  19.39536750  9.14641557 10.21150065
   4.77024522  8.11150091  1.62230003
  11.15907400 11.39267987 10.21150065
  17.74864465  8.11150091  8.11149953
   4.77024522  1.62230018  1.62230003
   1.52564530  1.62230018  4.86689892
  17.74864465  1.62230018  8.11149953
   8.91280912  3.15638869 15.64250096
  17.14910437  0.91012556 10.21150065
   5.54341966  0.53574720 11.56925073
  11.25944624  8.11150091  1.62230003
   7.41530502 10.64392432 10.21150065
   4.77024581  8.11150091  8.11149953
  11.25944624  1.62230018  1.62230003
   8.01484704  1.62230018  4.86689892
[...]
     14.15409     15.88520     10.21150         0.179478      0.805462     -3.846876
      8.01485      4.86690      8.11150         0.002966     -0.255985      0.640659
      3.14795     16.22300      0.00000         2.309540      2.012980      6.212883
      8.53843      5.02827     17.00025        -0.676459      3.353025      5.281818
     16.12635     16.22300      6.48920        -0.700993     -0.657890      0.345037
      4.79466      4.27952     17.00025         0.371279      0.531646      3.514350
      1.79965     19.25460     17.00025         0.668492      0.588286      2.959889
     16.12635      9.73380      6.48920        -0.282706      0.710487     -0.628504
      3.14795      3.24460      0.00000        -0.420918      0.210484     -0.534855
     17.52348     18.50584     17.00025        -0.339007     -0.443750      3.699920
     16.12635      3.24460      6.48920        -0.162196     -0.113745     -1.244244
      9.63715     16.22300      0.00000        -0.442580     -1.449629      3.216729
      6.39255     16.22300      3.24460         0.013504      0.010491      1.221567
      3.14795     16.22300      6.48920         0.396631      0.856828      0.706676
     10.41032     15.13645     15.64250         0.405460      0.042770      0.261557
      6.39255      9.73380      3.24460         0.058195     -0.127795      1.341680
      3.14795      9.73380      6.48920        -0.122714     -0.139522     -1.628292
      9.63715      3.24460      0.00000         0.376036     -0.120842     -0.014931
     16.02597      6.52578     17.00025         0.031344      0.009667      4.004561
      3.14795      3.24460      6.48920        -0.372105      0.400800      0.691110
     16.12635     16.22300      0.00000        -0.007349      0.053642     -1.316106
     12.88175     16.22300      3.24460        -0.122384     -1.195355      0.124549
      9.63715     16.22300      6.48920        -0.413152     -0.739375     -0.769082
     16.12635      9.73380      0.00000         2.287358     -1.249174      5.475867
      2.54840     15.51083     17.00025        -1.954705     -2.182172     -3.571953
      9.63715      9.73380      6.48920        -0.142251      0.046928     -1.064320
     16.12635      3.24460      0.00000        -1.046791      0.540963      3.281214
     12.28220      5.77703     17.00025        -2.044602     -2.244314     -3.627143
      9.63715      3.24460      6.48920         0.684758      0.748720     -0.860811
      4.77025     14.60070      1.62230         0.370008     -0.442685     -0.747980
      1.52565     14.60070      4.86690        -0.538352      0.518872     -0.728063
     19.39537      9.14642     10.21150         0.368083      0.527340     -3.502523
      4.77025      8.11150      1.62230        -1.228262      0.101159      0.260921
     11.15907     11.39268     10.21150         0.047877     -0.017822     -4.025026
     17.74864      8.11150      8.11150        -0.403279      0.218007      0.517082
      4.77025      1.62230      1.62230         0.850978     -0.795709      0.606266
      1.52565      1.62230      4.86690         0.017990      0.019956     -1.206837
     17.74864      1.62230      8.11150         2.310544      2.025154     -6.241915
      8.91281      3.15639     15.64250        -0.384429     -0.069023     -4.703910
     17.14910      0.91013     10.21150        -1.946478     -2.188884      3.595555
      5.54342      0.53575     11.56925         0.385366      0.044926     -0.290763
     11.25945      8.11150      1.62230        -0.809206      0.549597      0.618684
      7.41531     10.64392     10.21150        -2.038609     -2.228819      3.628278
      4.77025      8.11150      8.11150         0.366149     -0.108091      0.004718
     11.25945      1.62230      1.62230         0.564408      0.659486      0.956963
      8.01485      1.62230      4.86690        -1.386548      0.076478     -0.105581
      4.77025      1.62230      8.11150        -0.446494     -1.451820     -3.226248
     17.74864     14.60070      1.62230         1.120087     -0.118068      0.400576
     16.40035      4.65389     10.21150         0.675207      0.587506     -2.979710
     11.25944     14.60070      8.11150         2.284628     -1.248677     -5.471742
     17.74864      8.11150      1.62230         0.776769     -0.647005      0.466017
     12.65658      3.90514     10.21150        -0.316635     -0.430950     -3.704852
     11.25944      8.11150      8.11150        -1.042030      0.544813     -3.303084
     17.74864      1.62230      1.62230        -0.173313      0.141637      1.244779
      3.67154      9.89517     10.21150        -0.682489      3.340569     -5.293924
     11.25944      1.62230      8.11150         0.003792      0.059002      1.305701
     14.50404     14.60070      4.86690        -0.057841      0.056765     -0.089331
     14.15409      6.15140     12.92700         0.013479      0.067986      0.103978
     11.90783      7.64891     15.64250        -0.372192     -0.133532     -2.843576
     17.74864     14.60070      8.11150         0.137302     -0.110803      0.448684
     17.14910     10.64392     12.92700         0.002137      0.027151      0.185273
     14.90284     12.14143     15.64250         0.195439     -0.075969     -2.633995
      8.91281      3.15639     10.21150         0.036942      0.532084     -0.282676
      6.66655      4.65389     12.92700         0.068721     -0.162432      0.060584
      4.42029      6.15140     15.64250        -0.975894      2.198113     -1.306368
     11.90783      7.64891     10.21150         1.314941     -0.196122      4.005905
      9.66157      9.14642     12.92700         0.038659     -0.104219      0.150065
      7.41530     10.64393     15.64250        -0.029420     -0.155350      0.560761
     14.50404     17.84530      8.11150         0.025547     -0.201357      0.114635
     12.65658     13.63894     12.92700         0.002340      0.049336      0.155214
      9.63715      9.73380      0.00000        -0.034346     -0.756720     -0.764838
     14.50404     11.35610      8.11150        -1.060748     -0.903188     -3.747825
     15.65159     18.13147     12.92700        -0.062874      0.066232      0.110708
     13.40533      0.16137     15.64250         0.680524     -2.389937     -1.744438
      1.42527      1.65888     10.21150         0.018086      0.099712     -0.851530
     18.64661      3.15639     12.92700         0.042389      0.095077      0.024657
     16.40035      4.65389     15.64250         0.285141     -2.391697     -1.388893
      4.77025     17.84530      4.86690        -0.048911      0.825038      0.042395
      2.17403      7.64891     12.92700        -2.270909     -0.544572      1.854355
     19.39536      9.14642     15.64250        -0.168247     -0.135203     -2.432821
      8.01485      8.11150      4.86690         0.507965     -0.526026     -0.481440
      5.16904     12.14143     12.92700        -0.016038      0.013987      0.187887
      2.92278     13.63894     15.64250         0.194611      0.180045     -2.503458
      1.52564     17.84530      8.11150         0.125506     -0.391523     -1.009101
      8.16406     16.63395     12.92700        -0.096277     -0.027310      0.095690
      5.91779     18.13146     15.64250         0.093188     -0.053434      0.152231
     11.25945     11.35610      4.86690         0.015987     -0.017854     -0.883253
     11.15907      1.65888     12.92700         0.001366      0.022180     -0.020359
     11.25945     14.60070      1.62230        -0.162434     -0.374330      0.368893
      2.92278     13.63894     10.21150         0.242604     -0.226626     -1.394388
      0.67652     15.13645     12.92700        -0.086736      0.044620      0.056961
     17.89785     16.63396     15.64250         0.467669      0.145935     -2.942048
      5.91780     18.13146     10.21150         0.580658     -2.973963     -2.333389
      3.67153      0.16137     12.92700        -2.301482     -0.578195      1.619127
      1.42527      1.65888     15.64250        -0.018587     -0.008329     -3.030691
      1.05090      3.53076     11.56925         0.098702     -0.057307     -0.158081
     18.27223      5.02827     14.28475        -0.007342     -0.104879     -0.029532
      6.39255      3.24460      3.24460        -0.120816      0.081029      0.169577
     13.03096      2.03326     11.56925         0.464815      0.136858      2.946939
     10.78470      3.53076     14.28475         2.242898      0.555907     -1.786914
     19.37094     16.22300      3.24460         0.151155     -0.066853      0.097504
     16.02598      6.52578     11.56925        -0.017536     -0.014755      3.047919
     13.77971      8.02329     14.28475         0.025896      0.066988     -0.081635
      3.14794      0.00000      3.24460         0.445041     -0.367145      0.436109
     19.02099     11.01830     11.56925        -0.954708      2.189021      1.311693
     16.77473     12.51581     14.28475         0.067991     -0.044444     -0.156353
      6.39255      0.00000      0.00000        -0.278699      0.585773      0.354672
      8.53844      5.02827     11.56925         0.683870     -2.403425      1.725736
      6.29217      6.52578     14.28475        -0.006804      0.034826      0.027218
      4.04591      8.02329     17.00025        -0.120758      0.859579      0.737622
     11.53345      9.52079     11.56925         0.297543     -2.395966      1.392819
      9.28719     11.01830     14.28475         0.003993      0.082784     -0.053682
      7.04092     12.51581     17.00025         0.176392      0.620512     -0.443111
     14.52847     14.01332     11.56925        -0.168020     -0.143700      2.435135
     12.28220     15.51083     14.28475         2.305876      0.500482     -1.822064
     10.03594     17.00833     17.00025         0.394897      3.052265     -1.594114
     17.52348     18.50584     11.56925         0.202423      0.191005      2.505992
     15.27722      0.53575     14.28475        -0.079226      0.069085     -0.113595
      3.14794      6.48920      3.24460        -0.602491      0.490190      0.501203
      6.39255      0.00000      6.48920        -0.177679     -0.357887     -0.370185
      1.79965      9.52079     14.28475         0.071972     -0.108631     -0.105208
     16.12635      0.00000      3.24460        -0.307516      0.319692      0.544822
      7.04093     12.51581     11.56925        -0.359191     -0.142621      2.815952
      4.79466     14.01332     14.28475         0.055197     -0.077765     -0.116065
     12.88175      9.73380      3.24460         0.010408      0.055434      0.853809
     10.03594     17.00833     11.56925         0.187641     -0.083852      2.630205
      7.78968     18.50584     14.28475        -0.020555      0.058112     -0.062021
      5.54342      0.53575     17.00025        -0.108825     -0.902202      0.117608
      2.54840     15.51082     11.56925        -0.019482     -0.157544     -0.554997
      0.30214     17.00833     14.28475        -0.007230      0.002960     -0.195065
     19.37094      3.24460      3.24460        -0.506621      0.385923      0.423394
      4.77025     14.60070      8.11150        -0.025069     -0.755644      0.757932
      3.29716      2.03326     14.28475        -0.084496     -0.106613     -0.083832
      9.63715      6.48920      3.24460         0.110425     -0.055519      0.950173
      0.67652      5.40265     10.21150        -0.108420     -0.898788     -0.102586
     17.89786      6.90016     12.92700        -0.035842     -0.084519      0.089696
     15.65159      8.39767     15.64250         0.041305      0.011197     -3.169763
     14.50404      8.11150      4.86690        -0.070203     -0.028789     -0.873315
     10.41032      5.40265     12.92700        -0.033260      0.074434      0.088456
      8.16405      6.90016     15.64250         0.036775      2.489692     -1.216439
      4.77025     11.35610      4.86690         0.128979     -0.054552     -0.104586
     13.40533      9.89517     12.92700         0.004571     -0.083033      0.021146
     11.15907     11.39268     15.64250        -0.478650      2.433886     -1.341322
     18.64661     12.89019     10.21150        -0.117575      0.829000     -0.732079
     16.40035     14.38770     12.92700         0.102948     -0.095849      0.115220
     14.15409     15.88520     15.64250        -0.927426      2.211966     -1.327359
      5.16904      2.40763     10.21150         0.399904      3.058418      1.580529
      2.92278      3.90514     12.92700        -0.048168      0.039879      0.087341
      0.67652      5.40265     15.64250         0.371294      0.079667     -2.867858
     17.74865     11.35610      4.86690         0.262685     -0.363247     -0.520574
      5.91780      8.39766     12.92700         2.248970      0.547104      1.792521
      3.67153      9.89517     15.64250         0.671276     -2.413711     -1.607644
      1.52565      8.11150      4.86690        -0.060746      0.128621     -1.003346
      8.91281     12.89019     12.92700         0.001674      0.081917      0.072556
      6.66655     14.38770     15.64250        -0.251339      0.032392      0.129277
     11.25945      4.86690      4.86690         0.099690     -0.127681     -0.959782
     11.90782     17.38271     12.92700         0.137785     -0.046435      0.116287
      9.66156     18.88022     15.64250         0.210890     -2.265662     -0.762457
      8.01485     14.60070      4.86690         0.437022     -0.341193     -0.421834
     14.90284      2.40763     12.92700        -0.007403     -0.015546      0.193333
     12.65658      3.90514     15.64250         0.243750      0.146346     -2.522122
     14.50404      1.62230      4.86690         0.126598     -0.066941     -0.941618
      1.42527     11.39268     12.92700        -0.032360      0.031635     -0.015796
     18.64661     12.89019     15.64250        -0.275441     -0.080793     -3.232890
     17.74865      4.86690      4.86690         0.012259      0.029796     -0.867575
      4.42029     15.88520     12.92700         0.005395      0.085544      0.065305
      2.17402     17.38271     15.64250        -0.344170     -0.123893     -2.822604
      1.52564      4.86690      8.11150        -0.264475      0.587251     -0.378217
      7.41530      0.91013     12.92700         2.285121      0.511679      1.792710
      5.16904      2.40763     15.64250         0.676750     -2.153981     -1.122470
      2.17403     17.38271     10.21150         0.175491      0.626471      0.439820
     19.39536     18.88022     12.92700         0.048140     -0.089944      0.116312
     17.14910      0.91013     15.64250        -0.574156      2.217158     -1.048388
     16.77473      2.78201     11.56925        -0.360505     -0.108658      2.826432
     14.52847      4.27952     14.28475         0.038548     -0.092001     -0.158445
     12.88175      3.24460      3.24460         0.065240     -0.110795      0.928202
      0.30214      7.27453     11.56925         0.686247     -2.172302      1.120948
     17.52348      8.77204     14.28475        -0.021173      0.049963     -0.177435
      6.39255     12.97840      0.00000         0.124016     -0.396283      1.018207
     12.28221      5.77702     11.56925        -0.583406      2.222700      1.043198
     10.03594      7.27453     14.28475        -0.003246     -0.014978     -0.174562
      7.78968      8.77204     17.00025         0.252509     -0.214353      1.392434
     15.27722     10.26955     11.56925         0.374704      0.085213      2.868498
     13.03096     11.76706     14.28475        -0.063875     -0.015003     -0.108302
     10.78470     13.26456     17.00025         0.574166     -2.966538      2.327110
     18.27224     14.76207     11.56925         0.647472     -2.401686      1.611577
     16.02598     16.25958     14.28475        -0.012641      0.011547     -0.012611
     13.77971     17.75709     17.00025         0.045487      0.517482      0.287835
      4.79467      4.27952     11.56925         0.214947     -2.243745      0.762427
      2.54840      5.77702     14.28475        -0.016613      0.012686     -0.170327
     19.37095     12.97840      0.00000         0.005074     -0.182566     -0.119833
      7.78968      8.77204     11.56925         0.236143      0.150668      2.513065
      5.54342     10.26955     14.28475        -0.041521      0.062671     -0.035586
     19.37095      6.48920      0.00000        -1.072138     -0.904988      3.734230
     10.78470     13.26456     11.56925         0.052920      0.039361      3.178730
      8.53843     14.76207     14.28475        -2.313973     -0.551854     -1.603636
      6.29217     16.25958     17.00025         0.031563      0.100789      0.865226
     13.77971     17.75709     11.56925        -0.297443     -0.058753      3.214169
     11.53345     19.25460     14.28475         0.115523     -0.128915     -0.073535
      9.63715     12.97840      3.24460         0.404372      0.412641      0.406287
      3.29716     11.76705     11.56925         0.021637      2.487888      1.227308
      1.05090     13.26456     14.28475        -0.056424      0.058081     -0.115670
     16.12635      6.48920      3.24460         0.009072     -0.009338      0.875478
      6.29217     16.25958     11.56925        -0.464007      2.442334      1.330295
      4.04591     17.75709     14.28475         0.007729      0.119218     -0.016046
     19.37094      9.73380      3.24460        -0.058786      0.066245      0.944795
      9.28719      1.28450     11.56925        -0.936380      2.208666      1.332563
      7.04093      2.78201     14.28475        -2.209927     -0.545226     -1.820389
      3.14795      9.73380      0.00000         0.131375     -0.124314     -0.458575
      1.79965     19.25459     11.56925        -0.240765      0.053756     -0.134751
     19.02099      1.28450     14.28475         0.020062      0.061441     -0.118509
     16.77472      2.78201     17.00025         1.309377     -0.193372     -4.009243
 -----------------------------------------------------------------------------------
    total drift:                                0.118193     -0.025890      0.259098


--------------------------------------------------------------------------------------------------------



  FREE ENERGIE OF THE ION-ELECTRON SYSTEM (eV)
  ---------------------------------------------------
  free  energy   TOTEN  =     -1121.52849540 eV

  energy  without entropy=    -1121.52272796  energy(sigma->0) =    -1121.52561168
 


--------------------------------------------------------------------------------------------------------


    POTLOK:  cpu time      3.2323: real time      3.2620


--------------------------------------------------------------------------------------------------------


     LOOP+:  cpu time   6082.2438: real time   6176.1922
    4ORBIT:  cpu time      0.0000: real time      0.0000

 total amount of memory used by VASP MPI-rank0   909748. kBytes
=======================================================================

   base      :      30000. kBytes
   nonlr-proj:      25449. kBytes
   fftplans  :      40888. kBytes
   grid      :      30643. kBytes
   one-center:        275. kBytes
   wavefun   :     782493. kBytes
 
  
  
 General timing and accounting informations for this job:
 ========================================================
  
                  Total CPU time used (sec):     6396.919
                            User time (sec):     6081.185
                          System time (sec):      315.734
                         Elapsed time (sec):     6499.028
  
                   Maximum memory used (kb):     1219752.
                   Average memory used (kb):          N/A
  
                          Minor page faults:      1131786
                          Major page faults:         1122
                 Voluntary context switches:         4061
