Si and Ge interface calculation         
           1
    13.303180    0.000000    0.000000
    -6.651589   14.873406    0.000000
     0.000000    0.000000    7.204130
   Si   C 
    36    84
Direct configuration=     1
   0.99715096  0.98005658  0.00000000
   0.96381754  0.74672317  0.16857126
   0.93048412  0.51338983  0.33714253
   0.33048421  0.31338987  0.00000000
   0.29715079  0.08005647  0.16857126
   0.26381737  0.84672308  0.33714253
   0.66381747  0.64672315  0.00000000
   0.63048405  0.41338971  0.16857126
   0.59715062  0.18005633  0.33714253
   0.31381753  0.94672334  0.08428546
   0.28048411  0.71338999  0.25285673
   0.24715069  0.48005658  0.42142788
   0.64715082  0.28005657  0.08428546
   0.61381739  0.04672319  0.25285667
   0.58048397  0.81338978  0.42142793
   0.98048443  0.61338985  0.08428548
   0.94715101  0.38005647  0.25285667
   0.91381758  0.14672309  0.42142788
   0.16381757  0.64672309  0.00000000
   0.13048416  0.41338971  0.16857126
   0.09715075  0.18005632  0.33714253
   0.49715090  0.98005664  0.00000001
   0.46381742  0.74672317  0.16857119
   0.43048406  0.51338983  0.33714244
   0.83048415  0.31338987  0.00000001
   0.79715073  0.08005653  0.16857119
   0.76381731  0.84672308  0.33714244
   0.14715090  0.28005657  0.08428547
   0.11381748  0.04672317  0.25285673
   0.08048407  0.81338978  0.42142793
   0.48048422  0.61338991  0.08428547
   0.44715083  0.38005653  0.25285667
   0.41381741  0.14672317  0.42142793
   0.81381750  0.94672328  0.08428546
   0.78048414  0.71338987  0.25285667
   0.74715072  0.48005646  0.42142793
   0.92475408  0.95674121  0.79374552
   0.29618251  0.98531276  0.57232785
   0.61046833  0.97102708  0.68303675
   0.06761122  0.81388402  0.79374564
   0.43903962  0.84245563  0.57232785
   0.75332540  0.82816982  0.68303675
   0.21046829  0.67102695  0.79374552
   0.58189678  0.69959849  0.57232785
   0.89618260  0.68531275  0.68303675
   0.35332549  0.52816981  0.79374552
   0.72475398  0.55674136  0.57232785
   0.03903985  0.54245555  0.68303675
   0.49618256  0.38531268  0.79374552
   0.86761111  0.41388422  0.57232785
   0.18189692  0.39959848  0.68303675
   0.63903975  0.24245551  0.79374552
   0.01046824  0.27102709  0.57232785
   0.32475400  0.25674131  0.68303675
   0.78189695  0.09959841  0.79374558
   0.15332538  0.12816989  0.57232785
   0.46761116  0.11388421  0.68303675
   0.47475398  0.05674124  0.84909982
   0.84618235  0.08531284  0.62768215
   0.16046822  0.07102704  0.73839104
   0.61761105  0.91388404  0.84909982
   0.98903942  0.94245559  0.62768215
   0.30332518  0.92816979  0.73839104
   0.76046836  0.77102697  0.84909982
   0.13189673  0.79959846  0.62768215
   0.44618261  0.78531277  0.73839104
   0.90332544  0.62816989  0.84909982
   0.27475381  0.65674138  0.62768215
   0.58903968  0.64245564  0.73839104
   0.04618239  0.48531270  0.84909987
   0.41761091  0.51388425  0.62768221
   0.73189670  0.49959850  0.73839104
   0.18903971  0.34245551  0.84909987
   0.56046820  0.37102711  0.62768215
   0.87475395  0.35674131  0.73839104
   0.33189690  0.19959843  0.84909987
   0.70332527  0.22816996  0.62768215
   0.01761103  0.21388420  0.73839104
   0.42475414  0.95674121  0.79374564
   0.79618257  0.98531288  0.57232785
   0.11046839  0.97102702  0.68303675
   0.56761134  0.81388402  0.79374564
   0.93903983  0.84245568  0.57232785
   0.25332546  0.82816982  0.68303675
   0.71046853  0.67102689  0.79374564
   0.08189690  0.69959855  0.57232785
   0.39618266  0.68531275  0.68303675
   0.85332555  0.52816987  0.79374564
   0.22475398  0.55674142  0.57232785
   0.53903979  0.54245561  0.68303675
   0.99618268  0.38531262  0.79374552
   0.36761111  0.41388422  0.57232785
   0.68189692  0.39959842  0.68303675
   0.13903975  0.24245551  0.79374552
   0.51046824  0.27102709  0.57232785
   0.82475406  0.25674128  0.68303675
   0.28189695  0.09959841  0.79374552
   0.65332538  0.12817001  0.57232785
   0.96761119  0.11388421  0.68303675
   0.97475392  0.05674124  0.84909982
   0.34618241  0.08531284  0.62768221
   0.66046816  0.07102704  0.73839104
   0.11761093  0.91388416  0.84909982
   0.48903951  0.94245571  0.62768221
   0.80332524  0.92816991  0.73839104
   0.26046824  0.77102697  0.84909982
   0.63189673  0.79959846  0.62768221
   0.94618255  0.78531271  0.73839104
   0.40332544  0.62816978  0.84909982
   0.77475387  0.65674132  0.62768221
   0.08903956  0.64245552  0.73839104
   0.54618251  0.48531270  0.84909982
   0.91761088  0.51388419  0.62768221
   0.23189676  0.49959844  0.73839104
   0.68903983  0.34245554  0.84910005
   0.06046820  0.37102711  0.62768215
   0.37475395  0.35674134  0.73839104
   0.83189690  0.19959845  0.84909982
   0.20332527  0.22816995  0.62768221
   0.51761115  0.21388423  0.73839104
