 264 264   0   0
  0.2741953E+02  0.1946760E-08  0.1946760E-08  0.1910025E-08  0.5000000E-15
  1.000000000000000E-004
  CAR 
 Si and Ge interface calculation         
      6.75695531     -8.82411470  301      4.15024162      1.00000000
     -8.824  0.0000E+00  0.0000E+00  0.0000E+00  0.0000E+00
     -8.772  0.0000E+00  0.0000E+00  0.0000E+00  0.0000E+00
     -8.720  0.0000E+00  0.0000E+00  0.0000E+00  0.0000E+00
     -8.668  0.0000E+00  0.0000E+00  0.0000E+00  0.0000E+00
     -8.616  0.0000E+00  0.0000E+00  0.0000E+00  0.0000E+00
     -8.564  0.0000E+00  0.0000E+00  0.0000E+00  0.0000E+00
     -8.512  0.0000E+00  0.0000E+00  0.0000E+00  0.0000E+00
     -8.461  0.0000E+00  0.0000E+00  0.0000E+00  0.0000E+00
     -8.409  0.0000E+00  0.0000E+00  0.0000E+00  0.0000E+00
     -8.357  0.0000E+00  0.0000E+00  0.0000E+00  0.0000E+00
     -8.305  0.0000E+00  0.0000E+00  0.0000E+00  0.0000E+00
     -8.253  0.0000E+00  0.0000E+00  0.0000E+00  0.0000E+00
     -8.201  0.0000E+00  0.0000E+00  0.0000E+00  0.0000E+00
     -8.149  0.1377E-04  0.3692E-05  0.7153E-06  0.1917E-06
     -8.097  0.9597E+01  0.9551E+01  0.4984E+00  0.4961E+00
     -8.045  0.1970E+02  0.1954E+02  0.1522E+01  0.1511E+01
     -7.993  0.1274E+02  0.1181E+02  0.2184E+01  0.2125E+01
     -7.941  0.2225E+02  0.2244E+02  0.3339E+01  0.3290E+01
     -7.889  0.1272E+02  0.1366E+02  0.4000E+01  0.4000E+01
     -7.837  0.1581E+02  0.1419E+02  0.4821E+01  0.4737E+01
     -7.785  0.1324E+02  0.1477E+02  0.5509E+01  0.5504E+01
     -7.733  0.2447E+02  0.2278E+02  0.6780E+01  0.6687E+01
     -7.682  0.3345E+02  0.3508E+02  0.8517E+01  0.8509E+01
     -7.630  0.1168E+02  0.1110E+02  0.9124E+01  0.9086E+01
     -7.578  0.2649E+02  0.2719E+02  0.1050E+02  0.1050E+02
     -7.526  0.9497E+01  0.9377E+01  0.1099E+02  0.1099E+02
     -7.474  0.9868E+01  0.9829E+01  0.1150E+02  0.1150E+02
     -7.422  0.1916E+02  0.1933E+02  0.1250E+02  0.1250E+02
     -7.370  0.1902E+02  0.1821E+02  0.1349E+02  0.1345E+02
     -7.318  0.3024E+02  0.3056E+02  0.1506E+02  0.1503E+02
     -7.266  0.2451E+02  0.2373E+02  0.1633E+02  0.1627E+02
     -7.214  0.4381E+02  0.4441E+02  0.1861E+02  0.1857E+02
     -7.162  0.3089E+02  0.2910E+02  0.2021E+02  0.2008E+02
     -7.110  0.2482E+02  0.2727E+02  0.2150E+02  0.2150E+02
     -7.058  0.1394E+02  0.1240E+02  0.2222E+02  0.2214E+02
     -7.006  0.7791E+02  0.7782E+02  0.2627E+02  0.2619E+02
     -6.954  0.2445E+02  0.2424E+02  0.2754E+02  0.2744E+02
     -6.902  0.3899E+02  0.3692E+02  0.2956E+02  0.2936E+02
     -6.851  0.3834E+02  0.4103E+02  0.3156E+02  0.3149E+02
     -6.799  0.2947E+02  0.2881E+02  0.3309E+02  0.3299E+02
     -6.747  0.2613E+02  0.2578E+02  0.3444E+02  0.3433E+02
     -6.695  0.4430E+02  0.4319E+02  0.3674E+02  0.3657E+02
     -6.643  0.5870E+02  0.5962E+02  0.3979E+02  0.3967E+02
     -6.591  0.4299E+02  0.4311E+02  0.4203E+02  0.4191E+02
     -6.539  0.5456E+02  0.5507E+02  0.4486E+02  0.4477E+02
     -6.487  0.3157E+02  0.3328E+02  0.4650E+02  0.4650E+02
     -6.435  0.4691E+02  0.4418E+02  0.4894E+02  0.4879E+02
     -6.383  0.4084E+02  0.4039E+02  0.5106E+02  0.5089E+02
     -6.331  0.5886E+02  0.6015E+02  0.5411E+02  0.5401E+02
     -6.279  0.3528E+02  0.3616E+02  0.5595E+02  0.5589E+02
     -6.227  0.4099E+02  0.3876E+02  0.5808E+02  0.5790E+02
     -6.175  0.3642E+02  0.3900E+02  0.5997E+02  0.5993E+02
     -6.123  0.6708E+02  0.6617E+02  0.6345E+02  0.6337E+02
     -6.071  0.6536E+02  0.6402E+02  0.6685E+02  0.6669E+02
     -6.020  0.7656E+02  0.7626E+02  0.7082E+02  0.7065E+02
     -5.968  0.7562E+02  0.7636E+02  0.7475E+02  0.7462E+02
     -5.916  0.5854E+02  0.5673E+02  0.7779E+02  0.7756E+02
     -5.864  0.6590E+02  0.6830E+02  0.8121E+02  0.8111E+02
     -5.812  0.9608E+02  0.9354E+02  0.8620E+02  0.8597E+02
     -5.760  0.7476E+02  0.7817E+02  0.9009E+02  0.9003E+02
     -5.708  0.6415E+02  0.5968E+02  0.9342E+02  0.9313E+02
     -5.656  0.7114E+02  0.7325E+02  0.9711E+02  0.9693E+02
     -5.604  0.7515E+02  0.7628E+02  0.1010E+03  0.1009E+03
     -5.552  0.7983E+02  0.7725E+02  0.1052E+03  0.1049E+03
     -5.500  0.7634E+02  0.7686E+02  0.1091E+03  0.1089E+03
     -5.448  0.8285E+02  0.8100E+02  0.1134E+03  0.1131E+03
     -5.396  0.6949E+02  0.7124E+02  0.1170E+03  0.1168E+03
     -5.344  0.6585E+02  0.6535E+02  0.1205E+03  0.1202E+03
     -5.292  0.6345E+02  0.6465E+02  0.1238E+03  0.1236E+03
     -5.240  0.9677E+02  0.9453E+02  0.1288E+03  0.1285E+03
     -5.189  0.8604E+02  0.9010E+02  0.1332E+03  0.1331E+03
     -5.137  0.6219E+02  0.6163E+02  0.1365E+03  0.1363E+03
     -5.085  0.6441E+02  0.6150E+02  0.1398E+03  0.1395E+03
     -5.033  0.7050E+02  0.7350E+02  0.1435E+03  0.1434E+03
     -4.981  0.6715E+02  0.6534E+02  0.1470E+03  0.1468E+03
     -4.929  0.7651E+02  0.7783E+02  0.1509E+03  0.1508E+03
     -4.877  0.5544E+02  0.5517E+02  0.1538E+03  0.1537E+03
     -4.825  0.5625E+02  0.5507E+02  0.1567E+03  0.1565E+03
     -4.773  0.1078E+03  0.1062E+03  0.1623E+03  0.1620E+03
     -4.721  0.1200E+03  0.1205E+03  0.1686E+03  0.1683E+03
     -4.669  0.8101E+02  0.8183E+02  0.1728E+03  0.1725E+03
     -4.617  0.1078E+03  0.1058E+03  0.1784E+03  0.1780E+03
     -4.565  0.1238E+03  0.1243E+03  0.1848E+03  0.1845E+03
     -4.513  0.8587E+02  0.8770E+02  0.1893E+03  0.1891E+03
     -4.461  0.1061E+03  0.1046E+03  0.1948E+03  0.1945E+03
     -4.409  0.9388E+02  0.9259E+02  0.1997E+03  0.1993E+03
     -4.358  0.1104E+03  0.1129E+03  0.2054E+03  0.2052E+03
     -4.306  0.8981E+02  0.8740E+02  0.2101E+03  0.2097E+03
     -4.254  0.8708E+02  0.9036E+02  0.2146E+03  0.2144E+03
     -4.202  0.4741E+02  0.4678E+02  0.2170E+03  0.2168E+03
     -4.150  0.8057E+02  0.7977E+02  0.2212E+03  0.2210E+03
     -4.098  0.8265E+02  0.8336E+02  0.2255E+03  0.2253E+03
     -4.046  0.5881E+02  0.5863E+02  0.2286E+03  0.2283E+03
     -3.994  0.5327E+02  0.5584E+02  0.2313E+03  0.2312E+03
     -3.942  0.7685E+02  0.7317E+02  0.2353E+03  0.2350E+03
     -3.890  0.6493E+02  0.6827E+02  0.2387E+03  0.2386E+03
     -3.838  0.7630E+02  0.7432E+02  0.2427E+03  0.2424E+03
     -3.786  0.6864E+02  0.6686E+02  0.2462E+03  0.2459E+03
     -3.734  0.6428E+02  0.6684E+02  0.2496E+03  0.2494E+03
     -3.682  0.5617E+02  0.5175E+02  0.2525E+03  0.2521E+03
     -3.630  0.7887E+02  0.8206E+02  0.2566E+03  0.2563E+03
     -3.578  0.6639E+02  0.6615E+02  0.2600E+03  0.2598E+03
     -3.527  0.7657E+02  0.7871E+02  0.2640E+03  0.2639E+03
     -3.475  0.4128E+02  0.4111E+02  0.2662E+03  0.2660E+03
     -3.423  0.7569E+02  0.7240E+02  0.2701E+03  0.2698E+03
     -3.371  0.9147E+02  0.9471E+02  0.2748E+03  0.2747E+03
     -3.319  0.5664E+02  0.5586E+02  0.2778E+03  0.2776E+03
     -3.267  0.7451E+02  0.7501E+02  0.2816E+03  0.2815E+03
     -3.215  0.6713E+02  0.6545E+02  0.2851E+03  0.2849E+03
     -3.163  0.8154E+02  0.7843E+02  0.2894E+03  0.2889E+03
     -3.111  0.7486E+02  0.7763E+02  0.2933E+03  0.2930E+03
     -3.059  0.7891E+02  0.8066E+02  0.2974E+03  0.2972E+03
     -3.007  0.6504E+02  0.6371E+02  0.3007E+03  0.3005E+03
     -2.955  0.7202E+02  0.7180E+02  0.3045E+03  0.3042E+03
     -2.903  0.6318E+02  0.6499E+02  0.3078E+03  0.3076E+03
     -2.851  0.8898E+02  0.8683E+02  0.3124E+03  0.3121E+03
     -2.799  0.9592E+02  0.9578E+02  0.3174E+03  0.3171E+03
     -2.747  0.9155E+02  0.9441E+02  0.3221E+03  0.3220E+03
     -2.696  0.8791E+02  0.8601E+02  0.3267E+03  0.3264E+03
     -2.644  0.1010E+03  0.9934E+02  0.3319E+03  0.3316E+03
     -2.592  0.9450E+02  0.9696E+02  0.3368E+03  0.3366E+03
     -2.540  0.9028E+02  0.8730E+02  0.3415E+03  0.3412E+03
     -2.488  0.1139E+03  0.1154E+03  0.3474E+03  0.3472E+03
     -2.436  0.1291E+03  0.1286E+03  0.3541E+03  0.3538E+03
     -2.384  0.1023E+03  0.1018E+03  0.3595E+03  0.3591E+03
     -2.332  0.8959E+02  0.9026E+02  0.3641E+03  0.3638E+03
     -2.280  0.9598E+02  0.9642E+02  0.3691E+03  0.3688E+03
     -2.228  0.1057E+03  0.1044E+03  0.3746E+03  0.3742E+03
     -2.176  0.1000E+03  0.1020E+03  0.3798E+03  0.3795E+03
     -2.124  0.5814E+02  0.5776E+02  0.3828E+03  0.3825E+03
     -2.072  0.3429E+02  0.3704E+02  0.3846E+03  0.3845E+03
     -2.020  0.5626E+02  0.5332E+02  0.3875E+03  0.3872E+03
     -1.968  0.6800E+02  0.6924E+02  0.3910E+03  0.3908E+03
     -1.917  0.7893E+02  0.7646E+02  0.3951E+03  0.3948E+03
     -1.865  0.9427E+02  0.9558E+02  0.4000E+03  0.3998E+03
     -1.813  0.9197E+02  0.8974E+02  0.4048E+03  0.4044E+03
     -1.761  0.7247E+02  0.7786E+02  0.4086E+03  0.4085E+03
     -1.709  0.6974E+02  0.6917E+02  0.4122E+03  0.4121E+03
     -1.657  0.1172E+03  0.1132E+03  0.4183E+03  0.4179E+03
     -1.605  0.9272E+02  0.9447E+02  0.4231E+03  0.4228E+03
     -1.553  0.7918E+02  0.7909E+02  0.4272E+03  0.4270E+03
     -1.501  0.7297E+02  0.7464E+02  0.4310E+03  0.4308E+03
     -1.449  0.8112E+02  0.7886E+02  0.4352E+03  0.4349E+03
     -1.397  0.8000E+02  0.8129E+02  0.4394E+03  0.4391E+03
     -1.345  0.5400E+02  0.5562E+02  0.4422E+03  0.4420E+03
     -1.293  0.5448E+02  0.5226E+02  0.4450E+03  0.4447E+03
     -1.241  0.5768E+02  0.6038E+02  0.4480E+03  0.4479E+03
     -1.189  0.5810E+02  0.5843E+02  0.4510E+03  0.4509E+03
     -1.137  0.5995E+02  0.5733E+02  0.4541E+03  0.4539E+03
     -1.086  0.3894E+02  0.4208E+02  0.4561E+03  0.4561E+03
     -1.034  0.5631E+02  0.5449E+02  0.4591E+03  0.4589E+03
     -0.982  0.5671E+02  0.5445E+02  0.4620E+03  0.4617E+03
     -0.930  0.5855E+02  0.6043E+02  0.4651E+03  0.4649E+03
     -0.878  0.3347E+02  0.3481E+02  0.4668E+03  0.4667E+03
     -0.826  0.4286E+02  0.4080E+02  0.4690E+03  0.4688E+03
     -0.774  0.7186E+02  0.7376E+02  0.4728E+03  0.4726E+03
     -0.722  0.5993E+02  0.5839E+02  0.4759E+03  0.4757E+03
     -0.670  0.5705E+02  0.5810E+02  0.4788E+03  0.4787E+03
     -0.618  0.5943E+02  0.5650E+02  0.4819E+03  0.4816E+03
     -0.566  0.5805E+02  0.6009E+02  0.4849E+03  0.4847E+03
     -0.514  0.4422E+02  0.4733E+02  0.4872E+03  0.4872E+03
     -0.462  0.1838E+02  0.1621E+02  0.4882E+03  0.4880E+03
     -0.410  0.2747E+02  0.2823E+02  0.4896E+03  0.4895E+03
     -0.358  0.4744E+02  0.4406E+02  0.4921E+03  0.4918E+03
     -0.306  0.4542E+02  0.4821E+02  0.4944E+03  0.4943E+03
     -0.255  0.6341E+02  0.6180E+02  0.4977E+03  0.4975E+03
     -0.203  0.7625E+02  0.7687E+02  0.5017E+03  0.5015E+03
     -0.151  0.8462E+02  0.8431E+02  0.5061E+03  0.5059E+03
     -0.099  0.7581E+02  0.7496E+02  0.5100E+03  0.5098E+03
     -0.047  0.1052E+03  0.1054E+03  0.5155E+03  0.5153E+03
      0.005  0.1248E+03  0.1236E+03  0.5220E+03  0.5217E+03
      0.057  0.1213E+03  0.1224E+03  0.5283E+03  0.5280E+03
      0.109  0.1135E+03  0.1105E+03  0.5342E+03  0.5338E+03
      0.161  0.1538E+03  0.1517E+03  0.5422E+03  0.5416E+03
      0.213  0.1250E+03  0.1314E+03  0.5486E+03  0.5485E+03
      0.265  0.7200E+02  0.7017E+02  0.5524E+03  0.5521E+03
      0.317  0.8965E+02  0.9253E+02  0.5570E+03  0.5569E+03
      0.369  0.9590E+02  0.9276E+02  0.5620E+03  0.5617E+03
      0.421  0.7932E+02  0.8053E+02  0.5661E+03  0.5659E+03
      0.473  0.1025E+03  0.1022E+03  0.5715E+03  0.5712E+03
      0.525  0.8400E+02  0.8555E+02  0.5758E+03  0.5757E+03
      0.576  0.7711E+02  0.7300E+02  0.5798E+03  0.5795E+03
      0.628  0.1323E+03  0.1327E+03  0.5867E+03  0.5864E+03
      0.680  0.1682E+03  0.1675E+03  0.5954E+03  0.5951E+03
      0.732  0.1432E+03  0.1422E+03  0.6029E+03  0.6024E+03
      0.784  0.1151E+03  0.1180E+03  0.6089E+03  0.6086E+03
      0.836  0.1271E+03  0.1264E+03  0.6155E+03  0.6151E+03
      0.888  0.1233E+03  0.1249E+03  0.6219E+03  0.6216E+03
      0.940  0.9590E+02  0.9612E+02  0.6268E+03  0.6266E+03
      0.992  0.8251E+02  0.7969E+02  0.6311E+03  0.6307E+03
      1.044  0.1118E+03  0.1151E+03  0.6369E+03  0.6367E+03
      1.096  0.1388E+03  0.1332E+03  0.6441E+03  0.6436E+03
      1.148  0.1451E+03  0.1471E+03  0.6517E+03  0.6513E+03
      1.200  0.1329E+03  0.1324E+03  0.6586E+03  0.6582E+03
      1.252  0.1641E+03  0.1651E+03  0.6671E+03  0.6667E+03
      1.304  0.1687E+03  0.1684E+03  0.6759E+03  0.6755E+03
      1.356  0.1645E+03  0.1611E+03  0.6844E+03  0.6838E+03
      1.407  0.1944E+03  0.1962E+03  0.6945E+03  0.6940E+03
      1.459  0.1953E+03  0.1922E+03  0.7046E+03  0.7040E+03
      1.511  0.1395E+03  0.1439E+03  0.7119E+03  0.7115E+03
      1.563  0.1839E+03  0.1796E+03  0.7214E+03  0.7208E+03
      1.615  0.2230E+03  0.2251E+03  0.7330E+03  0.7325E+03
      1.667  0.1833E+03  0.1846E+03  0.7425E+03  0.7421E+03
      1.719  0.1876E+03  0.1840E+03  0.7523E+03  0.7517E+03
      1.771  0.1668E+03  0.1704E+03  0.7609E+03  0.7605E+03
      1.823  0.1893E+03  0.1858E+03  0.7708E+03  0.7702E+03
      1.875  0.1806E+03  0.1813E+03  0.7802E+03  0.7796E+03
      1.927  0.1592E+03  0.1618E+03  0.7884E+03  0.7880E+03
      1.979  0.1632E+03  0.1585E+03  0.7969E+03  0.7962E+03
      2.031  0.2146E+03  0.2152E+03  0.8080E+03  0.8074E+03
      2.083  0.1607E+03  0.1637E+03  0.8164E+03  0.8159E+03
      2.135  0.1823E+03  0.1807E+03  0.8259E+03  0.8253E+03
      2.187  0.1813E+03  0.1811E+03  0.8353E+03  0.8347E+03
      2.238  0.1851E+03  0.1833E+03  0.8449E+03  0.8442E+03
      2.290  0.1656E+03  0.1702E+03  0.8535E+03  0.8530E+03
      2.342  0.1653E+03  0.1648E+03  0.8621E+03  0.8616E+03
      2.394  0.1580E+03  0.1575E+03  0.8703E+03  0.8698E+03
      2.446  0.1974E+03  0.1957E+03  0.8805E+03  0.8799E+03
      2.498  0.1550E+03  0.1552E+03  0.8886E+03  0.8880E+03
      2.550  0.1329E+03  0.1361E+03  0.8955E+03  0.8951E+03
      2.602  0.1766E+03  0.1731E+03  0.9047E+03  0.9041E+03
      2.654  0.1432E+03  0.1448E+03  0.9121E+03  0.9116E+03
      2.706  0.1344E+03  0.1363E+03  0.9191E+03  0.9187E+03
      2.758  0.1168E+03  0.1138E+03  0.9251E+03  0.9246E+03
      2.810  0.1376E+03  0.1355E+03  0.9323E+03  0.9316E+03
      2.862  0.1281E+03  0.1291E+03  0.9389E+03  0.9383E+03
      2.914  0.1471E+03  0.1501E+03  0.9466E+03  0.9461E+03
      2.966  0.1494E+03  0.1493E+03  0.9543E+03  0.9539E+03
      3.017  0.1203E+03  0.1194E+03  0.9606E+03  0.9601E+03
      3.069  0.1140E+03  0.1153E+03  0.9665E+03  0.9661E+03
      3.121  0.1315E+03  0.1315E+03  0.9733E+03  0.9729E+03
      3.173  0.1242E+03  0.1223E+03  0.9798E+03  0.9792E+03
      3.225  0.1152E+03  0.1210E+03  0.9858E+03  0.9855E+03
      3.277  0.1007E+03  0.9656E+02  0.9910E+03  0.9905E+03
      3.329  0.1015E+03  0.9772E+02  0.9963E+03  0.9956E+03
      3.381  0.1184E+03  0.1210E+03  0.1002E+04  0.1002E+04
      3.433  0.1089E+03  0.1047E+03  0.1008E+04  0.1007E+04
      3.485  0.6570E+02  0.7596E+02  0.1011E+04  0.1011E+04
      3.537  0.8693E+02  0.7938E+02  0.1016E+04  0.1015E+04
      3.589  0.9506E+02  0.9908E+02  0.1021E+04  0.1021E+04
      3.641  0.9101E+02  0.9053E+02  0.1026E+04  0.1025E+04
      3.693  0.1017E+03  0.9349E+02  0.1031E+04  0.1030E+04
      3.745  0.3652E+02  0.4733E+02  0.1033E+04  0.1033E+04
      3.797  0.6482E+02  0.6538E+02  0.1036E+04  0.1036E+04
      3.848  0.5282E+02  0.4778E+02  0.1039E+04  0.1038E+04
      3.900  0.4921E+02  0.5527E+02  0.1042E+04  0.1041E+04
      3.952  0.4231E+02  0.3998E+02  0.1044E+04  0.1043E+04
      4.004  0.3516E+02  0.3484E+02  0.1046E+04  0.1045E+04
      4.056  0.6829E+02  0.5565E+02  0.1049E+04  0.1048E+04
      4.108  0.6129E+02  0.6652E+02  0.1052E+04  0.1052E+04
      4.160  0.8036E+02  0.7987E+02  0.1056E+04  0.1056E+04
      4.212  0.1214E+03  0.1202E+03  0.1063E+04  0.1062E+04
      4.264  0.8000E+02  0.8190E+02  0.1067E+04  0.1066E+04
      4.316  0.8985E+02  0.8407E+02  0.1072E+04  0.1071E+04
      4.368  0.1082E+03  0.1139E+03  0.1077E+04  0.1076E+04
      4.420  0.7143E+02  0.6294E+02  0.1081E+04  0.1080E+04
      4.472  0.1246E+03  0.1353E+03  0.1087E+04  0.1087E+04
      4.524  0.1186E+03  0.1148E+03  0.1094E+04  0.1093E+04
      4.576  0.9753E+02  0.9661E+02  0.1099E+04  0.1098E+04
      4.628  0.1172E+03  0.1204E+03  0.1105E+04  0.1104E+04
      4.679  0.9239E+02  0.9176E+02  0.1109E+04  0.1109E+04
      4.731  0.9583E+02  0.9197E+02  0.1114E+04  0.1114E+04
      4.783  0.1108E+03  0.1164E+03  0.1120E+04  0.1120E+04
      4.835  0.1055E+03  0.1041E+03  0.1126E+04  0.1125E+04
      4.887  0.1222E+03  0.1187E+03  0.1132E+04  0.1131E+04
      4.939  0.1253E+03  0.1301E+03  0.1139E+04  0.1138E+04
      4.991  0.1165E+03  0.1176E+03  0.1145E+04  0.1144E+04
      5.043  0.1212E+03  0.1208E+03  0.1151E+04  0.1150E+04
      5.095  0.1128E+03  0.1148E+03  0.1157E+04  0.1156E+04
      5.147  0.1047E+03  0.1019E+03  0.1162E+04  0.1162E+04
      5.199  0.1213E+03  0.1181E+03  0.1168E+04  0.1168E+04
      5.251  0.1192E+03  0.1235E+03  0.1175E+04  0.1174E+04
      5.303  0.1095E+03  0.1114E+03  0.1180E+04  0.1180E+04
      5.355  0.1206E+03  0.1177E+03  0.1187E+04  0.1186E+04
      5.407  0.1084E+03  0.1076E+03  0.1192E+04  0.1192E+04
      5.459  0.1358E+03  0.1351E+03  0.1199E+04  0.1199E+04
      5.510  0.1374E+03  0.1414E+03  0.1206E+04  0.1206E+04
      5.562  0.1578E+03  0.1546E+03  0.1215E+04  0.1214E+04
      5.614  0.1246E+03  0.1270E+03  0.1221E+04  0.1221E+04
      5.666  0.1482E+03  0.1466E+03  0.1229E+04  0.1228E+04
      5.718  0.1484E+03  0.1487E+03  0.1237E+04  0.1236E+04
      5.770  0.1013E+03  0.1031E+03  0.1242E+04  0.1241E+04
      5.822  0.1276E+03  0.1279E+03  0.1248E+04  0.1248E+04
      5.874  0.1380E+03  0.1376E+03  0.1256E+04  0.1255E+04
      5.926  0.1248E+03  0.1255E+03  0.1262E+04  0.1262E+04
      5.978  0.1370E+03  0.1303E+03  0.1269E+04  0.1268E+04
      6.030  0.4835E+02  0.6276E+02  0.1272E+04  0.1272E+04
      6.082  0.6435E+01  0.7698E+01  0.1272E+04  0.1272E+04
      6.134  0.0000E+00  0.0000E+00  0.1272E+04  0.1272E+04
      6.186  0.0000E+00  0.0000E+00  0.1272E+04  0.1272E+04
      6.238  0.0000E+00  0.0000E+00  0.1272E+04  0.1272E+04
      6.290  0.0000E+00  0.0000E+00  0.1272E+04  0.1272E+04
      6.341  0.0000E+00  0.0000E+00  0.1272E+04  0.1272E+04
      6.393  0.0000E+00  0.0000E+00  0.1272E+04  0.1272E+04
      6.445  0.0000E+00  0.0000E+00  0.1272E+04  0.1272E+04
      6.497  0.0000E+00  0.0000E+00  0.1272E+04  0.1272E+04
      6.549  0.0000E+00  0.0000E+00  0.1272E+04  0.1272E+04
      6.601  0.0000E+00  0.0000E+00  0.1272E+04  0.1272E+04
      6.653  0.0000E+00  0.0000E+00  0.1272E+04  0.1272E+04
      6.705  0.0000E+00  0.0000E+00  0.1272E+04  0.1272E+04
      6.757  0.0000E+00  0.0000E+00  0.1272E+04  0.1272E+04
