Si and Ge interface calculation         
           1
     8.001338    0.000000    0.000000
     0.000000   16.002676    0.000000
     0.000000    0.000000   13.264324
   Ge   Si
    48    24
Direct configuration=     1
   0.99145830  0.99572915  0.00000000
   0.74145830  0.87072915  0.21327132
   0.49145830  0.74572915  0.42654267
   0.99145824  0.49572909  0.00000000
   0.74145830  0.37072912  0.21327132
   0.49145830  0.24572912  0.42654267
   0.49145824  0.24572912  0.00000000
   0.24145827  0.12072913  0.21327132
   0.99145830  0.99572915  0.42654267
   0.49145824  0.74572909  0.00000000
   0.24145828  0.62072909  0.21327132
   0.99145824  0.49572909  0.42654267
   0.24145828  0.99572915  0.10663566
   0.99145830  0.87072915  0.31990701
   0.74145830  0.74572915  0.53317833
   0.24145824  0.49572909  0.10663566
   0.99145824  0.37072909  0.31990701
   0.74145824  0.24572909  0.53317833
   0.74145830  0.24572915  0.10663566
   0.49145830  0.12072915  0.31990701
   0.24145828  0.99572915  0.53317833
   0.74145830  0.74572909  0.10663566
   0.49145827  0.62072909  0.31990701
   0.24145827  0.49572912  0.53317833
   0.99145830  0.24572913  0.00000000
   0.74145830  0.12072913  0.21327132
   0.49145830  0.99572915  0.42654267
   0.49145827  0.99572915  0.00000000
   0.24145827  0.87072915  0.21327132
   0.99145830  0.74572915  0.42654267
   0.99145824  0.74572915  0.00000000
   0.74145830  0.62072915  0.21327132
   0.49145830  0.49572915  0.42654267
   0.49145827  0.49572912  0.00000000
   0.24145831  0.37072915  0.21327132
   0.99145830  0.24572915  0.42654267
   0.24145828  0.24572912  0.10663566
   0.99145830  0.12072913  0.31990701
   0.74145830  0.99572915  0.53317833
   0.74145824  0.99572915  0.10663566
   0.49145827  0.87072915  0.31990701
   0.24145825  0.74572909  0.53317833
   0.24145828  0.74572909  0.10663566
   0.99145830  0.62072909  0.31990701
   0.74145830  0.49572909  0.53317833
   0.74145824  0.49572909  0.10663566
   0.49145827  0.37072912  0.31990701
   0.24145825  0.24572909  0.53317833
   0.88022292  0.60395694  0.64595538
   0.63022280  0.21506786  0.69420886
   0.38022280  0.82617903  0.74246240
   0.13022280  0.43728995  0.79071581
   0.88022280  0.04840112  0.83896935
   0.63022256  0.65951181  0.88722277
   0.13022292  0.35395694  0.64595538
   0.88022292  0.96506792  0.69420886
   0.63022292  0.57617903  0.74246240
   0.38022280  0.18728995  0.79071587
   0.13022268  0.79840094  0.83896929
   0.88022256  0.40951181  0.88722289
   0.63022304  0.35395694  0.64595538
   0.38022292  0.96506786  0.69420886
   0.13022292  0.57617903  0.74246240
   0.88022280  0.18728995  0.79071587
   0.63022280  0.79840094  0.83896929
   0.38022268  0.40951181  0.88722283
   0.38022292  0.60395694  0.64595538
   0.13022280  0.21506786  0.69420886
   0.88022280  0.82617903  0.74246240
   0.63022280  0.43728995  0.79071581
   0.38022280  0.04840088  0.83896935
   0.13022256  0.65951204  0.88722289
