 120 120   0   0
  0.1187863E+02  0.1330318E-08  0.1629300E-08  0.7204130E-09  0.5000000E-15
  1.000000000000000E-004
  CAR 
 Si and Ge interface calculation         
      9.10360082    -14.33866691  301      5.37352914      1.00000000
    -14.339  0.0000E+00  0.0000E+00  0.0000E+00  0.0000E+00
    -14.261  0.0000E+00  0.0000E+00  0.0000E+00  0.0000E+00
    -14.182  0.0000E+00  0.0000E+00  0.0000E+00  0.0000E+00
    -14.104  0.0000E+00  0.0000E+00  0.0000E+00  0.0000E+00
    -14.026  0.0000E+00  0.0000E+00  0.0000E+00  0.0000E+00
    -13.948  0.0000E+00  0.0000E+00  0.0000E+00  0.0000E+00
    -13.870  0.0000E+00  0.0000E+00  0.0000E+00  0.0000E+00
    -13.792  0.0000E+00  0.0000E+00  0.0000E+00  0.0000E+00
    -13.714  0.0000E+00  0.0000E+00  0.0000E+00  0.0000E+00
    -13.635  0.0000E+00  0.0000E+00  0.0000E+00  0.0000E+00
    -13.557  0.0000E+00  0.0000E+00  0.0000E+00  0.0000E+00
    -13.479  0.0000E+00  0.0000E+00  0.0000E+00  0.0000E+00
    -13.401  0.0000E+00  0.0000E+00  0.0000E+00  0.0000E+00
    -13.323  0.1210E-11  0.5920E-16  0.9452E-13  0.4626E-17
    -13.245  0.4265E+01  0.4222E+01  0.3333E+00  0.3299E+00
    -13.167  0.1111E+02  0.8803E+01  0.1202E+01  0.1021E+01
    -13.088  0.1448E+02  0.1678E+02  0.2333E+01  0.2333E+01
    -13.010  0.1400E+02  0.7803E+01  0.3427E+01  0.2943E+01
    -12.932  0.9454E+01  0.1594E+02  0.4333E+01  0.4333E+01
    -12.854  0.1183E+02  0.9218E+01  0.5258E+01  0.5054E+01
    -12.776  0.1816E+02  0.1958E+02  0.6704E+01  0.6584E+01
    -12.698  0.1592E+02  0.1378E+02  0.7960E+01  0.7746E+01
    -12.620  0.1205E+02  0.1141E+02  0.8924E+01  0.8637E+01
    -12.541  0.5581E+01  0.9181E+01  0.9457E+01  0.9355E+01
    -12.463  0.1136E+02  0.1253E+02  0.1035E+02  0.1033E+02
    -12.385  0.2163E+02  0.2135E+02  0.1204E+02  0.1200E+02
    -12.307  0.3813E+01  0.4236E+01  0.1233E+02  0.1233E+02
    -12.229  0.8871E+01  0.4922E+01  0.1303E+02  0.1272E+02
    -12.151  0.2099E+02  0.2492E+02  0.1467E+02  0.1467E+02
    -12.073  0.1042E+02  0.8950E+01  0.1548E+02  0.1537E+02
    -11.994  0.5832E+01  0.4316E+01  0.1594E+02  0.1570E+02
    -11.916  0.1789E+02  0.2086E+02  0.1733E+02  0.1733E+02
    -11.838  0.1705E+02  0.1706E+02  0.1867E+02  0.1867E+02
    -11.760  0.2468E+02  0.2052E+02  0.2059E+02  0.2027E+02
    -11.682  0.4276E+01  0.5142E+01  0.2100E+02  0.2100E+02
    -11.604  0.9954E+01  0.8676E+01  0.2178E+02  0.2168E+02
    -11.526  0.2028E+02  0.2121E+02  0.2336E+02  0.2333E+02
    -11.447  0.8218E+01  0.8513E+01  0.2401E+02  0.2400E+02
    -11.369  0.8449E+01  0.8383E+01  0.2467E+02  0.2466E+02
    -11.291  0.1708E+02  0.1701E+02  0.2600E+02  0.2600E+02
    -11.213  0.4346E+01  0.4272E+01  0.2634E+02  0.2633E+02
    -11.135  0.1516E+02  0.1358E+02  0.2753E+02  0.2739E+02
    -11.057  0.6077E+01  0.7746E+01  0.2800E+02  0.2800E+02
    -10.979  0.2510E-13  0.0000E+00  0.2800E+02  0.2800E+02
    -10.900  0.7275E+01  0.5387E+01  0.2857E+02  0.2842E+02
    -10.822  0.2883E-05  0.3077E+01  0.2867E+02  0.2867E+02
    -10.744  0.4266E+01  0.4266E+01  0.2900E+02  0.2900E+02
    -10.666  0.8531E+01  0.8504E+01  0.2967E+02  0.2966E+02
    -10.588  0.2039E+01  0.1327E+00  0.2983E+02  0.2968E+02
    -10.510  0.2602E+02  0.2344E+02  0.3186E+02  0.3151E+02
    -10.432  0.1241E+02  0.1905E+02  0.3300E+02  0.3300E+02
    -10.353  0.1465E+02  0.9664E+01  0.3414E+02  0.3376E+02
    -10.275  0.2888E+02  0.3516E+02  0.3665E+02  0.3650E+02
    -10.197  0.1271E+02  0.1417E+02  0.3766E+02  0.3761E+02
    -10.119  0.8528E+01  0.8364E+01  0.3833E+02  0.3832E+02
    -10.041  0.1439E+02  0.1185E+02  0.3946E+02  0.3926E+02
     -9.963  0.1551E+02  0.1724E+02  0.4068E+02  0.4067E+02
     -9.885  0.1247E+02  0.1138E+02  0.4166E+02  0.4156E+02
     -9.806  0.7222E-14  0.0000E+00  0.4167E+02  0.4167E+02
     -9.728  0.1283E+02  0.8761E+01  0.4267E+02  0.4235E+02
     -9.650  0.2802E+02  0.3013E+02  0.4488E+02  0.4474E+02
     -9.572  0.9302E+01  0.1181E+02  0.4567E+02  0.4567E+02
     -9.494  0.6233E+01  0.1937E+01  0.4615E+02  0.4582E+02
     -9.416  0.6846E+01  0.1128E+02  0.4680E+02  0.4670E+02
     -9.338  0.6686E+01  0.8111E+01  0.4733E+02  0.4733E+02
     -9.260  0.1272E+02  0.1063E+02  0.4833E+02  0.4816E+02
     -9.181  0.8532E+01  0.8523E+01  0.4900E+02  0.4900E+02
     -9.103  0.4797E+01  0.1218E+01  0.4937E+02  0.4910E+02
     -9.025  0.2060E+02  0.2405E+02  0.5100E+02  0.5097E+02
     -8.947  0.1917E+02  0.1509E+02  0.5250E+02  0.5218E+02
     -8.869  0.5472E+01  0.1044E+02  0.5300E+02  0.5300E+02
     -8.791  0.1470E+02  0.1248E+02  0.5415E+02  0.5397E+02
     -8.713  0.2131E+02  0.2098E+02  0.5582E+02  0.5565E+02
     -8.634  0.1785E+02  0.1614E+02  0.5724E+02  0.5698E+02
     -8.556  0.3010E+02  0.3219E+02  0.5966E+02  0.5950E+02
     -8.478  0.3487E+02  0.2837E+02  0.6239E+02  0.6181E+02
     -8.400  0.9771E+01  0.1628E+02  0.6329E+02  0.6321E+02
     -8.322  0.2177E+02  0.1972E+02  0.6500E+02  0.6480E+02
     -8.244  0.2286E+02  0.2345E+02  0.6684E+02  0.6668E+02
     -8.166  0.1157E+02  0.1080E+02  0.6777E+02  0.6759E+02
     -8.087  0.2141E+02  0.1716E+02  0.6946E+02  0.6899E+02
     -8.009  0.3209E+02  0.3403E+02  0.7208E+02  0.7172E+02
     -7.931  0.1923E+02  0.2343E+02  0.7366E+02  0.7358E+02
     -7.853  0.8330E+01  0.5009E+01  0.7432E+02  0.7399E+02
     -7.775  0.2134E+02  0.2373E+02  0.7601E+02  0.7592E+02
     -7.697  0.1226E+02  0.8393E+01  0.7697E+02  0.7666E+02
     -7.619  0.7840E+01  0.1249E+02  0.7767E+02  0.7767E+02
     -7.540  0.1059E+02  0.4636E+01  0.7849E+02  0.7803E+02
     -7.462  0.9538E+01  0.1667E+02  0.7933E+02  0.7933E+02
     -7.384  0.4378E+01  0.7401E+00  0.7968E+02  0.7939E+02
     -7.306  0.1963E+02  0.1819E+02  0.8123E+02  0.8081E+02
     -7.228  0.8531E+01  0.1515E+02  0.8200E+02  0.8200E+02
     -7.150  0.0000E+00  0.0000E+00  0.8200E+02  0.8200E+02
     -7.072  0.1577E+01  0.4545E-01  0.8212E+02  0.8200E+02
     -6.993  0.7059E+01  0.8487E+01  0.8267E+02  0.8267E+02
     -6.915  0.4162E+01  0.4265E+01  0.8300E+02  0.8300E+02
     -6.837  0.1279E+02  0.1260E+02  0.8400E+02  0.8398E+02
     -6.759  0.1654E+00  0.4302E-02  0.8401E+02  0.8400E+02
     -6.681  0.8366E+01  0.8527E+01  0.8467E+02  0.8467E+02
     -6.603  0.8730E+01  0.8543E+01  0.8535E+02  0.8533E+02
     -6.525  0.8333E+01  0.8520E+01  0.8600E+02  0.8600E+02
     -6.446  0.8204E+01  0.5577E+01  0.8664E+02  0.8644E+02
     -6.368  0.9734E+01  0.1020E+02  0.8747E+02  0.8735E+02
     -6.290  0.1374E+02  0.1470E+02  0.8854E+02  0.8850E+02
     -6.212  0.1563E+01  0.2052E+01  0.8867E+02  0.8867E+02
     -6.134  0.1887E+02  0.1548E+02  0.9014E+02  0.8988E+02
     -6.056  0.2509E+02  0.2598E+02  0.9214E+02  0.9197E+02
     -5.978  0.2466E+02  0.2252E+02  0.9410E+02  0.9381E+02
     -5.899  0.1996E+02  0.1970E+02  0.9573E+02  0.9551E+02
     -5.821  0.2066E+02  0.1908E+02  0.9738E+02  0.9710E+02
     -5.743  0.2672E+02  0.2885E+02  0.9952E+02  0.9947E+02
     -5.665  0.1957E+02  0.1819E+02  0.1011E+03  0.1009E+03
     -5.587  0.1875E+02  0.1747E+02  0.1025E+03  0.1024E+03
     -5.509  0.1671E+02  0.1546E+02  0.1039E+03  0.1036E+03
     -5.431  0.2361E+02  0.2631E+02  0.1058E+03  0.1057E+03
     -5.352  0.1757E+02  0.1327E+02  0.1071E+03  0.1067E+03
     -5.274  0.1376E+02  0.2089E+02  0.1084E+03  0.1084E+03
     -5.196  0.1374E+02  0.1074E+02  0.1095E+03  0.1093E+03
     -5.118  0.1923E+02  0.1975E+02  0.1110E+03  0.1109E+03
     -5.040  0.2894E+02  0.2844E+02  0.1133E+03  0.1131E+03
     -4.962  0.1188E+02  0.1185E+02  0.1143E+03  0.1141E+03
     -4.884  0.1467E+02  0.1519E+02  0.1155E+03  0.1153E+03
     -4.805  0.3177E+02  0.2980E+02  0.1180E+03  0.1176E+03
     -4.727  0.3310E+02  0.3437E+02  0.1206E+03  0.1204E+03
     -4.649  0.3058E+02  0.2787E+02  0.1231E+03  0.1227E+03
     -4.571  0.3050E+02  0.2866E+02  0.1255E+03  0.1251E+03
     -4.493  0.3430E+02  0.3372E+02  0.1282E+03  0.1278E+03
     -4.415  0.2273E+02  0.2694E+02  0.1301E+03  0.1299E+03
     -4.337  0.3017E+02  0.2897E+02  0.1325E+03  0.1322E+03
     -4.258  0.2750E+02  0.2932E+02  0.1347E+03  0.1345E+03
     -4.180  0.2252E+02  0.2101E+02  0.1365E+03  0.1362E+03
     -4.102  0.2645E+02  0.2669E+02  0.1386E+03  0.1384E+03
     -4.024  0.2108E+02  0.2030E+02  0.1402E+03  0.1400E+03
     -3.946  0.3477E+02  0.3160E+02  0.1430E+03  0.1425E+03
     -3.868  0.2593E+02  0.3150E+02  0.1453E+03  0.1449E+03
     -3.790  0.2450E+02  0.2676E+02  0.1473E+03  0.1471E+03
     -3.712  0.2508E+02  0.2714E+02  0.1493E+03  0.1492E+03
     -3.633  0.2326E+02  0.2247E+02  0.1512E+03  0.1510E+03
     -3.555  0.1552E+02  0.1496E+02  0.1524E+03  0.1522E+03
     -3.477  0.2776E+02  0.2457E+02  0.1546E+03  0.1542E+03
     -3.399  0.3345E+02  0.3337E+02  0.1572E+03  0.1569E+03
     -3.321  0.3644E+02  0.3499E+02  0.1601E+03  0.1597E+03
     -3.243  0.3203E+02  0.2828E+02  0.1626E+03  0.1621E+03
     -3.165  0.3379E+02  0.3632E+02  0.1654E+03  0.1651E+03
     -3.086  0.2799E+02  0.2914E+02  0.1676E+03  0.1675E+03
     -3.008  0.2741E+02  0.2401E+02  0.1698E+03  0.1694E+03
     -2.930  0.2707E+02  0.2943E+02  0.1719E+03  0.1717E+03
     -2.852  0.2765E+02  0.2615E+02  0.1741E+03  0.1739E+03
     -2.774  0.2904E+02  0.2805E+02  0.1764E+03  0.1761E+03
     -2.696  0.2493E+02  0.2367E+02  0.1784E+03  0.1781E+03
     -2.618  0.3300E+02  0.3319E+02  0.1810E+03  0.1807E+03
     -2.539  0.2918E+02  0.3184E+02  0.1833E+03  0.1832E+03
     -2.461  0.2697E+02  0.2543E+02  0.1854E+03  0.1852E+03
     -2.383  0.2009E+02  0.1860E+02  0.1870E+03  0.1868E+03
     -2.305  0.2288E+02  0.2511E+02  0.1889E+03  0.1887E+03
     -2.227  0.3634E+02  0.3405E+02  0.1918E+03  0.1914E+03
     -2.149  0.2972E+02  0.3462E+02  0.1942E+03  0.1941E+03
     -2.071  0.2381E+02  0.2060E+02  0.1960E+03  0.1958E+03
     -1.992  0.3302E+02  0.3246E+02  0.1987E+03  0.1983E+03
     -1.914  0.3072E+02  0.2969E+02  0.2011E+03  0.2008E+03
     -1.836  0.3476E+02  0.3659E+02  0.2039E+03  0.2037E+03
     -1.758  0.2696E+02  0.2498E+02  0.2060E+03  0.2057E+03
     -1.680  0.2312E+02  0.2071E+02  0.2079E+03  0.2075E+03
     -1.602  0.2623E+02  0.2847E+02  0.2100E+03  0.2097E+03
     -1.524  0.3440E+02  0.3448E+02  0.2127E+03  0.2124E+03
     -1.445  0.2485E+02  0.2523E+02  0.2148E+03  0.2144E+03
     -1.367  0.2175E+02  0.2366E+02  0.2165E+03  0.2163E+03
     -1.289  0.2528E+02  0.2117E+02  0.2186E+03  0.2180E+03
     -1.211  0.2227E+02  0.2654E+02  0.2204E+03  0.2202E+03
     -1.133  0.4113E+02  0.4212E+02  0.2237E+03  0.2235E+03
     -1.055  0.4028E+02  0.3708E+02  0.2269E+03  0.2264E+03
     -0.977  0.2392E+02  0.3021E+02  0.2289E+03  0.2288E+03
     -0.898  0.4588E+02  0.4350E+02  0.2325E+03  0.2322E+03
     -0.820  0.2890E+02  0.2972E+02  0.2349E+03  0.2346E+03
     -0.742  0.3313E+02  0.3354E+02  0.2375E+03  0.2373E+03
     -0.664  0.3484E+02  0.3209E+02  0.2403E+03  0.2400E+03
     -0.586  0.3696E+02  0.3492E+02  0.2432E+03  0.2428E+03
     -0.508  0.3331E+02  0.3525E+02  0.2459E+03  0.2456E+03
     -0.430  0.4359E+02  0.3998E+02  0.2494E+03  0.2488E+03
     -0.351  0.3221E+02  0.3695E+02  0.2521E+03  0.2518E+03
     -0.273  0.3522E+02  0.2912E+02  0.2549E+03  0.2542E+03
     -0.195  0.3922E+02  0.4491E+02  0.2583E+03  0.2578E+03
     -0.117  0.3472E+02  0.3645E+02  0.2611E+03  0.2608E+03
     -0.039  0.2767E+02  0.2985E+02  0.2634E+03  0.2632E+03
      0.039  0.4226E+02  0.3885E+02  0.2667E+03  0.2663E+03
      0.117  0.2652E+02  0.3144E+02  0.2690E+03  0.2688E+03
      0.196  0.4360E+02  0.4008E+02  0.2724E+03  0.2720E+03
      0.274  0.3614E+02  0.3827E+02  0.2754E+03  0.2751E+03
      0.352  0.2920E+02  0.2928E+02  0.2777E+03  0.2774E+03
      0.430  0.3670E+02  0.3579E+02  0.2807E+03  0.2803E+03
      0.508  0.4920E+02  0.4906E+02  0.2846E+03  0.2842E+03
      0.586  0.3665E+02  0.3597E+02  0.2875E+03  0.2870E+03
      0.664  0.4789E+02  0.4724E+02  0.2913E+03  0.2908E+03
      0.743  0.4170E+02  0.4208E+02  0.2946E+03  0.2942E+03
      0.821  0.3437E+02  0.3491E+02  0.2974E+03  0.2970E+03
      0.899  0.3722E+02  0.3664E+02  0.3004E+03  0.2999E+03
      0.977  0.4019E+02  0.4297E+02  0.3037E+03  0.3033E+03
      1.055  0.3479E+02  0.3014E+02  0.3064E+03  0.3058E+03
      1.133  0.3671E+02  0.3899E+02  0.3094E+03  0.3089E+03
      1.211  0.3927E+02  0.3932E+02  0.3125E+03  0.3120E+03
      1.290  0.4258E+02  0.4309E+02  0.3160E+03  0.3154E+03
      1.368  0.3611E+02  0.3559E+02  0.3188E+03  0.3184E+03
      1.446  0.3372E+02  0.3667E+02  0.3216E+03  0.3213E+03
      1.524  0.3375E+02  0.3096E+02  0.3242E+03  0.3238E+03
      1.602  0.4199E+02  0.4053E+02  0.3275E+03  0.3272E+03
      1.680  0.3647E+02  0.3496E+02  0.3304E+03  0.3300E+03
      1.758  0.2629E+02  0.2583E+02  0.3326E+03  0.3323E+03
      1.836  0.4091E+02  0.3719E+02  0.3358E+03  0.3353E+03
      1.915  0.3602E+02  0.3849E+02  0.3388E+03  0.3384E+03
      1.993  0.3570E+02  0.3564E+02  0.3416E+03  0.3412E+03
      2.071  0.3704E+02  0.3921E+02  0.3446E+03  0.3443E+03
      2.149  0.4150E+02  0.3901E+02  0.3478E+03  0.3474E+03
      2.227  0.4714E+02  0.4649E+02  0.3517E+03  0.3511E+03
      2.305  0.3199E+02  0.3282E+02  0.3543E+03  0.3539E+03
      2.383  0.3675E+02  0.3549E+02  0.3573E+03  0.3567E+03
      2.462  0.3163E+02  0.3734E+02  0.3599E+03  0.3596E+03
      2.540  0.3464E+02  0.3143E+02  0.3627E+03  0.3621E+03
      2.618  0.3738E+02  0.4105E+02  0.3657E+03  0.3654E+03
      2.696  0.3741E+02  0.3403E+02  0.3687E+03  0.3680E+03
      2.774  0.3849E+02  0.4151E+02  0.3718E+03  0.3713E+03
      2.852  0.3966E+02  0.3938E+02  0.3749E+03  0.3745E+03
      2.930  0.3803E+02  0.3427E+02  0.3779E+03  0.3773E+03
      3.009  0.3872E+02  0.3987E+02  0.3812E+03  0.3804E+03
      3.087  0.4924E+02  0.5366E+02  0.3852E+03  0.3847E+03
      3.165  0.2932E+02  0.2816E+02  0.3876E+03  0.3870E+03
      3.243  0.4173E+02  0.4479E+02  0.3910E+03  0.3906E+03
      3.321  0.4058E+02  0.3598E+02  0.3942E+03  0.3935E+03
      3.399  0.3649E+02  0.3743E+02  0.3972E+03  0.3964E+03
      3.477  0.4369E+02  0.4962E+02  0.4008E+03  0.4004E+03
      3.556  0.4227E+02  0.3654E+02  0.4041E+03  0.4033E+03
      3.634  0.4101E+02  0.3823E+02  0.4074E+03  0.4065E+03
      3.712  0.4169E+02  0.4292E+02  0.4108E+03  0.4099E+03
      3.790  0.4329E+02  0.4184E+02  0.4143E+03  0.4133E+03
      3.868  0.3546E+02  0.4248E+02  0.4171E+03  0.4167E+03
      3.946  0.4309E+02  0.3950E+02  0.4206E+03  0.4198E+03
      4.024  0.4328E+02  0.4661E+02  0.4241E+03  0.4235E+03
      4.103  0.4359E+02  0.4759E+02  0.4276E+03  0.4272E+03
      4.181  0.4089E+02  0.3037E+02  0.4308E+03  0.4298E+03
      4.259  0.3407E+02  0.3963E+02  0.4336E+03  0.4329E+03
      4.337  0.4011E+02  0.4452E+02  0.4369E+03  0.4365E+03
      4.415  0.4456E+02  0.4020E+02  0.4405E+03  0.4397E+03
      4.493  0.3856E+02  0.3842E+02  0.4435E+03  0.4428E+03
      4.571  0.3689E+02  0.3460E+02  0.4464E+03  0.4456E+03
      4.650  0.4434E+02  0.4667E+02  0.4500E+03  0.4494E+03
      4.728  0.3579E+02  0.3990E+02  0.4529E+03  0.4525E+03
      4.806  0.3459E+02  0.2784E+02  0.4556E+03  0.4547E+03
      4.884  0.3960E+02  0.4187E+02  0.4588E+03  0.4581E+03
      4.962  0.4394E+02  0.3764E+02  0.4623E+03  0.4611E+03
      5.040  0.4424E+02  0.4271E+02  0.4658E+03  0.4646E+03
      5.118  0.4651E+02  0.4598E+02  0.4695E+03  0.4684E+03
      5.197  0.3041E+02  0.3351E+02  0.4719E+03  0.4711E+03
      5.275  0.5024E+02  0.4248E+02  0.4760E+03  0.4745E+03
      5.353  0.4022E+02  0.4429E+02  0.4793E+03  0.4781E+03
      5.431  0.3968E+02  0.4319E+02  0.4826E+03  0.4815E+03
      5.509  0.4125E+02  0.4248E+02  0.4859E+03  0.4849E+03
      5.587  0.4871E+02  0.4839E+02  0.4898E+03  0.4887E+03
      5.665  0.4306E+02  0.4059E+02  0.4932E+03  0.4920E+03
      5.744  0.3896E+02  0.4424E+02  0.4963E+03  0.4955E+03
      5.822  0.4357E+02  0.3740E+02  0.4998E+03  0.4986E+03
      5.900  0.3952E+02  0.4058E+02  0.5031E+03  0.5019E+03
      5.978  0.2868E+02  0.3488E+02  0.5054E+03  0.5046E+03
      6.056  0.4739E+02  0.4198E+02  0.5091E+03  0.5079E+03
      6.134  0.3054E+02  0.4059E+02  0.5118E+03  0.5112E+03
      6.212  0.3364E+02  0.3481E+02  0.5145E+03  0.5140E+03
      6.291  0.3986E+02  0.3664E+02  0.5177E+03  0.5169E+03
      6.369  0.2927E+02  0.3555E+02  0.5200E+03  0.5197E+03
      6.447  0.3440E+02  0.2890E+02  0.5227E+03  0.5221E+03
      6.525  0.3175E+02  0.3383E+02  0.5252E+03  0.5248E+03
      6.603  0.3673E+02  0.3334E+02  0.5281E+03  0.5275E+03
      6.681  0.3990E+02  0.3778E+02  0.5312E+03  0.5306E+03
      6.759  0.3511E+02  0.3664E+02  0.5340E+03  0.5334E+03
      6.838  0.3291E+02  0.2893E+02  0.5366E+03  0.5358E+03
      6.916  0.2935E+02  0.3144E+02  0.5390E+03  0.5383E+03
      6.994  0.3935E+02  0.4369E+02  0.5421E+03  0.5418E+03
      7.072  0.3762E+02  0.3348E+02  0.5451E+03  0.5444E+03
      7.150  0.3652E+02  0.3563E+02  0.5480E+03  0.5473E+03
      7.228  0.4787E+02  0.4713E+02  0.5518E+03  0.5511E+03
      7.306  0.2861E+02  0.2949E+02  0.5541E+03  0.5534E+03
      7.385  0.3483E+02  0.3454E+02  0.5569E+03  0.5562E+03
      7.463  0.2931E+02  0.2739E+02  0.5593E+03  0.5584E+03
      7.541  0.4173E+02  0.4920E+02  0.5627E+03  0.5622E+03
      7.619  0.4270E+02  0.3694E+02  0.5660E+03  0.5652E+03
      7.697  0.3645E+02  0.3638E+02  0.5690E+03  0.5682E+03
      7.775  0.3038E+02  0.3440E+02  0.5714E+03  0.5709E+03
      7.853  0.3426E+02  0.2914E+02  0.5741E+03  0.5734E+03
      7.931  0.1381E+02  0.2013E+02  0.5752E+03  0.5750E+03
      8.010  0.8511E+01  0.9849E+01  0.5759E+03  0.5758E+03
      8.088  0.9960E+00  0.3178E+01  0.5760E+03  0.5760E+03
      8.166  0.0000E+00  0.0000E+00  0.5760E+03  0.5760E+03
      8.244  0.0000E+00  0.0000E+00  0.5760E+03  0.5760E+03
      8.322  0.0000E+00  0.0000E+00  0.5760E+03  0.5760E+03
      8.400  0.0000E+00  0.0000E+00  0.5760E+03  0.5760E+03
      8.478  0.0000E+00  0.0000E+00  0.5760E+03  0.5760E+03
      8.557  0.0000E+00  0.0000E+00  0.5760E+03  0.5760E+03
      8.635  0.0000E+00  0.0000E+00  0.5760E+03  0.5760E+03
      8.713  0.0000E+00  0.0000E+00  0.5760E+03  0.5760E+03
      8.791  0.0000E+00  0.0000E+00  0.5760E+03  0.5760E+03
      8.869  0.0000E+00  0.0000E+00  0.5760E+03  0.5760E+03
      8.947  0.0000E+00  0.0000E+00  0.5760E+03  0.5760E+03
      9.025  0.0000E+00  0.0000E+00  0.5760E+03  0.5760E+03
      9.104  0.0000E+00  0.0000E+00  0.5760E+03  0.5760E+03
