 120 120   0   0
  0.2190039E+02  0.7680595E-09  0.1629300E-08  0.2100086E-08  0.5000000E-15
  1.000000000000000E-004
  CAR 
 Si and Ge interface calculation         
      7.81692198     -8.62161474  301      4.76010445      1.00000000
     -8.622  0.0000E+00  0.0000E+00  0.0000E+00  0.0000E+00
     -8.567  0.0000E+00  0.0000E+00  0.0000E+00  0.0000E+00
     -8.512  0.0000E+00  0.0000E+00  0.0000E+00  0.0000E+00
     -8.457  0.0000E+00  0.0000E+00  0.0000E+00  0.0000E+00
     -8.402  0.0000E+00  0.0000E+00  0.0000E+00  0.0000E+00
     -8.348  0.0000E+00  0.0000E+00  0.0000E+00  0.0000E+00
     -8.293  0.0000E+00  0.0000E+00  0.0000E+00  0.0000E+00
     -8.238  0.0000E+00  0.0000E+00  0.0000E+00  0.0000E+00
     -8.183  0.0000E+00  0.0000E+00  0.0000E+00  0.0000E+00
     -8.128  0.0000E+00  0.0000E+00  0.0000E+00  0.0000E+00
     -8.074  0.0000E+00  0.0000E+00  0.0000E+00  0.0000E+00
     -8.019  0.0000E+00  0.0000E+00  0.0000E+00  0.0000E+00
     -7.964  0.0000E+00  0.0000E+00  0.0000E+00  0.0000E+00
     -7.909  0.1863E-05  0.1392E-07  0.1021E-06  0.7630E-09
     -7.854  0.4551E+01  0.4442E+01  0.2494E+00  0.2434E+00
     -7.800  0.2074E+00  0.1375E+00  0.2608E+00  0.2509E+00
     -7.745  0.1188E+02  0.9942E+01  0.9117E+00  0.7957E+00
     -7.690  0.6174E+01  0.8291E+01  0.1250E+01  0.1250E+01
     -7.635  0.2277E+02  0.2230E+02  0.2497E+01  0.2472E+01
     -7.581  0.8779E-01  0.5154E+00  0.2502E+01  0.2500E+01
     -7.526  0.1340E+02  0.1232E+02  0.3237E+01  0.3175E+01
     -7.471  0.8890E+01  0.8841E+01  0.3724E+01  0.3660E+01
     -7.416  0.1414E+02  0.1504E+02  0.4498E+01  0.4484E+01
     -7.361  0.2101E+02  0.1457E+02  0.5649E+01  0.5282E+01
     -7.307  0.1798E+02  0.2290E+02  0.6635E+01  0.6537E+01
     -7.252  0.1250E+02  0.1334E+02  0.7319E+01  0.7268E+01
     -7.197  0.1970E+02  0.1885E+02  0.8399E+01  0.8301E+01
     -7.142  0.3252E+02  0.3195E+02  0.1018E+02  0.1005E+02
     -7.087  0.1950E+02  0.2181E+02  0.1125E+02  0.1125E+02
     -7.033  0.4571E+01  0.4608E+01  0.1150E+02  0.1150E+02
     -6.978  0.1653E+02  0.1442E+02  0.1241E+02  0.1229E+02
     -6.923  0.2259E+02  0.2222E+02  0.1364E+02  0.1351E+02
     -6.868  0.1753E+02  0.1691E+02  0.1460E+02  0.1443E+02
     -6.813  0.3287E+02  0.3188E+02  0.1641E+02  0.1618E+02
     -6.759  0.1216E+02  0.1525E+02  0.1707E+02  0.1702E+02
     -6.704  0.2343E+02  0.2303E+02  0.1836E+02  0.1828E+02
     -6.649  0.1978E+02  0.1826E+02  0.1944E+02  0.1928E+02
     -6.594  0.1937E+02  0.2111E+02  0.2050E+02  0.2044E+02
     -6.539  0.2452E+02  0.2316E+02  0.2184E+02  0.2170E+02
     -6.485  0.4309E+02  0.4273E+02  0.2421E+02  0.2405E+02
     -6.430  0.1455E+02  0.1152E+02  0.2500E+02  0.2468E+02
     -6.375  0.5066E+02  0.5491E+02  0.2778E+02  0.2769E+02
     -6.320  0.1437E+02  0.1402E+02  0.2857E+02  0.2845E+02
     -6.265  0.4203E+02  0.3931E+02  0.3087E+02  0.3061E+02
     -6.211  0.3837E+02  0.3670E+02  0.3297E+02  0.3262E+02
     -6.156  0.3203E+02  0.3530E+02  0.3473E+02  0.3455E+02
     -6.101  0.3634E+02  0.3641E+02  0.3672E+02  0.3655E+02
     -6.046  0.3100E+02  0.3266E+02  0.3842E+02  0.3834E+02
     -5.991  0.3121E+02  0.2823E+02  0.4013E+02  0.3988E+02
     -5.937  0.3174E+02  0.3145E+02  0.4187E+02  0.4161E+02
     -5.882  0.3288E+02  0.3045E+02  0.4367E+02  0.4328E+02
     -5.827  0.4241E+02  0.4625E+02  0.4599E+02  0.4581E+02
     -5.772  0.3149E+02  0.3041E+02  0.4772E+02  0.4748E+02
     -5.717  0.3885E+02  0.3907E+02  0.4985E+02  0.4962E+02
     -5.663  0.4104E+02  0.4018E+02  0.5209E+02  0.5182E+02
     -5.608  0.3617E+02  0.3364E+02  0.5408E+02  0.5366E+02
     -5.553  0.2910E+02  0.3405E+02  0.5567E+02  0.5553E+02
     -5.498  0.4960E+02  0.4599E+02  0.5839E+02  0.5805E+02
     -5.443  0.4440E+02  0.4832E+02  0.6082E+02  0.6070E+02
     -5.389  0.2376E+02  0.2061E+02  0.6212E+02  0.6182E+02
     -5.334  0.5242E+02  0.5285E+02  0.6500E+02  0.6472E+02
     -5.279  0.4060E+02  0.4194E+02  0.6722E+02  0.6702E+02
     -5.224  0.4169E+02  0.4297E+02  0.6951E+02  0.6937E+02
     -5.170  0.5614E+02  0.5474E+02  0.7258E+02  0.7237E+02
     -5.115  0.4583E+02  0.4349E+02  0.7509E+02  0.7476E+02
     -5.060  0.6089E+02  0.6332E+02  0.7843E+02  0.7823E+02
     -5.005  0.4210E+02  0.4054E+02  0.8074E+02  0.8045E+02
     -4.950  0.3862E+02  0.4121E+02  0.8285E+02  0.8271E+02
     -4.896  0.3925E+02  0.3746E+02  0.8500E+02  0.8476E+02
     -4.841  0.3155E+02  0.3388E+02  0.8673E+02  0.8661E+02
     -4.786  0.2471E+02  0.2209E+02  0.8809E+02  0.8783E+02
     -4.731  0.4394E+02  0.4816E+02  0.9049E+02  0.9046E+02
     -4.676  0.3172E+02  0.2674E+02  0.9223E+02  0.9193E+02
     -4.622  0.2938E+02  0.3359E+02  0.9384E+02  0.9377E+02
     -4.567  0.3160E+02  0.3182E+02  0.9557E+02  0.9551E+02
     -4.512  0.3415E+02  0.3098E+02  0.9745E+02  0.9721E+02
     -4.457  0.4443E+02  0.4415E+02  0.9988E+02  0.9963E+02
     -4.402  0.3483E+02  0.3660E+02  0.1018E+03  0.1016E+03
     -4.348  0.3683E+02  0.3164E+02  0.1038E+03  0.1034E+03
     -4.293  0.4721E+02  0.5163E+02  0.1064E+03  0.1062E+03
     -4.238  0.1987E+02  0.2072E+02  0.1075E+03  0.1073E+03
     -4.183  0.1734E+02  0.1528E+02  0.1084E+03  0.1082E+03
     -4.128  0.1952E+02  0.2230E+02  0.1095E+03  0.1094E+03
     -4.074  0.1941E+02  0.1799E+02  0.1106E+03  0.1104E+03
     -4.019  0.1249E+02  0.1588E+02  0.1112E+03  0.1112E+03
     -3.964  0.3075E+02  0.2653E+02  0.1129E+03  0.1127E+03
     -3.909  0.1844E+02  0.2059E+02  0.1139E+03  0.1138E+03
     -3.854  0.5670E+01  0.6825E+01  0.1143E+03  0.1142E+03
     -3.800  0.1336E+02  0.1111E+02  0.1150E+03  0.1148E+03
     -3.745  0.2124E+02  0.1736E+02  0.1162E+03  0.1158E+03
     -3.690  0.2349E+02  0.2846E+02  0.1174E+03  0.1173E+03
     -3.635  0.1561E+02  0.8157E+01  0.1183E+03  0.1178E+03
     -3.580  0.2366E+02  0.3196E+02  0.1196E+03  0.1195E+03
     -3.526  0.1923E+02  0.1592E+02  0.1206E+03  0.1204E+03
     -3.471  0.2016E+02  0.2297E+02  0.1217E+03  0.1217E+03
     -3.416  0.1423E+02  0.1551E+02  0.1225E+03  0.1225E+03
     -3.361  0.2013E+02  0.1874E+02  0.1236E+03  0.1235E+03
     -3.306  0.1180E+02  0.1322E+02  0.1243E+03  0.1243E+03
     -3.252  0.1768E+02  0.1797E+02  0.1252E+03  0.1252E+03
     -3.197  0.1769E+02  0.1515E+02  0.1262E+03  0.1261E+03
     -3.142  0.3852E+02  0.3587E+02  0.1283E+03  0.1280E+03
     -3.087  0.2604E+02  0.2898E+02  0.1298E+03  0.1296E+03
     -3.033  0.1849E+02  0.2028E+02  0.1308E+03  0.1307E+03
     -2.978  0.2740E+02  0.2547E+02  0.1323E+03  0.1321E+03
     -2.923  0.1644E+02  0.1706E+02  0.1332E+03  0.1331E+03
     -2.868  0.2435E+02  0.2195E+02  0.1345E+03  0.1343E+03
     -2.813  0.3291E+02  0.2969E+02  0.1363E+03  0.1359E+03
     -2.759  0.2974E+02  0.3094E+02  0.1379E+03  0.1376E+03
     -2.704  0.4191E+02  0.4232E+02  0.1402E+03  0.1399E+03
     -2.649  0.6150E+02  0.6082E+02  0.1436E+03  0.1432E+03
     -2.594  0.4460E+02  0.4705E+02  0.1460E+03  0.1458E+03
     -2.539  0.6207E+02  0.5201E+02  0.1494E+03  0.1487E+03
     -2.485  0.6054E+02  0.6867E+02  0.1528E+03  0.1524E+03
     -2.430  0.5228E+02  0.5236E+02  0.1556E+03  0.1553E+03
     -2.375  0.8171E+02  0.7602E+02  0.1601E+03  0.1595E+03
     -2.320  0.3786E+02  0.4467E+02  0.1622E+03  0.1619E+03
     -2.265  0.4160E+02  0.3704E+02  0.1645E+03  0.1639E+03
     -2.211  0.5031E+02  0.5595E+02  0.1672E+03  0.1670E+03
     -2.156  0.5457E+02  0.5256E+02  0.1702E+03  0.1699E+03
     -2.101  0.3879E+02  0.3821E+02  0.1723E+03  0.1720E+03
     -2.046  0.4756E+02  0.5002E+02  0.1749E+03  0.1747E+03
     -1.991  0.5354E+02  0.5062E+02  0.1779E+03  0.1775E+03
     -1.937  0.3778E+02  0.4248E+02  0.1799E+03  0.1798E+03
     -1.882  0.4835E+01  0.5323E+01  0.1802E+03  0.1801E+03
     -1.827  0.2181E+02  0.2148E+02  0.1814E+03  0.1813E+03
     -1.772  0.3648E+02  0.3048E+02  0.1834E+03  0.1830E+03
     -1.717  0.4042E+02  0.4369E+02  0.1856E+03  0.1854E+03
     -1.663  0.4443E+02  0.4359E+02  0.1881E+03  0.1877E+03
     -1.608  0.5605E+02  0.5429E+02  0.1911E+03  0.1907E+03
     -1.553  0.2789E+02  0.2995E+02  0.1927E+03  0.1924E+03
     -1.498  0.2767E+02  0.2855E+02  0.1942E+03  0.1939E+03
     -1.443  0.3340E+02  0.3667E+02  0.1960E+03  0.1959E+03
     -1.389  0.2139E+02  0.1873E+02  0.1972E+03  0.1970E+03
     -1.334  0.7168E+01  0.8604E+01  0.1976E+03  0.1974E+03
     -1.279  0.2405E+02  0.1915E+02  0.1989E+03  0.1985E+03
     -1.224  0.1594E+02  0.2155E+02  0.1998E+03  0.1997E+03
     -1.169  0.9066E+01  0.1069E+02  0.2002E+03  0.2002E+03
     -1.115  0.6286E+01  0.2070E+01  0.2006E+03  0.2004E+03
     -1.060  0.2586E+02  0.2987E+02  0.2020E+03  0.2020E+03
     -1.005  0.4142E+02  0.3553E+02  0.2043E+03  0.2039E+03
     -0.950  0.1614E+02  0.2134E+02  0.2052E+03  0.2051E+03
     -0.896  0.1143E+02  0.8371E+01  0.2058E+03  0.2056E+03
     -0.841  0.1713E+02  0.1818E+02  0.2067E+03  0.2066E+03
     -0.786  0.2527E+02  0.2411E+02  0.2081E+03  0.2079E+03
     -0.731  0.5498E+01  0.7049E+01  0.2084E+03  0.2083E+03
     -0.676  0.2545E+02  0.2693E+02  0.2098E+03  0.2098E+03
     -0.622  0.2737E+02  0.1950E+02  0.2113E+03  0.2108E+03
     -0.567  0.3858E+02  0.4469E+02  0.2134E+03  0.2133E+03
     -0.512  0.4396E+02  0.4191E+02  0.2158E+03  0.2156E+03
     -0.457  0.2474E+02  0.2675E+02  0.2172E+03  0.2170E+03
     -0.402  0.3666E+02  0.3479E+02  0.2192E+03  0.2189E+03
     -0.348  0.1455E+02  0.1806E+02  0.2200E+03  0.2199E+03
     -0.293  0.9198E+01  0.1040E+02  0.2205E+03  0.2205E+03
     -0.238  0.1079E+02  0.7274E+01  0.2211E+03  0.2209E+03
     -0.183  0.2988E+02  0.3108E+02  0.2227E+03  0.2226E+03
     -0.128  0.4948E+01  0.7266E+01  0.2230E+03  0.2230E+03
     -0.074  0.9378E+01  0.9058E+01  0.2235E+03  0.2235E+03
     -0.019  0.2362E+02  0.2096E+02  0.2248E+03  0.2246E+03
      0.036  0.1240E+02  0.1337E+02  0.2255E+03  0.2254E+03
      0.091  0.4766E+01  0.6442E+01  0.2257E+03  0.2257E+03
      0.146  0.1968E+02  0.1481E+02  0.2268E+03  0.2265E+03
      0.200  0.4474E+02  0.4360E+02  0.2293E+03  0.2289E+03
      0.255  0.7659E+02  0.6950E+02  0.2335E+03  0.2327E+03
      0.310  0.4576E+02  0.5675E+02  0.2360E+03  0.2358E+03
      0.365  0.3933E+02  0.3893E+02  0.2381E+03  0.2380E+03
      0.420  0.4011E+02  0.3686E+02  0.2403E+03  0.2400E+03
      0.474  0.4605E+02  0.4931E+02  0.2429E+03  0.2427E+03
      0.529  0.4805E+02  0.4417E+02  0.2455E+03  0.2451E+03
      0.584  0.3509E+02  0.3675E+02  0.2474E+03  0.2471E+03
      0.639  0.7232E+02  0.6913E+02  0.2514E+03  0.2509E+03
      0.694  0.3546E+02  0.3707E+02  0.2533E+03  0.2530E+03
      0.748  0.1001E+03  0.9480E+02  0.2588E+03  0.2582E+03
      0.803  0.8650E+02  0.8826E+02  0.2635E+03  0.2630E+03
      0.858  0.6110E+02  0.6388E+02  0.2669E+03  0.2665E+03
      0.913  0.5872E+02  0.5854E+02  0.2701E+03  0.2697E+03
      0.968  0.5020E+02  0.5341E+02  0.2729E+03  0.2726E+03
      1.022  0.4653E+02  0.4783E+02  0.2754E+03  0.2752E+03
      1.077  0.9636E+02  0.8804E+02  0.2807E+03  0.2801E+03
      1.132  0.5617E+02  0.6022E+02  0.2838E+03  0.2834E+03
      1.187  0.7874E+02  0.6946E+02  0.2881E+03  0.2872E+03
      1.242  0.6487E+02  0.7790E+02  0.2916E+03  0.2914E+03
      1.296  0.6970E+02  0.6292E+02  0.2955E+03  0.2949E+03
      1.351  0.9647E+02  0.9837E+02  0.3007E+03  0.3003E+03
      1.406  0.6356E+02  0.6402E+02  0.3042E+03  0.3038E+03
      1.461  0.8866E+02  0.7935E+02  0.3091E+03  0.3081E+03
      1.515  0.4848E+02  0.5902E+02  0.3117E+03  0.3114E+03
      1.570  0.5310E+02  0.5335E+02  0.3147E+03  0.3143E+03
      1.625  0.8308E+02  0.7999E+02  0.3192E+03  0.3187E+03
      1.680  0.8282E+02  0.8466E+02  0.3237E+03  0.3233E+03
      1.735  0.7200E+02  0.7127E+02  0.3277E+03  0.3272E+03
      1.789  0.9928E+02  0.9716E+02  0.3331E+03  0.3325E+03
      1.844  0.9498E+02  0.8820E+02  0.3383E+03  0.3374E+03
      1.899  0.8644E+02  0.9354E+02  0.3431E+03  0.3425E+03
      1.954  0.7906E+02  0.8076E+02  0.3474E+03  0.3469E+03
      2.009  0.4604E+02  0.4794E+02  0.3499E+03  0.3496E+03
      2.063  0.6231E+02  0.6491E+02  0.3533E+03  0.3531E+03
      2.118  0.7253E+02  0.6419E+02  0.3573E+03  0.3566E+03
      2.173  0.4860E+02  0.5408E+02  0.3600E+03  0.3596E+03
      2.228  0.8154E+02  0.7967E+02  0.3644E+03  0.3640E+03
      2.283  0.6739E+02  0.6644E+02  0.3681E+03  0.3676E+03
      2.337  0.9730E+02  0.9913E+02  0.3735E+03  0.3730E+03
      2.392  0.5257E+02  0.5155E+02  0.3764E+03  0.3759E+03
      2.447  0.7573E+02  0.7466E+02  0.3805E+03  0.3799E+03
      2.502  0.7871E+02  0.7720E+02  0.3848E+03  0.3842E+03
      2.557  0.6228E+02  0.7120E+02  0.3882E+03  0.3881E+03
      2.611  0.7162E+02  0.6726E+02  0.3921E+03  0.3918E+03
      2.666  0.5601E+02  0.5369E+02  0.3952E+03  0.3947E+03
      2.721  0.7254E+02  0.7473E+02  0.3992E+03  0.3988E+03
      2.776  0.6308E+02  0.6335E+02  0.4026E+03  0.4023E+03
      2.831  0.3823E+02  0.4137E+02  0.4047E+03  0.4045E+03
      2.885  0.6408E+02  0.5749E+02  0.4083E+03  0.4077E+03
      2.940  0.7729E+02  0.7949E+02  0.4125E+03  0.4120E+03
      2.995  0.4949E+02  0.4958E+02  0.4152E+03  0.4148E+03
      3.050  0.6196E+02  0.5370E+02  0.4186E+03  0.4177E+03
      3.105  0.8018E+02  0.8893E+02  0.4230E+03  0.4226E+03
      3.159  0.5716E+02  0.4918E+02  0.4261E+03  0.4253E+03
      3.214  0.7506E+02  0.7220E+02  0.4302E+03  0.4292E+03
      3.269  0.8418E+02  0.9043E+02  0.4348E+03  0.4342E+03
      3.324  0.5624E+02  0.6067E+02  0.4379E+03  0.4375E+03
      3.379  0.6847E+02  0.6765E+02  0.4417E+03  0.4412E+03
      3.433  0.6214E+02  0.6142E+02  0.4451E+03  0.4446E+03
      3.488  0.5012E+02  0.5761E+02  0.4478E+03  0.4477E+03
      3.543  0.3007E+02  0.2000E+02  0.4495E+03  0.4488E+03
      3.598  0.5615E+02  0.6013E+02  0.4526E+03  0.4521E+03
      3.652  0.2325E+02  0.2640E+02  0.4538E+03  0.4536E+03
      3.707  0.3892E+02  0.3386E+02  0.4560E+03  0.4554E+03
      3.762  0.2544E+02  0.3119E+02  0.4574E+03  0.4571E+03
      3.817  0.3739E+02  0.3437E+02  0.4594E+03  0.4590E+03
      3.872  0.1655E+02  0.2264E+02  0.4603E+03  0.4603E+03
      3.926  0.3805E+02  0.3412E+02  0.4624E+03  0.4621E+03
      3.981  0.3087E+02  0.2710E+02  0.4641E+03  0.4636E+03
      4.036  0.2737E+02  0.3454E+02  0.4656E+03  0.4655E+03
      4.091  0.2736E+02  0.2725E+02  0.4671E+03  0.4670E+03
      4.146  0.2563E+02  0.1783E+02  0.4685E+03  0.4680E+03
      4.200  0.1557E+02  0.2038E+02  0.4693E+03  0.4691E+03
      4.255  0.2741E+02  0.1918E+02  0.4708E+03  0.4701E+03
      4.310  0.1531E+02  0.2488E+02  0.4717E+03  0.4715E+03
      4.365  0.1481E+02  0.1807E+02  0.4725E+03  0.4725E+03
      4.420  0.1658E+02  0.5278E+01  0.4734E+03  0.4728E+03
      4.474  0.2588E+02  0.1381E+02  0.4748E+03  0.4735E+03
      4.529  0.2310E+02  0.3471E+02  0.4761E+03  0.4754E+03
      4.584  0.1198E+02  0.1447E+02  0.4767E+03  0.4762E+03
      4.639  0.3999E+01  0.8820E+01  0.4770E+03  0.4767E+03
      4.694  0.1899E+02  0.9174E+01  0.4780E+03  0.4772E+03
      4.748  0.4894E+02  0.1997E+02  0.4807E+03  0.4783E+03
      4.803  0.3016E+02  0.5053E+02  0.4823E+03  0.4811E+03
      4.858  0.2224E+02  0.3090E+02  0.4836E+03  0.4828E+03
      4.913  0.2505E+02  0.2009E+02  0.4849E+03  0.4839E+03
      4.968  0.2514E+02  0.3822E+02  0.4863E+03  0.4860E+03
      5.022  0.4472E+02  0.1322E+02  0.4888E+03  0.4867E+03
      5.077  0.3651E+02  0.5264E+02  0.4908E+03  0.4896E+03
      5.132  0.2070E+02  0.2902E+02  0.4919E+03  0.4912E+03
      5.187  0.3288E+02  0.2334E+02  0.4937E+03  0.4925E+03
      5.242  0.3185E+02  0.3892E+02  0.4954E+03  0.4946E+03
      5.296  0.4935E+02  0.5348E+02  0.4981E+03  0.4975E+03
      5.351  0.3560E+02  0.3301E+02  0.5001E+03  0.4993E+03
      5.406  0.3943E+02  0.3926E+02  0.5023E+03  0.5015E+03
      5.461  0.3268E+02  0.3695E+02  0.5041E+03  0.5035E+03
      5.516  0.3565E+02  0.4152E+02  0.5060E+03  0.5058E+03
      5.570  0.3998E+02  0.4012E+02  0.5082E+03  0.5080E+03
      5.625  0.4813E+02  0.3366E+02  0.5108E+03  0.5098E+03
      5.680  0.7131E+02  0.8108E+02  0.5147E+03  0.5143E+03
      5.735  0.4374E+02  0.3686E+02  0.5171E+03  0.5163E+03
      5.790  0.4840E+02  0.4680E+02  0.5198E+03  0.5188E+03
      5.844  0.4533E+02  0.4831E+02  0.5223E+03  0.5215E+03
      5.899  0.6535E+02  0.6703E+02  0.5259E+03  0.5252E+03
      5.954  0.5087E+02  0.4207E+02  0.5286E+03  0.5275E+03
      6.009  0.3978E+02  0.4901E+02  0.5308E+03  0.5302E+03
      6.063  0.4623E+02  0.5190E+02  0.5334E+03  0.5330E+03
      6.118  0.6138E+02  0.5527E+02  0.5367E+03  0.5360E+03
      6.173  0.6591E+02  0.6183E+02  0.5403E+03  0.5394E+03
      6.228  0.5209E+02  0.6042E+02  0.5432E+03  0.5427E+03
      6.283  0.2846E+02  0.3244E+02  0.5447E+03  0.5445E+03
      6.337  0.3059E+02  0.3010E+02  0.5464E+03  0.5462E+03
      6.392  0.6445E+02  0.5904E+02  0.5500E+03  0.5494E+03
      6.447  0.5826E+02  0.6286E+02  0.5531E+03  0.5528E+03
      6.502  0.7343E+02  0.6687E+02  0.5572E+03  0.5565E+03
      6.557  0.5335E+02  0.6220E+02  0.5601E+03  0.5599E+03
      6.611  0.2919E+02  0.2936E+02  0.5617E+03  0.5615E+03
      6.666  0.3472E+02  0.3013E+02  0.5636E+03  0.5632E+03
      6.721  0.5279E+02  0.5173E+02  0.5665E+03  0.5660E+03
      6.776  0.4128E+02  0.4318E+02  0.5687E+03  0.5684E+03
      6.831  0.5023E+02  0.4663E+02  0.5715E+03  0.5709E+03
      6.885  0.4247E+02  0.4692E+02  0.5738E+03  0.5735E+03
      6.940  0.1230E+02  0.1836E+02  0.5745E+03  0.5745E+03
      6.995  0.5293E+01  0.3493E+01  0.5748E+03  0.5747E+03
      7.050  0.1768E+02  0.1931E+02  0.5758E+03  0.5757E+03
      7.105  0.4404E+01  0.4571E+01  0.5760E+03  0.5760E+03
      7.159  0.0000E+00  0.0000E+00  0.5760E+03  0.5760E+03
      7.214  0.0000E+00  0.0000E+00  0.5760E+03  0.5760E+03
      7.269  0.0000E+00  0.0000E+00  0.5760E+03  0.5760E+03
      7.324  0.0000E+00  0.0000E+00  0.5760E+03  0.5760E+03
      7.379  0.0000E+00  0.0000E+00  0.5760E+03  0.5760E+03
      7.433  0.0000E+00  0.0000E+00  0.5760E+03  0.5760E+03
      7.488  0.0000E+00  0.0000E+00  0.5760E+03  0.5760E+03
      7.543  0.0000E+00  0.0000E+00  0.5760E+03  0.5760E+03
      7.598  0.0000E+00  0.0000E+00  0.5760E+03  0.5760E+03
      7.653  0.0000E+00  0.0000E+00  0.5760E+03  0.5760E+03
      7.707  0.0000E+00  0.0000E+00  0.5760E+03  0.5760E+03
      7.762  0.0000E+00  0.0000E+00  0.5760E+03  0.5760E+03
      7.817  0.0000E+00  0.0000E+00  0.5760E+03  0.5760E+03
