<?xml version="1.0" encoding="ISO-8859-1"?>
<modeling>
 <generator>
  <i name="program" type="string">vasp </i>
  <i name="version" type="string">6.4.3  </i>
  <i name="subversion" type="string">19Mar24 (build Oct 22 2024 11:23:12) complex                          parallel </i>
  <i name="platform" type="string">LinuxIFC </i>
  <i name="date" type="string">2025 04 30 </i>
  <i name="time" type="string">10:18:56 </i>
 </generator>
 <incar>
  <i type="string" name="SYSTEM">Si012 and Ge012 interface calculation</i>
  <i type="int" name="ISTART">     0</i>
  <i type="logical" name="ADDGRID"> T  </i>
  <i type="int" name="ISPIN">     2</i>
  <i name="AMIX">      0.60000000</i>
  <i type="int" name="ICHARG">     2</i>
  <i type="int" name="NELM">   100</i>
  <i name="EDIFF">      0.00000010</i>
  <i name="ENCUT">    700.00000000</i>
  <i name="ENAUG">    900.00000000</i>
  <i type="int" name="NBANDS">   245</i>
  <i name="NUPDOWN">      1.00000000</i>
  <i name="NELECT">    408.00000000</i>
  <i type="string" name="LREAL">AUTO</i>
  <i type="int" name="ISMEAR">     0</i>
  <i name="SIGMA">      0.01000000</i>
  <i type="int" name="LMAXMIX">     6</i>
  <i type="logical" name="LWAVE"> F  </i>
  <i type="logical" name="LVTOT"> F  </i>
  <i type="logical" name="LVHAR"> T  </i>
  <i type="logical" name="LASPH"> T  </i>
  <i type="logical" name="LMIXTAU"> T  </i>
 </incar>
 <primitive_cell>
  <structure name="primitive_cell" >
   <crystal>
    <varray name="basis" >
     <v>      -6.71160189       0.00000000       0.00000000 </v>
     <v>       0.00000000       0.00000000      10.79148551 </v>
     <v>       0.00000000      15.00759808       0.00000000 </v>
    </varray>
    <i name="volume">   1086.97263310 </i>
    <varray name="rec_basis" >
     <v>      -0.14899573       0.00000000       0.00000000 </v>
     <v>       0.00000000       0.00000000       0.09266565 </v>
     <v>       0.00000000       0.06663291       0.00000000 </v>
    </varray>
   </crystal>
   <varray name="positions" >
    <v>       0.66666667       0.00000000       0.66666667 </v>
    <v>       0.83333333       0.11354927       0.43333333 </v>
    <v>       0.00000000       0.22709853       0.20000000 </v>
    <v>       0.33333333       0.00000000       0.33333333 </v>
    <v>       0.50000000       0.11354927       0.10000000 </v>
    <v>       0.66666667       0.22709853       0.86666667 </v>
    <v>       0.00000000       0.00000000       0.00000000 </v>
    <v>       0.16666667       0.11354927       0.76666667 </v>
    <v>       0.33333333       0.22709853       0.53333333 </v>
    <v>       0.50000000       0.05677463       0.80000000 </v>
    <v>       0.66666667       0.17032390       0.56666667 </v>
    <v>       0.83333333       0.28387316       0.33333333 </v>
    <v>       0.16666667       0.05677463       0.46666667 </v>
    <v>       0.33333333       0.17032390       0.23333333 </v>
    <v>       0.50000000       0.28387316       0.00000000 </v>
    <v>       0.83333333       0.05677463       0.13333333 </v>
    <v>       1.00000000       0.17032390       0.90000000 </v>
    <v>       0.16666667       0.28387316       0.66666667 </v>
    <v>       0.15812538       0.34873912       0.16564417 </v>
    <v>       0.65812538       0.46601810       0.26564417 </v>
    <v>       0.15812538       0.58329709       0.36564417 </v>
    <v>       0.65812538       0.70057608       0.46564417 </v>
    <v>       0.15812538       0.81785506       0.56564417 </v>
    <v>       0.65812538       0.93513405       0.66564417 </v>
    <v>       0.82479204       0.34873912       0.49897750 </v>
    <v>       0.32479204       0.46601810       0.59897751 </v>
    <v>       0.82479204       0.58329709       0.69897751 </v>
    <v>       0.32479204       0.70057608       0.79897751 </v>
    <v>       0.82479204       0.81785506       0.89897750 </v>
    <v>       0.32479204       0.93513405       0.99897750 </v>
    <v>       0.49145871       0.34873912       0.83231084 </v>
    <v>       0.99145871       0.46601810       0.93231084 </v>
    <v>       0.49145871       0.58329709       0.03231084 </v>
    <v>       0.99145871       0.70057608       0.13231084 </v>
    <v>       0.49145871       0.81785506       0.23231084 </v>
    <v>       0.99145871       0.93513405       0.33231084 </v>
    <v>       0.15812538       0.40737861       0.46564417 </v>
    <v>       0.65812538       0.52465760       0.56564417 </v>
    <v>       0.15812538       0.64193658       0.66564417 </v>
    <v>       0.65812538       0.75921557       0.76564417 </v>
    <v>       0.15812538       0.87649455       0.86564417 </v>
    <v>       0.82479204       0.40737861       0.79897751 </v>
    <v>       0.32479204       0.52465760       0.89897750 </v>
    <v>       0.82479204       0.64193658       0.99897750 </v>
    <v>       0.32479204       0.75921557       0.09897751 </v>
    <v>       0.82479204       0.87649455       0.19897751 </v>
    <v>       0.49145871       0.40737861       0.13231084 </v>
    <v>       0.99145871       0.52465760       0.23231084 </v>
    <v>       0.49145871       0.64193658       0.33231084 </v>
    <v>       0.99145871       0.75921557       0.43231084 </v>
    <v>       0.49145871       0.87649455       0.53231084 </v>
   </varray>
  </structure>
  <varray name="primitive_index" >
   <v type="int" >        1 </v>
   <v type="int" >       11 </v>
   <v type="int" >       12 </v>
   <v type="int" >        4 </v>
   <v type="int" >       14 </v>
   <v type="int" >       15 </v>
   <v type="int" >        7 </v>
   <v type="int" >       17 </v>
   <v type="int" >       18 </v>
   <v type="int" >       19 </v>
   <v type="int" >       29 </v>
   <v type="int" >       21 </v>
   <v type="int" >       22 </v>
   <v type="int" >       32 </v>
   <v type="int" >       24 </v>
   <v type="int" >       25 </v>
   <v type="int" >       35 </v>
   <v type="int" >       27 </v>
   <v type="int" >       61 </v>
   <v type="int" >       62 </v>
   <v type="int" >       39 </v>
   <v type="int" >       40 </v>
   <v type="int" >       65 </v>
   <v type="int" >       66 </v>
   <v type="int" >       43 </v>
   <v type="int" >       68 </v>
   <v type="int" >       69 </v>
   <v type="int" >       46 </v>
   <v type="int" >       47 </v>
   <v type="int" >       48 </v>
   <v type="int" >       49 </v>
   <v type="int" >       50 </v>
   <v type="int" >       51 </v>
   <v type="int" >       58 </v>
   <v type="int" >       59 </v>
   <v type="int" >       54 </v>
   <v type="int" >       93 </v>
   <v type="int" >       94 </v>
   <v type="int" >       95 </v>
   <v type="int" >       76 </v>
   <v type="int" >       77 </v>
   <v type="int" >       78 </v>
   <v type="int" >       79 </v>
   <v type="int" >      100 </v>
   <v type="int" >      101 </v>
   <v type="int" >       82 </v>
   <v type="int" >       88 </v>
   <v type="int" >       84 </v>
   <v type="int" >       85 </v>
   <v type="int" >       91 </v>
   <v type="int" >       92 </v>
  </varray>
 </primitive_cell>
 <kpoints>
  <generation param="Gamma">
   <v type="int" name="divisions">       3        2        3 </v>
   <v name="usershift">      0.00000000       0.00000000       0.00000000 </v>
   <v name="genvec1">      0.33333333      -0.00000000       0.00000000 </v>
   <v name="genvec2">      0.00000000       0.50000000       0.00000000 </v>
   <v name="genvec3">      0.00000000       0.00000000       0.33333333 </v>
   <v name="shift">      0.00000000       0.00000000       0.00000000 </v>
  </generation>
  <varray name="kpointlist" >
   <v>       0.00000000       0.00000000       0.00000000 </v>
   <v>       0.33333333       0.00000000       0.00000000 </v>
   <v>       0.00000000       0.50000000       0.00000000 </v>
   <v>       0.33333333       0.50000000       0.00000000 </v>
   <v>       0.00000000       0.00000000       0.33333333 </v>
   <v>       0.33333333       0.00000000       0.33333333 </v>
   <v>      -0.33333333      -0.00000000       0.33333333 </v>
   <v>       0.00000000       0.50000000       0.33333333 </v>
   <v>       0.33333333       0.50000000       0.33333333 </v>
   <v>      -0.33333333       0.50000000       0.33333333 </v>
  </varray>
  <varray name="weights" >
   <v>       0.05555556 </v>
   <v>       0.11111111 </v>
   <v>       0.05555556 </v>
   <v>       0.11111111 </v>
   <v>       0.11111111 </v>
   <v>       0.11111111 </v>
   <v>       0.11111111 </v>
   <v>       0.11111111 </v>
   <v>       0.11111111 </v>
   <v>       0.11111111 </v>
  </varray>
 </kpoints>
 <parameters>
  <separator name="general" >
   <i type="string" name="SYSTEM">Si012 and Ge012 interface calculation</i>
   <i type="logical" name="LCOMPAT"> F  </i>
  </separator>
  <separator name="electronic" >
   <i type="string" name="PREC">normal</i>
   <i name="ENMAX">    700.00000000</i>
   <i name="ENAUG">    900.00000000</i>
   <i name="EDIFF">      0.00000010</i>
   <i type="int" name="IALGO">    38</i>
   <i type="int" name="IWAVPR">    10</i>
   <i type="int" name="NBANDS">   245</i>
   <i type="int" name="NBANDSLOW">    -1</i>
   <i type="int" name="NBANDSHIGH">    -1</i>
   <i name="NELECT">    408.00000000</i>
   <i type="int" name="TURBO">     0</i>
   <i type="int" name="IRESTART">     0</i>
   <i type="int" name="NREBOOT">     0</i>
   <i type="int" name="NMIN">     0</i>
   <i name="EREF">      0.00000000</i>
   <separator name="electronic smearing" >
    <i type="int" name="ISMEAR">     0</i>
    <i name="SIGMA">      0.01000000</i>
    <i name="KSPACING">      0.50000000</i>
    <i type="logical" name="KGAMMA"> T  </i>
    <i type="logical" name="KBLOWUP"> F  </i>
   </separator>
   <separator name="electronic projectors" >
    <i type="logical" name="LREAL"> T  </i>
    <v name="ROPT">     -0.00050000     -0.00050000</v>
    <i type="int" name="LMAXPAW">  -100</i>
    <i type="int" name="LMAXMIX">     6</i>
    <i type="logical" name="NLSPLINE"> F  </i>
   </separator>
   <separator name="electronic startup" >
    <i type="int" name="ISTART">     0</i>
    <i type="int" name="ICHARG">     2</i>
    <i type="int" name="INIWAV">     1</i>
   </separator>
   <separator name="electronic spin" >
    <i type="int" name="ISPIN">     2</i>
    <i type="logical" name="LNONCOLLINEAR"> F  </i>
    <v name="MAGMOM">      0.00980392      0.00980392      0.00980392      0.00980392      0.00980392      0.00980392      0.00980392      0.00980392      0.00980392      0.00980392      0.00980392      0.00980392      0.00980392      0.00980392      0.00980392      0.00980392      0.00980392      0.00980392      0.00980392      0.00980392
      0.00980392      0.00980392      0.00980392      0.00980392      0.00980392      0.00980392      0.00980392      0.00980392      0.00980392      0.00980392      0.00980392      0.00980392      0.00980392      0.00980392      0.00980392      0.00980392      0.00980392      0.00980392      0.00980392      0.00980392
      0.00980392      0.00980392      0.00980392      0.00980392      0.00980392      0.00980392      0.00980392      0.00980392      0.00980392      0.00980392      0.00980392      0.00980392      0.00980392      0.00980392      0.00980392      0.00980392      0.00980392      0.00980392      0.00980392      0.00980392
      0.00980392      0.00980392      0.00980392      0.00980392      0.00980392      0.00980392      0.00980392      0.00980392      0.00980392      0.00980392      0.00980392      0.00980392      0.00980392      0.00980392      0.00980392      0.00980392      0.00980392      0.00980392      0.00980392      0.00980392
      0.00980392      0.00980392      0.00980392      0.00980392      0.00980392      0.00980392      0.00980392      0.00980392      0.00980392      0.00980392      0.00980392      0.00980392      0.00980392      0.00980392      0.00980392      0.00980392      0.00980392      0.00980392      0.00980392      0.00980392
      0.00980392      0.00980392</v>
    <i name="NUPDOWN">      1.00000000</i>
    <i type="logical" name="LSORBIT"> F  </i>
    <v name="SAXIS">      0.00000000      0.00000000      1.00000000</v>
    <i type="logical" name="LSPIRAL"> F  </i>
    <v name="QSPIRAL">      0.00000000      0.00000000      0.00000000</v>
    <i type="logical" name="LZEROZ"> F  </i>
   </separator>
   <separator name="electronic exchange-correlation" >
    <i type="logical" name="LASPH"> T  </i>
   </separator>
   <separator name="electronic convergence" >
    <i type="int" name="NELM">   100</i>
    <i type="int" name="NELMDL">    -5</i>
    <i type="int" name="NELMIN">     2</i>
    <i name="ENINI">    700.00000000</i>
    <separator name="electronic convergence detail" >
     <i type="logical" name="LDIAG"> T  </i>
     <i type="logical" name="LSUBROT"> F  </i>
     <i name="WEIMIN">      0.00000000</i>
     <i name="EBREAK">      0.00000000</i>
     <i name="DEPER">      0.30000000</i>
     <i type="int" name="NRMM">     4</i>
     <i name="TIME">      0.40000000</i>
    </separator>
   </separator>
   <separator name="electronic mixer" >
    <i name="AMIX">      0.60000000</i>
    <i name="BMIX">      1.00000000</i>
    <i name="AMIN">      0.10000000</i>
    <i name="AMIX_MAG">      2.40000000</i>
    <i name="BMIX_MAG">      1.00000000</i>
    <separator name="electronic mixer details" >
     <i type="int" name="IMIX">     4</i>
     <i type="logical" name="MIXFIRST"> F  </i>
     <i type="int" name="MAXMIX">   -45</i>
     <i name="WC">    100.00000000</i>
     <i type="int" name="INIMIX">     1</i>
     <i type="int" name="MIXPRE">     1</i>
     <i type="int" name="MREMOVE">     5</i>
    </separator>
   </separator>
   <separator name="electronic dipolcorrection" >
    <i type="logical" name="LDIPOL"> F  </i>
    <i type="logical" name="LMONO"> F  </i>
    <i type="int" name="IDIPOL">     0</i>
    <i name="EPSILON">      1.00000000</i>
    <v name="DIPOL">   -100.00000000   -100.00000000   -100.00000000</v>
    <i name="EFIELD">      0.00000000</i>
    <i type="logical" name="LVACPOTAV"> F  </i>
   </separator>
  </separator>
  <separator name="grids" >
   <i type="int" name="NGX">    90</i>
   <i type="int" name="NGY">   108</i>
   <i type="int" name="NGZ">    70</i>
   <i type="int" name="NGXF">   180</i>
   <i type="int" name="NGYF">   216</i>
   <i type="int" name="NGZF">   140</i>
   <i type="logical" name="ADDGRID"> T  </i>
  </separator>
  <separator name="ionic" >
   <i type="int" name="NSW">     0</i>
   <i type="int" name="IBRION">    -1</i>
   <i type="int" name="MDALGO">     0</i>
   <i type="int" name="ISIF">     2</i>
   <i name="PSTRESS">      0.00000000</i>
   <i name="EDIFFG">      0.00000100</i>
   <i type="int" name="NFREE">     0</i>
   <i name="POTIM">      0.50000000</i>
   <i name="SMASS">     -3.00000000</i>
   <i name="SCALEE">      1.00000000</i>
  </separator>
  <separator name="ionic md" >
   <i name="TEBEG">      0.00010000</i>
   <i name="TEEND">      0.00010000</i>
   <i type="int" name="NBLOCK">     1</i>
   <i type="int" name="KBLOCK">     1</i>
   <i type="int" name="NPACO">   256</i>
   <i name="APACO">     10.00000000</i>
  </separator>
  <separator name="symmetry" >
   <i type="int" name="ISYM">     2</i>
   <i name="SYMPREC">      0.00001000</i>
  </separator>
  <separator name="dos" >
   <i type="int" name="LORBIT">     0</i>
   <v name="RWIGS">     -1.00000000     -1.00000000</v>
   <i type="int" name="NEDOS">   301</i>
   <i name="EMIN">     10.00000000</i>
   <i name="EMAX">    -10.00000000</i>
   <i name="EFERMI">      0.00000000</i>
  </separator>
  <separator name="writing" >
   <i type="int" name="NWRITE">     2</i>
   <i type="logical" name="LWAVE"> F  </i>
   <i type="logical" name="LDOWNSAMPLE"> F  </i>
   <i type="logical" name="LCHARG"> T  </i>
   <i type="logical" name="LPARD"> F  </i>
   <i type="logical" name="LVTOT"> F  </i>
   <i type="logical" name="LVHAR"> T  </i>
   <i type="logical" name="LELF"> F  </i>
   <i type="logical" name="LOPTICS"> F  </i>
   <v name="STM">      0.00000000      0.00000000      0.00000000      0.00000000      0.00000000      0.00000000      0.00000000</v>
  </separator>
  <separator name="performance" >
   <i type="int" name="NPAR">     1</i>
   <i type="int" name="NSIM">     4</i>
   <i type="int" name="NBLK">    -1</i>
   <i type="logical" name="LPLANE"> T  </i>
   <i type="logical" name="LSCALAPACK"> T  </i>
   <i type="logical" name="LSCAAWARE"> F  </i>
   <i type="logical" name="LSCALU"> F  </i>
   <i type="logical" name="LASYNC"> F  </i>
   <i type="logical" name="LORBITALREAL"> F  </i>
  </separator>
  <separator name="miscellaneous" >
   <i type="int" name="IDIOT">     3</i>
   <i type="int" name="PHON_NSTRUCT">    -1</i>
   <i type="logical" name="LMUSIC"> F  </i>
   <v name="POMASS">     28.08500000     72.61000000</v>
   <v name="DARWINR">      0.00000000      0.00000000</v>
   <v name="DARWINV">      1.00000000      1.00000000</v>
   <i type="logical" name="LCORR"> T  </i>
  </separator>
  <i type="logical" name="GGA_COMPAT"> T  </i>
  <i type="logical" name="LBERRY"> F  </i>
  <i type="int" name="ICORELEVEL">     0</i>
  <i type="logical" name="LDAU"> F  </i>
  <i type="int" name="I_CONSTRAINED_M">     0</i>
  <separator name="electronic exchange-correlation" >
   <i type="string" name="GGA    ">PE</i>
   <i type="string" name="XC_C">1</i>
   <i type="int" name="VOSKOWN">     0</i>
   <i type="logical" name="LHFCALC"> F  </i>
   <i type="string" name="PRECFOCK"></i>
   <i type="logical" name="LSYMGRAD"> F  </i>
   <i type="logical" name="LHFONE"> F  </i>
   <i type="logical" name="LRHFCALC"> F  </i>
   <i type="logical" name="LTHOMAS"> F  </i>
   <i type="logical" name="LMODELHF"> F  </i>
   <i type="logical" name="LFOCKACE"> F  </i>
   <i name="ENCUT4O">     -1.00000000</i>
   <i type="int" name="EXXOEP">     0</i>
   <i type="int" name="FOURORBIT">     0</i>
   <i name="AEXX">      0.00000000</i>
   <i name="HFALPHA">      0.00000000</i>
   <i name="MCALPHA">      0.00000000</i>
   <i name="ALDAX">      1.00000000</i>
   <i name="AGGAX">      1.00000000</i>
   <i name="AMGGAX">      1.00000000</i>
   <i name="ALDAC">      1.00000000</i>
   <i name="AGGAC">      1.00000000</i>
   <i name="AMGGAC">      1.00000000</i>
   <i type="int" name="NKREDX">     1</i>
   <i type="int" name="NKREDY">     1</i>
   <i type="int" name="NKREDZ">     1</i>
   <i type="logical" name="SHIFTRED"> F  </i>
   <i type="logical" name="ODDONLY"> F  </i>
   <i type="logical" name="EVENONLY"> F  </i>
   <i type="int" name="LMAXFOCK">     0</i>
   <i type="int" name="NMAXFOCKAE">     0</i>
   <i type="logical" name="LFOCKAEDFT"> F  </i>
   <i name="HFSCREEN">      0.00000000</i>
   <i name="HFSCREENC">      0.00000000</i>
   <i type="int" name="NBANDSGWLOW">     0</i>
  </separator>
  <separator name="vdW DFT" >
   <i type="logical" name="LUSE_VDW"> F  </i>
   <i type="int" name="IVDW_NL">    -1</i>
   <i type="logical" name="LSPIN_VDW"> F  </i>
   <i name="ZAB_VDW">     -0.84910000</i>
   <i name="GAMMA_VDW">      1.39626340</i>
   <i name="ALPHA_VDW">      0.00000000</i>
   <i name="PARAM1">      0.12340000</i>
   <i name="PARAM2">      1.00000000</i>
   <i name="BPARAM">      6.30000000</i>
   <i name="CPARAM">      0.00930000</i>
  </separator>
  <separator name="model GW" >
   <i type="int" name="MODEL_GW">     0</i>
   <i name="MODEL_EPS0">     12.78791333</i>
   <i name="MODEL_ALPHA">      1.00000000</i>
  </separator>
  <separator name="linear response parameters" >
   <i type="logical" name="LEPSILON"> F  </i>
   <i type="logical" name="LRPA"> F  </i>
   <i type="logical" name="LNABLA"> F  </i>
   <i type="logical" name="LVEL"> F  </i>
   <i name="CSHIFT">      0.10000000</i>
   <i name="OMEGAMAX">     -1.00000000</i>
   <i name="DEG_THRESHOLD">      0.00200000</i>
   <i name="RTIME">     -0.10000000</i>
   <i name="WPLASMAI">      0.00000000</i>
   <v name="DFIELD">      0.00000000      0.00000000      0.00000000</v>
   <v name="WPLASMA">      0.00000000      0.00000000      0.00000000      0.00000000      0.00000000      0.00000000      0.00000000      0.00000000      0.00000000</v>
  </separator>
  <separator name="orbital magnetization" >
   <i type="logical" name="NUCIND"> F  </i>
   <v name="MAGPOS">      0.00000000      0.00000000      0.00000000</v>
   <i type="logical" name="LNICSALL"> T  </i>
   <i type="logical" name="ORBITALMAG"> F  </i>
   <i type="logical" name="LMAGBLOCH"> F  </i>
   <i type="logical" name="LCHIMAG"> F  </i>
   <i type="logical" name="LGAUGE"> T  </i>
   <i type="int" name="MAGATOM">     0</i>
   <v name="MAGDIPOL">      0.00000000      0.00000000      0.00000000</v>
   <v name="AVECCONST">      0.00000000      0.00000000      0.00000000</v>
  </separator>
  <separator name="response functions" >
   <i type="logical" name="LALL_IN_ONE"> F  </i>
   <i type="int" name="IALL_IN_ONE">    -1</i>
   <i type="int" name="NBANDS_WAVE">    -1</i>
   <i type="logical" name="LFINITE_TEMPERATURE"> F  </i>
   <i type="logical" name="LADDER"> F  </i>
   <i type="logical" name="LRPAFORCE"> F  </i>
   <i type="logical" name="LFXC"> F  </i>
   <i type="logical" name="LHARTREE"> T  </i>
   <i type="int" name="IBSE">     0</i>
   <v type="int" name="KPOINT">    -1     0     0     0</v>
   <i type="logical" name="LTCTC"> F  </i>
   <i type="logical" name="LTCTE"> F  </i>
   <i type="logical" name="LTETE"> F  </i>
   <i type="logical" name="LTRIPLET"> F  </i>
   <i type="logical" name="LFXCEPS"> F  </i>
   <i type="logical" name="LFXHEG"> F  </i>
   <i type="int" name="NATURALO">     2</i>
   <i type="logical" name="LHOLEGF"> F  </i>
   <i type="logical" name="L2ORDER"> F  </i>
   <i type="logical" name="LDMP1"> F  </i>
   <i type="logical" name="LMP2LT"> F  </i>
   <i type="logical" name="LSMP2LT"> F  </i>
   <i type="logical" name="LGWLF"> F  </i>
   <i name="ENCUTGW">     -1.60000002</i>
   <i name="ENCUTGWSOFT">     -1.60000002</i>
   <i name="ENCUTLF">     -1.00000000</i>
   <i type="logical" name="ESF_SPLINES"> F  </i>
   <i name="ESF_CONV">      0.01000000</i>
   <i type="int" name="ESF_NINTER">    15</i>
   <i type="int" name="LMAXMP2">    -1</i>
   <i name="SCISSOR">      0.00000000</i>
   <i type="int" name="NOMEGA">     0</i>
   <i type="int" name="NOMEGAR">     0</i>
   <i type="int" name="NBANDSGW">    -1</i>
   <i type="int" name="NBANDSO">    -1</i>
   <i type="int" name="NBANDSV">    -1</i>
   <i type="int" name="NELMGW">     1</i>
   <i type="int" name="NELMHF">     1</i>
   <i type="int" name="DIM">     3</i>
   <i type="int" name="IESPILON">     4</i>
   <i type="int" name="ANTIRES">     0</i>
   <i name="OMEGAMAX">    -30.00000000</i>
   <i name="OMEGAMIN">    -30.00000000</i>
   <i name="OMEGATL">   -200.00000000</i>
   <i type="int" name="OMEGAGRID">     0</i>
   <i name="CSHIFT">     -0.10000000</i>
   <i type="logical" name="LSELFENERGY"> F  </i>
   <i type="logical" name="LSPECTRAL"> F  </i>
   <i type="logical" name="LSPECTRALGW"> F  </i>
   <i type="logical" name="LSINGLES"> F  </i>
   <i type="logical" name="LFERMIGW"> F  </i>
   <i type="logical" name="ODDONLYGW"> F  </i>
   <i type="logical" name="EVENONLYGW"> F  </i>
   <i type="int" name="NKREDLFX">     1</i>
   <i type="int" name="NKREDLFY">     1</i>
   <i type="int" name="NKREDLFZ">     1</i>
   <i type="int" name="MAXMEM">  2800</i>
   <i type="int" name="TELESCOPE">     0</i>
   <i type="int" name="NTAUPAR">    -1</i>
   <i type="int" name="NOMEGAPAR">    -1</i>
   <i name="DAMP_NEWTON">      0.80000001</i>
   <i name="LAMBDA">      1.00000000</i>
  </separator>
  <separator name="External order field" >
   <i name="OFIELD_KAPPA">      0.00000000</i>
   <v name="OFIELD_K">      0.00000000      0.00000000      0.00000000</v>
   <i name="OFIELD_Q6_NEAR">      0.00000000</i>
   <i name="OFIELD_Q6_FAR">      0.00000000</i>
   <i name="OFIELD_A">      0.00000000</i>
  </separator>
  <separator name="optional k-points parameters" >
   <i type="int" name="KPOINTS_OPT_MODE">     1</i>
   <i type="logical" name="LKPOINTS_OPT"> F  </i>
  </separator>
 </parameters>
 <atominfo>
  <atoms>     102 </atoms>
  <types>       2 </types>
  <array name="atoms" >
   <dimension dim="1">ion</dimension>
   <field type="string">element</field>
   <field type="int">atomtype</field>
   <set>
    <rc><c>Si</c><c>   1</c></rc>
    <rc><c>Si</c><c>   1</c></rc>
    <rc><c>Si</c><c>   1</c></rc>
    <rc><c>Si</c><c>   1</c></rc>
    <rc><c>Si</c><c>   1</c></rc>
    <rc><c>Si</c><c>   1</c></rc>
    <rc><c>Si</c><c>   1</c></rc>
    <rc><c>Si</c><c>   1</c></rc>
    <rc><c>Si</c><c>   1</c></rc>
    <rc><c>Si</c><c>   1</c></rc>
    <rc><c>Si</c><c>   1</c></rc>
    <rc><c>Si</c><c>   1</c></rc>
    <rc><c>Si</c><c>   1</c></rc>
    <rc><c>Si</c><c>   1</c></rc>
    <rc><c>Si</c><c>   1</c></rc>
    <rc><c>Si</c><c>   1</c></rc>
    <rc><c>Si</c><c>   1</c></rc>
    <rc><c>Si</c><c>   1</c></rc>
    <rc><c>Si</c><c>   1</c></rc>
    <rc><c>Si</c><c>   1</c></rc>
    <rc><c>Si</c><c>   1</c></rc>
    <rc><c>Si</c><c>   1</c></rc>
    <rc><c>Si</c><c>   1</c></rc>
    <rc><c>Si</c><c>   1</c></rc>
    <rc><c>Si</c><c>   1</c></rc>
    <rc><c>Si</c><c>   1</c></rc>
    <rc><c>Si</c><c>   1</c></rc>
    <rc><c>Si</c><c>   1</c></rc>
    <rc><c>Si</c><c>   1</c></rc>
    <rc><c>Si</c><c>   1</c></rc>
    <rc><c>Si</c><c>   1</c></rc>
    <rc><c>Si</c><c>   1</c></rc>
    <rc><c>Si</c><c>   1</c></rc>
    <rc><c>Si</c><c>   1</c></rc>
    <rc><c>Si</c><c>   1</c></rc>
    <rc><c>Si</c><c>   1</c></rc>
    <rc><c>Ge</c><c>   2</c></rc>
    <rc><c>Ge</c><c>   2</c></rc>
    <rc><c>Ge</c><c>   2</c></rc>
    <rc><c>Ge</c><c>   2</c></rc>
    <rc><c>Ge</c><c>   2</c></rc>
    <rc><c>Ge</c><c>   2</c></rc>
    <rc><c>Ge</c><c>   2</c></rc>
    <rc><c>Ge</c><c>   2</c></rc>
    <rc><c>Ge</c><c>   2</c></rc>
    <rc><c>Ge</c><c>   2</c></rc>
    <rc><c>Ge</c><c>   2</c></rc>
    <rc><c>Ge</c><c>   2</c></rc>
    <rc><c>Ge</c><c>   2</c></rc>
    <rc><c>Ge</c><c>   2</c></rc>
    <rc><c>Ge</c><c>   2</c></rc>
    <rc><c>Ge</c><c>   2</c></rc>
    <rc><c>Ge</c><c>   2</c></rc>
    <rc><c>Ge</c><c>   2</c></rc>
    <rc><c>Ge</c><c>   2</c></rc>
    <rc><c>Ge</c><c>   2</c></rc>
    <rc><c>Ge</c><c>   2</c></rc>
    <rc><c>Ge</c><c>   2</c></rc>
    <rc><c>Ge</c><c>   2</c></rc>
    <rc><c>Ge</c><c>   2</c></rc>
    <rc><c>Ge</c><c>   2</c></rc>
    <rc><c>Ge</c><c>   2</c></rc>
    <rc><c>Ge</c><c>   2</c></rc>
    <rc><c>Ge</c><c>   2</c></rc>
    <rc><c>Ge</c><c>   2</c></rc>
    <rc><c>Ge</c><c>   2</c></rc>
    <rc><c>Ge</c><c>   2</c></rc>
    <rc><c>Ge</c><c>   2</c></rc>
    <rc><c>Ge</c><c>   2</c></rc>
    <rc><c>Ge</c><c>   2</c></rc>
    <rc><c>Ge</c><c>   2</c></rc>
    <rc><c>Ge</c><c>   2</c></rc>
    <rc><c>Ge</c><c>   2</c></rc>
    <rc><c>Ge</c><c>   2</c></rc>
    <rc><c>Ge</c><c>   2</c></rc>
    <rc><c>Ge</c><c>   2</c></rc>
    <rc><c>Ge</c><c>   2</c></rc>
    <rc><c>Ge</c><c>   2</c></rc>
    <rc><c>Ge</c><c>   2</c></rc>
    <rc><c>Ge</c><c>   2</c></rc>
    <rc><c>Ge</c><c>   2</c></rc>
    <rc><c>Ge</c><c>   2</c></rc>
    <rc><c>Ge</c><c>   2</c></rc>
    <rc><c>Ge</c><c>   2</c></rc>
    <rc><c>Ge</c><c>   2</c></rc>
    <rc><c>Ge</c><c>   2</c></rc>
    <rc><c>Ge</c><c>   2</c></rc>
    <rc><c>Ge</c><c>   2</c></rc>
    <rc><c>Ge</c><c>   2</c></rc>
    <rc><c>Ge</c><c>   2</c></rc>
    <rc><c>Ge</c><c>   2</c></rc>
    <rc><c>Ge</c><c>   2</c></rc>
    <rc><c>Ge</c><c>   2</c></rc>
    <rc><c>Ge</c><c>   2</c></rc>
    <rc><c>Ge</c><c>   2</c></rc>
    <rc><c>Ge</c><c>   2</c></rc>
    <rc><c>Ge</c><c>   2</c></rc>
    <rc><c>Ge</c><c>   2</c></rc>
    <rc><c>Ge</c><c>   2</c></rc>
    <rc><c>Ge</c><c>   2</c></rc>
    <rc><c>Ge</c><c>   2</c></rc>
    <rc><c>Ge</c><c>   2</c></rc>
   </set>
  </array>
  <array name="atomtypes" >
   <dimension dim="1">type</dimension>
   <field type="int">atomspertype</field>
   <field type="string">element</field>
   <field>mass</field>
   <field>valence</field>
   <field type="string">pseudopotential</field>
   <set>
    <rc><c>  36</c><c>Si</c><c>     28.08500000</c><c>      4.00000000</c><c>  PAW_PBE Si 05Jan2001                  </c></rc>
    <rc><c>  66</c><c>Ge</c><c>     72.61000000</c><c>      4.00000000</c><c>  PAW_PBE Ge 05Jan2001                  </c></rc>
   </set>
  </array>
 </atominfo>
 <structure name="initialpos" >
  <crystal>
   <varray name="basis" >
    <v>      13.42320379       0.00000000       0.00000000 </v>
    <v>      -6.71160190      15.00759808       0.00000000 </v>
    <v>       0.00000000       0.00000000      10.79148551 </v>
   </varray>
   <i name="volume">   2173.94526620 </i>
   <varray name="rec_basis" >
    <v>       0.07449786       0.03331646       0.00000000 </v>
    <v>       0.00000000       0.06663291       0.00000000 </v>
    <v>       0.00000000       0.00000000       0.09266565 </v>
   </varray>
  </crystal>
  <varray name="positions" >
   <v>       0.00000000       0.66666667       0.00000000 </v>
   <v>       0.30000000       0.43333333       0.11354927 </v>
   <v>       0.60000000       0.20000000       0.22709853 </v>
   <v>       0.00000000       0.33333333       0.00000000 </v>
   <v>       0.30000000       0.10000000       0.11354927 </v>
   <v>       0.60000000       0.86666667       0.22709853 </v>
   <v>       0.00000000       0.00000000       0.00000000 </v>
   <v>       0.30000000       0.76666667       0.11354927 </v>
   <v>       0.60000000       0.53333333       0.22709853 </v>
   <v>       0.50000000       0.66666667       0.00000000 </v>
   <v>       0.80000000       0.43333333       0.11354927 </v>
   <v>       0.10000000       0.20000000       0.22709853 </v>
   <v>       0.50000000       0.33333333       0.00000000 </v>
   <v>       0.80000000       0.10000000       0.11354927 </v>
   <v>       0.10000000       0.86666667       0.22709853 </v>
   <v>       0.50000000       0.00000000       0.00000000 </v>
   <v>       0.80000000       0.76666667       0.11354927 </v>
   <v>       0.10000000       0.53333333       0.22709853 </v>
   <v>       0.15000000       0.80000000       0.05677463 </v>
   <v>       0.45000000       0.56666667       0.17032390 </v>
   <v>       0.75000000       0.33333333       0.28387316 </v>
   <v>       0.15000000       0.46666667       0.05677463 </v>
   <v>       0.45000000       0.23333333       0.17032390 </v>
   <v>       0.75000000       0.00000000       0.28387316 </v>
   <v>       0.15000000       0.13333333       0.05677463 </v>
   <v>       0.45000000       0.90000000       0.17032390 </v>
   <v>       0.75000000       0.66666667       0.28387316 </v>
   <v>       0.65000000       0.80000000       0.05677463 </v>
   <v>       0.95000000       0.56666667       0.17032390 </v>
   <v>       0.25000000       0.33333333       0.28387316 </v>
   <v>       0.65000000       0.46666667       0.05677463 </v>
   <v>       0.95000000       0.23333333       0.17032390 </v>
   <v>       0.25000000       0.00000000       0.28387316 </v>
   <v>       0.65000000       0.13333333       0.05677463 </v>
   <v>       0.95000000       0.90000000       0.17032390 </v>
   <v>       0.25000000       0.66666667       0.28387316 </v>
   <v>       0.50375940       0.16564417       0.34873912 </v>
   <v>       0.30375940       0.26564417       0.46601810 </v>
   <v>       0.10375940       0.36564417       0.58329709 </v>
   <v>       0.90375940       0.46564417       0.70057608 </v>
   <v>       0.70375940       0.56564417       0.81785506 </v>
   <v>       0.50375940       0.66564417       0.93513405 </v>
   <v>       0.83709273       0.49897750       0.34873912 </v>
   <v>       0.63709273       0.59897751       0.46601810 </v>
   <v>       0.43709273       0.69897751       0.58329709 </v>
   <v>       0.23709273       0.79897751       0.70057608 </v>
   <v>       0.03709273       0.89897750       0.81785506 </v>
   <v>       0.83709273       0.99897750       0.93513405 </v>
   <v>       0.17042607       0.83231084       0.34873912 </v>
   <v>       0.97042606       0.93231084       0.46601810 </v>
   <v>       0.77042607       0.03231084       0.58329709 </v>
   <v>       0.57042606       0.13231084       0.70057608 </v>
   <v>       0.37042606       0.23231084       0.81785506 </v>
   <v>       0.17042607       0.33231084       0.93513405 </v>
   <v>       0.67042607       0.83231084       0.34873912 </v>
   <v>       0.47042606       0.93231084       0.46601810 </v>
   <v>       0.27042607       0.03231084       0.58329709 </v>
   <v>       0.07042606       0.13231084       0.70057608 </v>
   <v>       0.87042606       0.23231084       0.81785506 </v>
   <v>       0.67042607       0.33231084       0.93513405 </v>
   <v>       0.00375940       0.16564417       0.34873912 </v>
   <v>       0.80375940       0.26564417       0.46601810 </v>
   <v>       0.60375940       0.36564417       0.58329709 </v>
   <v>       0.40375940       0.46564417       0.70057608 </v>
   <v>       0.20375940       0.56564417       0.81785506 </v>
   <v>       0.00375940       0.66564417       0.93513405 </v>
   <v>       0.33709273       0.49897750       0.34873912 </v>
   <v>       0.13709273       0.59897751       0.46601810 </v>
   <v>       0.93709273       0.69897751       0.58329709 </v>
   <v>       0.73709273       0.79897751       0.70057608 </v>
   <v>       0.53709273       0.89897750       0.81785506 </v>
   <v>       0.33709273       0.99897750       0.93513405 </v>
   <v>       0.65375940       0.46564417       0.40737861 </v>
   <v>       0.45375940       0.56564417       0.52465760 </v>
   <v>       0.25375940       0.66564417       0.64193658 </v>
   <v>       0.05375940       0.76564417       0.75921557 </v>
   <v>       0.85375940       0.86564417       0.87649455 </v>
   <v>       0.98709273       0.79897751       0.40737861 </v>
   <v>       0.78709273       0.89897750       0.52465760 </v>
   <v>       0.58709273       0.99897750       0.64193658 </v>
   <v>       0.38709273       0.09897751       0.75921557 </v>
   <v>       0.18709273       0.19897751       0.87649455 </v>
   <v>       0.32042606       0.13231084       0.40737861 </v>
   <v>       0.12042606       0.23231084       0.52465760 </v>
   <v>       0.92042607       0.33231084       0.64193658 </v>
   <v>       0.72042606       0.43231084       0.75921557 </v>
   <v>       0.52042607       0.53231084       0.87649455 </v>
   <v>       0.82042606       0.13231084       0.40737861 </v>
   <v>       0.62042606       0.23231084       0.52465760 </v>
   <v>       0.42042607       0.33231084       0.64193658 </v>
   <v>       0.22042606       0.43231084       0.75921557 </v>
   <v>       0.02042607       0.53231084       0.87649455 </v>
   <v>       0.15375940       0.46564417       0.40737861 </v>
   <v>       0.95375940       0.56564417       0.52465760 </v>
   <v>       0.75375940       0.66564417       0.64193658 </v>
   <v>       0.55375940       0.76564417       0.75921557 </v>
   <v>       0.35375940       0.86564417       0.87649455 </v>
   <v>       0.48709273       0.79897751       0.40737861 </v>
   <v>       0.28709273       0.89897750       0.52465760 </v>
   <v>       0.08709273       0.99897750       0.64193658 </v>
   <v>       0.88709273       0.09897751       0.75921557 </v>
   <v>       0.68709273       0.19897751       0.87649455 </v>
  </varray>
 </structure>
 <calculation>
  <scstep>
   <time name="dav">   71.47   72.17</time>
   <time name="total">   75.89   76.61</time>
   <energy>
    <i name="alphaZ">    648.73471726 </i>
    <i name="ewald"> -10755.81107049 </i>
    <i name="hartreedc">   -856.67661505 </i>
    <i name="XCdc">   -829.99957298 </i>
    <i name="pawpsdc">   8990.03884467 </i>
    <i name="pawaedc">  -7400.50093193 </i>
    <i name="eentropy">     -0.00153350 </i>
    <i name="bandstr">   1765.08658746 </i>
    <i name="atom">  10640.12850283 </i>
    <i name="e_fr_energy">   2200.99892828 </i>
    <i name="e_wo_entrp">   2201.00046177 </i>
    <i name="e_0_energy">   2200.99969502 </i>
   </energy>
  </scstep>
  <scstep>
   <time name="dav">   80.38   81.12</time>
   <time name="total">   80.39   81.13</time>
   <energy>
    <i name="e_fr_energy">     90.59462814 </i>
    <i name="e_wo_entrp">     90.59569158 </i>
    <i name="e_0_energy">     90.59515986 </i>
   </energy>
  </scstep>
  <scstep>
   <time name="dav">   84.19   84.94</time>
   <time name="total">   84.20   84.94</time>
   <energy>
    <i name="e_fr_energy">   -117.17037121 </i>
    <i name="e_wo_entrp">   -117.16868844 </i>
    <i name="e_0_energy">   -117.16952983 </i>
   </energy>
  </scstep>
  <scstep>
   <time name="dav">   81.65   82.36</time>
   <time name="total">   81.65   82.36</time>
   <energy>
    <i name="e_fr_energy">   -126.31136676 </i>
    <i name="e_wo_entrp">   -126.30946646 </i>
    <i name="e_0_energy">   -126.31041661 </i>
   </energy>
  </scstep>
  <scstep>
   <time name="dav">   97.90   98.75</time>
   <time name="total">  101.83  102.72</time>
   <energy>
    <i name="e_fr_energy">   -126.73345462 </i>
    <i name="e_wo_entrp">   -126.73145112 </i>
    <i name="e_0_energy">   -126.73245287 </i>
   </energy>
  </scstep>
  <scstep>
   <time name="dav">   86.97   87.85</time>
   <time name="total">   95.23   96.18</time>
   <energy>
    <i name="e_fr_energy">   -118.79189521 </i>
    <i name="e_wo_entrp">   -118.78955863 </i>
    <i name="e_0_energy">   -118.79072692 </i>
   </energy>
  </scstep>
  <scstep>
   <time name="dav">   92.85   93.63</time>
   <time name="total">  101.11  101.95</time>
   <energy>
    <i name="e_fr_energy">   -129.54787301 </i>
    <i name="e_wo_entrp">   -129.54605119 </i>
    <i name="e_0_energy">   -129.54696210 </i>
   </energy>
  </scstep>
  <scstep>
   <time name="dav">  105.68  106.63</time>
   <time name="total">  113.98  114.99</time>
   <energy>
    <i name="e_fr_energy">   -110.89402871 </i>
    <i name="e_wo_entrp">   -110.89173920 </i>
    <i name="e_0_energy">   -110.89288395 </i>
   </energy>
  </scstep>
  <scstep>
   <time name="dav">   80.71   81.42</time>
   <time name="total">   88.99   89.75</time>
   <energy>
    <i name="e_fr_energy">   -113.40986993 </i>
    <i name="e_wo_entrp">   -113.40753150 </i>
    <i name="e_0_energy">   -113.40870072 </i>
   </energy>
  </scstep>
  <scstep>
   <time name="dav">   78.93   79.61</time>
   <time name="total">   87.20   87.93</time>
   <energy>
    <i name="e_fr_energy">   -112.73972989 </i>
    <i name="e_wo_entrp">   -112.73777147 </i>
    <i name="e_0_energy">   -112.73875068 </i>
   </energy>
  </scstep>
  <scstep>
   <time name="dav">   80.41   81.12</time>
   <time name="total">   88.66   89.43</time>
   <energy>
    <i name="e_fr_energy">   -112.78134090 </i>
    <i name="e_wo_entrp">   -112.77933111 </i>
    <i name="e_0_energy">   -112.78033600 </i>
   </energy>
  </scstep>
  <scstep>
   <time name="dav">   83.31   84.05</time>
   <time name="total">   91.59   92.38</time>
   <energy>
    <i name="e_fr_energy">   -112.70337524 </i>
    <i name="e_wo_entrp">   -112.70144456 </i>
    <i name="e_0_energy">   -112.70240990 </i>
   </energy>
  </scstep>
  <scstep>
   <time name="dav">   82.47   83.22</time>
   <time name="total">   90.73   91.54</time>
   <energy>
    <i name="e_fr_energy">   -112.51072856 </i>
    <i name="e_wo_entrp">   -112.50870666 </i>
    <i name="e_0_energy">   -112.50971761 </i>
   </energy>
  </scstep>
  <scstep>
   <time name="dav">   88.28   89.06</time>
   <time name="total">   96.57   97.40</time>
   <energy>
    <i name="e_fr_energy">   -112.48913645 </i>
    <i name="e_wo_entrp">   -112.48673313 </i>
    <i name="e_0_energy">   -112.48793479 </i>
   </energy>
  </scstep>
  <scstep>
   <time name="dav">   77.49   78.17</time>
   <time name="total">   85.79   86.52</time>
   <energy>
    <i name="e_fr_energy">   -112.49224087 </i>
    <i name="e_wo_entrp">   -112.48986110 </i>
    <i name="e_0_energy">   -112.49105098 </i>
   </energy>
  </scstep>
  <scstep>
   <time name="dav">   97.83   98.65</time>
   <time name="total">  106.12  106.99</time>
   <energy>
    <i name="e_fr_energy">   -112.49274620 </i>
    <i name="e_wo_entrp">   -112.49031961 </i>
    <i name="e_0_energy">   -112.49153291 </i>
   </energy>
  </scstep>
  <scstep>
   <time name="dav">   85.49   86.21</time>
   <time name="total">   93.83   94.61</time>
   <energy>
    <i name="e_fr_energy">   -112.49137186 </i>
    <i name="e_wo_entrp">   -112.48899299 </i>
    <i name="e_0_energy">   -112.49018242 </i>
   </energy>
  </scstep>
  <scstep>
   <time name="dav">   77.71   78.39</time>
   <time name="total">   86.00   86.74</time>
   <energy>
    <i name="e_fr_energy">   -112.49126052 </i>
    <i name="e_wo_entrp">   -112.48884085 </i>
    <i name="e_0_energy">   -112.49005069 </i>
   </energy>
  </scstep>
  <scstep>
   <time name="dav">   81.16   81.85</time>
   <time name="total">   89.44   90.19</time>
   <energy>
    <i name="e_fr_energy">   -112.49126150 </i>
    <i name="e_wo_entrp">   -112.48882660 </i>
    <i name="e_0_energy">   -112.49004405 </i>
   </energy>
  </scstep>
  <scstep>
   <time name="dav">   77.39   78.08</time>
   <time name="total">   85.71   86.45</time>
   <energy>
    <i name="e_fr_energy">   -112.49124291 </i>
    <i name="e_wo_entrp">   -112.48881259 </i>
    <i name="e_0_energy">   -112.49002775 </i>
   </energy>
  </scstep>
  <scstep>
   <time name="dav">   78.10   78.78</time>
   <time name="total">   86.43   87.17</time>
   <energy>
    <i name="e_fr_energy">   -112.49120627 </i>
    <i name="e_wo_entrp">   -112.48877380 </i>
    <i name="e_0_energy">   -112.48999004 </i>
   </energy>
  </scstep>
  <scstep>
   <time name="dav">   80.43   81.12</time>
   <time name="total">   88.75   89.49</time>
   <energy>
    <i name="e_fr_energy">   -112.49116048 </i>
    <i name="e_wo_entrp">   -112.48872932 </i>
    <i name="e_0_energy">   -112.48994490 </i>
   </energy>
  </scstep>
  <scstep>
   <time name="dav">   78.00   78.70</time>
   <time name="total">   86.34   87.09</time>
   <energy>
    <i name="e_fr_energy">   -112.49115550 </i>
    <i name="e_wo_entrp">   -112.48872299 </i>
    <i name="e_0_energy">   -112.48993925 </i>
   </energy>
  </scstep>
  <scstep>
   <time name="dav">   76.32   76.99</time>
   <time name="total">   84.65   85.37</time>
   <energy>
    <i name="e_fr_energy">   -112.49115206 </i>
    <i name="e_wo_entrp">   -112.48871806 </i>
    <i name="e_0_energy">   -112.48993506 </i>
   </energy>
  </scstep>
  <scstep>
   <time name="dav">   83.10   83.81</time>
   <time name="total">   91.43   92.19</time>
   <energy>
    <i name="e_fr_energy">   -112.49115067 </i>
    <i name="e_wo_entrp">   -112.48871629 </i>
    <i name="e_0_energy">   -112.48993348 </i>
   </energy>
  </scstep>
  <scstep>
   <time name="dav">   85.30   86.02</time>
   <time name="total">   93.64   94.41</time>
   <energy>
    <i name="e_fr_energy">   -112.49115012 </i>
    <i name="e_wo_entrp">   -112.48871358 </i>
    <i name="e_0_energy">   -112.48993185 </i>
   </energy>
  </scstep>
  <scstep>
   <time name="dav">   76.62   77.32</time>
   <time name="total">   84.95   85.71</time>
   <energy>
    <i name="e_fr_energy">   -112.49115035 </i>
    <i name="e_wo_entrp">   -112.48871445 </i>
    <i name="e_0_energy">   -112.48993240 </i>
   </energy>
  </scstep>
  <scstep>
   <time name="dav">   53.86   54.40</time>
   <time name="total">   58.24   58.81</time>
   <energy>
    <i name="alphaZ">    648.73471726 </i>
    <i name="ewald"> -10755.81107049 </i>
    <i name="hartreedc">  -1008.14068994 </i>
    <i name="XCdc">   -802.61529105 </i>
    <i name="pawpsdc"> 627608.93243557 </i>
    <i name="pawaedc">-626040.85733752 </i>
    <i name="eentropy">     -0.00243600 </i>
    <i name="bandstr">   -402.85998107 </i>
    <i name="atom">  10640.12850283 </i>
    <i name="e_fr_energy">   -112.49115041 </i>
    <i name="e_wo_entrp">   -112.48871441 </i>
    <i name="e_0_energy">   -112.48993241 </i>
   </energy>
  </scstep>
  <structure>
   <crystal>
    <varray name="basis" >
     <v>      13.42320379       0.00000000       0.00000000 </v>
     <v>      -6.71160190      15.00759808       0.00000000 </v>
     <v>       0.00000000       0.00000000      10.79148551 </v>
    </varray>
    <i name="volume">   2173.94526620 </i>
    <varray name="rec_basis" >
     <v>       0.07449786       0.03331646       0.00000000 </v>
     <v>       0.00000000       0.06663291       0.00000000 </v>
     <v>       0.00000000       0.00000000       0.09266565 </v>
    </varray>
   </crystal>
   <varray name="positions" >
    <v>       0.00000000       0.66666667       0.00000000 </v>
    <v>       0.30000000       0.43333333       0.11354927 </v>
    <v>       0.60000000       0.20000000       0.22709853 </v>
    <v>       0.00000000       0.33333333       0.00000000 </v>
    <v>       0.30000000       0.10000000       0.11354927 </v>
    <v>       0.60000000       0.86666667       0.22709853 </v>
    <v>       0.00000000       0.00000000       0.00000000 </v>
    <v>       0.30000000       0.76666667       0.11354927 </v>
    <v>       0.60000000       0.53333333       0.22709853 </v>
    <v>       0.50000000       0.66666667       0.00000000 </v>
    <v>       0.80000000       0.43333333       0.11354927 </v>
    <v>       0.10000000       0.20000000       0.22709853 </v>
    <v>       0.50000000       0.33333333       0.00000000 </v>
    <v>       0.80000000       0.10000000       0.11354927 </v>
    <v>       0.10000000       0.86666667       0.22709853 </v>
    <v>       0.50000000       0.00000000       0.00000000 </v>
    <v>       0.80000000       0.76666667       0.11354927 </v>
    <v>       0.10000000       0.53333333       0.22709853 </v>
    <v>       0.15000000       0.80000000       0.05677463 </v>
    <v>       0.45000000       0.56666667       0.17032390 </v>
    <v>       0.75000000       0.33333333       0.28387316 </v>
    <v>       0.15000000       0.46666667       0.05677463 </v>
    <v>       0.45000000       0.23333333       0.17032390 </v>
    <v>       0.75000000       0.00000000       0.28387316 </v>
    <v>       0.15000000       0.13333333       0.05677463 </v>
    <v>       0.45000000       0.90000000       0.17032390 </v>
    <v>       0.75000000       0.66666667       0.28387316 </v>
    <v>       0.65000000       0.80000000       0.05677463 </v>
    <v>       0.95000000       0.56666667       0.17032390 </v>
    <v>       0.25000000       0.33333333       0.28387316 </v>
    <v>       0.65000000       0.46666667       0.05677463 </v>
    <v>       0.95000000       0.23333333       0.17032390 </v>
    <v>       0.25000000       0.00000000       0.28387316 </v>
    <v>       0.65000000       0.13333333       0.05677463 </v>
    <v>       0.95000000       0.90000000       0.17032390 </v>
    <v>       0.25000000       0.66666667       0.28387316 </v>
    <v>       0.50375940       0.16564417       0.34873912 </v>
    <v>       0.30375940       0.26564417       0.46601810 </v>
    <v>       0.10375940       0.36564417       0.58329709 </v>
    <v>       0.90375940       0.46564417       0.70057608 </v>
    <v>       0.70375940       0.56564417       0.81785506 </v>
    <v>       0.50375940       0.66564417       0.93513405 </v>
    <v>       0.83709273       0.49897750       0.34873912 </v>
    <v>       0.63709273       0.59897751       0.46601810 </v>
    <v>       0.43709273       0.69897751       0.58329709 </v>
    <v>       0.23709273       0.79897751       0.70057608 </v>
    <v>       0.03709273       0.89897750       0.81785506 </v>
    <v>       0.83709273       0.99897750       0.93513405 </v>
    <v>       0.17042607       0.83231084       0.34873912 </v>
    <v>       0.97042606       0.93231084       0.46601810 </v>
    <v>       0.77042607       0.03231084       0.58329709 </v>
    <v>       0.57042606       0.13231084       0.70057608 </v>
    <v>       0.37042606       0.23231084       0.81785506 </v>
    <v>       0.17042607       0.33231084       0.93513405 </v>
    <v>       0.67042607       0.83231084       0.34873912 </v>
    <v>       0.47042606       0.93231084       0.46601810 </v>
    <v>       0.27042607       0.03231084       0.58329709 </v>
    <v>       0.07042606       0.13231084       0.70057608 </v>
    <v>       0.87042606       0.23231084       0.81785506 </v>
    <v>       0.67042607       0.33231084       0.93513405 </v>
    <v>       0.00375940       0.16564417       0.34873912 </v>
    <v>       0.80375940       0.26564417       0.46601810 </v>
    <v>       0.60375940       0.36564417       0.58329709 </v>
    <v>       0.40375940       0.46564417       0.70057608 </v>
    <v>       0.20375940       0.56564417       0.81785506 </v>
    <v>       0.00375940       0.66564417       0.93513405 </v>
    <v>       0.33709273       0.49897750       0.34873912 </v>
    <v>       0.13709273       0.59897751       0.46601810 </v>
    <v>       0.93709273       0.69897751       0.58329709 </v>
    <v>       0.73709273       0.79897751       0.70057608 </v>
    <v>       0.53709273       0.89897750       0.81785506 </v>
    <v>       0.33709273       0.99897750       0.93513405 </v>
    <v>       0.65375940       0.46564417       0.40737861 </v>
    <v>       0.45375940       0.56564417       0.52465760 </v>
    <v>       0.25375940       0.66564417       0.64193658 </v>
    <v>       0.05375940       0.76564417       0.75921557 </v>
    <v>       0.85375940       0.86564417       0.87649455 </v>
    <v>       0.98709273       0.79897751       0.40737861 </v>
    <v>       0.78709273       0.89897750       0.52465760 </v>
    <v>       0.58709273       0.99897750       0.64193658 </v>
    <v>       0.38709273       0.09897751       0.75921557 </v>
    <v>       0.18709273       0.19897751       0.87649455 </v>
    <v>       0.32042606       0.13231084       0.40737861 </v>
    <v>       0.12042606       0.23231084       0.52465760 </v>
    <v>       0.92042607       0.33231084       0.64193658 </v>
    <v>       0.72042606       0.43231084       0.75921557 </v>
    <v>       0.52042607       0.53231084       0.87649455 </v>
    <v>       0.82042606       0.13231084       0.40737861 </v>
    <v>       0.62042606       0.23231084       0.52465760 </v>
    <v>       0.42042607       0.33231084       0.64193658 </v>
    <v>       0.22042606       0.43231084       0.75921557 </v>
    <v>       0.02042607       0.53231084       0.87649455 </v>
    <v>       0.15375940       0.46564417       0.40737861 </v>
    <v>       0.95375940       0.56564417       0.52465760 </v>
    <v>       0.75375940       0.66564417       0.64193658 </v>
    <v>       0.55375940       0.76564417       0.75921557 </v>
    <v>       0.35375940       0.86564417       0.87649455 </v>
    <v>       0.48709273       0.79897751       0.40737861 </v>
    <v>       0.28709273       0.89897750       0.52465760 </v>
    <v>       0.08709273       0.99897750       0.64193658 </v>
    <v>       0.88709273       0.09897751       0.75921557 </v>
    <v>       0.68709273       0.19897751       0.87649455 </v>
   </varray>
  </structure>
  <varray name="forces" >
   <v>     -35.77967732       9.56772715     442.45168240 </v>
   <v>      -0.02802972      -1.03911030      -0.97846864 </v>
   <v>      10.93506501       5.11687244     -14.41041882 </v>
   <v>      -0.33938793      -0.46623410      -0.26370806 </v>
   <v>       0.44832641      -0.92917959      -0.38118261 </v>
   <v>      -9.27335055       4.01473366     -11.07948817 </v>
   <v>       2.04070268       0.29071614       1.09745605 </v>
   <v>       0.08659669       0.41890148      -0.37228713 </v>
   <v>       0.16006914      -0.29759379      -0.80371060 </v>
   <v>     -35.77967732       9.56772715     442.45168240 </v>
   <v>      -0.02802972      -1.03911030      -0.97846864 </v>
   <v>      10.93506501       5.11687244     -14.41041882 </v>
   <v>      -0.33938793      -0.46623410      -0.26370806 </v>
   <v>       0.44832641      -0.92917959      -0.38118261 </v>
   <v>      -9.27335055       4.01473366     -11.07948817 </v>
   <v>       2.04070268       0.29071614       1.09745605 </v>
   <v>       0.08659669       0.41890148      -0.37228713 </v>
   <v>       0.16006914      -0.29759379      -0.80371060 </v>
   <v>      -0.04741915      -0.16662688      -0.59305946 </v>
   <v>       0.13091987      -0.42194737      -0.37739162 </v>
   <v>       0.77989466       0.51513247      -0.15017453 </v>
   <v>      -0.50072515       1.09839025       0.15076047 </v>
   <v>      -0.73350338       0.28353067      -0.67623128 </v>
   <v>       0.23601704       0.56042631      -0.74214165 </v>
   <v>       0.17462448      -1.85553657       2.36039313 </v>
   <v>      -0.29030384      -0.02327692       0.53167503 </v>
   <v>       0.31684605       0.50551079      -0.12673931 </v>
   <v>      -0.04741915      -0.16662688      -0.59305946 </v>
   <v>       0.13091987      -0.42194737      -0.37739162 </v>
   <v>       0.77989466       0.51513247      -0.15017453 </v>
   <v>      -0.50072515       1.09839025       0.15076047 </v>
   <v>      -0.73350338       0.28353067      -0.67623128 </v>
   <v>       0.23601704       0.56042631      -0.74214165 </v>
   <v>       0.17462448      -1.85553657       2.36039313 </v>
   <v>      -0.29030384      -0.02327692       0.53167503 </v>
   <v>       0.31684605       0.50551079      -0.12673931 </v>
   <v>     -10.07941302      -5.84854949      13.76410314 </v>
   <v>      -0.11315362       0.85741910      -0.99568281 </v>
   <v>       0.12018207       0.13273715      -0.06240916 </v>
   <v>      -0.22372546       0.52239731      -0.20890842 </v>
   <v>       0.59169421       0.42440573       1.04098494 </v>
   <v>      35.43958204      -8.44898588    -441.89535839 </v>
   <v>       0.20337480       0.26256717       0.21971511 </v>
   <v>       0.02899701       1.02725491       0.57505170 </v>
   <v>       0.06563284       0.12072290      -0.04401804 </v>
   <v>       0.10226131       0.17119448       0.02677352 </v>
   <v>       0.21513994       1.23645810       1.00007332 </v>
   <v>      -1.95056914       1.26370278       0.77013761 </v>
   <v>      10.84606765      -4.42419082       9.54936966 </v>
   <v>       0.03671271       0.82822108      -1.19871804 </v>
   <v>       0.18540674       0.62831728       0.38651432 </v>
   <v>      -0.01416287       0.24306188       0.00847851 </v>
   <v>       0.52236082       1.09508743       0.88339125 </v>
   <v>       0.56131618       0.48104730       0.10807734 </v>
   <v>      10.84606765      -4.42419082       9.54936966 </v>
   <v>       0.03671271       0.82822108      -1.19871804 </v>
   <v>       0.18540674       0.62831728       0.38651432 </v>
   <v>      -0.01416287       0.24306188       0.00847851 </v>
   <v>       0.52236082       1.09508743       0.88339125 </v>
   <v>       0.56131618       0.48104730       0.10807734 </v>
   <v>     -10.07941302      -5.84854949      13.76410314 </v>
   <v>      -0.11315362       0.85741910      -0.99568281 </v>
   <v>       0.12018207       0.13273715      -0.06240916 </v>
   <v>      -0.22372546       0.52239731      -0.20890842 </v>
   <v>       0.59169421       0.42440573       1.04098494 </v>
   <v>      35.43958204      -8.44898588    -441.89535839 </v>
   <v>       0.20337480       0.26256717       0.21971511 </v>
   <v>       0.02899701       1.02725491       0.57505170 </v>
   <v>       0.06563284       0.12072290      -0.04401804 </v>
   <v>       0.10226131       0.17119448       0.02677352 </v>
   <v>       0.21513994       1.23645810       1.00007332 </v>
   <v>      -1.95056914       1.26370278       0.77013761 </v>
   <v>      -0.66980366      -0.56761956      -0.58920573 </v>
   <v>      -0.06853784      -0.26080716       0.16239385 </v>
   <v>      -0.06057929      -0.01833304       0.22319153 </v>
   <v>       0.11111506      -0.40662177       0.16022464 </v>
   <v>      -0.88027786      -2.21415456       0.15802900 </v>
   <v>      -1.81973974      -1.30123503       0.37388201 </v>
   <v>      -0.02596922      -0.19060785       0.22987917 </v>
   <v>      -0.16648715      -0.30521648      -0.00690451 </v>
   <v>       0.01946501      -0.48461205       0.12528651 </v>
   <v>      -0.01002704       0.87018312      -1.89027433 </v>
   <v>      -0.50744610      -0.91686913      -0.00784696 </v>
   <v>      -0.35474312      -0.28414650       0.69247331 </v>
   <v>      -0.07015477      -0.13626167       0.02733430 </v>
   <v>      -0.36787654      -0.25231021      -0.24903927 </v>
   <v>       0.01669305      -1.27669236       1.02603570 </v>
   <v>      -0.50744610      -0.91686913      -0.00784696 </v>
   <v>      -0.35474312      -0.28414650       0.69247331 </v>
   <v>      -0.07015477      -0.13626167       0.02733430 </v>
   <v>      -0.36787654      -0.25231021      -0.24903927 </v>
   <v>       0.01669305      -1.27669236       1.02603570 </v>
   <v>      -0.66980366      -0.56761956      -0.58920573 </v>
   <v>      -0.06853784      -0.26080716       0.16239385 </v>
   <v>      -0.06057929      -0.01833304       0.22319153 </v>
   <v>       0.11111506      -0.40662177       0.16022464 </v>
   <v>      -0.88027786      -2.21415456       0.15802900 </v>
   <v>      -1.81973974      -1.30123503       0.37388201 </v>
   <v>      -0.02596922      -0.19060785       0.22987917 </v>
   <v>      -0.16648715      -0.30521648      -0.00690451 </v>
   <v>       0.01946501      -0.48461205       0.12528651 </v>
   <v>      -0.01002704       0.87018312      -1.89027433 </v>
  </varray>
  <varray name="stress" >
   <v>     110.31036709      -2.23164589     -52.60035248 </v>
   <v>      -2.23163700      70.06248001      -9.93262568 </v>
   <v>     -52.60028884      -9.93260554     565.09781104 </v>
  </varray>
  <energy>
   <i name="e_fr_energy">   -112.49115041 </i>
   <i name="e_wo_entrp">   -112.48871441 </i>
   <i name="e_0_energy">   -112.48993241 </i>
  </energy>
  <time name="totalsc"> 2606.50 2629.73</time>
  <eigenvalues>
   <array>
    <dimension dim="1">band</dimension>
    <dimension dim="2">kpoint</dimension>
    <dimension dim="3">spin</dimension>
    <field>eigene</field>
    <field>occ</field>
    <set>
     <set comment="spin 1">
      <set comment="kpoint 1">
       <r>   -8.7841    1.0000 </r>
       <r>   -8.5763    1.0000 </r>
       <r>   -8.5268    1.0000 </r>
       <r>   -8.3527    1.0000 </r>
       <r>   -8.0981    1.0000 </r>
       <r>   -7.7773    1.0000 </r>
       <r>   -7.5992    1.0000 </r>
       <r>   -7.5910    1.0000 </r>
       <r>   -7.5140    1.0000 </r>
       <r>   -7.4949    1.0000 </r>
       <r>   -7.3212    1.0000 </r>
       <r>   -7.2326    1.0000 </r>
       <r>   -7.1381    1.0000 </r>
       <r>   -6.9316    1.0000 </r>
       <r>   -6.8101    1.0000 </r>
       <r>   -6.7767    1.0000 </r>
       <r>   -6.7681    1.0000 </r>
       <r>   -6.7301    1.0000 </r>
       <r>   -6.6920    1.0000 </r>
       <r>   -6.6227    1.0000 </r>
       <r>   -6.5142    1.0000 </r>
       <r>   -6.3955    1.0000 </r>
       <r>   -6.3626    1.0000 </r>
       <r>   -6.3164    1.0000 </r>
       <r>   -6.2496    1.0000 </r>
       <r>   -6.1212    1.0000 </r>
       <r>   -6.0645    1.0000 </r>
       <r>   -6.0138    1.0000 </r>
       <r>   -5.9538    1.0000 </r>
       <r>   -5.7132    1.0000 </r>
       <r>   -5.6986    1.0000 </r>
       <r>   -5.6370    1.0000 </r>
       <r>   -5.5522    1.0000 </r>
       <r>   -5.4028    1.0000 </r>
       <r>   -5.3914    1.0000 </r>
       <r>   -5.1951    1.0000 </r>
       <r>   -5.1800    1.0000 </r>
       <r>   -5.0920    1.0000 </r>
       <r>   -5.0063    1.0000 </r>
       <r>   -4.8895    1.0000 </r>
       <r>   -4.7362    1.0000 </r>
       <r>   -4.6729    1.0000 </r>
       <r>   -4.6595    1.0000 </r>
       <r>   -4.5906    1.0000 </r>
       <r>   -4.4014    1.0000 </r>
       <r>   -4.3947    1.0000 </r>
       <r>   -4.3336    1.0000 </r>
       <r>   -4.3037    1.0000 </r>
       <r>   -4.2080    1.0000 </r>
       <r>   -4.0836    1.0000 </r>
       <r>   -4.0027    1.0000 </r>
       <r>   -3.9446    1.0000 </r>
       <r>   -3.8990    1.0000 </r>
       <r>   -3.7982    1.0000 </r>
       <r>   -3.7262    1.0000 </r>
       <r>   -3.6950    1.0000 </r>
       <r>   -3.5881    1.0000 </r>
       <r>   -3.5063    1.0000 </r>
       <r>   -3.4915    1.0000 </r>
       <r>   -3.3143    1.0000 </r>
       <r>   -3.2914    1.0000 </r>
       <r>   -3.1985    1.0000 </r>
       <r>   -3.0847    1.0000 </r>
       <r>   -3.0178    1.0000 </r>
       <r>   -2.9589    1.0000 </r>
       <r>   -2.8708    1.0000 </r>
       <r>   -2.8010    1.0000 </r>
       <r>   -2.7674    1.0000 </r>
       <r>   -2.6622    1.0000 </r>
       <r>   -2.6257    1.0000 </r>
       <r>   -2.5584    1.0000 </r>
       <r>   -2.5267    1.0000 </r>
       <r>   -2.4744    1.0000 </r>
       <r>   -2.4712    1.0000 </r>
       <r>   -2.2823    1.0000 </r>
       <r>   -2.2355    1.0000 </r>
       <r>   -2.2059    1.0000 </r>
       <r>   -2.1677    1.0000 </r>
       <r>   -2.0857    1.0000 </r>
       <r>   -1.9901    1.0000 </r>
       <r>   -1.8834    1.0000 </r>
       <r>   -1.7466    1.0000 </r>
       <r>   -1.7146    1.0000 </r>
       <r>   -1.7110    1.0000 </r>
       <r>   -1.5895    1.0000 </r>
       <r>   -1.4165    1.0000 </r>
       <r>   -1.3814    1.0000 </r>
       <r>   -1.3222    1.0000 </r>
       <r>   -1.2962    1.0000 </r>
       <r>   -1.1554    1.0000 </r>
       <r>   -1.0496    1.0000 </r>
       <r>   -0.9630    1.0000 </r>
       <r>   -0.9073    1.0000 </r>
       <r>   -0.7927    1.0000 </r>
       <r>   -0.7521    1.0000 </r>
       <r>   -0.7216    1.0000 </r>
       <r>   -0.4054    1.0000 </r>
       <r>   -0.3117    1.0000 </r>
       <r>   -0.2692    1.0000 </r>
       <r>   -0.2112    1.0000 </r>
       <r>   -0.1786    1.0000 </r>
       <r>   -0.1362    1.0000 </r>
       <r>   -0.1080    1.0000 </r>
       <r>   -0.0411    1.0000 </r>
       <r>   -0.0265    1.0000 </r>
       <r>    0.0466    1.0000 </r>
       <r>    0.1114    1.0000 </r>
       <r>    0.1854    1.0000 </r>
       <r>    0.1930    1.0000 </r>
       <r>    0.2919    1.0000 </r>
       <r>    0.3586    1.0000 </r>
       <r>    0.4090    1.0000 </r>
       <r>    0.4188    1.0000 </r>
       <r>    0.4523    1.0000 </r>
       <r>    0.4994    1.0000 </r>
       <r>    0.5522    1.0000 </r>
       <r>    0.5743    1.0000 </r>
       <r>    0.6060    1.0000 </r>
       <r>    0.7068    1.0000 </r>
       <r>    0.7246    1.0000 </r>
       <r>    0.7715    1.0000 </r>
       <r>    0.8680    1.0000 </r>
       <r>    0.8738    1.0000 </r>
       <r>    0.9503    1.0000 </r>
       <r>    0.9657    1.0000 </r>
       <r>    0.9933    1.0000 </r>
       <r>    1.0631    1.0000 </r>
       <r>    1.1028    1.0000 </r>
       <r>    1.1129    1.0000 </r>
       <r>    1.1742    1.0000 </r>
       <r>    1.2608    1.0000 </r>
       <r>    1.3323    1.0000 </r>
       <r>    1.3360    1.0000 </r>
       <r>    1.4014    1.0000 </r>
       <r>    1.4131    1.0000 </r>
       <r>    1.4567    1.0000 </r>
       <r>    1.4886    1.0000 </r>
       <r>    1.5465    1.0000 </r>
       <r>    1.5523    1.0000 </r>
       <r>    1.5968    1.0000 </r>
       <r>    1.6713    1.0000 </r>
       <r>    1.6853    1.0000 </r>
       <r>    1.7095    1.0000 </r>
       <r>    1.7436    1.0000 </r>
       <r>    1.7851    1.0000 </r>
       <r>    1.7879    1.0000 </r>
       <r>    1.8225    1.0000 </r>
       <r>    1.8364    1.0000 </r>
       <r>    1.9237    1.0000 </r>
       <r>    1.9530    1.0000 </r>
       <r>    1.9835    1.0000 </r>
       <r>    2.0039    1.0000 </r>
       <r>    2.0094    1.0000 </r>
       <r>    2.0550    1.0000 </r>
       <r>    2.0725    1.0000 </r>
       <r>    2.1653    1.0000 </r>
       <r>    2.1721    1.0000 </r>
       <r>    2.2349    1.0000 </r>
       <r>    2.2598    1.0000 </r>
       <r>    2.3394    1.0000 </r>
       <r>    2.3611    1.0000 </r>
       <r>    2.3925    1.0000 </r>
       <r>    2.4090    1.0000 </r>
       <r>    2.4990    1.0000 </r>
       <r>    2.5730    1.0000 </r>
       <r>    2.5858    1.0000 </r>
       <r>    2.5904    1.0000 </r>
       <r>    2.6831    1.0000 </r>
       <r>    2.6898    1.0000 </r>
       <r>    2.7558    1.0000 </r>
       <r>    2.8114    1.0000 </r>
       <r>    2.8178    1.0000 </r>
       <r>    2.8590    1.0000 </r>
       <r>    2.9479    1.0000 </r>
       <r>    2.9595    1.0000 </r>
       <r>    3.0358    1.0000 </r>
       <r>    3.0599    1.0000 </r>
       <r>    3.0626    1.0000 </r>
       <r>    3.0826    1.0000 </r>
       <r>    3.1701    1.0000 </r>
       <r>    3.2264    1.0000 </r>
       <r>    3.2997    1.0000 </r>
       <r>    3.2998    1.0000 </r>
       <r>    3.4268    1.0000 </r>
       <r>    3.5018    1.0000 </r>
       <r>    3.5584    1.0000 </r>
       <r>    3.6422    1.0000 </r>
       <r>    3.6550    1.0000 </r>
       <r>    3.7435    1.0000 </r>
       <r>    3.7474    1.0000 </r>
       <r>    3.7572    1.0000 </r>
       <r>    3.8616    1.0000 </r>
       <r>    3.8816    1.0000 </r>
       <r>    3.9793    1.0000 </r>
       <r>    4.0077    1.0000 </r>
       <r>    4.0490    1.0000 </r>
       <r>    4.1159    1.0000 </r>
       <r>    4.1494    1.0000 </r>
       <r>    4.2808    1.0000 </r>
       <r>    4.2861    1.0000 </r>
       <r>    4.3169    1.0000 </r>
       <r>    4.3606    1.0000 </r>
       <r>    4.3637    1.0000 </r>
       <r>    4.5228    0.7133 </r>
       <r>    4.5279    0.4347 </r>
       <r>    4.5579    0.0000 </r>
       <r>    4.6788    0.0000 </r>
       <r>    4.7580    0.0000 </r>
       <r>    4.8323    0.0000 </r>
       <r>    4.8895    0.0000 </r>
       <r>    4.9159    0.0000 </r>
       <r>    5.0185    0.0000 </r>
       <r>    5.0856    0.0000 </r>
       <r>    5.0893    0.0000 </r>
       <r>    5.1517    0.0000 </r>
       <r>    5.1867    0.0000 </r>
       <r>    5.2109    0.0000 </r>
       <r>    5.2319    0.0000 </r>
       <r>    5.2660    0.0000 </r>
       <r>    5.3404    0.0000 </r>
       <r>    5.3882    0.0000 </r>
       <r>    5.4267    0.0000 </r>
       <r>    5.5178    0.0000 </r>
       <r>    5.5188    0.0000 </r>
       <r>    5.6584    0.0000 </r>
       <r>    5.6691    0.0000 </r>
       <r>    5.7298    0.0000 </r>
       <r>    5.7587    0.0000 </r>
       <r>    5.8062    0.0000 </r>
       <r>    5.8830    0.0000 </r>
       <r>    5.8854    0.0000 </r>
       <r>    5.9537    0.0000 </r>
       <r>    5.9627    0.0000 </r>
       <r>    6.0238    0.0000 </r>
       <r>    6.0713    0.0000 </r>
       <r>    6.0963    0.0000 </r>
       <r>    6.1283    0.0000 </r>
       <r>    6.1597    0.0000 </r>
       <r>    6.3053    0.0000 </r>
       <r>    6.3501    0.0000 </r>
       <r>    6.3910    0.0000 </r>
       <r>    6.3923    0.0000 </r>
       <r>    6.4942    0.0000 </r>
       <r>    6.5091    0.0000 </r>
       <r>    6.5921    0.0000 </r>
      </set>
      <set comment="kpoint 2">
       <r>   -8.7331    1.0000 </r>
       <r>   -8.6283    1.0000 </r>
       <r>   -8.5046    1.0000 </r>
       <r>   -8.4215    1.0000 </r>
       <r>   -8.0256    1.0000 </r>
       <r>   -7.8498    1.0000 </r>
       <r>   -7.7346    1.0000 </r>
       <r>   -7.6297    1.0000 </r>
       <r>   -7.4440    1.0000 </r>
       <r>   -7.3142    1.0000 </r>
       <r>   -7.1904    1.0000 </r>
       <r>   -7.1738    1.0000 </r>
       <r>   -7.0867    1.0000 </r>
       <r>   -7.0459    1.0000 </r>
       <r>   -6.8560    1.0000 </r>
       <r>   -6.8341    1.0000 </r>
       <r>   -6.8151    1.0000 </r>
       <r>   -6.7518    1.0000 </r>
       <r>   -6.6968    1.0000 </r>
       <r>   -6.6272    1.0000 </r>
       <r>   -6.5533    1.0000 </r>
       <r>   -6.4609    1.0000 </r>
       <r>   -6.3708    1.0000 </r>
       <r>   -6.2490    1.0000 </r>
       <r>   -6.1882    1.0000 </r>
       <r>   -6.1424    1.0000 </r>
       <r>   -6.0107    1.0000 </r>
       <r>   -5.9085    1.0000 </r>
       <r>   -5.8699    1.0000 </r>
       <r>   -5.8125    1.0000 </r>
       <r>   -5.7055    1.0000 </r>
       <r>   -5.5998    1.0000 </r>
       <r>   -5.5720    1.0000 </r>
       <r>   -5.5381    1.0000 </r>
       <r>   -5.4191    1.0000 </r>
       <r>   -5.2465    1.0000 </r>
       <r>   -5.1787    1.0000 </r>
       <r>   -5.0626    1.0000 </r>
       <r>   -5.0330    1.0000 </r>
       <r>   -4.9281    1.0000 </r>
       <r>   -4.7182    1.0000 </r>
       <r>   -4.7125    1.0000 </r>
       <r>   -4.6741    1.0000 </r>
       <r>   -4.6059    1.0000 </r>
       <r>   -4.4865    1.0000 </r>
       <r>   -4.3983    1.0000 </r>
       <r>   -4.3306    1.0000 </r>
       <r>   -4.2853    1.0000 </r>
       <r>   -4.1184    1.0000 </r>
       <r>   -4.0725    1.0000 </r>
       <r>   -4.0114    1.0000 </r>
       <r>   -3.9217    1.0000 </r>
       <r>   -3.9121    1.0000 </r>
       <r>   -3.7875    1.0000 </r>
       <r>   -3.7048    1.0000 </r>
       <r>   -3.6793    1.0000 </r>
       <r>   -3.4452    1.0000 </r>
       <r>   -3.4377    1.0000 </r>
       <r>   -3.3596    1.0000 </r>
       <r>   -3.2609    1.0000 </r>
       <r>   -3.2467    1.0000 </r>
       <r>   -3.1729    1.0000 </r>
       <r>   -3.1300    1.0000 </r>
       <r>   -3.0460    1.0000 </r>
       <r>   -3.0172    1.0000 </r>
       <r>   -2.9374    1.0000 </r>
       <r>   -2.8746    1.0000 </r>
       <r>   -2.7937    1.0000 </r>
       <r>   -2.7256    1.0000 </r>
       <r>   -2.6102    1.0000 </r>
       <r>   -2.5550    1.0000 </r>
       <r>   -2.4752    1.0000 </r>
       <r>   -2.4175    1.0000 </r>
       <r>   -2.3998    1.0000 </r>
       <r>   -2.3345    1.0000 </r>
       <r>   -2.2398    1.0000 </r>
       <r>   -2.2349    1.0000 </r>
       <r>   -2.0504    1.0000 </r>
       <r>   -2.0253    1.0000 </r>
       <r>   -1.9494    1.0000 </r>
       <r>   -1.9115    1.0000 </r>
       <r>   -1.8616    1.0000 </r>
       <r>   -1.7479    1.0000 </r>
       <r>   -1.6060    1.0000 </r>
       <r>   -1.5472    1.0000 </r>
       <r>   -1.5246    1.0000 </r>
       <r>   -1.4359    1.0000 </r>
       <r>   -1.4192    1.0000 </r>
       <r>   -1.2089    1.0000 </r>
       <r>   -1.1929    1.0000 </r>
       <r>   -1.1248    1.0000 </r>
       <r>   -1.0997    1.0000 </r>
       <r>   -0.9308    1.0000 </r>
       <r>   -0.9051    1.0000 </r>
       <r>   -0.7968    1.0000 </r>
       <r>   -0.7852    1.0000 </r>
       <r>   -0.5114    1.0000 </r>
       <r>   -0.4432    1.0000 </r>
       <r>   -0.2950    1.0000 </r>
       <r>   -0.2819    1.0000 </r>
       <r>   -0.1268    1.0000 </r>
       <r>   -0.1228    1.0000 </r>
       <r>    0.0327    1.0000 </r>
       <r>    0.0694    1.0000 </r>
       <r>    0.0776    1.0000 </r>
       <r>    0.1087    1.0000 </r>
       <r>    0.1911    1.0000 </r>
       <r>    0.2041    1.0000 </r>
       <r>    0.2607    1.0000 </r>
       <r>    0.2920    1.0000 </r>
       <r>    0.3920    1.0000 </r>
       <r>    0.4049    1.0000 </r>
       <r>    0.4307    1.0000 </r>
       <r>    0.4966    1.0000 </r>
       <r>    0.5112    1.0000 </r>
       <r>    0.5875    1.0000 </r>
       <r>    0.6442    1.0000 </r>
       <r>    0.6662    1.0000 </r>
       <r>    0.7388    1.0000 </r>
       <r>    0.7410    1.0000 </r>
       <r>    0.8053    1.0000 </r>
       <r>    0.8356    1.0000 </r>
       <r>    0.8710    1.0000 </r>
       <r>    0.8876    1.0000 </r>
       <r>    0.9566    1.0000 </r>
       <r>    0.9685    1.0000 </r>
       <r>    1.0361    1.0000 </r>
       <r>    1.0649    1.0000 </r>
       <r>    1.1798    1.0000 </r>
       <r>    1.2104    1.0000 </r>
       <r>    1.2121    1.0000 </r>
       <r>    1.2372    1.0000 </r>
       <r>    1.2872    1.0000 </r>
       <r>    1.3192    1.0000 </r>
       <r>    1.3810    1.0000 </r>
       <r>    1.3830    1.0000 </r>
       <r>    1.4621    1.0000 </r>
       <r>    1.4890    1.0000 </r>
       <r>    1.5145    1.0000 </r>
       <r>    1.5651    1.0000 </r>
       <r>    1.5786    1.0000 </r>
       <r>    1.6316    1.0000 </r>
       <r>    1.7139    1.0000 </r>
       <r>    1.7212    1.0000 </r>
       <r>    1.7642    1.0000 </r>
       <r>    1.7862    1.0000 </r>
       <r>    1.8520    1.0000 </r>
       <r>    1.8859    1.0000 </r>
       <r>    1.8986    1.0000 </r>
       <r>    1.9090    1.0000 </r>
       <r>    1.9939    1.0000 </r>
       <r>    2.0126    1.0000 </r>
       <r>    2.0800    1.0000 </r>
       <r>    2.0995    1.0000 </r>
       <r>    2.1631    1.0000 </r>
       <r>    2.1631    1.0000 </r>
       <r>    2.2400    1.0000 </r>
       <r>    2.2411    1.0000 </r>
       <r>    2.3488    1.0000 </r>
       <r>    2.3801    1.0000 </r>
       <r>    2.4144    1.0000 </r>
       <r>    2.4720    1.0000 </r>
       <r>    2.4925    1.0000 </r>
       <r>    2.5180    1.0000 </r>
       <r>    2.5251    1.0000 </r>
       <r>    2.5908    1.0000 </r>
       <r>    2.6139    1.0000 </r>
       <r>    2.6721    1.0000 </r>
       <r>    2.6843    1.0000 </r>
       <r>    2.7880    1.0000 </r>
       <r>    2.8023    1.0000 </r>
       <r>    2.8758    1.0000 </r>
       <r>    2.8830    1.0000 </r>
       <r>    2.9556    1.0000 </r>
       <r>    3.0023    1.0000 </r>
       <r>    3.0175    1.0000 </r>
       <r>    3.0418    1.0000 </r>
       <r>    3.1098    1.0000 </r>
       <r>    3.1281    1.0000 </r>
       <r>    3.2108    1.0000 </r>
       <r>    3.2963    1.0000 </r>
       <r>    3.3582    1.0000 </r>
       <r>    3.3602    1.0000 </r>
       <r>    3.4778    1.0000 </r>
       <r>    3.4962    1.0000 </r>
       <r>    3.5488    1.0000 </r>
       <r>    3.5557    1.0000 </r>
       <r>    3.6304    1.0000 </r>
       <r>    3.6491    1.0000 </r>
       <r>    3.7639    1.0000 </r>
       <r>    3.8013    1.0000 </r>
       <r>    3.8630    1.0000 </r>
       <r>    3.9018    1.0000 </r>
       <r>    3.9416    1.0000 </r>
       <r>    3.9653    1.0000 </r>
       <r>    4.0076    1.0000 </r>
       <r>    4.0324    1.0000 </r>
       <r>    4.0916    1.0000 </r>
       <r>    4.2648    1.0000 </r>
       <r>    4.2717    1.0000 </r>
       <r>    4.3466    1.0000 </r>
       <r>    4.3538    1.0000 </r>
       <r>    4.3841    1.0000 </r>
       <r>    4.4614    1.0000 </r>
       <r>    4.5686    0.0000 </r>
       <r>    4.5730    0.0000 </r>
       <r>    4.7023    0.0000 </r>
       <r>    4.7137    0.0000 </r>
       <r>    4.7979    0.0000 </r>
       <r>    4.9126    0.0000 </r>
       <r>    4.9191    0.0000 </r>
       <r>    4.9925    0.0000 </r>
       <r>    5.0238    0.0000 </r>
       <r>    5.0757    0.0000 </r>
       <r>    5.0811    0.0000 </r>
       <r>    5.1445    0.0000 </r>
       <r>    5.1654    0.0000 </r>
       <r>    5.2493    0.0000 </r>
       <r>    5.2573    0.0000 </r>
       <r>    5.3805    0.0000 </r>
       <r>    5.4092    0.0000 </r>
       <r>    5.4401    0.0000 </r>
       <r>    5.5127    0.0000 </r>
       <r>    5.5756    0.0000 </r>
       <r>    5.5887    0.0000 </r>
       <r>    5.6368    0.0000 </r>
       <r>    5.6443    0.0000 </r>
       <r>    5.7632    0.0000 </r>
       <r>    5.7765    0.0000 </r>
       <r>    5.8410    0.0000 </r>
       <r>    5.8730    0.0000 </r>
       <r>    5.9703    0.0000 </r>
       <r>    5.9866    0.0000 </r>
       <r>    6.0424    0.0000 </r>
       <r>    6.0749    0.0000 </r>
       <r>    6.1216    0.0000 </r>
       <r>    6.1927    0.0000 </r>
       <r>    6.2488    0.0000 </r>
       <r>    6.2709    0.0000 </r>
       <r>    6.3170    0.0000 </r>
       <r>    6.4101    0.0000 </r>
       <r>    6.4312    0.0000 </r>
       <r>    6.4907    0.0000 </r>
       <r>    6.5037    0.0000 </r>
       <r>    6.5404    0.0000 </r>
      </set>
      <set comment="kpoint 3">
       <r>   -8.7595    1.0000 </r>
       <r>   -8.5766    1.0000 </r>
       <r>   -8.5764    1.0000 </r>
       <r>   -8.3559    1.0000 </r>
       <r>   -8.0635    1.0000 </r>
       <r>   -7.8346    1.0000 </r>
       <r>   -7.6111    1.0000 </r>
       <r>   -7.5958    1.0000 </r>
       <r>   -7.4254    1.0000 </r>
       <r>   -7.3911    1.0000 </r>
       <r>   -7.2763    1.0000 </r>
       <r>   -7.1373    1.0000 </r>
       <r>   -7.1024    1.0000 </r>
       <r>   -7.0113    1.0000 </r>
       <r>   -6.9914    1.0000 </r>
       <r>   -6.9366    1.0000 </r>
       <r>   -6.8717    1.0000 </r>
       <r>   -6.7910    1.0000 </r>
       <r>   -6.6990    1.0000 </r>
       <r>   -6.6501    1.0000 </r>
       <r>   -6.4829    1.0000 </r>
       <r>   -6.4070    1.0000 </r>
       <r>   -6.3092    1.0000 </r>
       <r>   -6.1770    1.0000 </r>
       <r>   -6.1376    1.0000 </r>
       <r>   -6.1007    1.0000 </r>
       <r>   -6.0907    1.0000 </r>
       <r>   -5.8902    1.0000 </r>
       <r>   -5.8601    1.0000 </r>
       <r>   -5.8389    1.0000 </r>
       <r>   -5.7332    1.0000 </r>
       <r>   -5.6043    1.0000 </r>
       <r>   -5.4434    1.0000 </r>
       <r>   -5.4344    1.0000 </r>
       <r>   -5.3338    1.0000 </r>
       <r>   -5.2351    1.0000 </r>
       <r>   -5.1738    1.0000 </r>
       <r>   -5.1025    1.0000 </r>
       <r>   -5.0871    1.0000 </r>
       <r>   -4.9742    1.0000 </r>
       <r>   -4.9119    1.0000 </r>
       <r>   -4.6921    1.0000 </r>
       <r>   -4.6547    1.0000 </r>
       <r>   -4.5994    1.0000 </r>
       <r>   -4.5129    1.0000 </r>
       <r>   -4.3968    1.0000 </r>
       <r>   -4.2499    1.0000 </r>
       <r>   -4.1515    1.0000 </r>
       <r>   -4.0653    1.0000 </r>
       <r>   -4.0269    1.0000 </r>
       <r>   -3.9929    1.0000 </r>
       <r>   -3.9330    1.0000 </r>
       <r>   -3.8844    1.0000 </r>
       <r>   -3.8045    1.0000 </r>
       <r>   -3.7215    1.0000 </r>
       <r>   -3.6585    1.0000 </r>
       <r>   -3.5941    1.0000 </r>
       <r>   -3.4937    1.0000 </r>
       <r>   -3.4901    1.0000 </r>
       <r>   -3.3820    1.0000 </r>
       <r>   -3.3271    1.0000 </r>
       <r>   -3.2228    1.0000 </r>
       <r>   -3.1727    1.0000 </r>
       <r>   -3.1007    1.0000 </r>
       <r>   -3.0512    1.0000 </r>
       <r>   -2.9223    1.0000 </r>
       <r>   -2.9073    1.0000 </r>
       <r>   -2.8116    1.0000 </r>
       <r>   -2.7732    1.0000 </r>
       <r>   -2.6872    1.0000 </r>
       <r>   -2.5250    1.0000 </r>
       <r>   -2.4543    1.0000 </r>
       <r>   -2.3864    1.0000 </r>
       <r>   -2.3168    1.0000 </r>
       <r>   -2.2601    1.0000 </r>
       <r>   -2.1833    1.0000 </r>
       <r>   -2.1453    1.0000 </r>
       <r>   -2.0834    1.0000 </r>
       <r>   -2.0417    1.0000 </r>
       <r>   -1.8748    1.0000 </r>
       <r>   -1.8408    1.0000 </r>
       <r>   -1.6724    1.0000 </r>
       <r>   -1.6303    1.0000 </r>
       <r>   -1.6103    1.0000 </r>
       <r>   -1.5468    1.0000 </r>
       <r>   -1.5158    1.0000 </r>
       <r>   -1.4365    1.0000 </r>
       <r>   -1.4018    1.0000 </r>
       <r>   -1.3686    1.0000 </r>
       <r>   -1.3265    1.0000 </r>
       <r>   -1.0081    1.0000 </r>
       <r>   -1.0057    1.0000 </r>
       <r>   -0.9700    1.0000 </r>
       <r>   -0.7899    1.0000 </r>
       <r>   -0.7595    1.0000 </r>
       <r>   -0.6672    1.0000 </r>
       <r>   -0.5869    1.0000 </r>
       <r>   -0.3971    1.0000 </r>
       <r>   -0.2945    1.0000 </r>
       <r>   -0.2682    1.0000 </r>
       <r>   -0.1721    1.0000 </r>
       <r>   -0.1087    1.0000 </r>
       <r>   -0.0742    1.0000 </r>
       <r>   -0.0280    1.0000 </r>
       <r>    0.0570    1.0000 </r>
       <r>    0.0892    1.0000 </r>
       <r>    0.1493    1.0000 </r>
       <r>    0.2059    1.0000 </r>
       <r>    0.2619    1.0000 </r>
[...]
       <r>    -7.3506    19.5541    20.0601 </r>
       <r>    -7.2941    16.2648    20.9794 </r>
       <r>    -7.2375    15.1210    21.8340 </r>
       <r>    -7.1810    12.8377    22.5595 </r>
       <r>    -7.1245    27.2872    24.1017 </r>
       <r>    -7.0680    24.2244    25.4709 </r>
       <r>    -7.0115    22.0379    26.7164 </r>
       <r>    -6.9550    10.9161    27.3334 </r>
       <r>    -6.8984    15.0334    28.1830 </r>
       <r>    -6.8419    24.9757    29.5947 </r>
       <r>    -6.7854    43.5868    32.0581 </r>
       <r>    -6.7289    48.7467    34.8131 </r>
       <r>    -6.6724    22.0352    36.0585 </r>
       <r>    -6.6159    18.9243    37.1281 </r>
       <r>    -6.5593    26.3806    38.6190 </r>
       <r>    -6.5028    36.9809    40.7091 </r>
       <r>    -6.4463    19.4287    41.8072 </r>
       <r>    -6.3898    26.2032    43.2882 </r>
       <r>    -6.3333    34.9639    45.2642 </r>
       <r>    -6.2767    15.3059    46.1293 </r>
       <r>    -6.2202    18.4255    47.1707 </r>
       <r>    -6.1637    30.9648    48.9208 </r>
       <r>    -6.1072    25.8703    50.3829 </r>
       <r>    -6.0507    22.6479    51.6629 </r>
       <r>    -5.9942    27.1315    53.1964 </r>
       <r>    -5.9376    19.3380    54.2893 </r>
       <r>    -5.8811    25.9664    55.7569 </r>
       <r>    -5.8246    25.0818    57.1745 </r>
       <r>    -5.7681    24.2867    58.5472 </r>
       <r>    -5.7116    28.3769    60.1511 </r>
       <r>    -5.6551    33.5500    62.0472 </r>
       <r>    -5.5985    18.8543    63.1128 </r>
       <r>    -5.5420    24.9910    64.5253 </r>
       <r>    -5.4855    26.6727    66.0327 </r>
       <r>    -5.4290    12.2853    66.7271 </r>
       <r>    -5.3725    28.6283    68.3451 </r>
       <r>    -5.3160    39.0545    70.5524 </r>
       <r>    -5.2594    18.3934    71.5919 </r>
       <r>    -5.2029    17.7986    72.5978 </r>
       <r>    -5.1464    36.8875    74.6827 </r>
       <r>    -5.0899    13.6099    75.4519 </r>
       <r>    -5.0334    30.0622    77.1510 </r>
       <r>    -4.9768    28.8992    78.7843 </r>
       <r>    -4.9203    11.5223    79.4356 </r>
       <r>    -4.8638    19.2459    80.5233 </r>
       <r>    -4.8073    21.4121    81.7334 </r>
       <r>    -4.7508    13.8784    82.5179 </r>
       <r>    -4.6943    37.7932    84.6539 </r>
       <r>    -4.6377    24.3169    86.0282 </r>
       <r>    -4.5812    12.1062    86.7125 </r>
       <r>    -4.5247    23.1560    88.0212 </r>
       <r>    -4.4682    36.2861    90.0721 </r>
       <r>    -4.4117    19.6716    91.1838 </r>
       <r>    -4.3552    30.6364    92.9153 </r>
       <r>    -4.2986    21.5497    94.1333 </r>
       <r>    -4.2421    28.8734    95.7652 </r>
       <r>    -4.1856    15.8145    96.6591 </r>
       <r>    -4.1291    12.8489    97.3853 </r>
       <r>    -4.0726    30.1660    99.0902 </r>
       <r>    -4.0161    22.7216   100.3743 </r>
       <r>    -3.9595    31.4902   102.1541 </r>
       <r>    -3.9030    36.3221   104.2069 </r>
       <r>    -3.8465    22.5642   105.4822 </r>
       <r>    -3.7900    20.5479   106.6436 </r>
       <r>    -3.7335    28.4086   108.2492 </r>
       <r>    -3.6769    29.9599   109.9425 </r>
       <r>    -3.6204    25.6976   111.3949 </r>
       <r>    -3.5639    28.8610   113.0260 </r>
       <r>    -3.5074    20.1209   114.1632 </r>
       <r>    -3.4509    29.0338   115.8041 </r>
       <r>    -3.3944    31.7333   117.5976 </r>
       <r>    -3.3378    17.2378   118.5719 </r>
       <r>    -3.2813    22.2797   119.8311 </r>
       <r>    -3.2248    43.1717   122.2711 </r>
       <r>    -3.1683    21.5860   123.4911 </r>
       <r>    -3.1118    35.4390   125.4940 </r>
       <r>    -3.0553    27.9585   127.0742 </r>
       <r>    -2.9987    32.7384   128.9244 </r>
       <r>    -2.9422    21.9437   130.1646 </r>
       <r>    -2.8857    29.9954   131.8599 </r>
       <r>    -2.8292    31.0098   133.6125 </r>
       <r>    -2.7727    28.4588   135.2210 </r>
       <r>    -2.7161    23.4791   136.5480 </r>
       <r>    -2.6596    32.2425   138.3703 </r>
       <r>    -2.6031    33.7858   140.2798 </r>
       <r>    -2.5466    36.1155   142.3209 </r>
       <r>    -2.4901    21.1162   143.5143 </r>
       <r>    -2.4336    28.6588   145.1341 </r>
       <r>    -2.3770    40.0620   147.3983 </r>
       <r>    -2.3205    32.3169   149.2248 </r>
       <r>    -2.2640    15.4038   150.0954 </r>
       <r>    -2.2075    26.5406   151.5954 </r>
       <r>    -2.1510    30.7376   153.3327 </r>
       <r>    -2.0945    27.5886   154.8920 </r>
       <r>    -2.0379    19.0057   155.9662 </r>
       <r>    -1.9814    33.9305   157.8839 </r>
       <r>    -1.9249    26.0180   159.3543 </r>
       <r>    -1.8684    22.6361   160.6337 </r>
       <r>    -1.8119    27.3010   162.1767 </r>
       <r>    -1.7554    27.5874   163.7359 </r>
       <r>    -1.6988    25.1472   165.1571 </r>
       <r>    -1.6423    28.0315   166.7414 </r>
       <r>    -1.5858    32.6929   168.5891 </r>
       <r>    -1.5293    21.6778   169.8144 </r>
       <r>    -1.4728    28.1262   171.4040 </r>
       <r>    -1.4162    19.7332   172.5193 </r>
       <r>    -1.3597    23.9702   173.8740 </r>
       <r>    -1.3032    21.2106   175.0728 </r>
       <r>    -1.2467    17.6419   176.0699 </r>
       <r>    -1.1902    18.9691   177.1420 </r>
       <r>    -1.1337    34.9853   179.1193 </r>
       <r>    -1.0771    24.2406   180.4894 </r>
       <r>    -1.0206    16.9560   181.4477 </r>
       <r>    -0.9641    27.0274   182.9752 </r>
       <r>    -0.9076    35.3216   184.9715 </r>
       <r>    -0.8511    22.7526   186.2574 </r>
       <r>    -0.7946    18.6463   187.3113 </r>
       <r>    -0.7380    23.5742   188.6437 </r>
       <r>    -0.6815    26.5927   190.1466 </r>
       <r>    -0.6250    15.9615   191.0488 </r>
       <r>    -0.5685    26.1735   192.5280 </r>
       <r>    -0.5120     2.0550   192.6442 </r>
       <r>    -0.4554    24.6394   194.0367 </r>
       <r>    -0.3989    25.2201   195.4621 </r>
       <r>    -0.3424     8.3501   195.9340 </r>
       <r>    -0.2859    21.7986   197.1660 </r>
       <r>    -0.2294    39.2536   199.3846 </r>
       <r>    -0.1729    21.9997   200.6280 </r>
       <r>    -0.1163    36.8366   202.7100 </r>
       <r>    -0.0598    24.3781   204.0878 </r>
       <r>    -0.0033    28.0056   205.6706 </r>
       <r>     0.0532    42.1855   208.0549 </r>
       <r>     0.1097    45.4703   210.6248 </r>
       <r>     0.1662    34.6863   212.5853 </r>
       <r>     0.2228    51.2135   215.4798 </r>
       <r>     0.2793    37.2990   217.5878 </r>
       <r>     0.3358    31.6564   219.3770 </r>
       <r>     0.3923    34.1504   221.3071 </r>
       <r>     0.4488    50.1630   224.1422 </r>
       <r>     0.5053    35.5321   226.1504 </r>
       <r>     0.5619    59.8039   229.5304 </r>
       <r>     0.6184    47.4627   232.2129 </r>
       <r>     0.6749    46.3724   234.8337 </r>
       <r>     0.7314    41.5439   237.1817 </r>
       <r>     0.7879    42.2105   239.5673 </r>
       <r>     0.8445    44.1295   242.0615 </r>
       <r>     0.9010    52.4030   245.0232 </r>
       <r>     0.9575    41.2991   247.3573 </r>
       <r>     1.0140    51.6153   250.2745 </r>
       <r>     1.0705    45.8654   252.8668 </r>
       <r>     1.1270    56.6247   256.0671 </r>
       <r>     1.1836    31.0282   257.8208 </r>
       <r>     1.2401    53.9175   260.8680 </r>
       <r>     1.2966    37.9413   263.0124 </r>
       <r>     1.3531    72.5851   267.1147 </r>
       <r>     1.4096    56.4508   270.3052 </r>
       <r>     1.4661    38.2457   272.4669 </r>
       <r>     1.5227    64.4011   276.1067 </r>
       <r>     1.5792    56.6312   279.3075 </r>
       <r>     1.6357    48.7862   282.0648 </r>
       <r>     1.6922    46.0707   284.6687 </r>
       <r>     1.7487    70.8747   288.6744 </r>
       <r>     1.8053    49.1030   291.4497 </r>
       <r>     1.8618    48.0166   294.1635 </r>
       <r>     1.9183    69.8338   298.1103 </r>
       <r>     1.9748    41.2476   300.4416 </r>
       <r>     2.0313    57.2087   303.6749 </r>
       <r>     2.0878    37.7586   305.8090 </r>
       <r>     2.1444    56.3792   308.9956 </r>
       <r>     2.2009    50.2971   311.8384 </r>
       <r>     2.2574    47.8437   314.5424 </r>
       <r>     2.3139    36.0365   316.5792 </r>
       <r>     2.3704    57.1596   319.8097 </r>
       <r>     2.4269    53.4827   322.8325 </r>
       <r>     2.4835    33.4433   324.7226 </r>
       <r>     2.5400    52.0787   327.6660 </r>
       <r>     2.5965    57.6349   330.9234 </r>
       <r>     2.6530    46.6736   333.5613 </r>
       <r>     2.7095    51.3855   336.4656 </r>
       <r>     2.7660    43.8437   338.9435 </r>
       <r>     2.8226    55.1701   342.0617 </r>
       <r>     2.8791    54.4323   345.1381 </r>
       <r>     2.9356    45.4102   347.7046 </r>
       <r>     2.9921    42.4340   350.1029 </r>
       <r>     3.0486    59.6517   353.4744 </r>
       <r>     3.1052    30.6871   355.2088 </r>
       <r>     3.1617    33.2313   357.0869 </r>
       <r>     3.2182    37.1746   359.1880 </r>
       <r>     3.2747    45.6232   361.7665 </r>
       <r>     3.3312    43.7519   364.2393 </r>
       <r>     3.3877    44.0245   366.7275 </r>
       <r>     3.4443    37.0451   368.8214 </r>
       <r>     3.5008    27.9986   370.4038 </r>
       <r>     3.5573    54.2544   373.4701 </r>
       <r>     3.6138    42.1194   375.8507 </r>
       <r>     3.6703    42.9120   378.2759 </r>
       <r>     3.7268    21.7032   379.5026 </r>
       <r>     3.7834    38.1659   381.6597 </r>
       <r>     3.8399    38.0260   383.8089 </r>
       <r>     3.8964    45.4466   386.3775 </r>
       <r>     3.9529    36.1919   388.4229 </r>
       <r>     4.0094    39.7633   390.6703 </r>
       <r>     4.0660    46.6888   393.3091 </r>
       <r>     4.1225    40.3375   395.5890 </r>
       <r>     4.1790    46.0755   398.1931 </r>
       <r>     4.2355    23.7428   399.5350 </r>
       <r>     4.2920    25.3481   400.9676 </r>
       <r>     4.3485    38.7665   403.1587 </r>
       <r>     4.4051    45.4350   405.7266 </r>
       <r>     4.4616    24.9676   407.1377 </r>
       <r>     4.5181    22.7510   408.4235 </r>
       <r>     4.5746    32.9990   410.2885 </r>
       <r>     4.6311    41.5710   412.6382 </r>
       <r>     4.6876    26.4740   414.1344 </r>
       <r>     4.7442    25.1595   415.5564 </r>
       <r>     4.8007    42.2102   417.9420 </r>
       <r>     4.8572    35.9986   419.9766 </r>
       <r>     4.9137    32.1879   421.7958 </r>
       <r>     4.9702    37.6387   423.9230 </r>
       <r>     5.0267    33.8759   425.8376 </r>
       <r>     5.0833    31.6045   427.6239 </r>
       <r>     5.1398    53.3784   430.6407 </r>
       <r>     5.1963    31.2569   432.4073 </r>
       <r>     5.2528    35.4053   434.4084 </r>
       <r>     5.3093    40.2344   436.6823 </r>
       <r>     5.3659    45.4476   439.2510 </r>
       <r>     5.4224    53.0186   442.2475 </r>
       <r>     5.4789    29.9975   443.9430 </r>
       <r>     5.5354    35.5302   445.9511 </r>
       <r>     5.5919    41.8703   448.3176 </r>
       <r>     5.6484    35.4703   450.3223 </r>
       <r>     5.7050    38.4075   452.4931 </r>
       <r>     5.7615    24.2038   453.8610 </r>
       <r>     5.8180    46.3346   456.4798 </r>
       <r>     5.8745    49.7500   459.2915 </r>
       <r>     5.9310    33.8630   461.2056 </r>
       <r>     5.9875    38.9066   463.4045 </r>
       <r>     6.0441    40.3247   465.6836 </r>
       <r>     6.1006    37.5077   467.8034 </r>
       <r>     6.1571    41.5618   470.1524 </r>
       <r>     6.2136    34.4579   472.0999 </r>
       <r>     6.2701    46.5328   474.7300 </r>
       <r>     6.3267    43.5873   477.1934 </r>
       <r>     6.3832    41.6060   479.5450 </r>
       <r>     6.4397    54.9479   482.6506 </r>
       <r>     6.4962    37.3744   484.7629 </r>
       <r>     6.5527    52.2635   487.7167 </r>
       <r>     6.6092    30.6047   489.4465 </r>
       <r>     6.6658     9.7937   490.0000 </r>
       <r>     6.7223     0.0000   490.0000 </r>
       <r>     6.7788     0.0000   490.0000 </r>
       <r>     6.8353     0.0000   490.0000 </r>
       <r>     6.8918     0.0000   490.0000 </r>
       <r>     6.9483     0.0000   490.0000 </r>
       <r>     7.0049     0.0000   490.0000 </r>
       <r>     7.0614     0.0000   490.0000 </r>
       <r>     7.1179     0.0000   490.0000 </r>
       <r>     7.1744     0.0000   490.0000 </r>
       <r>     7.2309     0.0000   490.0000 </r>
       <r>     7.2874     0.0000   490.0000 </r>
       <r>     7.3440     0.0000   490.0000 </r>
       <r>     7.4005     0.0000   490.0000 </r>
      </set>
     </set>
    </array>
   </total>
  </dos>
 </calculation>
 <structure name="finalpos" >
  <crystal>
   <varray name="basis" >
    <v>      13.42320379       0.00000000       0.00000000 </v>
    <v>      -6.71160190      15.00759808       0.00000000 </v>
    <v>       0.00000000       0.00000000      10.79148551 </v>
   </varray>
   <i name="volume">   2173.94526620 </i>
   <varray name="rec_basis" >
    <v>       0.07449786       0.03331646       0.00000000 </v>
    <v>       0.00000000       0.06663291       0.00000000 </v>
    <v>       0.00000000       0.00000000       0.09266565 </v>
   </varray>
  </crystal>
  <varray name="positions" >
   <v>       0.00000000       0.66666667       0.00000000 </v>
   <v>       0.30000000       0.43333333       0.11354927 </v>
   <v>       0.60000000       0.20000000       0.22709853 </v>
   <v>       0.00000000       0.33333333       0.00000000 </v>
   <v>       0.30000000       0.10000000       0.11354927 </v>
   <v>       0.60000000       0.86666667       0.22709853 </v>
   <v>       0.00000000       0.00000000       0.00000000 </v>
   <v>       0.30000000       0.76666667       0.11354927 </v>
   <v>       0.60000000       0.53333333       0.22709853 </v>
   <v>       0.50000000       0.66666667       0.00000000 </v>
   <v>       0.80000000       0.43333333       0.11354927 </v>
   <v>       0.10000000       0.20000000       0.22709853 </v>
   <v>       0.50000000       0.33333333       0.00000000 </v>
   <v>       0.80000000       0.10000000       0.11354927 </v>
   <v>       0.10000000       0.86666667       0.22709853 </v>
   <v>       0.50000000       0.00000000       0.00000000 </v>
   <v>       0.80000000       0.76666667       0.11354927 </v>
   <v>       0.10000000       0.53333333       0.22709853 </v>
   <v>       0.15000000       0.80000000       0.05677463 </v>
   <v>       0.45000000       0.56666667       0.17032390 </v>
   <v>       0.75000000       0.33333333       0.28387316 </v>
   <v>       0.15000000       0.46666667       0.05677463 </v>
   <v>       0.45000000       0.23333333       0.17032390 </v>
   <v>       0.75000000       0.00000000       0.28387316 </v>
   <v>       0.15000000       0.13333333       0.05677463 </v>
   <v>       0.45000000       0.90000000       0.17032390 </v>
   <v>       0.75000000       0.66666667       0.28387316 </v>
   <v>       0.65000000       0.80000000       0.05677463 </v>
   <v>       0.95000000       0.56666667       0.17032390 </v>
   <v>       0.25000000       0.33333333       0.28387316 </v>
   <v>       0.65000000       0.46666667       0.05677463 </v>
   <v>       0.95000000       0.23333333       0.17032390 </v>
   <v>       0.25000000       0.00000000       0.28387316 </v>
   <v>       0.65000000       0.13333333       0.05677463 </v>
   <v>       0.95000000       0.90000000       0.17032390 </v>
   <v>       0.25000000       0.66666667       0.28387316 </v>
   <v>       0.50375940       0.16564417       0.34873912 </v>
   <v>       0.30375940       0.26564417       0.46601810 </v>
   <v>       0.10375940       0.36564417       0.58329709 </v>
   <v>       0.90375940       0.46564417       0.70057608 </v>
   <v>       0.70375940       0.56564417       0.81785506 </v>
   <v>       0.50375940       0.66564417       0.93513405 </v>
   <v>       0.83709273       0.49897750       0.34873912 </v>
   <v>       0.63709273       0.59897751       0.46601810 </v>
   <v>       0.43709273       0.69897751       0.58329709 </v>
   <v>       0.23709273       0.79897751       0.70057608 </v>
   <v>       0.03709273       0.89897750       0.81785506 </v>
   <v>       0.83709273       0.99897750       0.93513405 </v>
   <v>       0.17042607       0.83231084       0.34873912 </v>
   <v>       0.97042606       0.93231084       0.46601810 </v>
   <v>       0.77042607       0.03231084       0.58329709 </v>
   <v>       0.57042606       0.13231084       0.70057608 </v>
   <v>       0.37042606       0.23231084       0.81785506 </v>
   <v>       0.17042607       0.33231084       0.93513405 </v>
   <v>       0.67042607       0.83231084       0.34873912 </v>
   <v>       0.47042606       0.93231084       0.46601810 </v>
   <v>       0.27042607       0.03231084       0.58329709 </v>
   <v>       0.07042606       0.13231084       0.70057608 </v>
   <v>       0.87042606       0.23231084       0.81785506 </v>
   <v>       0.67042607       0.33231084       0.93513405 </v>
   <v>       0.00375940       0.16564417       0.34873912 </v>
   <v>       0.80375940       0.26564417       0.46601810 </v>
   <v>       0.60375940       0.36564417       0.58329709 </v>
   <v>       0.40375940       0.46564417       0.70057608 </v>
   <v>       0.20375940       0.56564417       0.81785506 </v>
   <v>       0.00375940       0.66564417       0.93513405 </v>
   <v>       0.33709273       0.49897750       0.34873912 </v>
   <v>       0.13709273       0.59897751       0.46601810 </v>
   <v>       0.93709273       0.69897751       0.58329709 </v>
   <v>       0.73709273       0.79897751       0.70057608 </v>
   <v>       0.53709273       0.89897750       0.81785506 </v>
   <v>       0.33709273       0.99897750       0.93513405 </v>
   <v>       0.65375940       0.46564417       0.40737861 </v>
   <v>       0.45375940       0.56564417       0.52465760 </v>
   <v>       0.25375940       0.66564417       0.64193658 </v>
   <v>       0.05375940       0.76564417       0.75921557 </v>
   <v>       0.85375940       0.86564417       0.87649455 </v>
   <v>       0.98709273       0.79897751       0.40737861 </v>
   <v>       0.78709273       0.89897750       0.52465760 </v>
   <v>       0.58709273       0.99897750       0.64193658 </v>
   <v>       0.38709273       0.09897751       0.75921557 </v>
   <v>       0.18709273       0.19897751       0.87649455 </v>
   <v>       0.32042606       0.13231084       0.40737861 </v>
   <v>       0.12042606       0.23231084       0.52465760 </v>
   <v>       0.92042607       0.33231084       0.64193658 </v>
   <v>       0.72042606       0.43231084       0.75921557 </v>
   <v>       0.52042607       0.53231084       0.87649455 </v>
   <v>       0.82042606       0.13231084       0.40737861 </v>
   <v>       0.62042606       0.23231084       0.52465760 </v>
   <v>       0.42042607       0.33231084       0.64193658 </v>
   <v>       0.22042606       0.43231084       0.75921557 </v>
   <v>       0.02042607       0.53231084       0.87649455 </v>
   <v>       0.15375940       0.46564417       0.40737861 </v>
   <v>       0.95375940       0.56564417       0.52465760 </v>
   <v>       0.75375940       0.66564417       0.64193658 </v>
   <v>       0.55375940       0.76564417       0.75921557 </v>
   <v>       0.35375940       0.86564417       0.87649455 </v>
   <v>       0.48709273       0.79897751       0.40737861 </v>
   <v>       0.28709273       0.89897750       0.52465760 </v>
   <v>       0.08709273       0.99897750       0.64193658 </v>
   <v>       0.88709273       0.09897751       0.75921557 </v>
   <v>       0.68709273       0.19897751       0.87649455 </v>
  </varray>
 </structure>
</modeling>
