 264 264   0   0
  0.2139018E+02  0.1946760E-08  0.1946760E-08  0.1490025E-08  0.5000000E-15
  1.000000000000000E-004
  CAR 
 Si and Ge interface calculation         
      9.24810464     -9.32361315  301      6.53588525      1.00000000
     -9.324  0.0000E+00  0.0000E+00  0.0000E+00  0.0000E+00
     -9.262  0.0000E+00  0.0000E+00  0.0000E+00  0.0000E+00
     -9.200  0.0000E+00  0.0000E+00  0.0000E+00  0.0000E+00
     -9.138  0.0000E+00  0.0000E+00  0.0000E+00  0.0000E+00
     -9.076  0.0000E+00  0.0000E+00  0.0000E+00  0.0000E+00
     -9.014  0.0000E+00  0.0000E+00  0.0000E+00  0.0000E+00
     -8.952  0.0000E+00  0.0000E+00  0.0000E+00  0.0000E+00
     -8.890  0.0000E+00  0.0000E+00  0.0000E+00  0.0000E+00
     -8.828  0.0000E+00  0.0000E+00  0.0000E+00  0.0000E+00
     -8.766  0.0000E+00  0.0000E+00  0.0000E+00  0.0000E+00
     -8.705  0.0000E+00  0.0000E+00  0.0000E+00  0.0000E+00
     -8.643  0.0000E+00  0.0000E+00  0.0000E+00  0.0000E+00
     -8.581  0.0000E+00  0.0000E+00  0.0000E+00  0.0000E+00
     -8.519  0.3130E-06  0.3319E-06  0.1937E-07  0.2055E-07
     -8.457  0.3228E+02  0.3228E+02  0.1998E+01  0.1998E+01
     -8.395  0.0000E+00  0.0000E+00  0.2000E+01  0.2000E+01
     -8.333  0.0000E+00  0.0000E+00  0.2000E+01  0.2000E+01
     -8.271  0.1840E-03  0.2929E-03  0.2000E+01  0.2000E+01
     -8.209  0.3231E+02  0.3231E+02  0.4000E+01  0.4000E+01
     -8.147  0.2497E+02  0.2847E+02  0.5546E+01  0.5762E+01
     -8.085  0.1549E+02  0.1662E+02  0.6504E+01  0.6791E+01
     -8.024  0.2416E+02  0.1952E+02  0.8000E+01  0.8000E+01
     -7.962  0.0000E+00  0.0000E+00  0.8000E+01  0.8000E+01
     -7.900  0.0000E+00  0.0000E+00  0.8000E+01  0.8000E+01
     -7.838  0.4861E+01  0.4559E+01  0.8301E+01  0.8282E+01
     -7.776  0.2745E+02  0.2775E+02  0.1000E+02  0.1000E+02
     -7.714  0.4842E-03  0.6963E-03  0.1000E+02  0.1000E+02
     -7.652  0.3231E+02  0.3231E+02  0.1200E+02  0.1200E+02
     -7.590  0.0000E+00  0.0000E+00  0.1200E+02  0.1200E+02
     -7.528  0.1982E+00  0.2095E+00  0.1201E+02  0.1201E+02
     -7.466  0.4966E+02  0.5342E+02  0.1509E+02  0.1532E+02
     -7.405  0.5110E+02  0.4943E+02  0.1825E+02  0.1838E+02
     -7.343  0.2828E+02  0.2617E+02  0.2000E+02  0.2000E+02
     -7.281  0.4853E+00  0.1282E+01  0.2003E+02  0.2008E+02
     -7.219  0.5169E+02  0.5506E+02  0.2323E+02  0.2349E+02
     -7.157  0.4418E+02  0.4013E+02  0.2596E+02  0.2597E+02
     -7.095  0.5674E+00  0.4480E+00  0.2600E+02  0.2600E+02
     -7.033  0.5134E-06  0.2790E-06  0.2600E+02  0.2600E+02
     -6.971  0.3362E+02  0.3283E+02  0.2808E+02  0.2803E+02
     -6.909  0.3201E+02  0.3802E+02  0.3006E+02  0.3039E+02
     -6.847  0.3128E+02  0.2606E+02  0.3200E+02  0.3200E+02
     -6.785  0.2899E+02  0.3060E+02  0.3379E+02  0.3389E+02
     -6.724  0.3315E+01  0.1710E+01  0.3400E+02  0.3400E+02
     -6.662  0.1506E-12  0.7172E-11  0.3400E+02  0.3400E+02
     -6.600  0.1384E+02  0.2073E+02  0.3486E+02  0.3528E+02
     -6.538  0.7994E+02  0.7316E+02  0.3981E+02  0.3981E+02
     -6.476  0.3535E+02  0.3528E+02  0.4200E+02  0.4200E+02
     -6.414  0.5906E-01  0.2523E-01  0.4200E+02  0.4200E+02
     -6.352  0.2793E+00  0.3130E+00  0.4202E+02  0.4202E+02
     -6.290  0.4434E+02  0.5399E+02  0.4476E+02  0.4536E+02
     -6.228  0.2017E+02  0.1097E+02  0.4601E+02  0.4604E+02
     -6.166  0.3214E+02  0.3165E+02  0.4800E+02  0.4800E+02
     -6.105  0.0000E+00  0.0000E+00  0.4800E+02  0.4800E+02
     -6.043  0.0000E+00  0.0000E+00  0.4800E+02  0.4800E+02
     -5.981  0.0000E+00  0.0000E+00  0.4800E+02  0.4800E+02
     -5.919  0.1104E-07  0.1295E-04  0.4800E+02  0.4800E+02
     -5.857  0.1439E+02  0.1839E+02  0.4889E+02  0.4914E+02
     -5.795  0.4639E+02  0.4953E+02  0.5176E+02  0.5220E+02
     -5.733  0.4731E+02  0.4282E+02  0.5469E+02  0.5486E+02
     -5.671  0.2111E+02  0.1845E+02  0.5600E+02  0.5600E+02
     -5.609  0.4457E+02  0.4277E+02  0.5876E+02  0.5865E+02
     -5.547  0.3645E+02  0.4069E+02  0.6102E+02  0.6117E+02
     -5.485  0.3437E+02  0.2655E+02  0.6314E+02  0.6281E+02
     -5.424  0.4392E+02  0.5022E+02  0.6586E+02  0.6592E+02
     -5.362  0.2174E+01  0.1269E+01  0.6600E+02  0.6600E+02
     -5.300  0.1176E+01  0.2668E+01  0.6607E+02  0.6617E+02
     -5.238  0.3418E+02  0.3188E+02  0.6819E+02  0.6814E+02
     -5.176  0.5340E+02  0.5566E+02  0.7150E+02  0.7158E+02
     -5.114  0.2489E+02  0.2348E+02  0.7304E+02  0.7304E+02
     -5.052  0.3806E+02  0.3953E+02  0.7540E+02  0.7549E+02
     -4.990  0.1657E+02  0.1551E+02  0.7642E+02  0.7645E+02
     -4.928  0.3388E+02  0.3419E+02  0.7852E+02  0.7856E+02
     -4.866  0.4473E+02  0.4534E+02  0.8129E+02  0.8137E+02
     -4.804  0.4889E+02  0.4758E+02  0.8431E+02  0.8432E+02
     -4.743  0.2144E+02  0.2198E+02  0.8564E+02  0.8568E+02
     -4.681  0.5407E+02  0.5543E+02  0.8899E+02  0.8911E+02
     -4.619  0.4117E+02  0.3933E+02  0.9154E+02  0.9154E+02
     -4.557  0.4019E+02  0.4064E+02  0.9403E+02  0.9406E+02
     -4.495  0.3335E+02  0.3318E+02  0.9609E+02  0.9612E+02
     -4.433  0.6976E+02  0.6976E+02  0.1004E+03  0.1004E+03
     -4.371  0.5379E+02  0.5401E+02  0.1037E+03  0.1038E+03
     -4.309  0.4267E+02  0.4263E+02  0.1064E+03  0.1064E+03
     -4.247  0.6642E+02  0.6724E+02  0.1105E+03  0.1106E+03
     -4.185  0.5449E+02  0.5376E+02  0.1139E+03  0.1139E+03
     -4.124  0.4922E+02  0.4986E+02  0.1169E+03  0.1170E+03
     -4.062  0.4105E+02  0.4136E+02  0.1195E+03  0.1196E+03
     -4.000  0.5184E+02  0.5157E+02  0.1227E+03  0.1228E+03
     -3.938  0.5153E+02  0.5063E+02  0.1259E+03  0.1259E+03
     -3.876  0.5515E+02  0.5514E+02  0.1293E+03  0.1293E+03
     -3.814  0.5228E+02  0.5285E+02  0.1325E+03  0.1326E+03
     -3.752  0.5829E+02  0.5876E+02  0.1361E+03  0.1362E+03
     -3.690  0.5388E+02  0.5394E+02  0.1395E+03  0.1396E+03
     -3.628  0.6609E+02  0.6602E+02  0.1436E+03  0.1436E+03
     -3.566  0.3743E+02  0.3684E+02  0.1459E+03  0.1459E+03
     -3.504  0.3843E+02  0.3865E+02  0.1482E+03  0.1483E+03
     -3.443  0.5516E+02  0.5497E+02  0.1517E+03  0.1517E+03
     -3.381  0.5163E+02  0.5192E+02  0.1549E+03  0.1549E+03
     -3.319  0.4665E+02  0.4704E+02  0.1577E+03  0.1578E+03
     -3.257  0.5608E+02  0.5571E+02  0.1612E+03  0.1613E+03
     -3.195  0.6162E+02  0.6124E+02  0.1650E+03  0.1651E+03
     -3.133  0.5783E+02  0.5844E+02  0.1686E+03  0.1687E+03
     -3.071  0.5950E+02  0.5877E+02  0.1723E+03  0.1723E+03
     -3.009  0.5756E+02  0.5788E+02  0.1759E+03  0.1759E+03
     -2.947  0.6588E+02  0.6659E+02  0.1799E+03  0.1800E+03
     -2.885  0.4534E+02  0.4549E+02  0.1828E+03  0.1829E+03
     -2.824  0.5614E+02  0.5664E+02  0.1862E+03  0.1864E+03
     -2.762  0.6458E+02  0.6337E+02  0.1902E+03  0.1903E+03
     -2.700  0.5482E+02  0.5475E+02  0.1936E+03  0.1937E+03
     -2.638  0.5031E+02  0.5071E+02  0.1967E+03  0.1968E+03
     -2.576  0.6175E+02  0.6116E+02  0.2006E+03  0.2006E+03
     -2.514  0.6064E+02  0.6121E+02  0.2043E+03  0.2044E+03
     -2.452  0.7253E+02  0.7361E+02  0.2088E+03  0.2090E+03
     -2.390  0.7206E+02  0.7201E+02  0.2133E+03  0.2134E+03
     -2.328  0.7116E+02  0.7023E+02  0.2177E+03  0.2178E+03
     -2.266  0.7717E+02  0.7887E+02  0.2225E+03  0.2227E+03
     -2.204  0.4519E+02  0.4423E+02  0.2253E+03  0.2254E+03
     -2.143  0.6969E+02  0.7095E+02  0.2296E+03  0.2298E+03
     -2.081  0.7941E+02  0.7982E+02  0.2345E+03  0.2347E+03
     -2.019  0.7934E+02  0.7650E+02  0.2394E+03  0.2395E+03
     -1.957  0.8039E+02  0.8258E+02  0.2444E+03  0.2446E+03
     -1.895  0.7110E+02  0.7028E+02  0.2488E+03  0.2489E+03
     -1.833  0.6702E+02  0.6756E+02  0.2529E+03  0.2531E+03
     -1.771  0.6066E+02  0.6015E+02  0.2567E+03  0.2568E+03
     -1.709  0.7134E+02  0.7122E+02  0.2611E+03  0.2612E+03
     -1.647  0.7633E+02  0.7541E+02  0.2658E+03  0.2659E+03
     -1.585  0.6786E+02  0.6819E+02  0.2700E+03  0.2701E+03
     -1.523  0.7021E+02  0.7029E+02  0.2744E+03  0.2745E+03
     -1.462  0.7770E+02  0.7651E+02  0.2792E+03  0.2792E+03
     -1.400  0.6975E+02  0.7101E+02  0.2835E+03  0.2836E+03
     -1.338  0.6752E+02  0.6740E+02  0.2877E+03  0.2878E+03
     -1.276  0.6564E+02  0.6413E+02  0.2917E+03  0.2918E+03
     -1.214  0.7071E+02  0.7138E+02  0.2961E+03  0.2962E+03
     -1.152  0.7117E+02  0.7151E+02  0.3005E+03  0.3006E+03
     -1.090  0.6955E+02  0.6918E+02  0.3048E+03  0.3049E+03
     -1.028  0.6706E+02  0.6857E+02  0.3090E+03  0.3091E+03
     -0.966  0.6242E+02  0.6163E+02  0.3128E+03  0.3130E+03
     -0.904  0.5896E+02  0.5755E+02  0.3165E+03  0.3165E+03
     -0.843  0.6815E+02  0.6917E+02  0.3207E+03  0.3208E+03
     -0.781  0.6976E+02  0.6856E+02  0.3250E+03  0.3250E+03
     -0.719  0.6538E+02  0.6629E+02  0.3291E+03  0.3291E+03
     -0.657  0.6707E+02  0.6747E+02  0.3332E+03  0.3333E+03
     -0.595  0.5688E+02  0.5552E+02  0.3368E+03  0.3368E+03
     -0.533  0.6399E+02  0.6499E+02  0.3407E+03  0.3408E+03
     -0.471  0.6693E+02  0.6675E+02  0.3449E+03  0.3449E+03
     -0.409  0.6810E+02  0.6716E+02  0.3491E+03  0.3491E+03
     -0.347  0.6783E+02  0.6840E+02  0.3533E+03  0.3533E+03
     -0.285  0.6595E+02  0.6541E+02  0.3574E+03  0.3574E+03
     -0.223  0.9387E+02  0.9394E+02  0.3632E+03  0.3632E+03
     -0.162  0.7178E+02  0.7268E+02  0.3676E+03  0.3677E+03
     -0.100  0.8097E+02  0.8012E+02  0.3726E+03  0.3726E+03
     -0.038  0.8876E+02  0.9103E+02  0.3781E+03  0.3783E+03
      0.024  0.9218E+02  0.9163E+02  0.3838E+03  0.3840E+03
      0.086  0.8624E+02  0.8497E+02  0.3892E+03  0.3892E+03
      0.148  0.9375E+02  0.9393E+02  0.3950E+03  0.3950E+03
      0.210  0.8383E+02  0.8447E+02  0.4002E+03  0.4003E+03
      0.272  0.8527E+02  0.8415E+02  0.4055E+03  0.4055E+03
      0.334  0.7890E+02  0.8065E+02  0.4103E+03  0.4105E+03
      0.396  0.9251E+02  0.9285E+02  0.4161E+03  0.4162E+03
      0.457  0.6383E+02  0.6232E+02  0.4200E+03  0.4201E+03
      0.519  0.9274E+02  0.9211E+02  0.4258E+03  0.4258E+03
      0.581  0.7610E+02  0.7628E+02  0.4305E+03  0.4305E+03
      0.643  0.8736E+02  0.8794E+02  0.4359E+03  0.4359E+03
      0.705  0.7881E+02  0.7866E+02  0.4408E+03  0.4408E+03
      0.767  0.9622E+02  0.9568E+02  0.4467E+03  0.4467E+03
      0.829  0.8423E+02  0.8331E+02  0.4519E+03  0.4519E+03
      0.891  0.9691E+02  0.9674E+02  0.4579E+03  0.4579E+03
      0.953  0.8278E+02  0.8117E+02  0.4631E+03  0.4629E+03
      1.015  0.9283E+02  0.9557E+02  0.4688E+03  0.4688E+03
      1.077  0.8150E+02  0.7929E+02  0.4739E+03  0.4737E+03
      1.138  0.8932E+02  0.8947E+02  0.4794E+03  0.4793E+03
      1.200  0.8471E+02  0.8435E+02  0.4846E+03  0.4845E+03
      1.262  0.7736E+02  0.7839E+02  0.4894E+03  0.4894E+03
      1.324  0.8041E+02  0.7777E+02  0.4944E+03  0.4942E+03
      1.386  0.8092E+02  0.8384E+02  0.4994E+03  0.4994E+03
      1.448  0.9429E+02  0.9045E+02  0.5052E+03  0.5050E+03
      1.510  0.9373E+02  0.9080E+02  0.5111E+03  0.5106E+03
      1.572  0.8687E+02  0.8985E+02  0.5164E+03  0.5161E+03
      1.634  0.9374E+02  0.9316E+02  0.5222E+03  0.5219E+03
      1.696  0.7401E+02  0.7319E+02  0.5268E+03  0.5264E+03
      1.758  0.9876E+02  0.9200E+02  0.5329E+03  0.5321E+03
      1.819  0.1002E+03  0.1049E+03  0.5391E+03  0.5386E+03
      1.881  0.9998E+02  0.1052E+03  0.5453E+03  0.5452E+03
      1.943  0.9622E+02  0.9328E+02  0.5513E+03  0.5509E+03
      2.005  0.8337E+02  0.8197E+02  0.5564E+03  0.5560E+03
      2.067  0.1076E+03  0.1088E+03  0.5631E+03  0.5627E+03
      2.129  0.8755E+02  0.9072E+02  0.5685E+03  0.5684E+03
      2.191  0.1105E+03  0.1037E+03  0.5754E+03  0.5748E+03
      2.253  0.1088E+03  0.1118E+03  0.5821E+03  0.5817E+03
      2.315  0.7518E+02  0.7561E+02  0.5868E+03  0.5864E+03
      2.377  0.1074E+03  0.1045E+03  0.5934E+03  0.5929E+03
      2.438  0.9205E+02  0.9739E+02  0.5991E+03  0.5989E+03
      2.500  0.1226E+03  0.1210E+03  0.6067E+03  0.6064E+03
      2.562  0.9457E+02  0.9263E+02  0.6125E+03  0.6121E+03
      2.624  0.1120E+03  0.1134E+03  0.6195E+03  0.6191E+03
      2.686  0.1042E+03  0.1048E+03  0.6259E+03  0.6256E+03
      2.748  0.1360E+03  0.1336E+03  0.6344E+03  0.6339E+03
      2.810  0.1033E+03  0.1079E+03  0.6407E+03  0.6406E+03
      2.872  0.1310E+03  0.1274E+03  0.6489E+03  0.6485E+03
      2.934  0.1266E+03  0.1275E+03  0.6567E+03  0.6564E+03
      2.996  0.1300E+03  0.1318E+03  0.6648E+03  0.6645E+03
      3.058  0.1392E+03  0.1376E+03  0.6734E+03  0.6730E+03
      3.119  0.1215E+03  0.1213E+03  0.6809E+03  0.6806E+03
      3.181  0.1251E+03  0.1245E+03  0.6886E+03  0.6883E+03
      3.243  0.1196E+03  0.1170E+03  0.6960E+03  0.6955E+03
      3.305  0.1176E+03  0.1196E+03  0.7033E+03  0.7029E+03
      3.367  0.1115E+03  0.1131E+03  0.7102E+03  0.7099E+03
      3.429  0.1137E+03  0.1153E+03  0.7173E+03  0.7171E+03
      3.491  0.1367E+03  0.1346E+03  0.7257E+03  0.7254E+03
      3.553  0.1165E+03  0.1171E+03  0.7329E+03  0.7326E+03
      3.615  0.1086E+03  0.1098E+03  0.7397E+03  0.7394E+03
      3.677  0.1164E+03  0.1126E+03  0.7469E+03  0.7464E+03
      3.738  0.1157E+03  0.1150E+03  0.7540E+03  0.7535E+03
      3.800  0.1245E+03  0.1255E+03  0.7617E+03  0.7613E+03
      3.862  0.1140E+03  0.1102E+03  0.7688E+03  0.7681E+03
      3.924  0.1229E+03  0.1188E+03  0.7764E+03  0.7755E+03
      3.986  0.1146E+03  0.1197E+03  0.7835E+03  0.7829E+03
      4.048  0.1178E+03  0.1157E+03  0.7908E+03  0.7901E+03
      4.110  0.1092E+03  0.1118E+03  0.7976E+03  0.7970E+03
      4.172  0.1040E+03  0.1095E+03  0.8040E+03  0.8038E+03
      4.234  0.1142E+03  0.1031E+03  0.8111E+03  0.8101E+03
      4.296  0.1178E+03  0.1245E+03  0.8184E+03  0.8179E+03
      4.358  0.1075E+03  0.1140E+03  0.8250E+03  0.8249E+03
      4.419  0.1163E+03  0.1106E+03  0.8322E+03  0.8318E+03
      4.481  0.1234E+03  0.1234E+03  0.8399E+03  0.8394E+03
      4.543  0.1124E+03  0.1132E+03  0.8468E+03  0.8464E+03
      4.605  0.1146E+03  0.1193E+03  0.8539E+03  0.8538E+03
      4.667  0.1192E+03  0.1139E+03  0.8613E+03  0.8608E+03
      4.729  0.1029E+03  0.1064E+03  0.8677E+03  0.8674E+03
      4.791  0.1097E+03  0.9808E+02  0.8745E+03  0.8735E+03
      4.853  0.1070E+03  0.1088E+03  0.8811E+03  0.8802E+03
      4.915  0.9666E+02  0.1064E+03  0.8871E+03  0.8868E+03
      4.977  0.9843E+02  0.9781E+02  0.8932E+03  0.8929E+03
      5.039  0.9332E+02  0.8951E+02  0.8990E+03  0.8984E+03
      5.100  0.1069E+03  0.1035E+03  0.9056E+03  0.9048E+03
      5.162  0.9767E+02  0.9737E+02  0.9116E+03  0.9109E+03
      5.224  0.9745E+02  0.8805E+02  0.9177E+03  0.9163E+03
      5.286  0.1183E+03  0.1068E+03  0.9250E+03  0.9229E+03
      5.348  0.9901E+02  0.1027E+03  0.9311E+03  0.9293E+03
      5.410  0.1038E+03  0.8986E+02  0.9375E+03  0.9349E+03
      5.472  0.1110E+03  0.1148E+03  0.9444E+03  0.9420E+03
      5.534  0.9801E+02  0.9229E+02  0.9505E+03  0.9477E+03
      5.596  0.1044E+03  0.9696E+02  0.9569E+03  0.9537E+03
      5.658  0.9663E+02  0.9086E+02  0.9629E+03  0.9593E+03
      5.719  0.1011E+03  0.9987E+02  0.9692E+03  0.9655E+03
      5.781  0.1033E+03  0.1055E+03  0.9756E+03  0.9720E+03
      5.843  0.9869E+02  0.1060E+03  0.9817E+03  0.9786E+03
      5.905  0.1088E+03  0.1027E+03  0.9884E+03  0.9849E+03
      5.967  0.9642E+02  0.9519E+02  0.9944E+03  0.9908E+03
      6.029  0.1199E+03  0.1024E+03  0.1002E+04  0.9972E+03
      6.091  0.1092E+03  0.9751E+02  0.1009E+04  0.1003E+04
      6.153  0.1124E+03  0.1140E+03  0.1016E+04  0.1010E+04
      6.215  0.1134E+03  0.1205E+03  0.1023E+04  0.1018E+04
      6.277  0.1161E+03  0.1113E+03  0.1030E+04  0.1025E+04
      6.339  0.1075E+03  0.1077E+03  0.1036E+04  0.1031E+04
      6.400  0.9581E+02  0.1218E+03  0.1042E+04  0.1039E+04
      6.462  0.1231E+03  0.1188E+03  0.1050E+04  0.1046E+04
      6.524  0.1148E+03  0.1176E+03  0.1057E+04  0.1053E+04
      6.586  0.1238E+03  0.1340E+03  0.1065E+04  0.1062E+04
      6.648  0.1278E+03  0.1179E+03  0.1073E+04  0.1069E+04
      6.710  0.1260E+03  0.1291E+03  0.1080E+04  0.1077E+04
      6.772  0.1236E+03  0.1340E+03  0.1088E+04  0.1085E+04
      6.834  0.1258E+03  0.1266E+03  0.1096E+04  0.1093E+04
      6.896  0.9961E+02  0.1169E+03  0.1102E+04  0.1100E+04
      6.958  0.1157E+03  0.1086E+03  0.1109E+04  0.1107E+04
      7.019  0.1137E+03  0.1190E+03  0.1116E+04  0.1115E+04
      7.081  0.1072E+03  0.1253E+03  0.1123E+04  0.1122E+04
      7.143  0.1198E+03  0.1095E+03  0.1130E+04  0.1129E+04
      7.205  0.1182E+03  0.1221E+03  0.1138E+04  0.1137E+04
      7.267  0.1073E+03  0.1120E+03  0.1144E+04  0.1144E+04
      7.329  0.1281E+03  0.1214E+03  0.1152E+04  0.1151E+04
      7.391  0.1074E+03  0.1142E+03  0.1159E+04  0.1158E+04
      7.453  0.1264E+03  0.1175E+03  0.1167E+04  0.1165E+04
      7.515  0.1244E+03  0.1160E+03  0.1174E+04  0.1173E+04
      7.577  0.1173E+03  0.1244E+03  0.1182E+04  0.1180E+04
      7.639  0.1311E+03  0.1265E+03  0.1190E+04  0.1188E+04
      7.700  0.1329E+03  0.1178E+03  0.1198E+04  0.1195E+04
      7.762  0.1216E+03  0.1235E+03  0.1206E+04  0.1203E+04
      7.824  0.1221E+03  0.1121E+03  0.1213E+04  0.1210E+04
      7.886  0.1137E+03  0.1351E+03  0.1220E+04  0.1218E+04
      7.948  0.1373E+03  0.1346E+03  0.1229E+04  0.1227E+04
      8.010  0.1348E+03  0.1205E+03  0.1237E+04  0.1234E+04
      8.072  0.1268E+03  0.1360E+03  0.1245E+04  0.1243E+04
      8.134  0.1342E+03  0.1303E+03  0.1253E+04  0.1251E+04
      8.196  0.1193E+03  0.1282E+03  0.1261E+04  0.1259E+04
      8.258  0.1111E+03  0.1144E+03  0.1267E+04  0.1266E+04
      8.320  0.7037E+02  0.7397E+02  0.1272E+04  0.1270E+04
      8.381  0.4175E+01  0.2416E+02  0.1272E+04  0.1272E+04
      8.443  0.0000E+00  0.4035E+01  0.1272E+04  0.1272E+04
      8.505  0.0000E+00  0.0000E+00  0.1272E+04  0.1272E+04
      8.567  0.0000E+00  0.0000E+00  0.1272E+04  0.1272E+04
      8.629  0.0000E+00  0.0000E+00  0.1272E+04  0.1272E+04
      8.691  0.0000E+00  0.0000E+00  0.1272E+04  0.1272E+04
      8.753  0.0000E+00  0.0000E+00  0.1272E+04  0.1272E+04
      8.815  0.0000E+00  0.0000E+00  0.1272E+04  0.1272E+04
      8.877  0.0000E+00  0.0000E+00  0.1272E+04  0.1272E+04
      8.939  0.0000E+00  0.0000E+00  0.1272E+04  0.1272E+04
      9.000  0.0000E+00  0.0000E+00  0.1272E+04  0.1272E+04
      9.062  0.0000E+00  0.0000E+00  0.1272E+04  0.1272E+04
      9.124  0.0000E+00  0.0000E+00  0.1272E+04  0.1272E+04
      9.186  0.0000E+00  0.0000E+00  0.1272E+04  0.1272E+04
      9.248  0.0000E+00  0.0000E+00  0.1272E+04  0.1272E+04
