  48  48   0   0
  0.2323126E+02  0.8001338E-09  0.1265123E-08  0.1161174E-08  0.5000000E-15
  1.000000000000000E-004
  CAR 
 Si and Ge interface calculation         
      6.64383969    -11.17964668  301      3.36109201      1.00000000
    -11.180  0.0000E+00  0.0000E+00  0.0000E+00  0.0000E+00
    -11.120  0.0000E+00  0.0000E+00  0.0000E+00  0.0000E+00
    -11.061  0.0000E+00  0.0000E+00  0.0000E+00  0.0000E+00
    -11.001  0.0000E+00  0.0000E+00  0.0000E+00  0.0000E+00
    -10.942  0.0000E+00  0.0000E+00  0.0000E+00  0.0000E+00
    -10.883  0.0000E+00  0.0000E+00  0.0000E+00  0.0000E+00
    -10.823  0.0000E+00  0.0000E+00  0.0000E+00  0.0000E+00
    -10.764  0.0000E+00  0.0000E+00  0.0000E+00  0.0000E+00
    -10.704  0.0000E+00  0.0000E+00  0.0000E+00  0.0000E+00
    -10.645  0.0000E+00  0.0000E+00  0.0000E+00  0.0000E+00
    -10.586  0.0000E+00  0.0000E+00  0.0000E+00  0.0000E+00
    -10.526  0.0000E+00  0.0000E+00  0.0000E+00  0.0000E+00
    -10.467  0.0000E+00  0.0000E+00  0.0000E+00  0.0000E+00
    -10.407  0.4206E-07  0.5191E-16  0.2499E-08  0.3084E-17
    -10.348  0.6895E+01  0.9039E+00  0.4096E+00  0.5370E-01
    -10.288  0.1520E+01  0.7512E+01  0.5000E+00  0.5000E+00
    -10.229  0.2368E+01  0.6136E-02  0.6407E+00  0.5004E+00
    -10.170  0.2287E+02  0.2294E+02  0.1999E+01  0.1863E+01
    -10.110  0.1149E-01  0.2295E+01  0.2000E+01  0.2000E+01
    -10.051  0.1380E+02  0.7470E+00  0.2820E+01  0.2044E+01
     -9.991  0.3036E+01  0.1608E+02  0.3000E+01  0.3000E+01
     -9.932  0.0000E+00  0.0000E+00  0.3000E+01  0.3000E+01
     -9.873  0.4004E-12  0.0000E+00  0.3000E+01  0.3000E+01
     -9.813  0.5200E+01  0.9090E-01  0.3309E+01  0.3005E+01
     -9.754  0.1163E+02  0.1674E+02  0.4000E+01  0.4000E+01
     -9.694  0.8539E-07  0.0000E+00  0.4000E+01  0.4000E+01
     -9.635  0.1591E+02  0.3617E+01  0.4945E+01  0.4215E+01
     -9.576  0.9156E+00  0.1321E+02  0.5000E+01  0.5000E+01
     -9.516  0.0000E+00  0.0000E+00  0.5000E+01  0.5000E+01
     -9.457  0.0000E+00  0.0000E+00  0.5000E+01  0.5000E+01
     -9.397  0.0000E+00  0.0000E+00  0.5000E+01  0.5000E+01
     -9.338  0.0000E+00  0.0000E+00  0.5000E+01  0.5000E+01
     -9.278  0.0000E+00  0.0000E+00  0.5000E+01  0.5000E+01
     -9.219  0.1305E-10  0.0000E+00  0.5000E+01  0.5000E+01
     -9.160  0.7483E+01  0.2750E+00  0.5445E+01  0.5016E+01
     -9.100  0.9348E+01  0.1656E+02  0.6000E+01  0.6000E+01
     -9.041  0.1885E-03  0.5218E-11  0.6000E+01  0.6000E+01
     -8.981  0.1680E+02  0.1194E+02  0.6998E+01  0.6709E+01
     -8.922  0.2968E-01  0.4891E+01  0.7000E+01  0.7000E+01
     -8.863  0.0000E+00  0.0000E+00  0.7000E+01  0.7000E+01
     -8.803  0.6787E-02  0.8829E-05  0.7000E+01  0.7000E+01
     -8.744  0.3012E+01  0.1975E+01  0.7179E+01  0.7117E+01
     -8.684  0.3588E+01  0.4567E+01  0.7393E+01  0.7389E+01
     -8.625  0.9107E+01  0.7736E+01  0.7934E+01  0.7848E+01
     -8.566  0.1260E+02  0.6836E+01  0.8682E+01  0.8254E+01
     -8.506  0.8583E+01  0.1446E+02  0.9192E+01  0.9113E+01
     -8.447  0.1438E+02  0.1460E+02  0.1005E+02  0.9981E+01
     -8.387  0.2021E+01  0.3130E+01  0.1017E+02  0.1017E+02
     -8.328  0.8375E-02  0.1277E-04  0.1017E+02  0.1017E+02
     -8.268  0.1097E+02  0.9028E+01  0.1082E+02  0.1070E+02
     -8.209  0.1219E+02  0.1107E+02  0.1154E+02  0.1136E+02
     -8.150  0.6535E+01  0.7287E+01  0.1193E+02  0.1179E+02
     -8.090  0.6744E+01  0.8464E+01  0.1233E+02  0.1230E+02
     -8.031  0.4084E+01  0.2611E+01  0.1257E+02  0.1245E+02
     -7.971  0.3740E+01  0.2969E+01  0.1280E+02  0.1263E+02
     -7.912  0.7586E+01  0.9974E+01  0.1325E+02  0.1322E+02
     -7.853  0.1078E+02  0.1054E+02  0.1389E+02  0.1385E+02
     -7.793  0.5260E+01  0.3783E+01  0.1420E+02  0.1407E+02
     -7.734  0.1488E+02  0.1370E+02  0.1508E+02  0.1489E+02
     -7.674  0.1351E+02  0.1504E+02  0.1589E+02  0.1578E+02
     -7.615  0.3758E+01  0.4765E+01  0.1611E+02  0.1606E+02
     -7.556  0.1922E+02  0.1352E+02  0.1725E+02  0.1687E+02
     -7.496  0.2448E+02  0.2646E+02  0.1871E+02  0.1844E+02
     -7.437  0.1548E+02  0.1698E+02  0.1963E+02  0.1945E+02
     -7.377  0.1220E+02  0.1129E+02  0.2035E+02  0.2012E+02
     -7.318  0.1416E+02  0.1355E+02  0.2119E+02  0.2092E+02
     -7.258  0.1339E+02  0.1413E+02  0.2199E+02  0.2176E+02
     -7.199  0.1891E+02  0.1947E+02  0.2311E+02  0.2292E+02
     -7.140  0.1306E+02  0.1519E+02  0.2389E+02  0.2382E+02
     -7.080  0.1059E+02  0.7080E+01  0.2452E+02  0.2424E+02
     -7.021  0.3385E+02  0.2850E+02  0.2653E+02  0.2594E+02
     -6.961  0.2522E+02  0.2913E+02  0.2803E+02  0.2767E+02
     -6.902  0.1379E+02  0.1582E+02  0.2885E+02  0.2861E+02
     -6.843  0.2214E+02  0.1819E+02  0.3016E+02  0.2969E+02
     -6.783  0.1925E+02  0.2240E+02  0.3130E+02  0.3102E+02
     -6.724  0.1700E+02  0.1745E+02  0.3231E+02  0.3206E+02
     -6.664  0.1055E+02  0.8073E+01  0.3294E+02  0.3254E+02
     -6.605  0.2050E+02  0.2324E+02  0.3416E+02  0.3392E+02
     -6.546  0.1247E+02  0.1465E+02  0.3490E+02  0.3479E+02
     -6.486  0.1136E+02  0.1015E+02  0.3558E+02  0.3539E+02
     -6.427  0.1447E+02  0.1313E+02  0.3644E+02  0.3617E+02
     -6.367  0.1320E+02  0.1482E+02  0.3722E+02  0.3705E+02
     -6.308  0.6846E+01  0.6939E+01  0.3763E+02  0.3746E+02
     -6.248  0.8078E+01  0.9494E+01  0.3811E+02  0.3803E+02
     -6.189  0.1773E+02  0.1586E+02  0.3916E+02  0.3897E+02
     -6.130  0.1784E+02  0.1583E+02  0.4022E+02  0.3991E+02
     -6.070  0.2906E+01  0.8053E+01  0.4039E+02  0.4039E+02
     -6.011  0.7734E+01  0.6231E+01  0.4085E+02  0.4076E+02
     -5.951  0.1088E+02  0.1076E+02  0.4150E+02  0.4140E+02
     -5.892  0.7250E+01  0.6916E+01  0.4193E+02  0.4181E+02
     -5.833  0.5519E+01  0.4725E+01  0.4226E+02  0.4209E+02
     -5.773  0.1524E+02  0.1516E+02  0.4316E+02  0.4299E+02
     -5.714  0.1246E+02  0.9080E+01  0.4390E+02  0.4353E+02
     -5.654  0.1273E+02  0.1417E+02  0.4466E+02  0.4437E+02
     -5.595  0.1501E+02  0.1772E+02  0.4555E+02  0.4543E+02
     -5.536  0.7606E+01  0.8014E+01  0.4600E+02  0.4590E+02
     -5.476  0.8896E+01  0.8872E+01  0.4653E+02  0.4643E+02
     -5.417  0.6632E+01  0.4430E+01  0.4693E+02  0.4669E+02
     -5.357  0.1289E+02  0.1428E+02  0.4769E+02  0.4754E+02
     -5.298  0.8446E+01  0.7483E+01  0.4819E+02  0.4798E+02
     -5.238  0.1590E+02  0.1551E+02  0.4914E+02  0.4891E+02
     -5.179  0.9205E+01  0.5674E+01  0.4968E+02  0.4924E+02
     -5.120  0.7831E+01  0.1233E+02  0.5015E+02  0.4998E+02
     -5.060  0.1323E+02  0.1261E+02  0.5094E+02  0.5073E+02
     -5.001  0.7574E+01  0.7949E+01  0.5139E+02  0.5120E+02
     -4.941  0.1006E+02  0.1068E+02  0.5198E+02  0.5183E+02
     -4.882  0.5204E+01  0.4766E+01  0.5229E+02  0.5212E+02
     -4.823  0.6113E+01  0.7389E+01  0.5266E+02  0.5255E+02
     -4.763  0.7888E+01  0.5884E+01  0.5312E+02  0.5290E+02
     -4.704  0.1592E+02  0.1205E+02  0.5407E+02  0.5362E+02
     -4.644  0.3010E+02  0.3376E+02  0.5586E+02  0.5563E+02
     -4.585  0.1049E+02  0.9498E+01  0.5648E+02  0.5619E+02
     -4.526  0.1543E+02  0.1907E+02  0.5740E+02  0.5732E+02
     -4.466  0.9472E+01  0.5885E+01  0.5796E+02  0.5767E+02
     -4.407  0.3927E+01  0.7234E+01  0.5819E+02  0.5810E+02
     -4.347  0.8515E+01  0.6795E+01  0.5870E+02  0.5851E+02
     -4.288  0.1806E+02  0.1437E+02  0.5977E+02  0.5936E+02
     -4.228  0.2928E+02  0.2917E+02  0.6151E+02  0.6109E+02
     -4.169  0.1490E+02  0.1573E+02  0.6240E+02  0.6203E+02
     -4.110  0.1938E+02  0.1966E+02  0.6355E+02  0.6320E+02
     -4.050  0.1488E+02  0.1600E+02  0.6443E+02  0.6415E+02
     -3.991  0.2478E+02  0.2249E+02  0.6591E+02  0.6548E+02
     -3.931  0.9763E+01  0.1505E+02  0.6649E+02  0.6638E+02
     -3.872  0.2038E+02  0.1879E+02  0.6770E+02  0.6749E+02
     -3.813  0.1703E+02  0.1806E+02  0.6871E+02  0.6857E+02
     -3.753  0.1069E+02  0.1034E+02  0.6934E+02  0.6918E+02
     -3.694  0.1096E+02  0.1087E+02  0.7000E+02  0.6983E+02
     -3.634  0.1330E+02  0.8641E+01  0.7079E+02  0.7034E+02
     -3.575  0.2501E+02  0.2515E+02  0.7227E+02  0.7183E+02
     -3.516  0.6611E+01  0.1287E+02  0.7267E+02  0.7260E+02
     -3.456  0.2008E+02  0.1149E+02  0.7386E+02  0.7328E+02
     -3.397  0.1238E+02  0.1625E+02  0.7459E+02  0.7425E+02
     -3.337  0.1652E+02  0.1474E+02  0.7558E+02  0.7512E+02
     -3.278  0.2206E+02  0.2361E+02  0.7689E+02  0.7653E+02
     -3.218  0.1387E+02  0.1547E+02  0.7771E+02  0.7745E+02
     -3.159  0.6363E+01  0.9570E+01  0.7809E+02  0.7801E+02
     -3.100  0.5063E+01  0.6233E+01  0.7839E+02  0.7838E+02
     -3.040  0.6412E+01  0.2944E+01  0.7877E+02  0.7856E+02
     -2.981  0.8953E+01  0.1080E+02  0.7930E+02  0.7920E+02
     -2.921  0.6928E+01  0.6943E+01  0.7971E+02  0.7961E+02
     -2.862  0.8015E+01  0.8384E+01  0.8019E+02  0.8011E+02
     -2.803  0.5951E+01  0.6102E+01  0.8054E+02  0.8047E+02
     -2.743  0.1270E+02  0.1011E+02  0.8130E+02  0.8107E+02
     -2.684  0.5549E+01  0.6301E+01  0.8163E+02  0.8145E+02
     -2.624  0.6281E+01  0.6390E+01  0.8200E+02  0.8183E+02
     -2.565  0.1216E+02  0.1155E+02  0.8272E+02  0.8252E+02
     -2.506  0.1423E+02  0.1154E+02  0.8357E+02  0.8320E+02
     -2.446  0.1074E+02  0.1416E+02  0.8421E+02  0.8404E+02
     -2.387  0.7767E+01  0.8799E+01  0.8467E+02  0.8456E+02
     -2.327  0.9338E+01  0.8884E+01  0.8522E+02  0.8509E+02
     -2.268  0.6310E+01  0.5899E+01  0.8560E+02  0.8544E+02
     -2.208  0.7920E+01  0.5193E+01  0.8607E+02  0.8575E+02
     -2.149  0.1726E+02  0.1236E+02  0.8709E+02  0.8649E+02
     -2.090  0.6826E+01  0.1613E+02  0.8750E+02  0.8744E+02
     -2.030  0.9857E+01  0.7073E+01  0.8808E+02  0.8786E+02
     -1.971  0.8296E+01  0.8744E+01  0.8858E+02  0.8838E+02
     -1.911  0.1949E+01  0.4750E+01  0.8869E+02  0.8867E+02
     -1.852  0.5730E+01  0.5558E+01  0.8903E+02  0.8900E+02
     -1.793  0.1079E+02  0.8259E+01  0.8968E+02  0.8949E+02
     -1.733  0.4127E+01  0.4939E+01  0.8992E+02  0.8978E+02
     -1.674  0.8688E+01  0.6799E+01  0.9044E+02  0.9019E+02
     -1.614  0.5744E+01  0.9818E+01  0.9078E+02  0.9077E+02
     -1.555  0.3706E+01  0.2055E+01  0.9100E+02  0.9089E+02
     -1.496  0.3609E+01  0.2497E+01  0.9121E+02  0.9104E+02
     -1.436  0.2929E+01  0.4943E+01  0.9139E+02  0.9133E+02
     -1.377  0.6202E+01  0.4900E+01  0.9175E+02  0.9162E+02
     -1.317  0.6458E+01  0.7243E+01  0.9214E+02  0.9205E+02
     -1.258  0.3311E+01  0.4694E+01  0.9234E+02  0.9233E+02
     -1.198  0.1242E+02  0.4870E+01  0.9307E+02  0.9262E+02
     -1.139  0.6639E+01  0.1196E+02  0.9347E+02  0.9333E+02
     -1.080  0.1376E+02  0.1330E+02  0.9429E+02  0.9412E+02
     -1.020  0.1926E+02  0.1629E+02  0.9543E+02  0.9509E+02
     -0.961  0.2289E+02  0.2048E+02  0.9679E+02  0.9631E+02
     -0.901  0.1384E+02  0.2190E+02  0.9761E+02  0.9761E+02
     -0.842  0.1327E+02  0.5051E+01  0.9840E+02  0.9791E+02
     -0.783  0.1957E+02  0.2273E+02  0.9956E+02  0.9926E+02
     -0.723  0.2687E+02  0.2529E+02  0.1012E+03  0.1008E+03
     -0.664  0.1242E+02  0.1210E+02  0.1019E+03  0.1015E+03
     -0.604  0.2572E+02  0.2699E+02  0.1034E+03  0.1031E+03
     -0.545  0.1615E+02  0.1588E+02  0.1044E+03  0.1040E+03
     -0.486  0.2413E+02  0.2332E+02  0.1058E+03  0.1054E+03
     -0.426  0.2487E+02  0.2396E+02  0.1073E+03  0.1068E+03
     -0.367  0.3315E+02  0.2878E+02  0.1093E+03  0.1085E+03
     -0.307  0.2680E+02  0.3705E+02  0.1109E+03  0.1107E+03
     -0.248  0.3213E+02  0.2193E+02  0.1128E+03  0.1121E+03
     -0.188  0.1995E+02  0.2399E+02  0.1140E+03  0.1135E+03
     -0.129  0.2214E+02  0.2547E+02  0.1153E+03  0.1150E+03
     -0.070  0.2672E+02  0.2577E+02  0.1169E+03  0.1165E+03
     -0.010  0.2253E+02  0.2306E+02  0.1182E+03  0.1179E+03
      0.049  0.2624E+02  0.1997E+02  0.1198E+03  0.1191E+03
      0.109  0.3061E+02  0.3006E+02  0.1216E+03  0.1209E+03
      0.168  0.1520E+02  0.2185E+02  0.1225E+03  0.1222E+03
      0.227  0.2177E+02  0.2054E+02  0.1238E+03  0.1234E+03
      0.287  0.1748E+02  0.2209E+02  0.1248E+03  0.1247E+03
      0.346  0.2713E+02  0.2161E+02  0.1264E+03  0.1260E+03
      0.406  0.2454E+02  0.2431E+02  0.1279E+03  0.1274E+03
      0.465  0.1750E+02  0.2091E+02  0.1289E+03  0.1287E+03
      0.524  0.3037E+02  0.2899E+02  0.1307E+03  0.1304E+03
      0.584  0.3084E+02  0.2825E+02  0.1326E+03  0.1321E+03
      0.643  0.2706E+02  0.2898E+02  0.1342E+03  0.1338E+03
      0.703  0.3362E+02  0.2844E+02  0.1362E+03  0.1355E+03
      0.762  0.2521E+02  0.2871E+02  0.1377E+03  0.1372E+03
      0.822  0.2686E+02  0.2668E+02  0.1393E+03  0.1388E+03
      0.881  0.2862E+02  0.3191E+02  0.1410E+03  0.1407E+03
      0.940  0.3177E+02  0.2598E+02  0.1428E+03  0.1422E+03
      1.000  0.3653E+02  0.3792E+02  0.1450E+03  0.1445E+03
      1.059  0.2162E+02  0.2089E+02  0.1463E+03  0.1457E+03
      1.119  0.2835E+02  0.3178E+02  0.1480E+03  0.1476E+03
      1.178  0.3165E+02  0.3003E+02  0.1499E+03  0.1494E+03
      1.237  0.2534E+02  0.2494E+02  0.1514E+03  0.1509E+03
      1.297  0.1530E+02  0.2204E+02  0.1523E+03  0.1522E+03
      1.356  0.1754E+02  0.1185E+02  0.1533E+03  0.1529E+03
      1.416  0.2569E+02  0.2656E+02  0.1548E+03  0.1544E+03
      1.475  0.1942E+02  0.2137E+02  0.1560E+03  0.1557E+03
      1.534  0.2116E+02  0.2082E+02  0.1573E+03  0.1570E+03
      1.594  0.2166E+02  0.1950E+02  0.1585E+03  0.1581E+03
      1.653  0.1925E+02  0.1804E+02  0.1597E+03  0.1592E+03
      1.713  0.2604E+02  0.2387E+02  0.1612E+03  0.1606E+03
      1.772  0.1999E+02  0.2385E+02  0.1624E+03  0.1620E+03
      1.831  0.2398E+02  0.2054E+02  0.1638E+03  0.1632E+03
      1.891  0.1466E+02  0.2095E+02  0.1647E+03  0.1645E+03
      1.950  0.2257E+02  0.2143E+02  0.1661E+03  0.1658E+03
      2.010  0.2958E+02  0.2181E+02  0.1678E+03  0.1671E+03
      2.069  0.2485E+02  0.2830E+02  0.1693E+03  0.1687E+03
      2.129  0.2151E+02  0.1686E+02  0.1706E+03  0.1697E+03
      2.188  0.2827E+02  0.2971E+02  0.1722E+03  0.1715E+03
      2.247  0.2049E+02  0.2417E+02  0.1735E+03  0.1729E+03
      2.307  0.1782E+02  0.2163E+02  0.1745E+03  0.1742E+03
      2.366  0.1693E+02  0.1830E+02  0.1755E+03  0.1753E+03
      2.426  0.1645E+02  0.1505E+02  0.1765E+03  0.1762E+03
      2.485  0.9144E+01  0.9057E+01  0.1771E+03  0.1767E+03
      2.544  0.2051E+02  0.1916E+02  0.1783E+03  0.1779E+03
      2.604  0.2474E+02  0.1670E+02  0.1797E+03  0.1789E+03
      2.663  0.3292E+02  0.2850E+02  0.1817E+03  0.1806E+03
      2.723  0.1590E+02  0.2921E+02  0.1826E+03  0.1823E+03
      2.782  0.7115E+01  0.1055E+02  0.1831E+03  0.1829E+03
      2.841  0.1545E+02  0.5203E+01  0.1840E+03  0.1832E+03
      2.901  0.1419E+02  0.1732E+02  0.1848E+03  0.1843E+03
      2.960  0.1308E+02  0.1751E+02  0.1856E+03  0.1853E+03
      3.020  0.9423E+01  0.7955E+01  0.1862E+03  0.1858E+03
      3.079  0.1460E+02  0.1254E+02  0.1870E+03  0.1865E+03
      3.139  0.1997E+02  0.1435E+02  0.1882E+03  0.1874E+03
      3.198  0.1810E+02  0.2206E+02  0.1893E+03  0.1887E+03
      3.257  0.8326E+01  0.1334E+02  0.1898E+03  0.1895E+03
      3.317  0.1810E+02  0.1326E+02  0.1909E+03  0.1903E+03
      3.376  0.1704E+02  0.1565E+02  0.1919E+03  0.1912E+03
      3.436  0.2196E+02  0.2109E+02  0.1932E+03  0.1925E+03
      3.495  0.6601E+01  0.1453E+02  0.1936E+03  0.1933E+03
      3.554  0.1376E+02  0.7014E+01  0.1944E+03  0.1937E+03
      3.614  0.1791E+02  0.1956E+02  0.1955E+03  0.1949E+03
      3.673  0.1817E+02  0.1399E+02  0.1965E+03  0.1957E+03
      3.733  0.1916E+02  0.2113E+02  0.1977E+03  0.1970E+03
      3.792  0.1634E+02  0.1663E+02  0.1986E+03  0.1980E+03
      3.851  0.1073E+02  0.1804E+02  0.1993E+03  0.1990E+03
      3.911  0.8411E+01  0.9270E+01  0.1998E+03  0.1996E+03
      3.970  0.2046E+02  0.1392E+02  0.2010E+03  0.2004E+03
      4.030  0.1456E+02  0.2003E+02  0.2019E+03  0.2016E+03
      4.089  0.1608E+02  0.9265E+01  0.2028E+03  0.2022E+03
      4.149  0.1510E+02  0.1835E+02  0.2037E+03  0.2033E+03
      4.208  0.1532E+02  0.1611E+02  0.2046E+03  0.2042E+03
      4.267  0.9734E+01  0.9669E+01  0.2052E+03  0.2048E+03
      4.327  0.1314E+02  0.1399E+02  0.2060E+03  0.2056E+03
      4.386  0.1394E+02  0.1121E+02  0.2068E+03  0.2063E+03
      4.446  0.1762E+02  0.2344E+02  0.2079E+03  0.2077E+03
      4.505  0.9022E+01  0.7417E+01  0.2084E+03  0.2081E+03
      4.564  0.1522E+02  0.1198E+02  0.2093E+03  0.2088E+03
      4.624  0.1155E+02  0.1559E+02  0.2100E+03  0.2098E+03
      4.683  0.2411E+02  0.1888E+02  0.2114E+03  0.2109E+03
      4.743  0.1970E+02  0.2307E+02  0.2126E+03  0.2122E+03
      4.802  0.1572E+02  0.1625E+02  0.2135E+03  0.2132E+03
      4.861  0.1437E+02  0.1133E+02  0.2144E+03  0.2139E+03
      4.921  0.3169E+02  0.3148E+02  0.2163E+03  0.2158E+03
      4.980  0.1412E+02  0.1763E+02  0.2171E+03  0.2168E+03
      5.040  0.1433E+02  0.1218E+02  0.2179E+03  0.2175E+03
      5.099  0.2612E+02  0.2346E+02  0.2195E+03  0.2189E+03
      5.159  0.1818E+02  0.2357E+02  0.2206E+03  0.2203E+03
      5.218  0.2859E+02  0.2387E+02  0.2223E+03  0.2217E+03
      5.277  0.3388E+02  0.2959E+02  0.2243E+03  0.2235E+03
      5.337  0.1763E+02  0.2318E+02  0.2253E+03  0.2249E+03
      5.396  0.2454E+02  0.2171E+02  0.2268E+03  0.2262E+03
      5.456  0.9997E+01  0.1637E+02  0.2274E+03  0.2271E+03
      5.515  0.2515E+02  0.2554E+02  0.2289E+03  0.2287E+03
      5.574  0.2587E+02  0.2408E+02  0.2304E+03  0.2301E+03
      5.634  0.1523E+02  0.1385E+02  0.2313E+03  0.2309E+03
      5.693  0.4264E+01  0.1094E+02  0.2316E+03  0.2316E+03
      5.753  0.5155E+01  0.3374E+01  0.2319E+03  0.2318E+03
      5.812  0.1619E+01  0.2219E+01  0.2320E+03  0.2319E+03
      5.871  0.2621E+00  0.1868E+01  0.2320E+03  0.2320E+03
      5.931  0.0000E+00  0.0000E+00  0.2320E+03  0.2320E+03
      5.990  0.0000E+00  0.0000E+00  0.2320E+03  0.2320E+03
      6.050  0.0000E+00  0.0000E+00  0.2320E+03  0.2320E+03
      6.109  0.0000E+00  0.0000E+00  0.2320E+03  0.2320E+03
      6.169  0.0000E+00  0.0000E+00  0.2320E+03  0.2320E+03
      6.228  0.0000E+00  0.0000E+00  0.2320E+03  0.2320E+03
      6.287  0.0000E+00  0.0000E+00  0.2320E+03  0.2320E+03
      6.347  0.0000E+00  0.0000E+00  0.2320E+03  0.2320E+03
      6.406  0.0000E+00  0.0000E+00  0.2320E+03  0.2320E+03
      6.466  0.0000E+00  0.0000E+00  0.2320E+03  0.2320E+03
      6.525  0.0000E+00  0.0000E+00  0.2320E+03  0.2320E+03
      6.584  0.0000E+00  0.0000E+00  0.2320E+03  0.2320E+03
      6.644  0.0000E+00  0.0000E+00  0.2320E+03  0.2320E+03
