Si and Ge interface calculation         
           1
     8.001338    0.000000    0.000000
     4.000669   12.002007    0.000000
     0.000000    0.000000   11.611744
   Ge
    48
Direct configuration=     1
   0.66097212  0.66097212  0.00000000
   0.49430537  0.49430546  0.24362403
   0.32763863  0.32763877  0.48724809
   0.32763880  0.32763880  0.00000000
   0.16097209  0.16097215  0.24362403
   0.99430531  0.99430549  0.48724809
   0.99430549  0.99430549  0.00000000
   0.82763880  0.82763886  0.24362403
   0.66097200  0.66097218  0.48724809
   0.41097209  0.66097206  0.12181202
   0.24430537  0.49430540  0.36543608
   0.07763863  0.32763872  0.60906017
   0.74430549  0.99430549  0.12181202
   0.57763869  0.82763886  0.36543608
   0.41097194  0.66097212  0.60906017
   0.07763884  0.32763884  0.12181202
   0.91097212  0.16097215  0.36543608
   0.74430537  0.99430543  0.60906017
   0.82763875  0.32763884  0.00000000
   0.66097206  0.16097218  0.24362403
   0.49430531  0.99430549  0.48724809
   0.16097221  0.66097212  0.00000000
   0.99430549  0.49430549  0.24362403
   0.82763875  0.32763877  0.48724809
   0.49430543  0.99430549  0.00000000
   0.32763872  0.82763886  0.24362403
   0.16097200  0.66097212  0.48724809
   0.91097230  0.66097206  0.12181202
   0.74430549  0.49430540  0.36543608
   0.57763875  0.32763872  0.60906017
   0.57763880  0.32763884  0.12181202
   0.41097203  0.16097215  0.36543608
   0.24430528  0.99430543  0.60906017
   0.24430548  0.99430549  0.12181202
   0.07763872  0.82763886  0.36543608
   0.91097200  0.66097212  0.60906017
   0.16659999  0.71949363  0.70301998
   0.05548882  0.44171584  0.78422803
   0.94437766  0.16393805  0.86543608
   0.66659993  0.71949363  0.70301998
   0.55548876  0.44171572  0.78422803
   0.44437763  0.16393805  0.86543608
   0.86104429  0.83060467  0.74362403
   0.74993312  0.55282688  0.82483208
   0.63882196  0.27504897  0.90604013
   0.36104435  0.83060467  0.74362403
   0.24993320  0.55282688  0.82483208
   0.13882208  0.27504897  0.90604013
