  96  96   0   0
  0.2155260E+02  0.1789154E-08  0.1789153E-08  0.1482856E-08  0.5000000E-15
  1.000000000000000E-004
  CAR 
 Si and Ge interface calculation         
      7.09137035    -14.45241047  301      4.06077940      1.00000000
    -14.452  0.0000E+00  0.0000E+00  0.0000E+00  0.0000E+00
    -14.381  0.0000E+00  0.0000E+00  0.0000E+00  0.0000E+00
    -14.309  0.0000E+00  0.0000E+00  0.0000E+00  0.0000E+00
    -14.237  0.0000E+00  0.0000E+00  0.0000E+00  0.0000E+00
    -14.165  0.0000E+00  0.0000E+00  0.0000E+00  0.0000E+00
    -14.093  0.0000E+00  0.0000E+00  0.0000E+00  0.0000E+00
    -14.022  0.0000E+00  0.0000E+00  0.0000E+00  0.0000E+00
    -13.950  0.0000E+00  0.0000E+00  0.0000E+00  0.0000E+00
    -13.878  0.0000E+00  0.0000E+00  0.0000E+00  0.0000E+00
    -13.806  0.0000E+00  0.0000E+00  0.0000E+00  0.0000E+00
    -13.734  0.0000E+00  0.0000E+00  0.0000E+00  0.0000E+00
    -13.662  0.0000E+00  0.0000E+00  0.0000E+00  0.0000E+00
    -13.591  0.0000E+00  0.0000E+00  0.0000E+00  0.0000E+00
    -13.519  0.3572E-09  0.3015E-12  0.2565E-10  0.2165E-13
    -13.447  0.1233E+02  0.8448E+01  0.8854E+00  0.6067E+00
    -13.375  0.1595E+01  0.5453E+01  0.1000E+01  0.1000E+01
    -13.303  0.2703E+02  0.2118E+02  0.2941E+01  0.2521E+01
    -13.232  0.0000E+00  0.6672E+01  0.3000E+01  0.3000E+01
    -13.160  0.0000E+00  0.0000E+00  0.3000E+01  0.3000E+01
    -13.088  0.0000E+00  0.0000E+00  0.3000E+01  0.3000E+01
    -13.016  0.0000E+00  0.0000E+00  0.3000E+01  0.3000E+01
    -12.944  0.2308E+00  0.1062E-01  0.3017E+01  0.3001E+01
    -12.873  0.2750E+02  0.2607E+02  0.4991E+01  0.4873E+01
    -12.801  0.0000E+00  0.1767E+01  0.5000E+01  0.5000E+01
    -12.729  0.0000E+00  0.0000E+00  0.5000E+01  0.5000E+01
    -12.657  0.0000E+00  0.0000E+00  0.5000E+01  0.5000E+01
    -12.585  0.0000E+00  0.0000E+00  0.5000E+01  0.5000E+01
    -12.513  0.0000E+00  0.0000E+00  0.5000E+01  0.5000E+01
    -12.442  0.0000E+00  0.0000E+00  0.5000E+01  0.5000E+01
    -12.370  0.0000E+00  0.0000E+00  0.5000E+01  0.5000E+01
    -12.298  0.3677E+01  0.8472E+00  0.5264E+01  0.5061E+01
    -12.226  0.2417E+02  0.2700E+02  0.7000E+01  0.7000E+01
    -12.154  0.0000E+00  0.0000E+00  0.7000E+01  0.7000E+01
    -12.083  0.0000E+00  0.0000E+00  0.7000E+01  0.7000E+01
    -12.011  0.0000E+00  0.0000E+00  0.7000E+01  0.7000E+01
    -11.939  0.0000E+00  0.0000E+00  0.7000E+01  0.7000E+01
    -11.867  0.0000E+00  0.0000E+00  0.7000E+01  0.7000E+01
    -11.795  0.1587E+01  0.4401E+00  0.7114E+01  0.7032E+01
    -11.724  0.1234E+02  0.1348E+02  0.8000E+01  0.8000E+01
    -11.652  0.0000E+00  0.0000E+00  0.8000E+01  0.8000E+01
    -11.580  0.0000E+00  0.0000E+00  0.8000E+01  0.8000E+01
    -11.508  0.0000E+00  0.0000E+00  0.8000E+01  0.8000E+01
    -11.436  0.0000E+00  0.0000E+00  0.8000E+01  0.8000E+01
    -11.364  0.0000E+00  0.0000E+00  0.8000E+01  0.8000E+01
    -11.293  0.0000E+00  0.0000E+00  0.8000E+01  0.8000E+01
    -11.221  0.0000E+00  0.0000E+00  0.8000E+01  0.8000E+01
    -11.149  0.0000E+00  0.0000E+00  0.8000E+01  0.8000E+01
    -11.077  0.0000E+00  0.0000E+00  0.8000E+01  0.8000E+01
    -11.005  0.0000E+00  0.0000E+00  0.8000E+01  0.8000E+01
    -10.934  0.0000E+00  0.0000E+00  0.8000E+01  0.8000E+01
    -10.862  0.0000E+00  0.0000E+00  0.8000E+01  0.8000E+01
    -10.790  0.0000E+00  0.0000E+00  0.8000E+01  0.8000E+01
    -10.718  0.0000E+00  0.0000E+00  0.8000E+01  0.8000E+01
    -10.646  0.0000E+00  0.0000E+00  0.8000E+01  0.8000E+01
    -10.575  0.0000E+00  0.0000E+00  0.8000E+01  0.8000E+01
    -10.503  0.0000E+00  0.0000E+00  0.8000E+01  0.8000E+01
    -10.431  0.1694E-01  0.8553E-04  0.8001E+01  0.8000E+01
    -10.359  0.1391E+02  0.1366E+02  0.9000E+01  0.8981E+01
    -10.287  0.0000E+00  0.0000E+00  0.9000E+01  0.9000E+01
    -10.215  0.0000E+00  0.0000E+00  0.9000E+01  0.9000E+01
    -10.144  0.0000E+00  0.0000E+00  0.9000E+01  0.9000E+01
    -10.072  0.0000E+00  0.0000E+00  0.9000E+01  0.9000E+01
    -10.000  0.0000E+00  0.0000E+00  0.9000E+01  0.9000E+01
     -9.928  0.0000E+00  0.0000E+00  0.9000E+01  0.9000E+01
     -9.856  0.0000E+00  0.0000E+00  0.9000E+01  0.9000E+01
     -9.785  0.0000E+00  0.0000E+00  0.9000E+01  0.9000E+01
     -9.713  0.1869E-06  0.5329E-10  0.9000E+01  0.9000E+01
     -9.641  0.2699E+02  0.1848E+02  0.1094E+02  0.1033E+02
     -9.569  0.0000E+00  0.9363E+01  0.1100E+02  0.1100E+02
     -9.497  0.0000E+00  0.0000E+00  0.1100E+02  0.1100E+02
     -9.426  0.0000E+00  0.0000E+00  0.1100E+02  0.1100E+02
     -9.354  0.0000E+00  0.0000E+00  0.1100E+02  0.1100E+02
     -9.282  0.0000E+00  0.0000E+00  0.1100E+02  0.1100E+02
     -9.210  0.0000E+00  0.0000E+00  0.1100E+02  0.1100E+02
     -9.138  0.0000E+00  0.0000E+00  0.1100E+02  0.1100E+02
     -9.066  0.0000E+00  0.0000E+00  0.1100E+02  0.1100E+02
     -8.995  0.0000E+00  0.0000E+00  0.1100E+02  0.1100E+02
     -8.923  0.6341E-01  0.1159E-02  0.1100E+02  0.1100E+02
     -8.851  0.7422E+01  0.6368E+01  0.1154E+02  0.1146E+02
     -8.779  0.1966E+02  0.1931E+02  0.1295E+02  0.1284E+02
     -8.707  0.9108E+01  0.8746E+01  0.1361E+02  0.1351E+02
     -8.636  0.1241E+02  0.1381E+02  0.1450E+02  0.1450E+02
     -8.564  0.4055E+01  0.2409E+01  0.1479E+02  0.1467E+02
     -8.492  0.3384E+01  0.4514E+01  0.1505E+02  0.1500E+02
     -8.420  0.2426E+02  0.2166E+02  0.1679E+02  0.1656E+02
     -8.348  0.9679E+01  0.1160E+02  0.1749E+02  0.1739E+02
     -8.277  0.1962E+02  0.1594E+02  0.1890E+02  0.1855E+02
     -8.205  0.8079E+01  0.1321E+02  0.1950E+02  0.1950E+02
     -8.133  0.6750E+01  0.5186E+01  0.1998E+02  0.1987E+02
     -8.061  0.1386E+02  0.1513E+02  0.2100E+02  0.2096E+02
     -7.989  0.7320E+01  0.5538E+01  0.2153E+02  0.2137E+02
     -7.917  0.1229E+02  0.1317E+02  0.2242E+02  0.2232E+02
     -7.846  0.1933E+02  0.2002E+02  0.2382E+02  0.2375E+02
     -7.774  0.1130E+02  0.1105E+02  0.2463E+02  0.2456E+02
     -7.702  0.2064E+02  0.1964E+02  0.2611E+02  0.2597E+02
     -7.630  0.1689E+02  0.1759E+02  0.2734E+02  0.2725E+02
     -7.558  0.2152E+02  0.1950E+02  0.2889E+02  0.2866E+02
     -7.487  0.2627E+02  0.2556E+02  0.3078E+02  0.3050E+02
     -7.415  0.2602E+02  0.2634E+02  0.3265E+02  0.3241E+02
     -7.343  0.2682E+02  0.2688E+02  0.3459E+02  0.3434E+02
     -7.271  0.2059E+02  0.2197E+02  0.3607E+02  0.3593E+02
     -7.199  0.1544E+02  0.1575E+02  0.3719E+02  0.3707E+02
     -7.128  0.2013E+02  0.1850E+02  0.3864E+02  0.3840E+02
     -7.056  0.2120E+02  0.2284E+02  0.4018E+02  0.4004E+02
     -6.984  0.3290E+02  0.3092E+02  0.4255E+02  0.4228E+02
     -6.912  0.3136E+02  0.2902E+02  0.4481E+02  0.4440E+02
     -6.840  0.2392E+02  0.2584E+02  0.4653E+02  0.4626E+02
     -6.768  0.1702E+02  0.2050E+02  0.4776E+02  0.4775E+02
     -6.697  0.2123E+02  0.1850E+02  0.4928E+02  0.4908E+02
     -6.625  0.2564E+02  0.2602E+02  0.5113E+02  0.5096E+02
     -6.553  0.3429E+02  0.3372E+02  0.5361E+02  0.5339E+02
     -6.481  0.3124E+02  0.3244E+02  0.5587E+02  0.5573E+02
     -6.409  0.4411E+02  0.4233E+02  0.5904E+02  0.5879E+02
     -6.338  0.1752E+02  0.1897E+02  0.6031E+02  0.6017E+02
     -6.266  0.2977E+02  0.2811E+02  0.6245E+02  0.6220E+02
     -6.194  0.2912E+02  0.2986E+02  0.6456E+02  0.6436E+02
     -6.122  0.2041E+02  0.2109E+02  0.6603E+02  0.6589E+02
     -6.050  0.1877E+02  0.1761E+02  0.6739E+02  0.6717E+02
     -5.979  0.1801E+02  0.1804E+02  0.6871E+02  0.6846E+02
     -5.907  0.3817E+02  0.3832E+02  0.7146E+02  0.7123E+02
     -5.835  0.2739E+02  0.2698E+02  0.7345E+02  0.7317E+02
     -5.763  0.4265E+02  0.4397E+02  0.7652E+02  0.7634E+02
     -5.691  0.2877E+02  0.2691E+02  0.7860E+02  0.7830E+02
     -5.619  0.2694E+02  0.2704E+02  0.8054E+02  0.8027E+02
     -5.548  0.2993E+02  0.3197E+02  0.8270E+02  0.8260E+02
     -5.476  0.1184E+02  0.1205E+02  0.8357E+02  0.8346E+02
     -5.404  0.2172E+02  0.1902E+02  0.8513E+02  0.8483E+02
     -5.332  0.1781E+02  0.1879E+02  0.8641E+02  0.8621E+02
     -5.260  0.1449E+02  0.1555E+02  0.8746E+02  0.8732E+02
     -5.189  0.3204E+02  0.2939E+02  0.8977E+02  0.8944E+02
     -5.117  0.2619E+02  0.2934E+02  0.9166E+02  0.9158E+02
     -5.045  0.1650E+02  0.1411E+02  0.9285E+02  0.9260E+02
     -4.973  0.3038E+02  0.3199E+02  0.9503E+02  0.9491E+02
     -4.901  0.3070E+02  0.2705E+02  0.9724E+02  0.9687E+02
     -4.830  0.2545E+02  0.2675E+02  0.9909E+02  0.9882E+02
     -4.758  0.1771E+02  0.1949E+02  0.1004E+03  0.1002E+03
     -4.686  0.2328E+02  0.2114E+02  0.1021E+03  0.1018E+03
     -4.614  0.2573E+02  0.2736E+02  0.1039E+03  0.1037E+03
     -4.542  0.1785E+02  0.1783E+02  0.1052E+03  0.1050E+03
     -4.470  0.2480E+02  0.2496E+02  0.1070E+03  0.1068E+03
     -4.399  0.2400E+02  0.2167E+02  0.1087E+03  0.1084E+03
     -4.327  0.3484E+02  0.3322E+02  0.1112E+03  0.1108E+03
     -4.255  0.3290E+02  0.3589E+02  0.1136E+03  0.1134E+03
     -4.183  0.2948E+02  0.2978E+02  0.1157E+03  0.1155E+03
     -4.111  0.3056E+02  0.3047E+02  0.1180E+03  0.1177E+03
     -4.040  0.2042E+02  0.2056E+02  0.1195E+03  0.1192E+03
     -3.968  0.1995E+02  0.2211E+02  0.1209E+03  0.1208E+03
     -3.896  0.1615E+02  0.1660E+02  0.1221E+03  0.1220E+03
     -3.824  0.1961E+02  0.1839E+02  0.1235E+03  0.1233E+03
     -3.752  0.2599E+02  0.2272E+02  0.1253E+03  0.1250E+03
     -3.681  0.2252E+02  0.2628E+02  0.1270E+03  0.1269E+03
     -3.609  0.2508E+02  0.2431E+02  0.1288E+03  0.1286E+03
     -3.537  0.2571E+02  0.2550E+02  0.1306E+03  0.1305E+03
     -3.465  0.3226E+02  0.2800E+02  0.1330E+03  0.1325E+03
     -3.393  0.4258E+02  0.4383E+02  0.1360E+03  0.1357E+03
     -3.321  0.2179E+02  0.2418E+02  0.1376E+03  0.1374E+03
     -3.250  0.3566E+02  0.3486E+02  0.1402E+03  0.1399E+03
     -3.178  0.2470E+02  0.2505E+02  0.1420E+03  0.1417E+03
     -3.106  0.2910E+02  0.3055E+02  0.1441E+03  0.1439E+03
     -3.034  0.1969E+02  0.1969E+02  0.1455E+03  0.1454E+03
     -2.962  0.1801E+02  0.1864E+02  0.1468E+03  0.1467E+03
     -2.891  0.2947E+02  0.2406E+02  0.1489E+03  0.1485E+03
     -2.819  0.1499E+02  0.1986E+02  0.1500E+03  0.1499E+03
     -2.747  0.1771E+02  0.1604E+02  0.1513E+03  0.1511E+03
     -2.675  0.2669E+02  0.2884E+02  0.1532E+03  0.1531E+03
     -2.603  0.3235E+02  0.2996E+02  0.1555E+03  0.1553E+03
     -2.532  0.2274E+02  0.2174E+02  0.1572E+03  0.1569E+03
     -2.460  0.2793E+02  0.2847E+02  0.1592E+03  0.1589E+03
     -2.388  0.2995E+02  0.2605E+02  0.1614E+03  0.1608E+03
     -2.316  0.2282E+02  0.2704E+02  0.1630E+03  0.1628E+03
     -2.244  0.2877E+02  0.2318E+02  0.1651E+03  0.1645E+03
     -2.172  0.3271E+02  0.3427E+02  0.1675E+03  0.1669E+03
     -2.101  0.3933E+02  0.4294E+02  0.1704E+03  0.1700E+03
     -2.029  0.3749E+02  0.3565E+02  0.1731E+03  0.1726E+03
     -1.957  0.3768E+02  0.4143E+02  0.1758E+03  0.1756E+03
     -1.885  0.2785E+02  0.2575E+02  0.1778E+03  0.1775E+03
     -1.813  0.3969E+02  0.3925E+02  0.1807E+03  0.1803E+03
     -1.742  0.2920E+02  0.2904E+02  0.1828E+03  0.1824E+03
     -1.670  0.2598E+02  0.2498E+02  0.1846E+03  0.1842E+03
     -1.598  0.3654E+02  0.3663E+02  0.1873E+03  0.1868E+03
     -1.526  0.3008E+02  0.3314E+02  0.1895E+03  0.1892E+03
     -1.454  0.3237E+02  0.2972E+02  0.1918E+03  0.1914E+03
     -1.383  0.3000E+02  0.3266E+02  0.1940E+03  0.1938E+03
     -1.311  0.3082E+02  0.2743E+02  0.1962E+03  0.1957E+03
     -1.239  0.2570E+02  0.2820E+02  0.1981E+03  0.1978E+03
     -1.167  0.3379E+02  0.3189E+02  0.2005E+03  0.2001E+03
     -1.095  0.3413E+02  0.3406E+02  0.2030E+03  0.2025E+03
     -1.023  0.2774E+02  0.2849E+02  0.2050E+03  0.2046E+03
     -0.952  0.2522E+02  0.2568E+02  0.2068E+03  0.2065E+03
     -0.880  0.2616E+02  0.2646E+02  0.2087E+03  0.2084E+03
     -0.808  0.2343E+02  0.2583E+02  0.2104E+03  0.2102E+03
     -0.736  0.2104E+02  0.2103E+02  0.2119E+03  0.2118E+03
     -0.664  0.2552E+02  0.2445E+02  0.2137E+03  0.2135E+03
     -0.593  0.2001E+02  0.2172E+02  0.2152E+03  0.2151E+03
     -0.521  0.1223E+02  0.1075E+02  0.2160E+03  0.2159E+03
     -0.449  0.1811E+02  0.1987E+02  0.2173E+03  0.2173E+03
     -0.377  0.1017E+02  0.1030E+02  0.2181E+03  0.2181E+03
     -0.305  0.2266E+02  0.2119E+02  0.2197E+03  0.2196E+03
     -0.234  0.1395E+02  0.1431E+02  0.2207E+03  0.2206E+03
     -0.162  0.1638E+02  0.1596E+02  0.2219E+03  0.2218E+03
     -0.090  0.1642E+02  0.1553E+02  0.2231E+03  0.2229E+03
     -0.018  0.1530E+02  0.1782E+02  0.2242E+03  0.2242E+03
      0.054  0.1680E+02  0.1556E+02  0.2254E+03  0.2253E+03
      0.126  0.1176E+02  0.1229E+02  0.2262E+03  0.2262E+03
      0.197  0.1567E+02  0.1081E+02  0.2274E+03  0.2269E+03
      0.269  0.2898E+02  0.3293E+02  0.2295E+03  0.2293E+03
      0.341  0.3374E+02  0.3033E+02  0.2319E+03  0.2315E+03
      0.413  0.3566E+02  0.3779E+02  0.2344E+03  0.2342E+03
      0.485  0.2582E+02  0.2603E+02  0.2363E+03  0.2361E+03
      0.556  0.4052E+02  0.3885E+02  0.2392E+03  0.2389E+03
      0.628  0.3455E+02  0.3404E+02  0.2417E+03  0.2414E+03
      0.700  0.3141E+02  0.3545E+02  0.2440E+03  0.2439E+03
      0.772  0.4869E+02  0.4545E+02  0.2475E+03  0.2472E+03
      0.844  0.5093E+02  0.4910E+02  0.2512E+03  0.2508E+03
      0.915  0.4374E+02  0.4541E+02  0.2543E+03  0.2541E+03
      0.987  0.4493E+02  0.4479E+02  0.2576E+03  0.2573E+03
      1.059  0.5427E+02  0.5427E+02  0.2615E+03  0.2612E+03
      1.131  0.4796E+02  0.4676E+02  0.2649E+03  0.2646E+03
      1.203  0.5451E+02  0.5261E+02  0.2689E+03  0.2684E+03
      1.275  0.4725E+02  0.4800E+02  0.2723E+03  0.2719E+03
      1.346  0.5456E+02  0.5686E+02  0.2763E+03  0.2759E+03
      1.418  0.5214E+02  0.5140E+02  0.2800E+03  0.2797E+03
      1.490  0.5559E+02  0.5329E+02  0.2840E+03  0.2835E+03
      1.562  0.5224E+02  0.5462E+02  0.2878E+03  0.2875E+03
      1.634  0.4672E+02  0.4466E+02  0.2912E+03  0.2907E+03
      1.705  0.4471E+02  0.4728E+02  0.2944E+03  0.2942E+03
      1.777  0.3981E+02  0.3667E+02  0.2973E+03  0.2968E+03
      1.849  0.4678E+02  0.4790E+02  0.3007E+03  0.3003E+03
      1.921  0.4367E+02  0.4546E+02  0.3038E+03  0.3036E+03
      1.993  0.4062E+02  0.4136E+02  0.3068E+03  0.3066E+03
      2.064  0.3313E+02  0.3076E+02  0.3091E+03  0.3088E+03
      2.136  0.3437E+02  0.3324E+02  0.3116E+03  0.3112E+03
      2.208  0.3841E+02  0.4044E+02  0.3144E+03  0.3141E+03
      2.280  0.3004E+02  0.3026E+02  0.3166E+03  0.3163E+03
      2.352  0.3806E+02  0.3602E+02  0.3193E+03  0.3189E+03
      2.424  0.2877E+02  0.3272E+02  0.3214E+03  0.3213E+03
      2.495  0.3887E+02  0.3518E+02  0.3242E+03  0.3238E+03
      2.567  0.4291E+02  0.4318E+02  0.3273E+03  0.3269E+03
      2.639  0.2986E+02  0.3108E+02  0.3295E+03  0.3292E+03
      2.711  0.3711E+02  0.3528E+02  0.3322E+03  0.3317E+03
      2.783  0.3125E+02  0.3291E+02  0.3344E+03  0.3341E+03
      2.854  0.4300E+02  0.4303E+02  0.3375E+03  0.3372E+03
      2.926  0.4044E+02  0.3963E+02  0.3405E+03  0.3401E+03
      2.998  0.4484E+02  0.4062E+02  0.3437E+03  0.3430E+03
      3.070  0.3537E+02  0.3952E+02  0.3463E+03  0.3459E+03
      3.142  0.4071E+02  0.4049E+02  0.3493E+03  0.3488E+03
      3.213  0.3538E+02  0.3619E+02  0.3518E+03  0.3514E+03
      3.285  0.2808E+02  0.2666E+02  0.3538E+03  0.3533E+03
      3.357  0.4292E+02  0.4385E+02  0.3569E+03  0.3565E+03
      3.429  0.4376E+02  0.4418E+02  0.3601E+03  0.3597E+03
      3.501  0.3280E+02  0.3280E+02  0.3625E+03  0.3621E+03
      3.573  0.3807E+02  0.3281E+02  0.3652E+03  0.3644E+03
      3.644  0.5456E+02  0.5584E+02  0.3691E+03  0.3684E+03
      3.716  0.3219E+02  0.3663E+02  0.3715E+03  0.3711E+03
      3.788  0.2609E+02  0.2598E+02  0.3733E+03  0.3730E+03
      3.860  0.4107E+02  0.3784E+02  0.3763E+03  0.3757E+03
      3.932  0.4003E+02  0.4103E+02  0.3792E+03  0.3787E+03
      4.003  0.3616E+02  0.3418E+02  0.3818E+03  0.3811E+03
      4.075  0.3913E+02  0.3390E+02  0.3846E+03  0.3836E+03
      4.147  0.3993E+02  0.4517E+02  0.3875E+03  0.3868E+03
      4.219  0.3787E+02  0.4062E+02  0.3903E+03  0.3898E+03
      4.291  0.3818E+02  0.3937E+02  0.3931E+03  0.3926E+03
      4.362  0.3997E+02  0.3625E+02  0.3959E+03  0.3952E+03
      4.434  0.3559E+02  0.3954E+02  0.3985E+03  0.3981E+03
      4.506  0.3245E+02  0.3062E+02  0.4008E+03  0.4003E+03
      4.578  0.3267E+02  0.3581E+02  0.4032E+03  0.4029E+03
      4.650  0.4476E+02  0.4396E+02  0.4064E+03  0.4060E+03
      4.722  0.4473E+02  0.4286E+02  0.4097E+03  0.4091E+03
      4.793  0.3872E+02  0.3877E+02  0.4124E+03  0.4119E+03
      4.865  0.4178E+02  0.4282E+02  0.4155E+03  0.4150E+03
      4.937  0.4076E+02  0.4044E+02  0.4184E+03  0.4179E+03
      5.009  0.3049E+02  0.3250E+02  0.4206E+03  0.4203E+03
      5.081  0.3746E+02  0.3690E+02  0.4233E+03  0.4229E+03
      5.152  0.3310E+02  0.3119E+02  0.4257E+03  0.4252E+03
      5.224  0.5183E+02  0.5220E+02  0.4294E+03  0.4290E+03
      5.296  0.4352E+02  0.4230E+02  0.4326E+03  0.4320E+03
      5.368  0.4230E+02  0.4544E+02  0.4356E+03  0.4353E+03
      5.440  0.4427E+02  0.4199E+02  0.4388E+03  0.4383E+03
      5.511  0.4325E+02  0.4342E+02  0.4420E+03  0.4414E+03
      5.583  0.4442E+02  0.4477E+02  0.4452E+03  0.4447E+03
      5.655  0.4329E+02  0.4447E+02  0.4483E+03  0.4479E+03
      5.727  0.4568E+02  0.4396E+02  0.4516E+03  0.4510E+03
      5.799  0.4548E+02  0.4664E+02  0.4549E+03  0.4544E+03
      5.871  0.3907E+02  0.3998E+02  0.4577E+03  0.4573E+03
      5.942  0.3029E+02  0.3143E+02  0.4599E+03  0.4596E+03
      6.014  0.2529E+02  0.2750E+02  0.4617E+03  0.4616E+03
      6.086  0.2906E+02  0.2689E+02  0.4638E+03  0.4635E+03
      6.158  0.2402E+01  0.6637E+01  0.4640E+03  0.4640E+03
      6.230  0.0000E+00  0.0000E+00  0.4640E+03  0.4640E+03
      6.301  0.0000E+00  0.0000E+00  0.4640E+03  0.4640E+03
      6.373  0.0000E+00  0.0000E+00  0.4640E+03  0.4640E+03
      6.445  0.0000E+00  0.0000E+00  0.4640E+03  0.4640E+03
      6.517  0.0000E+00  0.0000E+00  0.4640E+03  0.4640E+03
      6.589  0.0000E+00  0.0000E+00  0.4640E+03  0.4640E+03
      6.660  0.0000E+00  0.0000E+00  0.4640E+03  0.4640E+03
      6.732  0.0000E+00  0.0000E+00  0.4640E+03  0.4640E+03
      6.804  0.0000E+00  0.0000E+00  0.4640E+03  0.4640E+03
      6.876  0.0000E+00  0.0000E+00  0.4640E+03  0.4640E+03
      6.948  0.0000E+00  0.0000E+00  0.4640E+03  0.4640E+03
      7.020  0.0000E+00  0.0000E+00  0.4640E+03  0.4640E+03
      7.091  0.0000E+00  0.0000E+00  0.4640E+03  0.4640E+03
