  72  72   0   0
  0.2358891E+02  0.8001338E-09  0.1600268E-08  0.1326432E-08  0.5000000E-15
  1.000000000000000E-004
  CAR 
 Si and Ge interface calculation         
      6.77795686     -9.60486127  301      3.60105779      1.00000000
     -9.605  0.0000E+00  0.0000E+00  0.0000E+00  0.0000E+00
     -9.550  0.0000E+00  0.0000E+00  0.0000E+00  0.0000E+00
     -9.496  0.0000E+00  0.0000E+00  0.0000E+00  0.0000E+00
     -9.441  0.0000E+00  0.0000E+00  0.0000E+00  0.0000E+00
     -9.386  0.0000E+00  0.0000E+00  0.0000E+00  0.0000E+00
     -9.332  0.0000E+00  0.0000E+00  0.0000E+00  0.0000E+00
     -9.277  0.0000E+00  0.0000E+00  0.0000E+00  0.0000E+00
     -9.223  0.0000E+00  0.0000E+00  0.0000E+00  0.0000E+00
     -9.168  0.0000E+00  0.0000E+00  0.0000E+00  0.0000E+00
     -9.113  0.0000E+00  0.0000E+00  0.0000E+00  0.0000E+00
     -9.059  0.0000E+00  0.0000E+00  0.0000E+00  0.0000E+00
     -9.004  0.0000E+00  0.0000E+00  0.0000E+00  0.0000E+00
     -8.950  0.0000E+00  0.0000E+00  0.0000E+00  0.0000E+00
     -8.895  0.1018E-05  0.1546E-08  0.5560E-07  0.8444E-10
     -8.840  0.2283E+01  0.2178E+01  0.1247E+00  0.1190E+00
     -8.786  0.4582E+01  0.4632E+01  0.3749E+00  0.3719E+00
     -8.731  0.6820E+01  0.6291E+01  0.7474E+00  0.7154E+00
     -8.677  0.9189E+01  0.9487E+01  0.1249E+01  0.1234E+01
     -8.622  0.6183E+01  0.4943E+01  0.1587E+01  0.1503E+01
     -8.567  0.2988E+01  0.4514E+01  0.1750E+01  0.1750E+01
     -8.513  0.1394E+01  0.2278E+00  0.1826E+01  0.1762E+01
     -8.458  0.1005E+02  0.1121E+02  0.2375E+01  0.2375E+01
     -8.403  0.7040E+01  0.4949E+01  0.2759E+01  0.2645E+01
     -8.349  0.1591E+02  0.1791E+02  0.3628E+01  0.3623E+01
     -8.294  0.1539E+02  0.1045E+02  0.4468E+01  0.4194E+01
     -8.240  0.4401E+01  0.8397E+01  0.4709E+01  0.4652E+01
     -8.185  0.8947E+01  0.6958E+01  0.5197E+01  0.5032E+01
     -8.130  0.1464E+02  0.1564E+02  0.5997E+01  0.5886E+01
     -8.076  0.1375E+02  0.1512E+02  0.6748E+01  0.6712E+01
     -8.021  0.6248E+01  0.3643E+01  0.7089E+01  0.6911E+01
     -7.967  0.1546E+02  0.1742E+02  0.7933E+01  0.7862E+01
     -7.912  0.2086E+02  0.1968E+02  0.9072E+01  0.8937E+01
     -7.857  0.1236E+02  0.1020E+02  0.9747E+01  0.9494E+01
     -7.803  0.1615E+02  0.2071E+02  0.1063E+02  0.1063E+02
     -7.748  0.1538E+02  0.8347E+01  0.1147E+02  0.1108E+02
     -7.694  0.3689E+02  0.4089E+02  0.1348E+02  0.1331E+02
     -7.639  0.1330E+02  0.1428E+02  0.1421E+02  0.1409E+02
     -7.584  0.1952E+02  0.1929E+02  0.1528E+02  0.1515E+02
     -7.530  0.1354E+02  0.1350E+02  0.1601E+02  0.1588E+02
     -7.475  0.1661E+02  0.1794E+02  0.1692E+02  0.1686E+02
     -7.420  0.2393E+02  0.2129E+02  0.1823E+02  0.1803E+02
     -7.366  0.1238E+02  0.1192E+02  0.1891E+02  0.1868E+02
     -7.311  0.2227E+02  0.2084E+02  0.2012E+02  0.1982E+02
     -7.257  0.3324E+02  0.3317E+02  0.2194E+02  0.2163E+02
     -7.202  0.1046E+02  0.1405E+02  0.2251E+02  0.2240E+02
     -7.147  0.2253E+02  0.2009E+02  0.2374E+02  0.2349E+02
     -7.093  0.1588E+02  0.1620E+02  0.2461E+02  0.2438E+02
     -7.038  0.1632E+02  0.1601E+02  0.2550E+02  0.2525E+02
     -6.984  0.2491E+02  0.2737E+02  0.2686E+02  0.2675E+02
     -6.929  0.4661E+02  0.4273E+02  0.2940E+02  0.2908E+02
     -6.874  0.1990E+02  0.2166E+02  0.3049E+02  0.3026E+02
     -6.820  0.1565E+02  0.1775E+02  0.3134E+02  0.3123E+02
     -6.765  0.1432E+02  0.1207E+02  0.3213E+02  0.3189E+02
     -6.711  0.2240E+02  0.2495E+02  0.3335E+02  0.3325E+02
     -6.656  0.1867E+02  0.1596E+02  0.3437E+02  0.3412E+02
     -6.601  0.3133E+02  0.2559E+02  0.3608E+02  0.3552E+02
     -6.547  0.3140E+02  0.2973E+02  0.3779E+02  0.3715E+02
     -6.492  0.4265E+02  0.5404E+02  0.4012E+02  0.4010E+02
     -6.438  0.1643E+02  0.1417E+02  0.4102E+02  0.4087E+02
     -6.383  0.1211E+02  0.1161E+02  0.4168E+02  0.4150E+02
     -6.328  0.1486E+02  0.1587E+02  0.4249E+02  0.4237E+02
     -6.274  0.9242E+01  0.9925E+01  0.4300E+02  0.4291E+02
     -6.219  0.8683E+01  0.6652E+01  0.4347E+02  0.4328E+02
     -6.164  0.1578E+02  0.1190E+02  0.4434E+02  0.4393E+02
     -6.110  0.1828E+02  0.2417E+02  0.4533E+02  0.4525E+02
     -6.055  0.1897E+02  0.1878E+02  0.4637E+02  0.4627E+02
     -6.001  0.1419E+02  0.1049E+02  0.4714E+02  0.4684E+02
     -5.946  0.3773E+02  0.3862E+02  0.4920E+02  0.4895E+02
     -5.891  0.4174E+02  0.3757E+02  0.5148E+02  0.5101E+02
     -5.837  0.1990E+02  0.2495E+02  0.5257E+02  0.5237E+02
     -5.782  0.1525E+02  0.1465E+02  0.5340E+02  0.5317E+02
     -5.728  0.2080E+02  0.1822E+02  0.5454E+02  0.5416E+02
     -5.673  0.1519E+02  0.1912E+02  0.5537E+02  0.5521E+02
     -5.618  0.2273E+02  0.1879E+02  0.5661E+02  0.5623E+02
     -5.564  0.1402E+02  0.1756E+02  0.5738E+02  0.5719E+02
     -5.509  0.1841E+02  0.2100E+02  0.5838E+02  0.5834E+02
     -5.455  0.9124E+01  0.9778E+01  0.5888E+02  0.5887E+02
     -5.400  0.9042E+01  0.8179E+01  0.5937E+02  0.5932E+02
     -5.345  0.1125E+02  0.9116E+01  0.5999E+02  0.5982E+02
     -5.291  0.1591E+02  0.1487E+02  0.6086E+02  0.6063E+02
     -5.236  0.1557E+02  0.1787E+02  0.6171E+02  0.6161E+02
     -5.182  0.2499E+02  0.2197E+02  0.6307E+02  0.6281E+02
     -5.127  0.1395E+02  0.1731E+02  0.6383E+02  0.6375E+02
     -5.072  0.3113E+02  0.2793E+02  0.6553E+02  0.6528E+02
     -5.018  0.5965E+01  0.9727E+01  0.6586E+02  0.6581E+02
     -4.963  0.7354E+01  0.3843E+01  0.6626E+02  0.6602E+02
     -4.908  0.2167E+02  0.2421E+02  0.6744E+02  0.6734E+02
     -4.854  0.2626E+02  0.2673E+02  0.6888E+02  0.6880E+02
     -4.799  0.1520E+02  0.1240E+02  0.6971E+02  0.6948E+02
     -4.745  0.2273E+02  0.2277E+02  0.7095E+02  0.7072E+02
     -4.690  0.2852E+02  0.2446E+02  0.7251E+02  0.7206E+02
     -4.635  0.1453E+02  0.1844E+02  0.7330E+02  0.7306E+02
     -4.581  0.2707E+02  0.2470E+02  0.7478E+02  0.7441E+02
     -4.526  0.2916E+02  0.3055E+02  0.7637E+02  0.7608E+02
     -4.472  0.6625E+01  0.9992E+01  0.7673E+02  0.7663E+02
     -4.417  0.2309E+02  0.2235E+02  0.7799E+02  0.7785E+02
     -4.362  0.6029E+01  0.3398E+01  0.7832E+02  0.7803E+02
     -4.308  0.1933E+02  0.1953E+02  0.7938E+02  0.7910E+02
     -4.253  0.1595E+02  0.1984E+02  0.8025E+02  0.8018E+02
     -4.199  0.2465E+02  0.2206E+02  0.8160E+02  0.8139E+02
     -4.144  0.1159E+02  0.8639E+01  0.8223E+02  0.8186E+02
     -4.089  0.2926E+02  0.2512E+02  0.8383E+02  0.8323E+02
     -4.035  0.1490E+02  0.2510E+02  0.8464E+02  0.8460E+02
     -3.980  0.2431E+02  0.2319E+02  0.8597E+02  0.8587E+02
     -3.925  0.1419E+02  0.1382E+02  0.8674E+02  0.8662E+02
     -3.871  0.8502E+01  0.7255E+01  0.8721E+02  0.8702E+02
     -3.816  0.9873E+01  0.1215E+02  0.8775E+02  0.8768E+02
     -3.762  0.8786E+01  0.7255E+01  0.8823E+02  0.8808E+02
     -3.707  0.3543E+02  0.3162E+02  0.9016E+02  0.8981E+02
     -3.652  0.1445E+02  0.1764E+02  0.9095E+02  0.9077E+02
     -3.598  0.1571E+02  0.1436E+02  0.9181E+02  0.9155E+02
     -3.543  0.2498E+02  0.2623E+02  0.9317E+02  0.9299E+02
     -3.489  0.1803E+02  0.1666E+02  0.9416E+02  0.9390E+02
     -3.434  0.4220E+02  0.4296E+02  0.9646E+02  0.9624E+02
     -3.379  0.1661E+02  0.1852E+02  0.9737E+02  0.9725E+02
     -3.325  0.2674E+02  0.2603E+02  0.9883E+02  0.9867E+02
     -3.270  0.2426E+02  0.2451E+02  0.1002E+03  0.1000E+03
     -3.216  0.1560E+02  0.1236E+02  0.1010E+03  0.1007E+03
     -3.161  0.1113E+02  0.1144E+02  0.1016E+03  0.1013E+03
     -3.106  0.1353E+02  0.9742E+01  0.1024E+03  0.1018E+03
     -3.052  0.1709E+02  0.2185E+02  0.1033E+03  0.1030E+03
     -2.997  0.1553E+02  0.1685E+02  0.1041E+03  0.1040E+03
     -2.943  0.2853E+02  0.2551E+02  0.1057E+03  0.1053E+03
     -2.888  0.1837E+02  0.1940E+02  0.1067E+03  0.1064E+03
     -2.833  0.2536E+02  0.2649E+02  0.1081E+03  0.1079E+03
     -2.779  0.1973E+02  0.1735E+02  0.1092E+03  0.1088E+03
     -2.724  0.1594E+02  0.1794E+02  0.1100E+03  0.1098E+03
     -2.669  0.1253E+02  0.1549E+02  0.1107E+03  0.1106E+03
     -2.615  0.1693E+02  0.1278E+02  0.1116E+03  0.1113E+03
     -2.560  0.1938E+02  0.2004E+02  0.1127E+03  0.1124E+03
     -2.506  0.2656E+02  0.2891E+02  0.1141E+03  0.1140E+03
     -2.451  0.1787E+02  0.1408E+02  0.1151E+03  0.1148E+03
     -2.396  0.1546E+02  0.1699E+02  0.1160E+03  0.1157E+03
     -2.342  0.2100E+02  0.2302E+02  0.1171E+03  0.1170E+03
     -2.287  0.1785E+02  0.1478E+02  0.1181E+03  0.1178E+03
     -2.233  0.1851E+02  0.1658E+02  0.1191E+03  0.1187E+03
     -2.178  0.1443E+02  0.1972E+02  0.1199E+03  0.1197E+03
     -2.123  0.1749E+02  0.1579E+02  0.1208E+03  0.1206E+03
     -2.069  0.5780E+01  0.7477E+01  0.1212E+03  0.1210E+03
     -2.014  0.1391E+02  0.1099E+02  0.1219E+03  0.1216E+03
     -1.960  0.1831E+02  0.1781E+02  0.1229E+03  0.1226E+03
     -1.905  0.8579E+01  0.1348E+02  0.1234E+03  0.1233E+03
     -1.850  0.9008E+01  0.9772E+01  0.1239E+03  0.1239E+03
     -1.796  0.1178E+02  0.6026E+01  0.1245E+03  0.1242E+03
     -1.741  0.2382E+02  0.2735E+02  0.1258E+03  0.1257E+03
     -1.686  0.1002E+02  0.1064E+02  0.1264E+03  0.1263E+03
     -1.632  0.1089E+02  0.8379E+01  0.1270E+03  0.1267E+03
     -1.577  0.1567E+02  0.1556E+02  0.1278E+03  0.1276E+03
     -1.523  0.1951E+02  0.1813E+02  0.1289E+03  0.1286E+03
     -1.468  0.1555E+02  0.1780E+02  0.1297E+03  0.1295E+03
     -1.413  0.1155E+02  0.1247E+02  0.1304E+03  0.1302E+03
     -1.359  0.1389E+02  0.1442E+02  0.1311E+03  0.1310E+03
     -1.304  0.1677E+02  0.9652E+01  0.1320E+03  0.1315E+03
     -1.250  0.1285E+02  0.1836E+02  0.1327E+03  0.1325E+03
     -1.195  0.1736E+02  0.1766E+02  0.1337E+03  0.1335E+03
     -1.140  0.1682E+02  0.1423E+02  0.1346E+03  0.1343E+03
     -1.086  0.8571E+01  0.1126E+02  0.1351E+03  0.1349E+03
     -1.031  0.8308E+01  0.1089E+02  0.1355E+03  0.1355E+03
     -0.977  0.1330E+02  0.1390E+02  0.1363E+03  0.1362E+03
     -0.922  0.1374E+02  0.1304E+02  0.1370E+03  0.1370E+03
     -0.867  0.1965E+02  0.1930E+02  0.1381E+03  0.1380E+03
     -0.813  0.8198E+01  0.9068E+01  0.1385E+03  0.1385E+03
     -0.758  0.1537E+02  0.1221E+02  0.1394E+03  0.1392E+03
     -0.704  0.1698E+02  0.1795E+02  0.1403E+03  0.1401E+03
     -0.649  0.1023E+02  0.9974E+01  0.1408E+03  0.1407E+03
     -0.594  0.1733E+02  0.1382E+02  0.1418E+03  0.1414E+03
     -0.540  0.2201E+02  0.2303E+02  0.1430E+03  0.1427E+03
     -0.485  0.2251E+02  0.2202E+02  0.1442E+03  0.1439E+03
     -0.430  0.1872E+02  0.2404E+02  0.1452E+03  0.1452E+03
     -0.376  0.1559E+02  0.9846E+01  0.1461E+03  0.1458E+03
     -0.321  0.4501E+02  0.4498E+02  0.1486E+03  0.1482E+03
     -0.267  0.1948E+02  0.2066E+02  0.1496E+03  0.1493E+03
     -0.212  0.3766E+02  0.3573E+02  0.1517E+03  0.1513E+03
     -0.157  0.3064E+02  0.3174E+02  0.1534E+03  0.1530E+03
     -0.103  0.3916E+02  0.3522E+02  0.1555E+03  0.1549E+03
     -0.048  0.4539E+02  0.5079E+02  0.1580E+03  0.1577E+03
      0.006  0.4199E+02  0.3823E+02  0.1603E+03  0.1598E+03
      0.061  0.3838E+02  0.4211E+02  0.1624E+03  0.1621E+03
      0.116  0.3196E+02  0.3277E+02  0.1641E+03  0.1639E+03
      0.170  0.3819E+02  0.3349E+02  0.1662E+03  0.1657E+03
      0.225  0.4672E+02  0.4321E+02  0.1687E+03  0.1681E+03
      0.279  0.4738E+02  0.4744E+02  0.1713E+03  0.1707E+03
      0.334  0.4406E+02  0.5010E+02  0.1737E+03  0.1734E+03
      0.389  0.4391E+02  0.3773E+02  0.1761E+03  0.1755E+03
      0.443  0.4760E+02  0.5090E+02  0.1787E+03  0.1783E+03
      0.498  0.3200E+02  0.3611E+02  0.1805E+03  0.1802E+03
      0.552  0.3907E+02  0.3864E+02  0.1826E+03  0.1823E+03
      0.607  0.4796E+02  0.4395E+02  0.1852E+03  0.1847E+03
      0.662  0.3363E+02  0.3320E+02  0.1871E+03  0.1865E+03
      0.716  0.4943E+02  0.5342E+02  0.1898E+03  0.1895E+03
      0.771  0.2804E+02  0.3202E+02  0.1913E+03  0.1912E+03
      0.826  0.4670E+02  0.3990E+02  0.1938E+03  0.1934E+03
      0.880  0.3752E+02  0.3930E+02  0.1959E+03  0.1955E+03
      0.935  0.4523E+02  0.3884E+02  0.1984E+03  0.1977E+03
      0.989  0.3340E+02  0.4240E+02  0.2002E+03  0.2000E+03
      1.044  0.5378E+02  0.4924E+02  0.2031E+03  0.2027E+03
      1.099  0.4057E+02  0.3859E+02  0.2053E+03  0.2048E+03
      1.153  0.5078E+02  0.4934E+02  0.2081E+03  0.2075E+03
      1.208  0.3641E+02  0.4107E+02  0.2101E+03  0.2097E+03
      1.262  0.4644E+02  0.4654E+02  0.2126E+03  0.2123E+03
      1.317  0.4258E+02  0.3811E+02  0.2150E+03  0.2143E+03
      1.372  0.4832E+02  0.4609E+02  0.2176E+03  0.2168E+03
      1.426  0.5172E+02  0.5813E+02  0.2204E+03  0.2200E+03
      1.481  0.4581E+02  0.4450E+02  0.2229E+03  0.2225E+03
      1.535  0.2783E+02  0.2658E+02  0.2245E+03  0.2239E+03
      1.590  0.4094E+02  0.4100E+02  0.2267E+03  0.2261E+03
      1.645  0.4604E+02  0.4412E+02  0.2292E+03  0.2286E+03
      1.699  0.4693E+02  0.4660E+02  0.2318E+03  0.2311E+03
      1.754  0.3245E+02  0.3970E+02  0.2335E+03  0.2333E+03
      1.809  0.4032E+02  0.3809E+02  0.2357E+03  0.2353E+03
      1.863  0.4206E+02  0.3571E+02  0.2380E+03  0.2373E+03
      1.918  0.2553E+02  0.3295E+02  0.2394E+03  0.2391E+03
      1.972  0.3293E+02  0.3163E+02  0.2412E+03  0.2408E+03
      2.027  0.2596E+02  0.2122E+02  0.2426E+03  0.2420E+03
      2.082  0.3975E+02  0.3989E+02  0.2448E+03  0.2442E+03
      2.136  0.2857E+02  0.3176E+02  0.2464E+03  0.2459E+03
      2.191  0.3107E+02  0.2566E+02  0.2481E+03  0.2473E+03
      2.245  0.3892E+02  0.3353E+02  0.2502E+03  0.2491E+03
      2.300  0.3946E+02  0.4714E+02  0.2524E+03  0.2517E+03
      2.355  0.3033E+02  0.2598E+02  0.2540E+03  0.2531E+03
      2.409  0.2244E+02  0.3462E+02  0.2552E+03  0.2550E+03
      2.464  0.3241E+02  0.3455E+02  0.2570E+03  0.2569E+03
      2.518  0.2962E+02  0.2786E+02  0.2586E+03  0.2584E+03
      2.573  0.1651E+02  0.1347E+02  0.2595E+03  0.2592E+03
      2.628  0.2082E+02  0.2415E+02  0.2607E+03  0.2605E+03
      2.682  0.4676E+02  0.4366E+02  0.2632E+03  0.2629E+03
      2.737  0.2345E+02  0.1944E+02  0.2645E+03  0.2639E+03
      2.791  0.2131E+02  0.1730E+02  0.2657E+03  0.2649E+03
      2.846  0.1628E+02  0.2984E+02  0.2665E+03  0.2665E+03
      2.901  0.3073E+02  0.1570E+02  0.2682E+03  0.2674E+03
      2.955  0.3043E+02  0.3548E+02  0.2699E+03  0.2693E+03
      3.010  0.2263E+02  0.2546E+02  0.2711E+03  0.2707E+03
      3.065  0.3686E+02  0.3394E+02  0.2731E+03  0.2725E+03
      3.119  0.3138E+02  0.2757E+02  0.2748E+03  0.2740E+03
      3.174  0.2228E+02  0.2934E+02  0.2761E+03  0.2756E+03
      3.228  0.2354E+02  0.2381E+02  0.2774E+03  0.2769E+03
      3.283  0.2268E+02  0.2010E+02  0.2786E+03  0.2780E+03
      3.338  0.3111E+02  0.2322E+02  0.2803E+03  0.2793E+03
      3.392  0.2697E+02  0.3632E+02  0.2818E+03  0.2813E+03
      3.447  0.3214E+02  0.2143E+02  0.2835E+03  0.2825E+03
      3.501  0.2247E+02  0.3810E+02  0.2847E+03  0.2845E+03
      3.556  0.2938E+02  0.2230E+02  0.2863E+03  0.2858E+03
      3.611  0.3658E+02  0.2696E+02  0.2883E+03  0.2872E+03
      3.665  0.3188E+02  0.3758E+02  0.2901E+03  0.2893E+03
      3.720  0.2413E+02  0.2345E+02  0.2914E+03  0.2906E+03
      3.774  0.2568E+02  0.2808E+02  0.2928E+03  0.2921E+03
      3.829  0.1499E+02  0.2733E+02  0.2936E+03  0.2936E+03
      3.884  0.2176E+02  0.1075E+02  0.2948E+03  0.2942E+03
      3.938  0.2560E+02  0.2879E+02  0.2962E+03  0.2957E+03
      3.993  0.2237E+02  0.1806E+02  0.2974E+03  0.2967E+03
      4.047  0.2009E+02  0.2594E+02  0.2985E+03  0.2982E+03
      4.102  0.2199E+02  0.1762E+02  0.2997E+03  0.2991E+03
      4.157  0.2580E+02  0.2451E+02  0.3011E+03  0.3005E+03
      4.211  0.2481E+02  0.2315E+02  0.3025E+03  0.3017E+03
      4.266  0.3071E+02  0.3490E+02  0.3042E+03  0.3036E+03
      4.321  0.3002E+02  0.2948E+02  0.3058E+03  0.3052E+03
      4.375  0.3647E+02  0.3859E+02  0.3078E+03  0.3073E+03
      4.430  0.2909E+02  0.2198E+02  0.3094E+03  0.3085E+03
      4.484  0.2670E+02  0.3176E+02  0.3108E+03  0.3103E+03
      4.539  0.2592E+02  0.2973E+02  0.3123E+03  0.3119E+03
      4.594  0.2989E+02  0.2639E+02  0.3139E+03  0.3133E+03
      4.648  0.3125E+02  0.3172E+02  0.3156E+03  0.3151E+03
      4.703  0.3597E+02  0.3604E+02  0.3176E+03  0.3170E+03
      4.757  0.2140E+02  0.2248E+02  0.3187E+03  0.3183E+03
      4.812  0.3283E+02  0.3026E+02  0.3205E+03  0.3199E+03
      4.867  0.3231E+02  0.3358E+02  0.3223E+03  0.3218E+03
      4.921  0.1830E+02  0.2310E+02  0.3233E+03  0.3230E+03
      4.976  0.4240E+02  0.3312E+02  0.3256E+03  0.3248E+03
      5.030  0.2612E+02  0.3670E+02  0.3270E+03  0.3268E+03
      5.085  0.4105E+02  0.3398E+02  0.3293E+03  0.3287E+03
      5.140  0.2358E+02  0.2366E+02  0.3306E+03  0.3300E+03
      5.194  0.2869E+02  0.2962E+02  0.3321E+03  0.3316E+03
      5.249  0.2611E+02  0.2381E+02  0.3336E+03  0.3329E+03
      5.304  0.3623E+02  0.3989E+02  0.3355E+03  0.3351E+03
      5.358  0.2449E+02  0.2869E+02  0.3369E+03  0.3366E+03
      5.413  0.3600E+02  0.2846E+02  0.3388E+03  0.3382E+03
      5.467  0.3867E+02  0.4240E+02  0.3410E+03  0.3405E+03
      5.522  0.2506E+02  0.2972E+02  0.3423E+03  0.3421E+03
      5.577  0.2552E+02  0.1988E+02  0.3437E+03  0.3432E+03
      5.631  0.2903E+02  0.3364E+02  0.3453E+03  0.3451E+03
      5.686  0.3338E+02  0.1872E+02  0.3471E+03  0.3461E+03
      5.740  0.2013E+02  0.3333E+02  0.3482E+03  0.3479E+03
      5.795  0.1864E+02  0.1809E+02  0.3492E+03  0.3489E+03
      5.850  0.1836E+02  0.1823E+02  0.3502E+03  0.3499E+03
      5.904  0.1282E+02  0.1596E+02  0.3509E+03  0.3508E+03
      5.959  0.5660E+01  0.9138E+01  0.3513E+03  0.3512E+03
      6.013  0.9616E+01  0.6853E+01  0.3518E+03  0.3516E+03
      6.068  0.4109E+01  0.6881E+01  0.3520E+03  0.3520E+03
      6.123  0.0000E+00  0.0000E+00  0.3520E+03  0.3520E+03
      6.177  0.0000E+00  0.0000E+00  0.3520E+03  0.3520E+03
      6.232  0.0000E+00  0.0000E+00  0.3520E+03  0.3520E+03
      6.286  0.0000E+00  0.0000E+00  0.3520E+03  0.3520E+03
      6.341  0.0000E+00  0.0000E+00  0.3520E+03  0.3520E+03
      6.396  0.0000E+00  0.0000E+00  0.3520E+03  0.3520E+03
      6.450  0.0000E+00  0.0000E+00  0.3520E+03  0.3520E+03
      6.505  0.0000E+00  0.0000E+00  0.3520E+03  0.3520E+03
      6.560  0.0000E+00  0.0000E+00  0.3520E+03  0.3520E+03
      6.614  0.0000E+00  0.0000E+00  0.3520E+03  0.3520E+03
      6.669  0.0000E+00  0.0000E+00  0.3520E+03  0.3520E+03
      6.723  0.0000E+00  0.0000E+00  0.3520E+03  0.3520E+03
      6.778  0.0000E+00  0.0000E+00  0.3520E+03  0.3520E+03
