Si and Ge interface calculation         
           1
     8.001338    0.000000    0.000000
     0.000000   16.002676    0.000000
     0.000000    0.000000   13.264322
   Ge   Si
    48    24
Direct configuration=     1
   0.00854173  0.99572915  0.00000000
   0.25854170  0.87072915  0.21327135
   0.50854170  0.74572915  0.42654276
   0.50854170  0.24572912  0.00000000
   0.75854164  0.12072913  0.21327135
   0.00854158  0.99572915  0.42654276
   0.00854174  0.49572909  0.00000000
   0.25854170  0.37072912  0.21327135
   0.50854170  0.24572912  0.42654276
   0.50854170  0.74572909  0.00000000
   0.75854164  0.62072909  0.21327135
   0.00854170  0.49572912  0.42654276
   0.00854170  0.12072916  0.10663567
   0.25854170  0.99572915  0.31990707
   0.50854170  0.87072915  0.53317845
   0.50854176  0.37072912  0.10663567
   0.75854170  0.24572915  0.31990707
   0.00854170  0.12072913  0.53317845
   0.00854158  0.62072909  0.10663567
   0.25854158  0.49572909  0.31990707
   0.50854158  0.37072906  0.53317845
   0.50854170  0.87072915  0.10663567
   0.75854170  0.74572915  0.31990707
   0.00854170  0.62072915  0.53317845
   0.50854170  0.99572915  0.00000000
   0.75854164  0.87072915  0.21327135
   0.00854158  0.74572921  0.42654276
   0.00854172  0.24572913  0.00000000
   0.25854170  0.12072913  0.21327135
   0.50854170  0.99572915  0.42654276
   0.50854170  0.49572915  0.00000000
   0.75854170  0.37072915  0.21327135
   0.00854170  0.24572916  0.42654276
   0.00854174  0.74572915  0.00000000
   0.25854167  0.62072915  0.21327135
   0.50854170  0.49572915  0.42654276
   0.50854170  0.12072913  0.10663567
   0.75854170  0.99572915  0.31990707
   0.00854170  0.87072915  0.53317845
   0.00854170  0.37072912  0.10663567
   0.25854158  0.24572912  0.31990707
   0.50854170  0.12072911  0.53317845
   0.50854170  0.62072909  0.10663567
   0.75854164  0.49572912  0.31990707
   0.00854170  0.37072909  0.53317845
   0.00854158  0.87072909  0.10663567
   0.25854158  0.74572909  0.31990707
   0.50854158  0.62072909  0.53317845
   0.13243531  0.22659838  0.64595544
   0.38243538  0.83770943  0.69420898
   0.63243538  0.44882053  0.74246252
   0.88243544  0.05993152  0.79071599
   0.13243550  0.67104256  0.83896953
   0.38243562  0.28215325  0.88722289
   0.88243538  0.97659844  0.64595544
   0.13243538  0.58770943  0.69420898
   0.38243538  0.19882059  0.74246246
   0.63243562  0.80993146  0.79071599
   0.88243550  0.42104244  0.83896941
   0.13243574  0.03215337  0.88722295
   0.38243538  0.97659844  0.64595544
   0.63243538  0.58770943  0.69420898
   0.88243544  0.19882059  0.74246246
   0.13243550  0.80993146  0.79071599
   0.38243550  0.42104244  0.83896941
   0.63243562  0.03215337  0.88722295
   0.63243532  0.22659838  0.64595544
   0.88243532  0.83770943  0.69420898
   0.13243538  0.44882053  0.74246252
   0.38243538  0.05993152  0.79071599
   0.63243574  0.67104244  0.83896941
   0.88243562  0.28215349  0.88722289
