 264 264   0   0
  0.2770664E+02  0.1946760E-08  0.1946760E-08  0.1930025E-08  0.5000000E-15
  1.000000000000000E-004
  CAR 
 Si and Ge interface calculation         
      6.65729909     -8.87489402  301      4.05492346      1.00000000
     -8.875  0.0000E+00  0.0000E+00  0.0000E+00  0.0000E+00
     -8.823  0.0000E+00  0.0000E+00  0.0000E+00  0.0000E+00
     -8.771  0.0000E+00  0.0000E+00  0.0000E+00  0.0000E+00
     -8.720  0.0000E+00  0.0000E+00  0.0000E+00  0.0000E+00
     -8.668  0.0000E+00  0.0000E+00  0.0000E+00  0.0000E+00
     -8.616  0.0000E+00  0.0000E+00  0.0000E+00  0.0000E+00
     -8.564  0.0000E+00  0.0000E+00  0.0000E+00  0.0000E+00
     -8.512  0.0000E+00  0.0000E+00  0.0000E+00  0.0000E+00
     -8.461  0.0000E+00  0.0000E+00  0.0000E+00  0.0000E+00
     -8.409  0.0000E+00  0.0000E+00  0.0000E+00  0.0000E+00
     -8.357  0.0000E+00  0.0000E+00  0.0000E+00  0.0000E+00
     -8.305  0.0000E+00  0.0000E+00  0.0000E+00  0.0000E+00
     -8.254  0.0000E+00  0.0000E+00  0.0000E+00  0.0000E+00
     -8.202  0.1495E-04  0.4235E-05  0.7739E-06  0.2193E-06
     -8.150  0.9619E+01  0.9579E+01  0.4980E+00  0.4960E+00
     -8.098  0.1930E+02  0.1928E+02  0.1497E+01  0.1494E+01
     -8.047  0.1762E+02  0.1625E+02  0.2410E+01  0.2335E+01
     -7.995  0.2064E+02  0.2081E+02  0.3478E+01  0.3413E+01
     -7.943  0.1008E+02  0.1134E+02  0.4000E+01  0.4000E+01
     -7.891  0.9656E+01  0.9656E+01  0.4500E+01  0.4500E+01
     -7.839  0.2081E+02  0.2016E+02  0.5577E+01  0.5544E+01
     -7.788  0.4780E+02  0.4806E+02  0.8052E+01  0.8032E+01
     -7.736  0.8658E+01  0.9048E+01  0.8501E+01  0.8500E+01
     -7.684  0.2056E+02  0.1998E+02  0.9565E+01  0.9535E+01
     -7.632  0.1806E+02  0.1864E+02  0.1050E+02  0.1050E+02
     -7.581  0.7937E+01  0.7263E+01  0.1091E+02  0.1088E+02
     -7.529  0.1145E+02  0.1208E+02  0.1150E+02  0.1150E+02
     -7.477  0.2333E+02  0.2194E+02  0.1271E+02  0.1264E+02
     -7.425  0.2489E+02  0.2632E+02  0.1400E+02  0.1400E+02
     -7.373  0.2112E+02  0.1985E+02  0.1509E+02  0.1503E+02
     -7.322  0.2364E+02  0.2410E+02  0.1632E+02  0.1628E+02
     -7.270  0.2326E+02  0.2331E+02  0.1752E+02  0.1748E+02
     -7.218  0.3875E+02  0.3903E+02  0.1953E+02  0.1950E+02
     -7.166  0.3082E+02  0.2893E+02  0.2112E+02  0.2100E+02
     -7.115  0.1762E+02  0.1969E+02  0.2204E+02  0.2202E+02
     -7.063  0.5544E+02  0.5457E+02  0.2491E+02  0.2484E+02
     -7.011  0.3888E+02  0.3780E+02  0.2692E+02  0.2680E+02
     -6.959  0.5961E+02  0.6178E+02  0.3000E+02  0.3000E+02
     -6.907  0.1837E+02  0.1783E+02  0.3096E+02  0.3092E+02
     -6.856  0.2254E+02  0.2245E+02  0.3212E+02  0.3209E+02
     -6.804  0.5602E+02  0.5639E+02  0.3502E+02  0.3501E+02
     -6.752  0.4380E+02  0.4135E+02  0.3729E+02  0.3715E+02
     -6.700  0.6049E+02  0.6004E+02  0.4042E+02  0.4025E+02
     -6.649  0.3638E+02  0.3812E+02  0.4231E+02  0.4223E+02
     -6.597  0.5208E+02  0.5082E+02  0.4500E+02  0.4486E+02
     -6.545  0.2890E+02  0.3165E+02  0.4650E+02  0.4650E+02
     -6.493  0.2557E+02  0.2394E+02  0.4782E+02  0.4774E+02
     -6.442  0.3323E+02  0.3392E+02  0.4954E+02  0.4949E+02
     -6.390  0.5603E+02  0.5371E+02  0.5244E+02  0.5227E+02
     -6.338  0.5358E+02  0.5478E+02  0.5522E+02  0.5511E+02
     -6.286  0.2276E+02  0.2304E+02  0.5640E+02  0.5630E+02
     -6.234  0.5168E+02  0.5069E+02  0.5907E+02  0.5893E+02
     -6.183  0.6701E+02  0.6859E+02  0.6254E+02  0.6248E+02
     -6.131  0.7692E+02  0.7538E+02  0.6652E+02  0.6638E+02
     -6.079  0.5151E+02  0.5298E+02  0.6919E+02  0.6912E+02
     -6.027  0.7204E+02  0.6951E+02  0.7292E+02  0.7272E+02
     -5.976  0.8785E+02  0.9033E+02  0.7747E+02  0.7740E+02
     -5.924  0.5894E+02  0.5829E+02  0.8052E+02  0.8042E+02
     -5.872  0.6237E+02  0.6150E+02  0.8375E+02  0.8360E+02
     -5.820  0.7728E+02  0.7580E+02  0.8775E+02  0.8753E+02
     -5.768  0.8973E+02  0.9009E+02  0.9240E+02  0.9219E+02
     -5.717  0.7157E+02  0.7253E+02  0.9610E+02  0.9595E+02
     -5.665  0.9366E+02  0.9172E+02  0.1010E+03  0.1007E+03
     -5.613  0.8625E+02  0.8721E+02  0.1054E+03  0.1052E+03
     -5.561  0.6230E+02  0.6468E+02  0.1086E+03  0.1086E+03
     -5.510  0.6440E+02  0.6307E+02  0.1120E+03  0.1118E+03
     -5.458  0.7470E+02  0.7463E+02  0.1158E+03  0.1157E+03
     -5.406  0.6829E+02  0.6888E+02  0.1194E+03  0.1193E+03
     -5.354  0.6854E+02  0.6712E+02  0.1229E+03  0.1227E+03
     -5.302  0.9071E+02  0.9078E+02  0.1276E+03  0.1274E+03
     -5.251  0.7891E+02  0.7915E+02  0.1317E+03  0.1315E+03
     -5.199  0.7392E+02  0.7320E+02  0.1355E+03  0.1353E+03
     -5.147  0.6462E+02  0.6501E+02  0.1389E+03  0.1387E+03
     -5.095  0.7983E+02  0.7999E+02  0.1430E+03  0.1428E+03
     -5.044  0.7401E+02  0.7314E+02  0.1468E+03  0.1466E+03
     -4.992  0.6253E+02  0.6474E+02  0.1501E+03  0.1500E+03
     -4.940  0.5772E+02  0.5642E+02  0.1531E+03  0.1529E+03
     -4.888  0.6693E+02  0.6685E+02  0.1565E+03  0.1563E+03
     -4.837  0.8700E+02  0.8661E+02  0.1610E+03  0.1608E+03
     -4.785  0.9832E+02  0.9719E+02  0.1661E+03  0.1659E+03
     -4.733  0.8572E+02  0.8655E+02  0.1706E+03  0.1703E+03
     -4.681  0.1183E+03  0.1168E+03  0.1767E+03  0.1764E+03
     -4.629  0.1004E+03  0.1012E+03  0.1819E+03  0.1816E+03
     -4.578  0.1110E+03  0.1109E+03  0.1876E+03  0.1874E+03
     -4.526  0.1221E+03  0.1210E+03  0.1940E+03  0.1936E+03
     -4.474  0.8988E+02  0.8986E+02  0.1986E+03  0.1983E+03
     -4.422  0.9809E+02  0.9673E+02  0.2037E+03  0.2033E+03
     -4.371  0.9550E+02  0.9873E+02  0.2086E+03  0.2084E+03
     -4.319  0.8426E+02  0.8418E+02  0.2130E+03  0.2128E+03
     -4.267  0.6788E+02  0.6805E+02  0.2165E+03  0.2163E+03
     -4.215  0.6367E+02  0.6158E+02  0.2198E+03  0.2195E+03
     -4.163  0.9690E+02  0.9794E+02  0.2248E+03  0.2245E+03
     -4.112  0.7398E+02  0.7566E+02  0.2287E+03  0.2285E+03
     -4.060  0.5253E+02  0.5277E+02  0.2314E+03  0.2312E+03
     -4.008  0.6600E+02  0.6675E+02  0.2348E+03  0.2346E+03
     -3.956  0.4495E+02  0.4295E+02  0.2371E+03  0.2369E+03
     -3.905  0.7943E+02  0.7675E+02  0.2412E+03  0.2408E+03
     -3.853  0.7281E+02  0.7591E+02  0.2450E+03  0.2448E+03
     -3.801  0.7069E+02  0.6873E+02  0.2487E+03  0.2483E+03
     -3.749  0.7132E+02  0.7296E+02  0.2524E+03  0.2521E+03
     -3.697  0.4131E+02  0.4167E+02  0.2545E+03  0.2543E+03
     -3.646  0.8987E+02  0.8509E+02  0.2591E+03  0.2587E+03
     -3.594  0.7371E+02  0.7783E+02  0.2630E+03  0.2627E+03
     -3.542  0.3863E+02  0.4248E+02  0.2650E+03  0.2649E+03
     -3.490  0.5201E+02  0.4699E+02  0.2677E+03  0.2673E+03
     -3.439  0.9778E+02  0.9978E+02  0.2727E+03  0.2725E+03
     -3.387  0.6502E+02  0.6232E+02  0.2761E+03  0.2757E+03
     -3.335  0.8857E+02  0.9236E+02  0.2807E+03  0.2805E+03
     -3.283  0.5826E+02  0.5800E+02  0.2837E+03  0.2835E+03
     -3.232  0.9998E+02  0.9718E+02  0.2889E+03  0.2885E+03
     -3.180  0.7190E+02  0.6983E+02  0.2926E+03  0.2922E+03
     -3.128  0.7672E+02  0.8116E+02  0.2966E+03  0.2964E+03
     -3.076  0.7559E+02  0.7290E+02  0.3005E+03  0.3001E+03
     -3.024  0.7221E+02  0.7427E+02  0.3042E+03  0.3040E+03
     -2.973  0.6009E+02  0.6205E+02  0.3073E+03  0.3072E+03
     -2.921  0.9478E+02  0.8806E+02  0.3122E+03  0.3118E+03
     -2.869  0.9754E+02  0.1002E+03  0.3173E+03  0.3169E+03
     -2.817  0.9803E+02  0.9963E+02  0.3224E+03  0.3221E+03
     -2.766  0.8754E+02  0.8587E+02  0.3269E+03  0.3265E+03
     -2.714  0.9984E+02  0.1009E+03  0.3321E+03  0.3318E+03
     -2.662  0.9801E+02  0.9723E+02  0.3371E+03  0.3368E+03
     -2.610  0.9229E+02  0.9339E+02  0.3419E+03  0.3416E+03
     -2.558  0.1216E+03  0.1195E+03  0.3482E+03  0.3478E+03
     -2.507  0.1215E+03  0.1198E+03  0.3545E+03  0.3540E+03
     -2.455  0.1091E+03  0.1139E+03  0.3601E+03  0.3599E+03
     -2.403  0.7022E+02  0.7021E+02  0.3638E+03  0.3636E+03
     -2.351  0.1003E+03  0.9894E+02  0.3690E+03  0.3687E+03
     -2.300  0.9623E+02  0.9478E+02  0.3740E+03  0.3736E+03
     -2.248  0.1054E+03  0.1064E+03  0.3794E+03  0.3791E+03
     -2.196  0.6907E+02  0.7100E+02  0.3830E+03  0.3828E+03
     -2.144  0.3117E+02  0.3277E+02  0.3846E+03  0.3845E+03
     -2.093  0.6357E+02  0.6390E+02  0.3879E+03  0.3878E+03
     -2.041  0.6527E+02  0.6031E+02  0.3913E+03  0.3909E+03
     -1.989  0.8696E+02  0.9080E+02  0.3958E+03  0.3956E+03
     -1.937  0.9100E+02  0.8770E+02  0.4005E+03  0.4001E+03
     -1.885  0.9953E+02  0.1005E+03  0.4056E+03  0.4054E+03
     -1.834  0.6652E+02  0.6755E+02  0.4091E+03  0.4089E+03
     -1.782  0.8368E+02  0.8175E+02  0.4134E+03  0.4131E+03
     -1.730  0.1040E+03  0.1043E+03  0.4188E+03  0.4185E+03
     -1.678  0.9166E+02  0.9375E+02  0.4236E+03  0.4233E+03
     -1.627  0.8176E+02  0.7952E+02  0.4278E+03  0.4275E+03
     -1.575  0.7686E+02  0.7693E+02  0.4318E+03  0.4314E+03
     -1.523  0.8394E+02  0.8682E+02  0.4361E+03  0.4359E+03
     -1.471  0.6897E+02  0.6851E+02  0.4397E+03  0.4395E+03
     -1.419  0.4466E+02  0.4548E+02  0.4420E+03  0.4418E+03
     -1.368  0.5928E+02  0.5852E+02  0.4451E+03  0.4449E+03
     -1.316  0.7343E+02  0.7450E+02  0.4489E+03  0.4487E+03
     -1.264  0.4124E+02  0.4074E+02  0.4510E+03  0.4508E+03
     -1.212  0.6269E+02  0.6207E+02  0.4542E+03  0.4540E+03
     -1.161  0.4306E+02  0.4533E+02  0.4565E+03  0.4564E+03
     -1.109  0.6249E+02  0.5877E+02  0.4597E+03  0.4594E+03
     -1.057  0.4414E+02  0.4843E+02  0.4620E+03  0.4619E+03
     -1.005  0.7111E+02  0.6949E+02  0.4657E+03  0.4655E+03
     -0.953  0.2943E+02  0.3091E+02  0.4672E+03  0.4671E+03
     -0.902  0.3443E+02  0.3334E+02  0.4690E+03  0.4689E+03
     -0.850  0.7244E+02  0.7112E+02  0.4727E+03  0.4725E+03
     -0.798  0.7628E+02  0.7372E+02  0.4767E+03  0.4764E+03
     -0.746  0.4627E+02  0.5091E+02  0.4791E+03  0.4790E+03
     -0.695  0.6020E+02  0.5549E+02  0.4822E+03  0.4819E+03
     -0.643  0.7102E+02  0.7239E+02  0.4859E+03  0.4856E+03
     -0.591  0.2735E+02  0.3049E+02  0.4873E+03  0.4872E+03
     -0.539  0.3282E+02  0.3198E+02  0.4890E+03  0.4889E+03
     -0.488  0.8691E+01  0.9763E+01  0.4894E+03  0.4894E+03
     -0.436  0.4490E+02  0.4257E+02  0.4918E+03  0.4916E+03
     -0.384  0.4802E+02  0.4901E+02  0.4942E+03  0.4941E+03
     -0.332  0.5543E+02  0.5420E+02  0.4971E+03  0.4969E+03
     -0.280  0.8154E+02  0.8147E+02  0.5013E+03  0.5011E+03
     -0.229  0.6337E+02  0.6239E+02  0.5046E+03  0.5044E+03
     -0.177  0.6755E+02  0.6823E+02  0.5081E+03  0.5079E+03
     -0.125  0.1310E+03  0.1309E+03  0.5149E+03  0.5147E+03
     -0.073  0.1081E+03  0.1073E+03  0.5205E+03  0.5202E+03
     -0.022  0.1168E+03  0.1125E+03  0.5265E+03  0.5261E+03
      0.030  0.1201E+03  0.1229E+03  0.5328E+03  0.5324E+03
      0.082  0.1649E+03  0.1611E+03  0.5413E+03  0.5408E+03
      0.134  0.1259E+03  0.1324E+03  0.5478E+03  0.5476E+03
      0.186  0.7319E+02  0.7420E+02  0.5516E+03  0.5515E+03
      0.237  0.8871E+02  0.8788E+02  0.5562E+03  0.5560E+03
      0.289  0.8953E+02  0.8962E+02  0.5608E+03  0.5606E+03
      0.341  0.7479E+02  0.7580E+02  0.5647E+03  0.5646E+03
      0.393  0.1083E+03  0.1036E+03  0.5703E+03  0.5699E+03
      0.444  0.9083E+02  0.9382E+02  0.5750E+03  0.5748E+03
      0.496  0.5896E+02  0.6110E+02  0.5781E+03  0.5780E+03
      0.548  0.1311E+03  0.1293E+03  0.5849E+03  0.5847E+03
      0.600  0.1419E+03  0.1408E+03  0.5922E+03  0.5919E+03
      0.652  0.1428E+03  0.1406E+03  0.5996E+03  0.5992E+03
      0.703  0.1297E+03  0.1319E+03  0.6063E+03  0.6061E+03
      0.755  0.1155E+03  0.1149E+03  0.6123E+03  0.6120E+03
      0.807  0.1356E+03  0.1369E+03  0.6193E+03  0.6191E+03
      0.859  0.1031E+03  0.1029E+03  0.6247E+03  0.6244E+03
      0.910  0.8706E+02  0.8842E+02  0.6292E+03  0.6290E+03
      0.962  0.9202E+02  0.8802E+02  0.6339E+03  0.6335E+03
      1.014  0.1352E+03  0.1359E+03  0.6409E+03  0.6406E+03
      1.066  0.1634E+03  0.1617E+03  0.6494E+03  0.6490E+03
      1.117  0.1269E+03  0.1287E+03  0.6560E+03  0.6556E+03
      1.169  0.1719E+03  0.1680E+03  0.6649E+03  0.6643E+03
      1.221  0.1622E+03  0.1630E+03  0.6733E+03  0.6728E+03
      1.273  0.1667E+03  0.1679E+03  0.6819E+03  0.6815E+03
      1.325  0.1911E+03  0.1879E+03  0.6918E+03  0.6912E+03
      1.376  0.1815E+03  0.1854E+03  0.7012E+03  0.7008E+03
      1.428  0.1532E+03  0.1545E+03  0.7091E+03  0.7088E+03
      1.480  0.1520E+03  0.1475E+03  0.7170E+03  0.7164E+03
      1.532  0.2104E+03  0.2107E+03  0.7279E+03  0.7273E+03
      1.583  0.1950E+03  0.1937E+03  0.7380E+03  0.7374E+03
      1.635  0.1889E+03  0.1923E+03  0.7477E+03  0.7473E+03
      1.687  0.1642E+03  0.1620E+03  0.7562E+03  0.7557E+03
      1.739  0.1945E+03  0.1927E+03  0.7663E+03  0.7657E+03
      1.791  0.1754E+03  0.1798E+03  0.7754E+03  0.7750E+03
      1.842  0.1773E+03  0.1720E+03  0.7846E+03  0.7839E+03
      1.894  0.1789E+03  0.1810E+03  0.7938E+03  0.7933E+03
      1.946  0.1834E+03  0.1819E+03  0.8033E+03  0.8027E+03
      1.998  0.1882E+03  0.1926E+03  0.8131E+03  0.8127E+03
      2.049  0.1697E+03  0.1674E+03  0.8219E+03  0.8213E+03
      2.101  0.1806E+03  0.1795E+03  0.8312E+03  0.8306E+03
      2.153  0.1866E+03  0.1882E+03  0.8409E+03  0.8404E+03
      2.205  0.1772E+03  0.1784E+03  0.8501E+03  0.8496E+03
      2.257  0.1588E+03  0.1578E+03  0.8583E+03  0.8578E+03
      2.308  0.1665E+03  0.1660E+03  0.8669E+03  0.8664E+03
      2.360  0.1667E+03  0.1663E+03  0.8755E+03  0.8750E+03
      2.412  0.1990E+03  0.1998E+03  0.8858E+03  0.8853E+03
      2.464  0.1585E+03  0.1582E+03  0.8940E+03  0.8935E+03
      2.515  0.1522E+03  0.1507E+03  0.9019E+03  0.9013E+03
      2.567  0.1658E+03  0.1695E+03  0.9105E+03  0.9101E+03
      2.619  0.1378E+03  0.1372E+03  0.9176E+03  0.9172E+03
      2.671  0.9610E+02  0.9654E+02  0.9226E+03  0.9222E+03
      2.722  0.1484E+03  0.1433E+03  0.9303E+03  0.9296E+03
      2.774  0.1380E+03  0.1423E+03  0.9374E+03  0.9370E+03
      2.826  0.1550E+03  0.1515E+03  0.9455E+03  0.9448E+03
      2.878  0.1329E+03  0.1360E+03  0.9523E+03  0.9519E+03
      2.930  0.1366E+03  0.1376E+03  0.9594E+03  0.9590E+03
      2.981  0.1129E+03  0.1127E+03  0.9653E+03  0.9648E+03
      3.033  0.1431E+03  0.1449E+03  0.9727E+03  0.9723E+03
      3.085  0.1243E+03  0.1210E+03  0.9791E+03  0.9786E+03
      3.137  0.1174E+03  0.1187E+03  0.9852E+03  0.9847E+03
      3.188  0.1067E+03  0.1058E+03  0.9907E+03  0.9902E+03
      3.240  0.1143E+03  0.1164E+03  0.9966E+03  0.9962E+03
      3.292  0.1229E+03  0.1192E+03  0.1003E+04  0.1002E+04
      3.344  0.1011E+03  0.1027E+03  0.1008E+04  0.1008E+04
      3.396  0.6692E+02  0.6941E+02  0.1012E+04  0.1011E+04
      3.447  0.9011E+02  0.8798E+02  0.1016E+04  0.1016E+04
      3.499  0.8267E+02  0.8355E+02  0.1021E+04  0.1020E+04
      3.551  0.8438E+02  0.8474E+02  0.1025E+04  0.1025E+04
      3.603  0.9869E+02  0.9404E+02  0.1030E+04  0.1029E+04
      3.654  0.5399E+02  0.6274E+02  0.1033E+04  0.1033E+04
      3.706  0.4648E+02  0.4102E+02  0.1035E+04  0.1035E+04
      3.758  0.6727E+02  0.7170E+02  0.1039E+04  0.1039E+04
      3.810  0.4345E+02  0.3997E+02  0.1041E+04  0.1041E+04
      3.862  0.3850E+02  0.4407E+02  0.1043E+04  0.1043E+04
      3.913  0.3570E+02  0.2949E+02  0.1045E+04  0.1044E+04
      3.965  0.6459E+02  0.5704E+02  0.1048E+04  0.1047E+04
      4.017  0.7275E+02  0.7954E+02  0.1052E+04  0.1051E+04
      4.069  0.1058E+03  0.9288E+02  0.1057E+04  0.1056E+04
      4.120  0.1003E+03  0.1078E+03  0.1063E+04  0.1062E+04
      4.172  0.9327E+02  0.9092E+02  0.1067E+04  0.1067E+04
      4.224  0.9001E+02  0.9319E+02  0.1072E+04  0.1071E+04
      4.276  0.9099E+02  0.9440E+02  0.1077E+04  0.1076E+04
      4.327  0.1018E+03  0.9594E+02  0.1082E+04  0.1081E+04
      4.379  0.1109E+03  0.1098E+03  0.1088E+04  0.1087E+04
      4.431  0.1214E+03  0.1253E+03  0.1094E+04  0.1093E+04
      4.483  0.1053E+03  0.1061E+03  0.1100E+04  0.1099E+04
      4.535  0.1208E+03  0.1162E+03  0.1106E+04  0.1105E+04
      4.586  0.8981E+02  0.9852E+02  0.1111E+04  0.1110E+04
      4.638  0.1131E+03  0.1083E+03  0.1116E+04  0.1116E+04
      4.690  0.1108E+03  0.1072E+03  0.1122E+04  0.1121E+04
      4.742  0.1269E+03  0.1331E+03  0.1129E+04  0.1128E+04
      4.793  0.1197E+03  0.1156E+03  0.1135E+04  0.1134E+04
      4.845  0.1360E+03  0.1397E+03  0.1142E+04  0.1141E+04
      4.897  0.1000E+03  0.1009E+03  0.1147E+04  0.1147E+04
      4.949  0.1079E+03  0.1008E+03  0.1153E+04  0.1152E+04
      5.001  0.1279E+03  0.1303E+03  0.1159E+04  0.1159E+04
      5.052  0.1151E+03  0.1169E+03  0.1165E+04  0.1165E+04
      5.104  0.1260E+03  0.1304E+03  0.1172E+04  0.1171E+04
      5.156  0.9869E+02  0.9872E+02  0.1177E+04  0.1176E+04
      5.208  0.1013E+03  0.1012E+03  0.1182E+04  0.1182E+04
      5.259  0.9783E+02  0.9829E+02  0.1187E+04  0.1187E+04
      5.311  0.1155E+03  0.1127E+03  0.1193E+04  0.1193E+04
      5.363  0.1238E+03  0.1265E+03  0.1200E+04  0.1199E+04
      5.415  0.1437E+03  0.1427E+03  0.1207E+04  0.1207E+04
      5.466  0.1285E+03  0.1299E+03  0.1214E+04  0.1213E+04
      5.518  0.1308E+03  0.1278E+03  0.1220E+04  0.1220E+04
      5.570  0.1704E+03  0.1698E+03  0.1229E+04  0.1229E+04
      5.622  0.1135E+03  0.1161E+03  0.1235E+04  0.1235E+04
      5.674  0.1275E+03  0.1300E+03  0.1242E+04  0.1241E+04
      5.725  0.1353E+03  0.1332E+03  0.1249E+04  0.1248E+04
      5.777  0.1225E+03  0.1219E+03  0.1255E+04  0.1255E+04
      5.829  0.1378E+03  0.1360E+03  0.1262E+04  0.1262E+04
      5.881  0.1328E+03  0.1404E+03  0.1269E+04  0.1269E+04
      5.932  0.5296E+02  0.5302E+02  0.1272E+04  0.1272E+04
      5.984  0.2843E+01  0.6465E+01  0.1272E+04  0.1272E+04
      6.036  0.0000E+00  0.0000E+00  0.1272E+04  0.1272E+04
      6.088  0.0000E+00  0.0000E+00  0.1272E+04  0.1272E+04
      6.140  0.0000E+00  0.0000E+00  0.1272E+04  0.1272E+04
      6.191  0.0000E+00  0.0000E+00  0.1272E+04  0.1272E+04
      6.243  0.0000E+00  0.0000E+00  0.1272E+04  0.1272E+04
      6.295  0.0000E+00  0.0000E+00  0.1272E+04  0.1272E+04
      6.347  0.0000E+00  0.0000E+00  0.1272E+04  0.1272E+04
      6.398  0.0000E+00  0.0000E+00  0.1272E+04  0.1272E+04
      6.450  0.0000E+00  0.0000E+00  0.1272E+04  0.1272E+04
      6.502  0.0000E+00  0.0000E+00  0.1272E+04  0.1272E+04
      6.554  0.0000E+00  0.0000E+00  0.1272E+04  0.1272E+04
      6.606  0.0000E+00  0.0000E+00  0.1272E+04  0.1272E+04
      6.657  0.0000E+00  0.0000E+00  0.1272E+04  0.1272E+04
