 264 264   0   0
  0.2770664E+02  0.1946760E-08  0.1946760E-08  0.1930025E-08  0.5000000E-15
  1.000000000000000E-004
  CAR 
 Si and Ge interface calculation         
      6.69307630     -8.48200296  301      4.08813720      1.00000000
     -8.482  0.0000E+00  0.0000E+00  0.0000E+00  0.0000E+00
     -8.431  0.0000E+00  0.0000E+00  0.0000E+00  0.0000E+00
     -8.381  0.0000E+00  0.0000E+00  0.0000E+00  0.0000E+00
     -8.330  0.0000E+00  0.0000E+00  0.0000E+00  0.0000E+00
     -8.280  0.0000E+00  0.0000E+00  0.0000E+00  0.0000E+00
     -8.229  0.0000E+00  0.0000E+00  0.0000E+00  0.0000E+00
     -8.179  0.0000E+00  0.0000E+00  0.0000E+00  0.0000E+00
     -8.128  0.0000E+00  0.0000E+00  0.0000E+00  0.0000E+00
     -8.077  0.0000E+00  0.0000E+00  0.0000E+00  0.0000E+00
     -8.027  0.0000E+00  0.0000E+00  0.0000E+00  0.0000E+00
     -7.976  0.0000E+00  0.0000E+00  0.0000E+00  0.0000E+00
     -7.926  0.0000E+00  0.0000E+00  0.0000E+00  0.0000E+00
     -7.875  0.0000E+00  0.0000E+00  0.0000E+00  0.0000E+00
     -7.824  0.2443E-04  0.5741E-05  0.1236E-05  0.2904E-06
     -7.774  0.9837E+01  0.9776E+01  0.4976E+00  0.4945E+00
     -7.723  0.1174E+01  0.6631E+00  0.5570E+00  0.5280E+00
     -7.673  0.3841E+02  0.3898E+02  0.2500E+01  0.2500E+01
     -7.622  0.2898E+02  0.2558E+02  0.3966E+01  0.3794E+01
     -7.571  0.1056E+02  0.1396E+02  0.4500E+01  0.4500E+01
     -7.521  0.5091E-10  0.4392E-11  0.4500E+01  0.4500E+01
     -7.470  0.1279E+02  0.9752E+01  0.5147E+01  0.4993E+01
     -7.420  0.2675E+02  0.2979E+02  0.6500E+01  0.6500E+01
     -7.369  0.7675E+02  0.7489E+02  0.1038E+02  0.1029E+02
     -7.319  0.2326E+01  0.4188E+01  0.1050E+02  0.1050E+02
     -7.268  0.0000E+00  0.0000E+00  0.1050E+02  0.1050E+02
     -7.217  0.7874E-13  0.1070E-13  0.1050E+02  0.1050E+02
     -7.167  0.2997E+01  0.2171E+01  0.1065E+02  0.1061E+02
     -7.116  0.3384E+02  0.3333E+02  0.1236E+02  0.1230E+02
     -7.066  0.2873E+02  0.2798E+02  0.1382E+02  0.1371E+02
     -7.015  0.3234E+02  0.3245E+02  0.1545E+02  0.1535E+02
     -6.964  0.4153E+02  0.4099E+02  0.1755E+02  0.1743E+02
     -6.914  0.1861E+02  0.2101E+02  0.1849E+02  0.1849E+02
     -6.863  0.1036E+00  0.2285E+00  0.1850E+02  0.1850E+02
     -6.813  0.3737E-02  0.7252E-03  0.1850E+02  0.1850E+02
     -6.762  0.2221E+02  0.1828E+02  0.1962E+02  0.1942E+02
     -6.712  0.7736E+02  0.7773E+02  0.2354E+02  0.2336E+02
     -6.661  0.3258E+02  0.3546E+02  0.2518E+02  0.2515E+02
     -6.610  0.3464E+02  0.3380E+02  0.2694E+02  0.2686E+02
     -6.560  0.1456E+02  0.1414E+02  0.2767E+02  0.2758E+02
     -6.509  0.4014E+02  0.3938E+02  0.2970E+02  0.2957E+02
     -6.459  0.8564E+02  0.8312E+02  0.3404E+02  0.3377E+02
     -6.408  0.7992E+02  0.7932E+02  0.3808E+02  0.3778E+02
     -6.357  0.3343E+02  0.3905E+02  0.3977E+02  0.3976E+02
     -6.307  0.8058E+02  0.7871E+02  0.4385E+02  0.4374E+02
     -6.256  0.1720E+02  0.1724E+02  0.4472E+02  0.4461E+02
     -6.206  0.9232E+02  0.9063E+02  0.4939E+02  0.4920E+02
     -6.155  0.7479E+02  0.7501E+02  0.5317E+02  0.5299E+02
     -6.105  0.4671E+02  0.4948E+02  0.5553E+02  0.5549E+02
     -6.054  0.1021E+02  0.1065E+02  0.5605E+02  0.5603E+02
     -6.003  0.6479E+02  0.5727E+02  0.5933E+02  0.5893E+02
     -5.953  0.1032E+03  0.1031E+03  0.6454E+02  0.6414E+02
     -5.902  0.1088E+03  0.1156E+03  0.7005E+02  0.6999E+02
     -5.852  0.6654E+02  0.6467E+02  0.7341E+02  0.7326E+02
     -5.801  0.1105E+03  0.1108E+03  0.7900E+02  0.7887E+02
     -5.750  0.1138E+03  0.1111E+03  0.8476E+02  0.8449E+02
     -5.700  0.8360E+02  0.8118E+02  0.8899E+02  0.8860E+02
     -5.649  0.9181E+02  0.9641E+02  0.9363E+02  0.9347E+02
     -5.599  0.5223E+02  0.5150E+02  0.9627E+02  0.9608E+02
     -5.548  0.9591E+02  0.9456E+02  0.1011E+03  0.1009E+03
     -5.498  0.1061E+03  0.1051E+03  0.1065E+03  0.1062E+03
     -5.447  0.1224E+03  0.1242E+03  0.1127E+03  0.1125E+03
     -5.396  0.7124E+02  0.7167E+02  0.1163E+03  0.1161E+03
     -5.346  0.1172E+03  0.1147E+03  0.1222E+03  0.1219E+03
     -5.295  0.1238E+03  0.1297E+03  0.1285E+03  0.1284E+03
     -5.245  0.3864E+02  0.3581E+02  0.1304E+03  0.1303E+03
     -5.194  0.8774E+02  0.8925E+02  0.1349E+03  0.1348E+03
     -5.143  0.4508E+02  0.4584E+02  0.1372E+03  0.1371E+03
     -5.093  0.1077E+03  0.1041E+03  0.1426E+03  0.1424E+03
     -5.042  0.1041E+03  0.1067E+03  0.1479E+03  0.1478E+03
     -4.992  0.9862E+02  0.9595E+02  0.1529E+03  0.1526E+03
     -4.941  0.1712E+03  0.1741E+03  0.1615E+03  0.1614E+03
     -4.891  0.8412E+02  0.7988E+02  0.1658E+03  0.1655E+03
     -4.840  0.6455E+02  0.6580E+02  0.1690E+03  0.1688E+03
     -4.789  0.7955E+02  0.7910E+02  0.1731E+03  0.1728E+03
     -4.739  0.6552E+02  0.6896E+02  0.1764E+03  0.1763E+03
     -4.688  0.9001E+02  0.8640E+02  0.1809E+03  0.1807E+03
     -4.638  0.1197E+03  0.1200E+03  0.1870E+03  0.1867E+03
     -4.587  0.1117E+03  0.1110E+03  0.1926E+03  0.1923E+03
     -4.536  0.5934E+02  0.6222E+02  0.1956E+03  0.1955E+03
     -4.486  0.7704E+02  0.7352E+02  0.1995E+03  0.1992E+03
     -4.435  0.1252E+03  0.1250E+03  0.2059E+03  0.2055E+03
     -4.385  0.8134E+02  0.8275E+02  0.2100E+03  0.2097E+03
     -4.334  0.1344E+03  0.1312E+03  0.2168E+03  0.2163E+03
     -4.284  0.1011E+03  0.1032E+03  0.2219E+03  0.2216E+03
     -4.233  0.6099E+02  0.6012E+02  0.2250E+03  0.2246E+03
     -4.182  0.9835E+02  0.1044E+03  0.2299E+03  0.2299E+03
     -4.132  0.6986E+02  0.6767E+02  0.2335E+03  0.2333E+03
     -4.081  0.3523E+02  0.3749E+02  0.2353E+03  0.2352E+03
     -4.031  0.3361E+02  0.2967E+02  0.2370E+03  0.2367E+03
     -3.980  0.6229E+02  0.6322E+02  0.2401E+03  0.2399E+03
     -3.929  0.3828E+02  0.4149E+02  0.2420E+03  0.2420E+03
     -3.879  0.6232E+02  0.5929E+02  0.2452E+03  0.2450E+03
     -3.828  0.8069E+02  0.7921E+02  0.2493E+03  0.2490E+03
     -3.778  0.5172E+02  0.5423E+02  0.2519E+03  0.2518E+03
     -3.727  0.3969E+02  0.4076E+02  0.2539E+03  0.2538E+03
     -3.677  0.6114E+02  0.5932E+02  0.2570E+03  0.2568E+03
     -3.626  0.5818E+02  0.5718E+02  0.2599E+03  0.2597E+03
     -3.575  0.3221E+02  0.3190E+02  0.2616E+03  0.2613E+03
     -3.525  0.1049E+03  0.1051E+03  0.2669E+03  0.2666E+03
     -3.474  0.6168E+02  0.6343E+02  0.2700E+03  0.2698E+03
     -3.424  0.2513E+02  0.2712E+02  0.2713E+03  0.2712E+03
     -3.373  0.6010E+02  0.5564E+02  0.2743E+03  0.2740E+03
     -3.322  0.9597E+02  0.9617E+02  0.2792E+03  0.2789E+03
     -3.272  0.7991E+02  0.8178E+02  0.2832E+03  0.2830E+03
     -3.221  0.7067E+02  0.6111E+02  0.2868E+03  0.2861E+03
     -3.171  0.9045E+02  0.9779E+02  0.2914E+03  0.2911E+03
     -3.120  0.6140E+02  0.6311E+02  0.2945E+03  0.2943E+03
     -3.070  0.9031E+02  0.8911E+02  0.2990E+03  0.2988E+03
     -3.019  0.4646E+02  0.5028E+02  0.3014E+03  0.3013E+03
     -2.968  0.4045E+02  0.3417E+02  0.3034E+03  0.3030E+03
     -2.918  0.1005E+03  0.1035E+03  0.3085E+03  0.3083E+03
     -2.867  0.7749E+02  0.7293E+02  0.3124E+03  0.3120E+03
     -2.817  0.9728E+02  0.1040E+03  0.3173E+03  0.3172E+03
     -2.766  0.5004E+02  0.5154E+02  0.3199E+03  0.3198E+03
     -2.715  0.8037E+02  0.7613E+02  0.3239E+03  0.3237E+03
     -2.665  0.8737E+02  0.8725E+02  0.3284E+03  0.3281E+03
     -2.614  0.1388E+03  0.1326E+03  0.3354E+03  0.3348E+03
     -2.564  0.1158E+03  0.1240E+03  0.3412E+03  0.3411E+03
     -2.513  0.1288E+03  0.1233E+03  0.3478E+03  0.3473E+03
     -2.463  0.1449E+03  0.1477E+03  0.3551E+03  0.3548E+03
     -2.412  0.1091E+03  0.1104E+03  0.3606E+03  0.3604E+03
     -2.361  0.8397E+02  0.8265E+02  0.3649E+03  0.3646E+03
     -2.311  0.1085E+03  0.1092E+03  0.3703E+03  0.3701E+03
     -2.260  0.9014E+02  0.8636E+02  0.3749E+03  0.3744E+03
     -2.210  0.7156E+02  0.7640E+02  0.3785E+03  0.3783E+03
     -2.159  0.9890E+02  0.9784E+02  0.3835E+03  0.3833E+03
     -2.108  0.8142E+02  0.8562E+02  0.3876E+03  0.3876E+03
     -2.058  0.8313E+02  0.8041E+02  0.3918E+03  0.3917E+03
     -2.007  0.1006E+03  0.9683E+02  0.3969E+03  0.3966E+03
     -1.957  0.8006E+02  0.8435E+02  0.4010E+03  0.4008E+03
     -1.906  0.5744E+02  0.5675E+02  0.4039E+03  0.4037E+03
     -1.856  0.7024E+02  0.6957E+02  0.4074E+03  0.4072E+03
     -1.805  0.1126E+03  0.1105E+03  0.4131E+03  0.4128E+03
     -1.754  0.9789E+02  0.1002E+03  0.4181E+03  0.4179E+03
     -1.704  0.2990E+02  0.3126E+02  0.4196E+03  0.4195E+03
     -1.653  0.8630E+02  0.8497E+02  0.4240E+03  0.4238E+03
     -1.603  0.8727E+02  0.8842E+02  0.4284E+03  0.4282E+03
     -1.552  0.8170E+02  0.7763E+02  0.4325E+03  0.4322E+03
     -1.501  0.7832E+02  0.8143E+02  0.4365E+03  0.4363E+03
     -1.451  0.6281E+02  0.6410E+02  0.4397E+03  0.4395E+03
     -1.400  0.6175E+02  0.6259E+02  0.4428E+03  0.4427E+03
     -1.350  0.5759E+02  0.5497E+02  0.4457E+03  0.4455E+03
     -1.299  0.5377E+02  0.5367E+02  0.4484E+03  0.4482E+03
     -1.249  0.3129E+02  0.3578E+02  0.4500E+03  0.4500E+03
     -1.198  0.6111E+02  0.5862E+02  0.4531E+03  0.4530E+03
     -1.147  0.4466E+02  0.4570E+02  0.4553E+03  0.4553E+03
     -1.097  0.3789E+02  0.3375E+02  0.4573E+03  0.4570E+03
     -1.046  0.6633E+02  0.6885E+02  0.4606E+03  0.4605E+03
     -0.996  0.6168E+02  0.5898E+02  0.4637E+03  0.4634E+03
     -0.945  0.4632E+02  0.4718E+02  0.4661E+03  0.4658E+03
     -0.894  0.3729E+02  0.3894E+02  0.4680E+03  0.4678E+03
     -0.844  0.9503E+02  0.8948E+02  0.4728E+03  0.4723E+03
     -0.793  0.5943E+02  0.6603E+02  0.4758E+03  0.4757E+03
     -0.743  0.5679E+02  0.5715E+02  0.4787E+03  0.4786E+03
     -0.692  0.3527E+02  0.3281E+02  0.4804E+03  0.4802E+03
     -0.642  0.6033E+02  0.6289E+02  0.4835E+03  0.4834E+03
     -0.591  0.5463E+02  0.5606E+02  0.4863E+03  0.4862E+03
     -0.540  0.3297E+02  0.3075E+02  0.4879E+03  0.4878E+03
     -0.490  0.1168E+02  0.1425E+02  0.4885E+03  0.4885E+03
     -0.439  0.2517E+02  0.2420E+02  0.4898E+03  0.4897E+03
     -0.389  0.3685E+02  0.3330E+02  0.4916E+03  0.4914E+03
     -0.338  0.4109E+02  0.4429E+02  0.4937E+03  0.4937E+03
     -0.287  0.2547E+02  0.2671E+02  0.4950E+03  0.4950E+03
     -0.237  0.4361E+02  0.4134E+02  0.4972E+03  0.4971E+03
     -0.186  0.7406E+02  0.7209E+02  0.5010E+03  0.5007E+03
     -0.136  0.4085E+02  0.4329E+02  0.5030E+03  0.5029E+03
     -0.085  0.5707E+02  0.5610E+02  0.5059E+03  0.5058E+03
     -0.035  0.8161E+02  0.8061E+02  0.5100E+03  0.5098E+03
      0.016  0.4800E+02  0.4877E+02  0.5125E+03  0.5123E+03
      0.067  0.1411E+03  0.1365E+03  0.5196E+03  0.5192E+03
      0.117  0.1156E+03  0.1163E+03  0.5255E+03  0.5251E+03
      0.168  0.1189E+03  0.1169E+03  0.5315E+03  0.5310E+03
      0.218  0.1579E+03  0.1608E+03  0.5395E+03  0.5391E+03
      0.269  0.1266E+03  0.1302E+03  0.5459E+03  0.5457E+03
      0.320  0.1052E+03  0.1010E+03  0.5512E+03  0.5508E+03
      0.370  0.6517E+02  0.6740E+02  0.5545E+03  0.5543E+03
      0.421  0.1369E+03  0.1332E+03  0.5614E+03  0.5610E+03
      0.471  0.1205E+03  0.1204E+03  0.5675E+03  0.5671E+03
      0.522  0.1223E+03  0.1245E+03  0.5737E+03  0.5734E+03
      0.572  0.5853E+02  0.6214E+02  0.5767E+03  0.5765E+03
      0.623  0.7339E+02  0.7244E+02  0.5804E+03  0.5802E+03
      0.674  0.1191E+03  0.1154E+03  0.5864E+03  0.5860E+03
      0.724  0.1714E+03  0.1679E+03  0.5951E+03  0.5945E+03
      0.775  0.1620E+03  0.1642E+03  0.6033E+03  0.6028E+03
      0.825  0.1877E+03  0.1882E+03  0.6128E+03  0.6123E+03
      0.876  0.1803E+03  0.1820E+03  0.6219E+03  0.6216E+03
      0.927  0.1161E+03  0.1164E+03  0.6278E+03  0.6274E+03
      0.977  0.2162E+03  0.2126E+03  0.6387E+03  0.6382E+03
      1.028  0.1595E+03  0.1601E+03  0.6468E+03  0.6463E+03
      1.078  0.1602E+03  0.1596E+03  0.6549E+03  0.6544E+03
      1.129  0.1896E+03  0.1897E+03  0.6644E+03  0.6640E+03
      1.179  0.1655E+03  0.1670E+03  0.6728E+03  0.6724E+03
      1.230  0.2226E+03  0.2185E+03  0.6841E+03  0.6835E+03
      1.281  0.1370E+03  0.1441E+03  0.6910E+03  0.6908E+03
      1.331  0.1280E+03  0.1263E+03  0.6975E+03  0.6971E+03
      1.382  0.1102E+03  0.1080E+03  0.7031E+03  0.7026E+03
      1.432  0.1912E+03  0.1952E+03  0.7127E+03  0.7125E+03
      1.483  0.2462E+03  0.2372E+03  0.7252E+03  0.7245E+03
      1.534  0.2190E+03  0.2226E+03  0.7363E+03  0.7357E+03
      1.584  0.1656E+03  0.1683E+03  0.7446E+03  0.7443E+03
      1.635  0.1501E+03  0.1449E+03  0.7522E+03  0.7516E+03
      1.685  0.1790E+03  0.1811E+03  0.7613E+03  0.7607E+03
      1.736  0.1897E+03  0.1934E+03  0.7709E+03  0.7705E+03
      1.786  0.1405E+03  0.1389E+03  0.7780E+03  0.7776E+03
      1.837  0.2267E+03  0.2264E+03  0.7895E+03  0.7890E+03
      1.888  0.1476E+03  0.1478E+03  0.7969E+03  0.7965E+03
      1.938  0.1948E+03  0.1908E+03  0.8068E+03  0.8061E+03
      1.989  0.1788E+03  0.1848E+03  0.8158E+03  0.8155E+03
      2.039  0.1696E+03  0.1625E+03  0.8244E+03  0.8237E+03
      2.090  0.2112E+03  0.2173E+03  0.8351E+03  0.8347E+03
      2.141  0.1605E+03  0.1579E+03  0.8432E+03  0.8427E+03
      2.191  0.1265E+03  0.1279E+03  0.8496E+03  0.8492E+03
      2.242  0.1747E+03  0.1742E+03  0.8584E+03  0.8580E+03
      2.292  0.1564E+03  0.1569E+03  0.8664E+03  0.8659E+03
      2.343  0.1926E+03  0.1855E+03  0.8761E+03  0.8753E+03
      2.393  0.1939E+03  0.2013E+03  0.8859E+03  0.8855E+03
      2.444  0.1032E+03  0.1021E+03  0.8911E+03  0.8906E+03
      2.495  0.1652E+03  0.1686E+03  0.8995E+03  0.8992E+03
      2.545  0.1170E+03  0.1180E+03  0.9054E+03  0.9051E+03
      2.596  0.1453E+03  0.1333E+03  0.9127E+03  0.9119E+03
      2.646  0.1580E+03  0.1692E+03  0.9207E+03  0.9204E+03
      2.697  0.1609E+03  0.1523E+03  0.9289E+03  0.9281E+03
      2.748  0.1462E+03  0.1457E+03  0.9363E+03  0.9355E+03
      2.798  0.1662E+03  0.1722E+03  0.9447E+03  0.9442E+03
      2.849  0.1593E+03  0.1579E+03  0.9527E+03  0.9522E+03
      2.899  0.9797E+02  0.1054E+03  0.9577E+03  0.9575E+03
      2.950  0.7787E+02  0.7008E+02  0.9616E+03  0.9611E+03
      3.000  0.1583E+03  0.1576E+03  0.9696E+03  0.9690E+03
      3.051  0.1289E+03  0.1322E+03  0.9762E+03  0.9757E+03
      3.102  0.1089E+03  0.1101E+03  0.9817E+03  0.9813E+03
      3.152  0.1237E+03  0.1158E+03  0.9879E+03  0.9872E+03
      3.203  0.1073E+03  0.1154E+03  0.9934E+03  0.9930E+03
      3.253  0.1082E+03  0.1070E+03  0.9988E+03  0.9984E+03
      3.304  0.1055E+03  0.1048E+03  0.1004E+04  0.1004E+04
      3.355  0.9755E+02  0.9966E+02  0.1009E+04  0.1009E+04
      3.405  0.7941E+02  0.7548E+02  0.1013E+04  0.1013E+04
      3.456  0.8393E+02  0.8827E+02  0.1017E+04  0.1017E+04
      3.506  0.8951E+02  0.8956E+02  0.1022E+04  0.1022E+04
      3.557  0.5573E+02  0.5346E+02  0.1025E+04  0.1024E+04
      3.607  0.1107E+03  0.1113E+03  0.1030E+04  0.1030E+04
      3.658  0.4383E+02  0.5051E+02  0.1033E+04  0.1032E+04
      3.709  0.5032E+02  0.4145E+02  0.1035E+04  0.1035E+04
      3.759  0.6028E+02  0.6287E+02  0.1038E+04  0.1038E+04
      3.810  0.2803E+02  0.3136E+02  0.1040E+04  0.1039E+04
      3.860  0.5250E+02  0.5117E+02  0.1042E+04  0.1042E+04
      3.911  0.3340E+02  0.3217E+02  0.1044E+04  0.1044E+04
      3.962  0.6454E+02  0.5896E+02  0.1047E+04  0.1047E+04
      4.012  0.5390E+02  0.5695E+02  0.1050E+04  0.1049E+04
      4.063  0.6765E+02  0.5910E+02  0.1053E+04  0.1052E+04
      4.113  0.1158E+03  0.1170E+03  0.1059E+04  0.1058E+04
      4.164  0.1097E+03  0.1005E+03  0.1065E+04  0.1063E+04
      4.214  0.1038E+03  0.1146E+03  0.1070E+04  0.1069E+04
      4.265  0.9779E+02  0.9722E+02  0.1075E+04  0.1074E+04
      4.316  0.9699E+02  0.1100E+03  0.1080E+04  0.1080E+04
      4.366  0.1013E+03  0.8414E+02  0.1085E+04  0.1084E+04
      4.417  0.1111E+03  0.1171E+03  0.1091E+04  0.1090E+04
      4.467  0.1061E+03  0.1063E+03  0.1096E+04  0.1095E+04
      4.518  0.9800E+02  0.1047E+03  0.1101E+04  0.1101E+04
      4.569  0.1270E+03  0.1229E+03  0.1107E+04  0.1107E+04
      4.619  0.8657E+02  0.9260E+02  0.1112E+04  0.1111E+04
      4.670  0.1235E+03  0.1104E+03  0.1118E+04  0.1117E+04
      4.720  0.1357E+03  0.1297E+03  0.1125E+04  0.1124E+04
      4.771  0.1344E+03  0.1463E+03  0.1132E+04  0.1131E+04
      4.821  0.9917E+02  0.9809E+02  0.1137E+04  0.1136E+04
      4.872  0.1309E+03  0.1324E+03  0.1143E+04  0.1143E+04
      4.923  0.1177E+03  0.1182E+03  0.1149E+04  0.1149E+04
      4.973  0.1313E+03  0.1266E+03  0.1156E+04  0.1155E+04
      5.024  0.1108E+03  0.1074E+03  0.1161E+04  0.1160E+04
      5.074  0.1332E+03  0.1350E+03  0.1168E+04  0.1167E+04
      5.125  0.8555E+02  0.9507E+02  0.1172E+04  0.1172E+04
      5.176  0.1360E+03  0.1265E+03  0.1179E+04  0.1178E+04
      5.226  0.1344E+03  0.1377E+03  0.1186E+04  0.1185E+04
      5.277  0.4076E+02  0.4852E+02  0.1188E+04  0.1188E+04
      5.327  0.1117E+03  0.1081E+03  0.1194E+04  0.1193E+04
      5.378  0.1104E+03  0.1081E+03  0.1199E+04  0.1199E+04
      5.428  0.1495E+03  0.1560E+03  0.1207E+04  0.1207E+04
      5.479  0.1275E+03  0.1237E+03  0.1213E+04  0.1213E+04
      5.530  0.1114E+03  0.1070E+03  0.1219E+04  0.1218E+04
      5.580  0.1662E+03  0.1638E+03  0.1228E+04  0.1227E+04
      5.631  0.1734E+03  0.1733E+03  0.1236E+04  0.1235E+04
      5.681  0.1082E+03  0.1176E+03  0.1242E+04  0.1241E+04
      5.732  0.1049E+03  0.1062E+03  0.1247E+04  0.1247E+04
      5.783  0.1125E+03  0.1079E+03  0.1253E+04  0.1252E+04
      5.833  0.1231E+03  0.1278E+03  0.1259E+04  0.1259E+04
      5.884  0.9992E+02  0.1007E+03  0.1264E+04  0.1264E+04
      5.934  0.1137E+03  0.1051E+03  0.1270E+04  0.1269E+04
      5.985  0.3802E+02  0.5062E+02  0.1272E+04  0.1272E+04
      6.035  0.5614E+01  0.6826E+01  0.1272E+04  0.1272E+04
      6.086  0.0000E+00  0.0000E+00  0.1272E+04  0.1272E+04
      6.137  0.0000E+00  0.0000E+00  0.1272E+04  0.1272E+04
      6.187  0.0000E+00  0.0000E+00  0.1272E+04  0.1272E+04
      6.238  0.0000E+00  0.0000E+00  0.1272E+04  0.1272E+04
      6.288  0.0000E+00  0.0000E+00  0.1272E+04  0.1272E+04
      6.339  0.0000E+00  0.0000E+00  0.1272E+04  0.1272E+04
      6.390  0.0000E+00  0.0000E+00  0.1272E+04  0.1272E+04
      6.440  0.0000E+00  0.0000E+00  0.1272E+04  0.1272E+04
      6.491  0.0000E+00  0.0000E+00  0.1272E+04  0.1272E+04
      6.541  0.0000E+00  0.0000E+00  0.1272E+04  0.1272E+04
      6.592  0.0000E+00  0.0000E+00  0.1272E+04  0.1272E+04
      6.642  0.0000E+00  0.0000E+00  0.1272E+04  0.1272E+04
      6.693  0.0000E+00  0.0000E+00  0.1272E+04  0.1272E+04
