  72  72   0   0
  0.2340078E+02  0.7680595E-09  0.1629300E-08  0.1346378E-08  0.5000000E-15
  1.000000000000000E-004
  CAR 
 Si and Ge interface calculation         
      6.77437505     -9.69169356  301      3.72703475      1.00000000
     -9.692  0.0000E+00  0.0000E+00  0.0000E+00  0.0000E+00
     -9.637  0.0000E+00  0.0000E+00  0.0000E+00  0.0000E+00
     -9.582  0.0000E+00  0.0000E+00  0.0000E+00  0.0000E+00
     -9.527  0.0000E+00  0.0000E+00  0.0000E+00  0.0000E+00
     -9.472  0.0000E+00  0.0000E+00  0.0000E+00  0.0000E+00
     -9.417  0.0000E+00  0.0000E+00  0.0000E+00  0.0000E+00
     -9.362  0.0000E+00  0.0000E+00  0.0000E+00  0.0000E+00
     -9.307  0.0000E+00  0.0000E+00  0.0000E+00  0.0000E+00
     -9.253  0.0000E+00  0.0000E+00  0.0000E+00  0.0000E+00
     -9.198  0.0000E+00  0.0000E+00  0.0000E+00  0.0000E+00
     -9.143  0.0000E+00  0.0000E+00  0.0000E+00  0.0000E+00
     -9.088  0.0000E+00  0.0000E+00  0.0000E+00  0.0000E+00
     -9.033  0.0000E+00  0.0000E+00  0.0000E+00  0.0000E+00
     -8.978  0.8916E-06  0.1808E-08  0.4893E-07  0.9925E-10
     -8.923  0.2437E+01  0.2194E+01  0.1337E+00  0.1204E+00
     -8.868  0.5805E+01  0.5133E+01  0.4524E+00  0.4021E+00
     -8.814  0.1368E+01  0.1828E+01  0.5275E+00  0.5025E+00
     -8.759  0.1227E+02  0.1045E+02  0.1201E+01  0.1076E+01
     -8.704  0.9948E+01  0.1177E+02  0.1747E+01  0.1722E+01
     -8.649  0.5546E-01  0.5126E+00  0.1750E+01  0.1750E+01
     -8.594  0.2812E+01  0.7430E+00  0.1904E+01  0.1791E+01
     -8.539  0.1092E+02  0.1284E+02  0.2504E+01  0.2496E+01
     -8.484  0.4487E+01  0.4630E+01  0.2750E+01  0.2750E+01
     -8.429  0.4622E+01  0.5858E+00  0.3004E+01  0.2782E+01
     -8.374  0.1917E+02  0.1981E+02  0.4056E+01  0.3869E+01
     -8.320  0.1878E+02  0.1948E+02  0.5087E+01  0.4938E+01
     -8.265  0.8060E+01  0.9756E+01  0.5529E+01  0.5474E+01
     -8.210  0.4100E+01  0.2944E+01  0.5754E+01  0.5636E+01
     -8.155  0.1831E+02  0.1812E+02  0.6759E+01  0.6630E+01
     -8.100  0.1125E+02  0.1356E+02  0.7377E+01  0.7374E+01
     -8.045  0.3437E+01  0.2331E+01  0.7565E+01  0.7502E+01
     -7.990  0.1736E+02  0.1818E+02  0.8518E+01  0.8500E+01
     -7.935  0.1325E+02  0.1285E+02  0.9245E+01  0.9205E+01
     -7.880  0.7057E+01  0.5168E+01  0.9633E+01  0.9489E+01
     -7.826  0.6797E+01  0.5826E+01  0.1001E+02  0.9809E+01
     -7.771  0.1381E+02  0.1520E+02  0.1076E+02  0.1064E+02
     -7.716  0.3504E+02  0.3424E+02  0.1269E+02  0.1252E+02
     -7.661  0.1843E+02  0.1895E+02  0.1370E+02  0.1356E+02
     -7.606  0.1459E+02  0.1672E+02  0.1450E+02  0.1448E+02
     -7.551  0.1242E+02  0.9995E+01  0.1518E+02  0.1503E+02
     -7.496  0.1491E+02  0.1768E+02  0.1600E+02  0.1600E+02
     -7.441  0.1196E+02  0.6374E+01  0.1666E+02  0.1635E+02
     -7.386  0.1149E+02  0.1225E+02  0.1729E+02  0.1702E+02
     -7.332  0.1509E+02  0.1455E+02  0.1812E+02  0.1782E+02
     -7.277  0.3075E+02  0.3070E+02  0.1980E+02  0.1951E+02
     -7.222  0.3913E+02  0.3735E+02  0.2195E+02  0.2156E+02
     -7.167  0.8761E+01  0.1210E+02  0.2243E+02  0.2222E+02
     -7.112  0.3229E+02  0.2998E+02  0.2420E+02  0.2386E+02
     -7.057  0.1890E+02  0.1921E+02  0.2524E+02  0.2492E+02
     -7.002  0.1649E+02  0.1652E+02  0.2615E+02  0.2583E+02
     -6.947  0.3056E+02  0.3236E+02  0.2782E+02  0.2760E+02
     -6.892  0.2107E+02  0.2357E+02  0.2898E+02  0.2890E+02
     -6.838  0.1502E+02  0.1553E+02  0.2980E+02  0.2975E+02
     -6.783  0.2305E+02  0.2018E+02  0.3107E+02  0.3086E+02
     -6.728  0.1873E+02  0.2112E+02  0.3210E+02  0.3201E+02
     -6.673  0.4070E+02  0.4042E+02  0.3433E+02  0.3423E+02
     -6.618  0.3096E+02  0.2559E+02  0.3603E+02  0.3564E+02
     -6.563  0.2103E+02  0.2575E+02  0.3719E+02  0.3705E+02
     -6.508  0.8951E+01  0.8778E+01  0.3768E+02  0.3753E+02
     -6.453  0.3165E+02  0.2525E+02  0.3941E+02  0.3892E+02
     -6.398  0.2602E+02  0.3248E+02  0.4084E+02  0.4070E+02
     -6.344  0.1549E+02  0.1269E+02  0.4169E+02  0.4140E+02
     -6.289  0.1997E+02  0.1868E+02  0.4279E+02  0.4242E+02
     -6.234  0.2205E+02  0.2423E+02  0.4400E+02  0.4375E+02
     -6.179  0.1886E+02  0.2263E+02  0.4503E+02  0.4500E+02
     -6.124  0.1891E+02  0.1471E+02  0.4607E+02  0.4580E+02
     -6.069  0.1511E+02  0.1641E+02  0.4690E+02  0.4670E+02
     -6.014  0.1803E+02  0.1405E+02  0.4789E+02  0.4748E+02
     -5.959  0.2581E+02  0.3231E+02  0.4931E+02  0.4925E+02
     -5.904  0.9748E+01  0.7641E+01  0.4984E+02  0.4967E+02
     -5.850  0.2579E+02  0.2713E+02  0.5126E+02  0.5116E+02
     -5.795  0.4699E+02  0.4402E+02  0.5384E+02  0.5357E+02
     -5.740  0.1907E+02  0.1642E+02  0.5488E+02  0.5447E+02
     -5.685  0.1183E+02  0.1533E+02  0.5553E+02  0.5532E+02
     -5.630  0.1041E+02  0.1262E+02  0.5610E+02  0.5601E+02
     -5.575  0.1967E+02  0.1462E+02  0.5718E+02  0.5681E+02
     -5.520  0.1691E+02  0.1491E+02  0.5811E+02  0.5763E+02
     -5.465  0.1388E+02  0.1516E+02  0.5887E+02  0.5846E+02
     -5.411  0.1089E+02  0.1097E+02  0.5947E+02  0.5906E+02
     -5.356  0.1664E+02  0.2046E+02  0.6038E+02  0.6019E+02
     -5.301  0.1335E+02  0.1470E+02  0.6112E+02  0.6099E+02
     -5.246  0.1254E+02  0.9528E+01  0.6181E+02  0.6152E+02
     -5.191  0.1662E+02  0.1876E+02  0.6272E+02  0.6255E+02
     -5.136  0.1955E+02  0.2150E+02  0.6379E+02  0.6373E+02
     -5.081  0.1705E+02  0.1566E+02  0.6473E+02  0.6459E+02
     -5.026  0.2934E+02  0.2496E+02  0.6634E+02  0.6596E+02
     -4.971  0.1653E+02  0.1994E+02  0.6724E+02  0.6705E+02
     -4.917  0.1293E+02  0.1536E+02  0.6795E+02  0.6789E+02
     -4.862  0.9947E+01  0.1087E+02  0.6850E+02  0.6849E+02
     -4.807  0.4363E+01  0.2063E+01  0.6874E+02  0.6860E+02
     -4.752  0.1322E+02  0.1006E+02  0.6947E+02  0.6916E+02
     -4.697  0.1063E+02  0.1054E+02  0.7005E+02  0.6973E+02
     -4.642  0.1045E+02  0.1073E+02  0.7062E+02  0.7032E+02
     -4.587  0.2397E+02  0.2257E+02  0.7194E+02  0.7156E+02
     -4.532  0.2158E+02  0.2221E+02  0.7312E+02  0.7278E+02
     -4.477  0.1455E+02  0.1353E+02  0.7392E+02  0.7352E+02
     -4.423  0.2901E+02  0.2741E+02  0.7551E+02  0.7503E+02
     -4.368  0.1951E+02  0.2120E+02  0.7658E+02  0.7619E+02
     -4.313  0.2683E+02  0.3184E+02  0.7806E+02  0.7794E+02
     -4.258  0.9445E+01  0.1022E+02  0.7858E+02  0.7850E+02
     -4.203  0.2466E+02  0.2014E+02  0.7993E+02  0.7960E+02
     -4.148  0.2303E+02  0.2310E+02  0.8119E+02  0.8087E+02
     -4.093  0.3005E+02  0.2868E+02  0.8284E+02  0.8245E+02
     -4.038  0.1548E+02  0.1937E+02  0.8369E+02  0.8351E+02
     -3.983  0.1472E+02  0.1784E+02  0.8450E+02  0.8449E+02
     -3.929  0.5136E+01  0.2688E+01  0.8478E+02  0.8464E+02
     -3.874  0.2545E+02  0.2075E+02  0.8618E+02  0.8578E+02
     -3.819  0.8611E+01  0.1548E+02  0.8665E+02  0.8663E+02
     -3.764  0.2456E+02  0.1950E+02  0.8800E+02  0.8770E+02
     -3.709  0.2198E+02  0.2590E+02  0.8921E+02  0.8912E+02
     -3.654  0.1254E+02  0.1108E+02  0.8989E+02  0.8973E+02
     -3.599  0.1124E+02  0.1265E+02  0.9051E+02  0.9042E+02
     -3.544  0.2236E+02  0.1917E+02  0.9174E+02  0.9147E+02
     -3.489  0.2815E+02  0.2822E+02  0.9328E+02  0.9302E+02
     -3.435  0.2884E+02  0.2663E+02  0.9487E+02  0.9448E+02
     -3.380  0.3312E+02  0.2901E+02  0.9668E+02  0.9607E+02
     -3.325  0.2917E+02  0.3407E+02  0.9828E+02  0.9794E+02
     -3.270  0.3072E+02  0.2979E+02  0.9997E+02  0.9958E+02
     -3.215  0.2301E+02  0.2811E+02  0.1012E+03  0.1011E+03
     -3.160  0.5030E+01  0.6884E+01  0.1015E+03  0.1015E+03
     -3.105  0.1401E+02  0.8229E+01  0.1023E+03  0.1020E+03
     -3.050  0.4684E+02  0.4304E+02  0.1048E+03  0.1043E+03
     -2.995  0.2013E+02  0.2177E+02  0.1060E+03  0.1055E+03
     -2.941  0.1185E+02  0.1591E+02  0.1066E+03  0.1064E+03
     -2.886  0.1965E+02  0.1776E+02  0.1077E+03  0.1074E+03
     -2.831  0.1597E+02  0.1875E+02  0.1086E+03  0.1084E+03
     -2.776  0.1105E+02  0.1346E+02  0.1092E+03  0.1091E+03
     -2.721  0.1640E+02  0.1192E+02  0.1101E+03  0.1098E+03
     -2.666  0.1908E+02  0.2109E+02  0.1111E+03  0.1109E+03
     -2.611  0.1755E+01  0.3461E+01  0.1112E+03  0.1111E+03
     -2.556  0.1881E+02  0.1354E+02  0.1122E+03  0.1119E+03
     -2.502  0.1078E+02  0.1315E+02  0.1128E+03  0.1126E+03
     -2.447  0.1800E+02  0.2093E+02  0.1138E+03  0.1137E+03
     -2.392  0.1662E+02  0.1423E+02  0.1147E+03  0.1145E+03
     -2.337  0.1891E+02  0.1670E+02  0.1158E+03  0.1154E+03
     -2.282  0.2498E+02  0.2593E+02  0.1171E+03  0.1169E+03
     -2.227  0.2125E+02  0.2111E+02  0.1183E+03  0.1180E+03
     -2.172  0.2054E+02  0.2073E+02  0.1194E+03  0.1192E+03
     -2.117  0.8362E+01  0.1119E+02  0.1199E+03  0.1198E+03
     -2.062  0.1545E+02  0.1634E+02  0.1207E+03  0.1207E+03
     -2.008  0.1591E+02  0.1145E+02  0.1216E+03  0.1213E+03
     -1.953  0.2153E+02  0.2048E+02  0.1228E+03  0.1224E+03
     -1.898  0.1603E+02  0.1975E+02  0.1237E+03  0.1235E+03
     -1.843  0.3682E+01  0.6744E+01  0.1239E+03  0.1239E+03
     -1.788  0.1178E+02  0.8910E+01  0.1245E+03  0.1244E+03
     -1.733  0.1773E+02  0.1962E+02  0.1255E+03  0.1254E+03
     -1.678  0.6821E+01  0.7236E+01  0.1259E+03  0.1258E+03
     -1.623  0.4553E+01  0.5209E+01  0.1261E+03  0.1261E+03
     -1.568  0.1999E+02  0.8175E+01  0.1272E+03  0.1266E+03
     -1.514  0.2477E+02  0.2928E+02  0.1286E+03  0.1282E+03
     -1.459  0.9661E+01  0.1287E+02  0.1291E+03  0.1289E+03
     -1.404  0.1839E+02  0.1448E+02  0.1301E+03  0.1297E+03
     -1.349  0.8263E+01  0.1098E+02  0.1306E+03  0.1303E+03
     -1.294  0.5860E+01  0.1079E+02  0.1309E+03  0.1309E+03
     -1.239  0.1068E+02  0.8330E+01  0.1315E+03  0.1313E+03
     -1.184  0.3608E+02  0.2839E+02  0.1335E+03  0.1329E+03
     -1.129  0.4879E+01  0.1352E+02  0.1337E+03  0.1336E+03
     -1.074  0.1583E+02  0.1347E+02  0.1346E+03  0.1344E+03
     -1.020  0.6624E+01  0.7464E+01  0.1350E+03  0.1348E+03
     -0.965  0.4964E+01  0.6896E+01  0.1352E+03  0.1352E+03
     -0.910  0.2572E+00  0.1628E+01  0.1353E+03  0.1353E+03
     -0.855  0.4508E+01  0.3182E+01  0.1355E+03  0.1354E+03
     -0.800  0.8476E+01  0.5640E+01  0.1360E+03  0.1357E+03
     -0.745  0.1894E+02  0.1694E+02  0.1370E+03  0.1367E+03
     -0.690  0.1387E+02  0.1978E+02  0.1378E+03  0.1377E+03
     -0.635  0.2331E+02  0.1485E+02  0.1390E+03  0.1386E+03
     -0.580  0.3698E+02  0.3919E+02  0.1411E+03  0.1407E+03
     -0.526  0.1462E+02  0.2051E+02  0.1419E+03  0.1418E+03
     -0.471  0.1650E+02  0.1238E+02  0.1428E+03  0.1425E+03
     -0.416  0.4499E+02  0.4235E+02  0.1453E+03  0.1448E+03
     -0.361  0.1413E+02  0.1301E+02  0.1460E+03  0.1456E+03
     -0.306  0.4387E+02  0.4113E+02  0.1484E+03  0.1478E+03
     -0.251  0.2467E+02  0.2827E+02  0.1498E+03  0.1494E+03
     -0.196  0.3895E+02  0.3888E+02  0.1519E+03  0.1515E+03
     -0.141  0.4688E+02  0.4645E+02  0.1545E+03  0.1541E+03
     -0.086  0.2169E+02  0.2477E+02  0.1557E+03  0.1554E+03
     -0.032  0.4636E+02  0.4285E+02  0.1582E+03  0.1578E+03
      0.023  0.3873E+02  0.4087E+02  0.1604E+03  0.1600E+03
      0.078  0.3165E+02  0.2723E+02  0.1621E+03  0.1615E+03
      0.133  0.4300E+02  0.4312E+02  0.1645E+03  0.1639E+03
      0.188  0.4191E+02  0.4559E+02  0.1668E+03  0.1664E+03
      0.243  0.4504E+02  0.4575E+02  0.1692E+03  0.1689E+03
      0.298  0.2967E+02  0.2647E+02  0.1709E+03  0.1703E+03
      0.353  0.3602E+02  0.3348E+02  0.1728E+03  0.1722E+03
      0.407  0.4349E+02  0.5043E+02  0.1752E+03  0.1749E+03
      0.462  0.3247E+02  0.2783E+02  0.1770E+03  0.1765E+03
      0.517  0.5508E+02  0.5581E+02  0.1800E+03  0.1795E+03
      0.572  0.3847E+02  0.3826E+02  0.1821E+03  0.1816E+03
      0.627  0.4388E+02  0.4297E+02  0.1845E+03  0.1840E+03
      0.682  0.5343E+02  0.5068E+02  0.1875E+03  0.1868E+03
      0.737  0.3027E+02  0.3988E+02  0.1891E+03  0.1890E+03
      0.792  0.3356E+02  0.3251E+02  0.1910E+03  0.1907E+03
      0.847  0.2622E+02  0.2284E+02  0.1924E+03  0.1920E+03
      0.901  0.5341E+02  0.4739E+02  0.1954E+03  0.1946E+03
      0.956  0.3545E+02  0.4106E+02  0.1973E+03  0.1969E+03
      1.011  0.3804E+02  0.4419E+02  0.1994E+03  0.1993E+03
      1.066  0.4303E+02  0.3814E+02  0.2018E+03  0.2014E+03
      1.121  0.2665E+02  0.2503E+02  0.2032E+03  0.2027E+03
      1.176  0.3725E+02  0.3286E+02  0.2053E+03  0.2045E+03
      1.231  0.3499E+02  0.4072E+02  0.2072E+03  0.2068E+03
      1.286  0.5385E+02  0.4916E+02  0.2101E+03  0.2095E+03
      1.341  0.5046E+02  0.4971E+02  0.2129E+03  0.2122E+03
      1.395  0.4860E+02  0.5159E+02  0.2156E+03  0.2150E+03
      1.450  0.3932E+02  0.3684E+02  0.2177E+03  0.2171E+03
      1.505  0.4315E+02  0.4576E+02  0.2201E+03  0.2196E+03
      1.560  0.4536E+02  0.4057E+02  0.2226E+03  0.2218E+03
      1.615  0.4763E+02  0.5402E+02  0.2252E+03  0.2248E+03
      1.670  0.3221E+02  0.3179E+02  0.2270E+03  0.2265E+03
      1.725  0.4650E+02  0.4927E+02  0.2295E+03  0.2292E+03
      1.780  0.4618E+02  0.3594E+02  0.2321E+03  0.2312E+03
      1.835  0.4240E+02  0.5392E+02  0.2344E+03  0.2341E+03
      1.889  0.4730E+02  0.3778E+02  0.2370E+03  0.2362E+03
      1.944  0.3523E+02  0.3859E+02  0.2389E+03  0.2383E+03
      1.999  0.4116E+02  0.3789E+02  0.2412E+03  0.2404E+03
      2.054  0.4807E+02  0.4584E+02  0.2438E+03  0.2429E+03
      2.109  0.2256E+02  0.3334E+02  0.2450E+03  0.2448E+03
      2.164  0.3733E+02  0.4009E+02  0.2471E+03  0.2470E+03
      2.219  0.2988E+02  0.2774E+02  0.2487E+03  0.2485E+03
      2.274  0.2670E+02  0.2376E+02  0.2502E+03  0.2498E+03
      2.329  0.4885E+02  0.4510E+02  0.2529E+03  0.2523E+03
      2.383  0.2684E+02  0.3321E+02  0.2544E+03  0.2541E+03
      2.438  0.4221E+02  0.4023E+02  0.2567E+03  0.2563E+03
      2.493  0.3217E+02  0.3660E+02  0.2584E+03  0.2583E+03
      2.548  0.3353E+02  0.3106E+02  0.2603E+03  0.2600E+03
      2.603  0.2722E+02  0.2610E+02  0.2618E+03  0.2614E+03
      2.658  0.2720E+02  0.2899E+02  0.2633E+03  0.2630E+03
      2.713  0.1299E+02  0.1383E+02  0.2640E+03  0.2638E+03
      2.768  0.2691E+02  0.2217E+02  0.2655E+03  0.2650E+03
      2.823  0.2338E+02  0.2922E+02  0.2667E+03  0.2666E+03
      2.877  0.3266E+02  0.1286E+02  0.2685E+03  0.2673E+03
      2.932  0.2563E+02  0.4136E+02  0.2699E+03  0.2696E+03
      2.987  0.2713E+02  0.2376E+02  0.2714E+03  0.2709E+03
      3.042  0.7638E+01  0.1551E+02  0.2718E+03  0.2717E+03
      3.097  0.3664E+02  0.3217E+02  0.2739E+03  0.2735E+03
      3.152  0.1745E+02  0.1054E+02  0.2748E+03  0.2741E+03
      3.207  0.1479E+02  0.2441E+02  0.2756E+03  0.2754E+03
      3.262  0.2074E+02  0.1806E+02  0.2768E+03  0.2764E+03
      3.317  0.2322E+02  0.1685E+02  0.2780E+03  0.2773E+03
      3.371  0.2659E+02  0.2858E+02  0.2795E+03  0.2789E+03
      3.426  0.1710E+02  0.1865E+02  0.2804E+03  0.2799E+03
      3.481  0.1713E+02  0.2360E+02  0.2814E+03  0.2812E+03
      3.536  0.3078E+02  0.1884E+02  0.2831E+03  0.2823E+03
      3.591  0.1317E+02  0.1742E+02  0.2838E+03  0.2832E+03
      3.646  0.3210E+02  0.2744E+02  0.2856E+03  0.2847E+03
      3.701  0.2949E+02  0.2860E+02  0.2872E+03  0.2863E+03
      3.756  0.3069E+02  0.2707E+02  0.2889E+03  0.2878E+03
      3.810  0.1813E+02  0.2853E+02  0.2899E+03  0.2894E+03
      3.865  0.2549E+02  0.2501E+02  0.2913E+03  0.2907E+03
      3.920  0.3662E+02  0.3164E+02  0.2933E+03  0.2925E+03
      3.975  0.1914E+02  0.2794E+02  0.2943E+03  0.2940E+03
      4.030  0.3290E+02  0.1981E+02  0.2961E+03  0.2951E+03
      4.085  0.2212E+02  0.3120E+02  0.2973E+03  0.2968E+03
      4.140  0.2992E+02  0.2206E+02  0.2990E+03  0.2980E+03
      4.195  0.4914E+02  0.4480E+02  0.3017E+03  0.3005E+03
      4.250  0.1457E+02  0.2945E+02  0.3025E+03  0.3021E+03
      4.304  0.1486E+02  0.1060E+02  0.3033E+03  0.3027E+03
      4.359  0.5057E+02  0.4692E+02  0.3061E+03  0.3052E+03
      4.414  0.1458E+02  0.2216E+02  0.3069E+03  0.3065E+03
      4.469  0.3085E+02  0.2907E+02  0.3086E+03  0.3081E+03
      4.524  0.3029E+02  0.2511E+02  0.3102E+03  0.3094E+03
      4.579  0.2974E+02  0.3025E+02  0.3119E+03  0.3111E+03
      4.634  0.2661E+02  0.3042E+02  0.3133E+03  0.3128E+03
      4.689  0.2582E+02  0.2828E+02  0.3147E+03  0.3143E+03
      4.744  0.2794E+02  0.2872E+02  0.3163E+03  0.3159E+03
      4.798  0.2839E+02  0.2355E+02  0.3178E+03  0.3172E+03
      4.853  0.3108E+02  0.3165E+02  0.3195E+03  0.3189E+03
      4.908  0.2653E+02  0.2606E+02  0.3210E+03  0.3204E+03
      4.963  0.4173E+02  0.3984E+02  0.3233E+03  0.3225E+03
      5.018  0.2894E+02  0.2971E+02  0.3249E+03  0.3242E+03
      5.073  0.3285E+02  0.3595E+02  0.3267E+03  0.3261E+03
      5.128  0.2978E+02  0.3189E+02  0.3283E+03  0.3279E+03
      5.183  0.3031E+02  0.2725E+02  0.3300E+03  0.3294E+03
      5.238  0.3464E+02  0.3320E+02  0.3319E+03  0.3312E+03
      5.292  0.3247E+02  0.2943E+02  0.3336E+03  0.3328E+03
      5.347  0.2673E+02  0.3755E+02  0.3351E+03  0.3349E+03
      5.402  0.2110E+02  0.2356E+02  0.3363E+03  0.3362E+03
      5.457  0.3872E+02  0.2834E+02  0.3384E+03  0.3377E+03
      5.512  0.3674E+02  0.4019E+02  0.3404E+03  0.3399E+03
      5.567  0.2166E+02  0.2256E+02  0.3416E+03  0.3412E+03
      5.622  0.3900E+02  0.3417E+02  0.3437E+03  0.3431E+03
      5.677  0.3221E+02  0.3774E+02  0.3455E+03  0.3451E+03
      5.732  0.1814E+02  0.2074E+02  0.3465E+03  0.3463E+03
      5.786  0.2358E+02  0.2248E+02  0.3478E+03  0.3475E+03
      5.841  0.2695E+02  0.2380E+02  0.3493E+03  0.3488E+03
      5.896  0.2300E+02  0.2488E+02  0.3505E+03  0.3502E+03
      5.951  0.1790E+02  0.2326E+02  0.3515E+03  0.3514E+03
      6.006  0.4578E+01  0.5563E+01  0.3518E+03  0.3518E+03
      6.061  0.4043E+01  0.4541E+01  0.3520E+03  0.3520E+03
      6.116  0.0000E+00  0.0000E+00  0.3520E+03  0.3520E+03
      6.171  0.0000E+00  0.0000E+00  0.3520E+03  0.3520E+03
      6.226  0.0000E+00  0.0000E+00  0.3520E+03  0.3520E+03
      6.280  0.0000E+00  0.0000E+00  0.3520E+03  0.3520E+03
      6.335  0.0000E+00  0.0000E+00  0.3520E+03  0.3520E+03
      6.390  0.0000E+00  0.0000E+00  0.3520E+03  0.3520E+03
      6.445  0.0000E+00  0.0000E+00  0.3520E+03  0.3520E+03
      6.500  0.0000E+00  0.0000E+00  0.3520E+03  0.3520E+03
      6.555  0.0000E+00  0.0000E+00  0.3520E+03  0.3520E+03
      6.610  0.0000E+00  0.0000E+00  0.3520E+03  0.3520E+03
      6.665  0.0000E+00  0.0000E+00  0.3520E+03  0.3520E+03
      6.719  0.0000E+00  0.0000E+00  0.3520E+03  0.3520E+03
      6.774  0.0000E+00  0.0000E+00  0.3520E+03  0.3520E+03
