<?xml version="1.0" encoding="ISO-8859-1"?>
<modeling>
 <generator>
  <i name="program" type="string">vasp </i>
  <i name="version" type="string">6.4.3  </i>
  <i name="subversion" type="string">19Mar24 (build Oct 22 2024 11:23:12) complex                          parallel </i>
  <i name="platform" type="string">LinuxIFC </i>
  <i name="date" type="string">2025 06 08 </i>
  <i name="time" type="string">15:47:44 </i>
 </generator>
 <incar>
  <i type="string" name="SYSTEM">Si and Ge interface calculation</i>
  <i type="int" name="ISTART">     0</i>
  <i type="logical" name="ADDGRID"> T  </i>
  <i type="int" name="ISPIN">     2</i>
  <i name="AMIX">      0.60000000</i>
  <i type="int" name="ICHARG">     2</i>
  <i type="int" name="NELM">   100</i>
  <i name="EDIFF">      0.00000010</i>
  <i name="ENCUT">    700.00000000</i>
  <i name="ENAUG">    900.00000000</i>
  <i type="int" name="NBANDS">   288</i>
  <i name="NUPDOWN">      1.00000000</i>
  <i name="NELECT">    480.00000000</i>
  <i type="string" name="LREAL">AUTO</i>
  <i type="int" name="ISMEAR">     0</i>
  <i name="SIGMA">      0.01000000</i>
  <i type="int" name="LMAXMIX">     6</i>
  <i type="logical" name="LWAVE"> F  </i>
  <i type="logical" name="LVTOT"> F  </i>
  <i type="logical" name="LVHAR"> T  </i>
  <i type="logical" name="LASPH"> T  </i>
  <i type="logical" name="LMIXTAU"> T  </i>
 </incar>
 <primitive_cell>
  <structure name="primitive_cell" >
   <crystal>
    <varray name="basis" >
     <v>      -0.00000045       6.65158829       0.00000000 </v>
     <v>      -9.40676790       0.00000317       0.00000000 </v>
     <v>       0.00000000       0.00000000      21.07213974 </v>
    </varray>
    <i name="volume">   1318.48267083 </i>
    <varray name="rec_basis" >
     <v>       0.00000005       0.15034003       0.00000000 </v>
     <v>      -0.10630644      -0.00000001       0.00000000 </v>
     <v>       0.00000000       0.00000000       0.04745603 </v>
    </varray>
   </crystal>
   <varray name="positions" >
    <v>       0.95703505       0.00000001       0.00000000 </v>
    <v>       0.45703458       0.99999999       0.09112262 </v>
    <v>       0.95703482       0.99999995       0.18224524 </v>
    <v>       0.45703422       0.99999988       0.27336788 </v>
    <v>       0.95703434       0.99999989       0.36449048 </v>
    <v>       0.45703398       0.99999994       0.45561317 </v>
    <v>       0.62370174       0.33333335       0.00000000 </v>
    <v>       0.12370148       0.33333334       0.09112262 </v>
    <v>       0.62370156       0.33333332       0.18224524 </v>
    <v>       0.12370133       0.33333332       0.27336785 </v>
    <v>       0.62370108       0.33333326       0.36449048 </v>
    <v>       0.12370085       0.33333320       0.45561317 </v>
    <v>       0.29036855       0.66666675       0.00000000 </v>
    <v>       0.79036783       0.66666661       0.09112262 </v>
    <v>       0.29036807       0.66666657       0.18224524 </v>
    <v>       0.79036771       0.66666663       0.27336788 </v>
    <v>       0.29036783       0.66666663       0.36449048 </v>
    <v>       0.79036723       0.66666657       0.45561317 </v>
    <v>       0.29036828       0.41666662       0.00000000 </v>
    <v>       0.79036837       0.41666672       0.09112262 </v>
    <v>       0.29036813       0.41666672       0.18224524 </v>
    <v>       0.79036783       0.41666645       0.27336788 </v>
    <v>       0.29036759       0.41666645       0.36449048 </v>
    <v>       0.79036771       0.41666657       0.45561317 </v>
    <v>       0.95703470       0.75000000       0.00000000 </v>
    <v>       0.45703482       0.74999995       0.09112262 </v>
    <v>       0.95703446       0.74999991       0.18224524 </v>
    <v>       0.45703458       0.74999983       0.27336788 </v>
    <v>       0.95703398       0.74999982       0.36449048 </v>
    <v>       0.45703434       0.74999989       0.45561317 </v>
    <v>       0.62370180       0.08333338       0.00000000 </v>
    <v>       0.12370155       0.08333332       0.09112262 </v>
    <v>       0.62370132       0.08333332       0.18224524 </v>
    <v>       0.12370143       0.08333326       0.27336788 </v>
    <v>       0.62370108       0.08333320       0.36449048 </v>
    <v>       0.12370085       0.08333314       0.45561317 </v>
    <v>       0.03595902       0.01797951       0.45561314 </v>
    <v>       0.53595901       0.26797950       0.56449056 </v>
    <v>       0.03595912       0.51797956       0.67336792 </v>
    <v>       0.53595912       0.76797956       0.78224528 </v>
    <v>       0.03595924       0.01797960       0.89112258 </v>
    <v>       0.53595972       0.26797969       0.00000012 </v>
    <v>       0.03595936       0.51797951       0.45561314 </v>
    <v>       0.53595901       0.76797950       0.56449056 </v>
    <v>       0.03595948       0.01797957       0.67336792 </v>
    <v>       0.53595948       0.26797963       0.78224528 </v>
    <v>       0.03595901       0.51797950       0.89112258 </v>
    <v>       0.53595948       0.76797968       0.00000012 </v>
    <v>       0.78595918       0.26797951       0.45561314 </v>
    <v>       0.28595907       0.51797950       0.56449056 </v>
    <v>       0.78595907       0.76797959       0.67336792 </v>
    <v>       0.28595930       0.01797959       0.78224528 </v>
    <v>       0.78595954       0.26797963       0.89112264 </v>
    <v>       0.28595930       0.51797961       0.99999994 </v>
    <v>       0.78595895       0.76797947       0.45561314 </v>
    <v>       0.28595907       0.01797951       0.56449056 </v>
    <v>       0.78595930       0.26797957       0.67336792 </v>
    <v>       0.28595930       0.51797959       0.78224528 </v>
    <v>       0.78595930       0.76797961       0.89112264 </v>
    <v>       0.28595930       0.01797962       0.99999994 </v>
   </varray>
  </structure>
  <varray name="primitive_index" >
   <v type="int" >        1 </v>
   <v type="int" >       26 </v>
   <v type="int" >       27 </v>
   <v type="int" >        4 </v>
   <v type="int" >        5 </v>
   <v type="int" >       30 </v>
   <v type="int" >        7 </v>
   <v type="int" >        8 </v>
   <v type="int" >       33 </v>
   <v type="int" >       34 </v>
   <v type="int" >       11 </v>
   <v type="int" >       12 </v>
   <v type="int" >       13 </v>
   <v type="int" >       20 </v>
   <v type="int" >       21 </v>
   <v type="int" >       16 </v>
   <v type="int" >       17 </v>
   <v type="int" >       24 </v>
   <v type="int" >       37 </v>
   <v type="int" >       68 </v>
   <v type="int" >       69 </v>
   <v type="int" >       40 </v>
   <v type="int" >       41 </v>
   <v type="int" >       72 </v>
   <v type="int" >       55 </v>
   <v type="int" >       56 </v>
   <v type="int" >       45 </v>
   <v type="int" >       46 </v>
   <v type="int" >       59 </v>
   <v type="int" >       60 </v>
   <v type="int" >       49 </v>
   <v type="int" >       62 </v>
   <v type="int" >       63 </v>
   <v type="int" >       52 </v>
   <v type="int" >       53 </v>
   <v type="int" >       66 </v>
   <v type="int" >       73 </v>
   <v type="int" >       74 </v>
   <v type="int" >       75 </v>
   <v type="int" >       76 </v>
   <v type="int" >       77 </v>
   <v type="int" >       78 </v>
   <v type="int" >       85 </v>
   <v type="int" >       86 </v>
   <v type="int" >       87 </v>
   <v type="int" >       88 </v>
   <v type="int" >       89 </v>
   <v type="int" >       90 </v>
   <v type="int" >      103 </v>
   <v type="int" >       98 </v>
   <v type="int" >       99 </v>
   <v type="int" >      100 </v>
   <v type="int" >      107 </v>
   <v type="int" >      102 </v>
   <v type="int" >      109 </v>
   <v type="int" >      110 </v>
   <v type="int" >      117 </v>
   <v type="int" >      112 </v>
   <v type="int" >      113 </v>
   <v type="int" >      114 </v>
  </varray>
 </primitive_cell>
 <kpoints>
  <generation param="Gamma">
   <v type="int" name="divisions">       4        2        1 </v>
   <v name="usershift">      0.00000000       0.00000000       0.00000000 </v>
   <v name="genvec1">      0.25000000       0.00000000       0.00000000 </v>
   <v name="genvec2">      0.00000000       0.50000000       0.00000000 </v>
   <v name="genvec3">      0.00000000       0.00000000       1.00000000 </v>
   <v name="shift">      0.00000000       0.00000000       0.00000000 </v>
  </generation>
  <varray name="kpointlist" >
   <v>       0.00000000       0.00000000       0.00000000 </v>
   <v>       0.25000000      -0.00000000       0.00000000 </v>
   <v>       0.25000000       0.50000000       0.00000000 </v>
   <v>       0.50000000      -0.00000000       0.00000000 </v>
   <v>       0.00000000       0.50000000       0.00000000 </v>
   <v>       0.50000000       0.50000000       0.00000000 </v>
  </varray>
  <varray name="weights" >
   <v>       0.12500000 </v>
   <v>       0.25000000 </v>
   <v>       0.25000000 </v>
   <v>       0.12500000 </v>
   <v>       0.12500000 </v>
   <v>       0.12500000 </v>
  </varray>
 </kpoints>
 <parameters>
  <separator name="general" >
   <i type="string" name="SYSTEM">Si and Ge interface calculation</i>
   <i type="logical" name="LCOMPAT"> F  </i>
  </separator>
  <separator name="electronic" >
   <i type="string" name="PREC">normal</i>
   <i name="ENMAX">    700.00000000</i>
   <i name="ENAUG">    900.00000000</i>
   <i name="EDIFF">      0.00000010</i>
   <i type="int" name="IALGO">    38</i>
   <i type="int" name="IWAVPR">    10</i>
   <i type="int" name="NBANDS">   288</i>
   <i type="int" name="NBANDSLOW">    -1</i>
   <i type="int" name="NBANDSHIGH">    -1</i>
   <i name="NELECT">    480.00000000</i>
   <i type="int" name="TURBO">     0</i>
   <i type="int" name="IRESTART">     0</i>
   <i type="int" name="NREBOOT">     0</i>
   <i type="int" name="NMIN">     0</i>
   <i name="EREF">      0.00000000</i>
   <separator name="electronic smearing" >
    <i type="int" name="ISMEAR">     0</i>
    <i name="SIGMA">      0.01000000</i>
    <i name="KSPACING">      0.50000000</i>
    <i type="logical" name="KGAMMA"> T  </i>
    <i type="logical" name="KBLOWUP"> T  </i>
   </separator>
   <separator name="electronic projectors" >
    <i type="logical" name="LREAL"> T  </i>
    <v name="ROPT">     -0.00050000     -0.00050000</v>
    <i type="int" name="LMAXPAW">  -100</i>
    <i type="int" name="LMAXMIX">     6</i>
    <i type="logical" name="NLSPLINE"> F  </i>
   </separator>
   <separator name="electronic startup" >
    <i type="int" name="ISTART">     0</i>
    <i type="int" name="ICHARG">     2</i>
    <i type="int" name="INIWAV">     1</i>
   </separator>
   <separator name="electronic spin" >
    <i type="int" name="ISPIN">     2</i>
    <i type="logical" name="LNONCOLLINEAR"> F  </i>
    <v name="MAGMOM">      0.00833333      0.00833333      0.00833333      0.00833333      0.00833333      0.00833333      0.00833333      0.00833333      0.00833333      0.00833333      0.00833333      0.00833333      0.00833333      0.00833333      0.00833333      0.00833333      0.00833333      0.00833333      0.00833333      0.00833333
      0.00833333      0.00833333      0.00833333      0.00833333      0.00833333      0.00833333      0.00833333      0.00833333      0.00833333      0.00833333      0.00833333      0.00833333      0.00833333      0.00833333      0.00833333      0.00833333      0.00833333      0.00833333      0.00833333      0.00833333
      0.00833333      0.00833333      0.00833333      0.00833333      0.00833333      0.00833333      0.00833333      0.00833333      0.00833333      0.00833333      0.00833333      0.00833333      0.00833333      0.00833333      0.00833333      0.00833333      0.00833333      0.00833333      0.00833333      0.00833333
      0.00833333      0.00833333      0.00833333      0.00833333      0.00833333      0.00833333      0.00833333      0.00833333      0.00833333      0.00833333      0.00833333      0.00833333      0.00833333      0.00833333      0.00833333      0.00833333      0.00833333      0.00833333      0.00833333      0.00833333
      0.00833333      0.00833333      0.00833333      0.00833333      0.00833333      0.00833333      0.00833333      0.00833333      0.00833333      0.00833333      0.00833333      0.00833333      0.00833333      0.00833333      0.00833333      0.00833333      0.00833333      0.00833333      0.00833333      0.00833333
      0.00833333      0.00833333      0.00833333      0.00833333      0.00833333      0.00833333      0.00833333      0.00833333      0.00833333      0.00833333      0.00833333      0.00833333      0.00833333      0.00833333      0.00833333      0.00833333      0.00833333      0.00833333      0.00833333      0.00833333
</v>
    <i name="NUPDOWN">      1.00000000</i>
    <i type="logical" name="LSORBIT"> F  </i>
    <v name="SAXIS">      0.00000000      0.00000000      1.00000000</v>
    <i type="logical" name="LSPIRAL"> F  </i>
    <v name="QSPIRAL">      0.00000000      0.00000000      0.00000000</v>
    <i type="logical" name="LZEROZ"> F  </i>
   </separator>
   <separator name="electronic exchange-correlation" >
    <i type="logical" name="LASPH"> T  </i>
   </separator>
   <separator name="electronic convergence" >
    <i type="int" name="NELM">   100</i>
    <i type="int" name="NELMDL">    -5</i>
    <i type="int" name="NELMIN">     2</i>
    <i name="ENINI">    700.00000000</i>
    <separator name="electronic convergence detail" >
     <i type="logical" name="LDIAG"> T  </i>
     <i type="logical" name="LSUBROT"> F  </i>
     <i name="WEIMIN">      0.00000000</i>
     <i name="EBREAK">      0.00000000</i>
     <i name="DEPER">      0.30000000</i>
     <i type="int" name="NRMM">     4</i>
     <i name="TIME">      0.40000000</i>
    </separator>
   </separator>
   <separator name="electronic mixer" >
    <i name="AMIX">      0.60000000</i>
    <i name="BMIX">      1.00000000</i>
    <i name="AMIN">      0.10000000</i>
    <i name="AMIX_MAG">      2.40000000</i>
    <i name="BMIX_MAG">      1.00000000</i>
    <separator name="electronic mixer details" >
     <i type="int" name="IMIX">     4</i>
     <i type="logical" name="MIXFIRST"> F  </i>
     <i type="int" name="MAXMIX">   -45</i>
     <i name="WC">    100.00000000</i>
     <i type="int" name="INIMIX">     1</i>
     <i type="int" name="MIXPRE">     1</i>
     <i type="int" name="MREMOVE">     5</i>
    </separator>
   </separator>
   <separator name="electronic dipolcorrection" >
    <i type="logical" name="LDIPOL"> F  </i>
    <i type="logical" name="LMONO"> F  </i>
    <i type="int" name="IDIPOL">     0</i>
    <i name="EPSILON">      1.00000000</i>
    <v name="DIPOL">   -100.00000000   -100.00000000   -100.00000000</v>
    <i name="EFIELD">      0.00000000</i>
    <i type="logical" name="LVACPOTAV"> F  </i>
   </separator>
  </separator>
  <separator name="grids" >
   <i type="int" name="NGX">    64</i>
   <i type="int" name="NGY">   108</i>
   <i type="int" name="NGZ">   140</i>
   <i type="int" name="NGXF">   128</i>
   <i type="int" name="NGYF">   216</i>
   <i type="int" name="NGZF">   280</i>
   <i type="logical" name="ADDGRID"> T  </i>
  </separator>
  <separator name="ionic" >
   <i type="int" name="NSW">     0</i>
   <i type="int" name="IBRION">    -1</i>
   <i type="int" name="MDALGO">     0</i>
   <i type="int" name="ISIF">     2</i>
   <i name="PSTRESS">      0.00000000</i>
   <i name="EDIFFG">      0.00000100</i>
   <i type="int" name="NFREE">     0</i>
   <i name="POTIM">      0.50000000</i>
   <i name="SMASS">     -3.00000000</i>
   <i name="SCALEE">      1.00000000</i>
  </separator>
  <separator name="ionic md" >
   <i name="TEBEG">      0.00010000</i>
   <i name="TEEND">      0.00010000</i>
   <i type="int" name="NBLOCK">     1</i>
   <i type="int" name="KBLOCK">     1</i>
   <i type="int" name="NPACO">   256</i>
   <i name="APACO">     10.00000000</i>
  </separator>
  <separator name="symmetry" >
   <i type="int" name="ISYM">     2</i>
   <i name="SYMPREC">      0.00001000</i>
  </separator>
  <separator name="dos" >
   <i type="int" name="LORBIT">     0</i>
   <v name="RWIGS">     -1.00000000     -1.00000000</v>
   <i type="int" name="NEDOS">   301</i>
   <i name="EMIN">     10.00000000</i>
   <i name="EMAX">    -10.00000000</i>
   <i name="EFERMI">      0.00000000</i>
  </separator>
  <separator name="writing" >
   <i type="int" name="NWRITE">     2</i>
   <i type="logical" name="LWAVE"> F  </i>
   <i type="logical" name="LDOWNSAMPLE"> F  </i>
   <i type="logical" name="LCHARG"> T  </i>
   <i type="logical" name="LPARD"> F  </i>
   <i type="logical" name="LVTOT"> F  </i>
   <i type="logical" name="LVHAR"> T  </i>
   <i type="logical" name="LELF"> F  </i>
   <i type="logical" name="LOPTICS"> F  </i>
   <v name="STM">      0.00000000      0.00000000      0.00000000      0.00000000      0.00000000      0.00000000      0.00000000</v>
  </separator>
  <separator name="performance" >
   <i type="int" name="NPAR">     4</i>
   <i type="int" name="NSIM">     4</i>
   <i type="int" name="NBLK">    -1</i>
   <i type="logical" name="LPLANE"> T  </i>
   <i type="logical" name="LSCALAPACK"> T  </i>
   <i type="logical" name="LSCAAWARE"> F  </i>
   <i type="logical" name="LSCALU"> F  </i>
   <i type="logical" name="LASYNC"> F  </i>
   <i type="logical" name="LORBITALREAL"> F  </i>
  </separator>
  <separator name="miscellaneous" >
   <i type="int" name="IDIOT">     3</i>
   <i type="int" name="PHON_NSTRUCT">    -1</i>
   <i type="logical" name="LMUSIC"> F  </i>
   <v name="POMASS">     28.08500000    118.71000000</v>
   <v name="DARWINR">      0.00000000      0.00000000</v>
   <v name="DARWINV">      1.00000000      1.00000000</v>
   <i type="logical" name="LCORR"> T  </i>
  </separator>
  <i type="logical" name="GGA_COMPAT"> T  </i>
  <i type="logical" name="LBERRY"> F  </i>
  <i type="int" name="ICORELEVEL">     0</i>
  <i type="logical" name="LDAU"> F  </i>
  <i type="int" name="I_CONSTRAINED_M">     0</i>
  <separator name="electronic exchange-correlation" >
   <i type="string" name="GGA    ">PE</i>
   <i type="string" name="XC_C">1</i>
   <i type="int" name="VOSKOWN">     0</i>
   <i type="logical" name="LHFCALC"> F  </i>
   <i type="string" name="PRECFOCK"></i>
   <i type="logical" name="LSYMGRAD"> F  </i>
   <i type="logical" name="LHFONE"> F  </i>
   <i type="logical" name="LRHFCALC"> F  </i>
   <i type="logical" name="LTHOMAS"> F  </i>
   <i type="logical" name="LMODELHF"> F  </i>
   <i type="logical" name="LFOCKACE"> F  </i>
   <i name="ENCUT4O">     -1.00000000</i>
   <i type="int" name="EXXOEP">     0</i>
   <i type="int" name="FOURORBIT">     0</i>
   <i name="AEXX">      0.00000000</i>
   <i name="HFALPHA">      0.00000000</i>
   <i name="MCALPHA">      0.00000000</i>
   <i name="ALDAX">      1.00000000</i>
   <i name="AGGAX">      1.00000000</i>
   <i name="AMGGAX">      1.00000000</i>
   <i name="ALDAC">      1.00000000</i>
   <i name="AGGAC">      1.00000000</i>
   <i name="AMGGAC">      1.00000000</i>
   <i type="int" name="NKREDX">     1</i>
   <i type="int" name="NKREDY">     1</i>
   <i type="int" name="NKREDZ">     1</i>
   <i type="logical" name="SHIFTRED"> F  </i>
   <i type="logical" name="ODDONLY"> F  </i>
   <i type="logical" name="EVENONLY"> F  </i>
   <i type="int" name="LMAXFOCK">     0</i>
   <i type="int" name="NMAXFOCKAE">     0</i>
   <i type="logical" name="LFOCKAEDFT"> F  </i>
   <i name="HFSCREEN">      0.00000000</i>
   <i name="HFSCREENC">      0.00000000</i>
   <i type="int" name="NBANDSGWLOW">     0</i>
  </separator>
  <separator name="vdW DFT" >
   <i type="logical" name="LUSE_VDW"> F  </i>
   <i type="int" name="IVDW_NL">    -1</i>
   <i type="logical" name="LSPIN_VDW"> F  </i>
   <i name="ZAB_VDW">     -0.84910000</i>
   <i name="GAMMA_VDW">      1.39626340</i>
   <i name="ALPHA_VDW">      0.00000000</i>
   <i name="PARAM1">      0.12340000</i>
   <i name="PARAM2">      1.00000000</i>
   <i name="BPARAM">      6.30000000</i>
   <i name="CPARAM">      0.00930000</i>
  </separator>
  <separator name="model GW" >
   <i type="int" name="MODEL_GW">     0</i>
   <i name="MODEL_EPS0">     13.18482977</i>
   <i name="MODEL_ALPHA">      1.00000000</i>
  </separator>
  <separator name="linear response parameters" >
   <i type="logical" name="LEPSILON"> F  </i>
   <i type="logical" name="LRPA"> F  </i>
   <i type="logical" name="LNABLA"> F  </i>
   <i type="logical" name="LVEL"> F  </i>
   <i name="CSHIFT">      0.10000000</i>
   <i name="OMEGAMAX">     -1.00000000</i>
   <i name="DEG_THRESHOLD">      0.00200000</i>
   <i name="RTIME">     -0.10000000</i>
   <i name="WPLASMAI">      0.00000000</i>
   <v name="DFIELD">      0.00000000      0.00000000      0.00000000</v>
   <v name="WPLASMA">      0.00000000      0.00000000      0.00000000      0.00000000      0.00000000      0.00000000      0.00000000      0.00000000      0.00000000</v>
  </separator>
  <separator name="orbital magnetization" >
   <i type="logical" name="NUCIND"> F  </i>
   <v name="MAGPOS">      0.00000000      0.00000000      0.00000000</v>
   <i type="logical" name="LNICSALL"> T  </i>
   <i type="logical" name="ORBITALMAG"> F  </i>
   <i type="logical" name="LMAGBLOCH"> F  </i>
   <i type="logical" name="LCHIMAG"> F  </i>
   <i type="logical" name="LGAUGE"> T  </i>
   <i type="int" name="MAGATOM">     0</i>
   <v name="MAGDIPOL">      0.00000000      0.00000000      0.00000000</v>
   <v name="AVECCONST">      0.00000000      0.00000000      0.00000000</v>
  </separator>
  <separator name="response functions" >
   <i type="logical" name="LALL_IN_ONE"> F  </i>
   <i type="int" name="IALL_IN_ONE">    -1</i>
   <i type="int" name="NBANDS_WAVE">    -1</i>
   <i type="logical" name="LFINITE_TEMPERATURE"> F  </i>
   <i type="logical" name="LADDER"> F  </i>
   <i type="logical" name="LRPAFORCE"> F  </i>
   <i type="logical" name="LFXC"> F  </i>
   <i type="logical" name="LHARTREE"> T  </i>
   <i type="int" name="IBSE">     0</i>
   <v type="int" name="KPOINT">    -1     0     0     0</v>
   <i type="logical" name="LTCTC"> F  </i>
   <i type="logical" name="LTCTE"> F  </i>
   <i type="logical" name="LTETE"> F  </i>
   <i type="logical" name="LTRIPLET"> F  </i>
   <i type="logical" name="LFXCEPS"> F  </i>
   <i type="logical" name="LFXHEG"> F  </i>
   <i type="int" name="NATURALO">     2</i>
   <i type="logical" name="LHOLEGF"> F  </i>
   <i type="logical" name="L2ORDER"> F  </i>
   <i type="logical" name="LDMP1"> F  </i>
   <i type="logical" name="LMP2LT"> F  </i>
   <i type="logical" name="LSMP2LT"> F  </i>
   <i type="logical" name="LGWLF"> F  </i>
   <i name="ENCUTGW">     -1.60000002</i>
   <i name="ENCUTGWSOFT">     -1.60000002</i>
   <i name="ENCUTLF">     -1.00000000</i>
   <i type="logical" name="ESF_SPLINES"> F  </i>
   <i name="ESF_CONV">      0.01000000</i>
   <i type="int" name="ESF_NINTER">    15</i>
   <i type="int" name="LMAXMP2">    -1</i>
   <i name="SCISSOR">      0.00000000</i>
   <i type="int" name="NOMEGA">     0</i>
   <i type="int" name="NOMEGAR">     0</i>
   <i type="int" name="NBANDSGW">    -1</i>
   <i type="int" name="NBANDSO">    -1</i>
   <i type="int" name="NBANDSV">    -1</i>
   <i type="int" name="NELMGW">     1</i>
   <i type="int" name="NELMHF">     1</i>
   <i type="int" name="DIM">     3</i>
   <i type="int" name="IESPILON">     4</i>
   <i type="int" name="ANTIRES">     0</i>
   <i name="OMEGAMAX">    -30.00000000</i>
   <i name="OMEGAMIN">    -30.00000000</i>
   <i name="OMEGATL">   -200.00000000</i>
   <i type="int" name="OMEGAGRID">     0</i>
   <i name="CSHIFT">     -0.10000000</i>
   <i type="logical" name="LSELFENERGY"> F  </i>
   <i type="logical" name="LSPECTRAL"> F  </i>
   <i type="logical" name="LSPECTRALGW"> F  </i>
   <i type="logical" name="LSINGLES"> F  </i>
   <i type="logical" name="LFERMIGW"> F  </i>
   <i type="logical" name="ODDONLYGW"> F  </i>
   <i type="logical" name="EVENONLYGW"> F  </i>
   <i type="int" name="NKREDLFX">     1</i>
   <i type="int" name="NKREDLFY">     1</i>
   <i type="int" name="NKREDLFZ">     1</i>
   <i type="int" name="MAXMEM">  2800</i>
   <i type="int" name="TELESCOPE">     0</i>
   <i type="int" name="NTAUPAR">    -1</i>
   <i type="int" name="NOMEGAPAR">    -1</i>
   <i name="DAMP_NEWTON">      0.80000001</i>
   <i name="LAMBDA">      1.00000000</i>
  </separator>
  <separator name="External order field" >
   <i name="OFIELD_KAPPA">      0.00000000</i>
   <v name="OFIELD_K">      0.00000000      0.00000000      0.00000000</v>
   <i name="OFIELD_Q6_NEAR">      0.00000000</i>
   <i name="OFIELD_Q6_FAR">      0.00000000</i>
   <i name="OFIELD_A">      0.00000000</i>
  </separator>
  <separator name="optional k-points parameters" >
   <i type="int" name="KPOINTS_OPT_MODE">     1</i>
   <i type="logical" name="LKPOINTS_OPT"> F  </i>
  </separator>
 </parameters>
 <atominfo>
  <atoms>     120 </atoms>
  <types>       2 </types>
  <array name="atoms" >
   <dimension dim="1">ion</dimension>
   <field type="string">element</field>
   <field type="int">atomtype</field>
   <set>
    <rc><c>Si</c><c>   1</c></rc>
    <rc><c>Si</c><c>   1</c></rc>
    <rc><c>Si</c><c>   1</c></rc>
    <rc><c>Si</c><c>   1</c></rc>
    <rc><c>Si</c><c>   1</c></rc>
    <rc><c>Si</c><c>   1</c></rc>
    <rc><c>Si</c><c>   1</c></rc>
    <rc><c>Si</c><c>   1</c></rc>
    <rc><c>Si</c><c>   1</c></rc>
    <rc><c>Si</c><c>   1</c></rc>
    <rc><c>Si</c><c>   1</c></rc>
    <rc><c>Si</c><c>   1</c></rc>
    <rc><c>Si</c><c>   1</c></rc>
    <rc><c>Si</c><c>   1</c></rc>
    <rc><c>Si</c><c>   1</c></rc>
    <rc><c>Si</c><c>   1</c></rc>
    <rc><c>Si</c><c>   1</c></rc>
    <rc><c>Si</c><c>   1</c></rc>
    <rc><c>Si</c><c>   1</c></rc>
    <rc><c>Si</c><c>   1</c></rc>
    <rc><c>Si</c><c>   1</c></rc>
    <rc><c>Si</c><c>   1</c></rc>
    <rc><c>Si</c><c>   1</c></rc>
    <rc><c>Si</c><c>   1</c></rc>
    <rc><c>Si</c><c>   1</c></rc>
    <rc><c>Si</c><c>   1</c></rc>
    <rc><c>Si</c><c>   1</c></rc>
    <rc><c>Si</c><c>   1</c></rc>
    <rc><c>Si</c><c>   1</c></rc>
    <rc><c>Si</c><c>   1</c></rc>
    <rc><c>Si</c><c>   1</c></rc>
    <rc><c>Si</c><c>   1</c></rc>
    <rc><c>Si</c><c>   1</c></rc>
    <rc><c>Si</c><c>   1</c></rc>
    <rc><c>Si</c><c>   1</c></rc>
    <rc><c>Si</c><c>   1</c></rc>
    <rc><c>Si</c><c>   1</c></rc>
    <rc><c>Si</c><c>   1</c></rc>
    <rc><c>Si</c><c>   1</c></rc>
    <rc><c>Si</c><c>   1</c></rc>
    <rc><c>Si</c><c>   1</c></rc>
    <rc><c>Si</c><c>   1</c></rc>
    <rc><c>Si</c><c>   1</c></rc>
    <rc><c>Si</c><c>   1</c></rc>
    <rc><c>Si</c><c>   1</c></rc>
    <rc><c>Si</c><c>   1</c></rc>
    <rc><c>Si</c><c>   1</c></rc>
    <rc><c>Si</c><c>   1</c></rc>
    <rc><c>Si</c><c>   1</c></rc>
    <rc><c>Si</c><c>   1</c></rc>
    <rc><c>Si</c><c>   1</c></rc>
    <rc><c>Si</c><c>   1</c></rc>
    <rc><c>Si</c><c>   1</c></rc>
    <rc><c>Si</c><c>   1</c></rc>
    <rc><c>Si</c><c>   1</c></rc>
    <rc><c>Si</c><c>   1</c></rc>
    <rc><c>Si</c><c>   1</c></rc>
    <rc><c>Si</c><c>   1</c></rc>
    <rc><c>Si</c><c>   1</c></rc>
    <rc><c>Si</c><c>   1</c></rc>
    <rc><c>Si</c><c>   1</c></rc>
    <rc><c>Si</c><c>   1</c></rc>
    <rc><c>Si</c><c>   1</c></rc>
    <rc><c>Si</c><c>   1</c></rc>
    <rc><c>Si</c><c>   1</c></rc>
    <rc><c>Si</c><c>   1</c></rc>
    <rc><c>Si</c><c>   1</c></rc>
    <rc><c>Si</c><c>   1</c></rc>
    <rc><c>Si</c><c>   1</c></rc>
    <rc><c>Si</c><c>   1</c></rc>
    <rc><c>Si</c><c>   1</c></rc>
    <rc><c>Si</c><c>   1</c></rc>
    <rc><c>Sn</c><c>   2</c></rc>
    <rc><c>Sn</c><c>   2</c></rc>
    <rc><c>Sn</c><c>   2</c></rc>
    <rc><c>Sn</c><c>   2</c></rc>
    <rc><c>Sn</c><c>   2</c></rc>
    <rc><c>Sn</c><c>   2</c></rc>
    <rc><c>Sn</c><c>   2</c></rc>
    <rc><c>Sn</c><c>   2</c></rc>
    <rc><c>Sn</c><c>   2</c></rc>
    <rc><c>Sn</c><c>   2</c></rc>
    <rc><c>Sn</c><c>   2</c></rc>
    <rc><c>Sn</c><c>   2</c></rc>
    <rc><c>Sn</c><c>   2</c></rc>
    <rc><c>Sn</c><c>   2</c></rc>
    <rc><c>Sn</c><c>   2</c></rc>
    <rc><c>Sn</c><c>   2</c></rc>
    <rc><c>Sn</c><c>   2</c></rc>
    <rc><c>Sn</c><c>   2</c></rc>
    <rc><c>Sn</c><c>   2</c></rc>
    <rc><c>Sn</c><c>   2</c></rc>
    <rc><c>Sn</c><c>   2</c></rc>
    <rc><c>Sn</c><c>   2</c></rc>
    <rc><c>Sn</c><c>   2</c></rc>
    <rc><c>Sn</c><c>   2</c></rc>
    <rc><c>Sn</c><c>   2</c></rc>
    <rc><c>Sn</c><c>   2</c></rc>
    <rc><c>Sn</c><c>   2</c></rc>
    <rc><c>Sn</c><c>   2</c></rc>
    <rc><c>Sn</c><c>   2</c></rc>
    <rc><c>Sn</c><c>   2</c></rc>
    <rc><c>Sn</c><c>   2</c></rc>
    <rc><c>Sn</c><c>   2</c></rc>
    <rc><c>Sn</c><c>   2</c></rc>
    <rc><c>Sn</c><c>   2</c></rc>
    <rc><c>Sn</c><c>   2</c></rc>
    <rc><c>Sn</c><c>   2</c></rc>
    <rc><c>Sn</c><c>   2</c></rc>
    <rc><c>Sn</c><c>   2</c></rc>
    <rc><c>Sn</c><c>   2</c></rc>
    <rc><c>Sn</c><c>   2</c></rc>
    <rc><c>Sn</c><c>   2</c></rc>
    <rc><c>Sn</c><c>   2</c></rc>
    <rc><c>Sn</c><c>   2</c></rc>
    <rc><c>Sn</c><c>   2</c></rc>
    <rc><c>Sn</c><c>   2</c></rc>
    <rc><c>Sn</c><c>   2</c></rc>
    <rc><c>Sn</c><c>   2</c></rc>
    <rc><c>Sn</c><c>   2</c></rc>
   </set>
  </array>
  <array name="atomtypes" >
   <dimension dim="1">type</dimension>
   <field type="int">atomspertype</field>
   <field type="string">element</field>
   <field>mass</field>
   <field>valence</field>
   <field type="string">pseudopotential</field>
   <set>
    <rc><c>  72</c><c>Si</c><c>     28.08500000</c><c>      4.00000000</c><c>  PAW_PBE Si 05Jan2001                  </c></rc>
    <rc><c>  48</c><c>Sn</c><c>    118.71000000</c><c>      4.00000000</c><c>  PAW_PBE Sn 08Apr2002                  </c></rc>
   </set>
  </array>
 </atominfo>
 <structure name="initialpos" >
  <crystal>
   <varray name="basis" >
    <v>       9.40676784       0.00000000       0.00000000 </v>
    <v>      -9.40676880      13.30317974       0.00000000 </v>
    <v>       0.00000000       0.00000000      21.07213974 </v>
   </varray>
   <i name="volume">   2636.96595344 </i>
   <varray name="rec_basis" >
    <v>       0.10630644       0.07517001       0.00000000 </v>
    <v>       0.00000000       0.07517000       0.00000000 </v>
    <v>       0.00000000       0.00000000       0.04745603 </v>
   </varray>
  </crystal>
  <varray name="positions" >
   <v>       0.97851729       0.97851729       0.00000000 </v>
   <v>       0.72851723       0.72851718       0.09112262 </v>
   <v>       0.47851718       0.47851712       0.18224524 </v>
   <v>       0.22851718       0.22851706       0.27336788 </v>
   <v>       0.97851706       0.97851694       0.36449048 </v>
   <v>       0.72851706       0.72851682       0.45561317 </v>
   <v>       0.97851729       0.31185064       0.00000000 </v>
   <v>       0.72851723       0.06185057       0.09112262 </v>
   <v>       0.47851718       0.81185049       0.18224524 </v>
   <v>       0.22851718       0.56185043       0.27336788 </v>
   <v>       0.97851706       0.31185031       0.36449048 </v>
   <v>       0.72851706       0.06185025       0.45561317 </v>
   <v>       0.97851729       0.64518404       0.00000000 </v>
   <v>       0.72851723       0.39518395       0.09112262 </v>
   <v>       0.47851718       0.14518388       0.18224524 </v>
   <v>       0.22851718       0.89518380       0.27336788 </v>
   <v>       0.97851706       0.64518368       0.36449048 </v>
   <v>       0.72851706       0.39518356       0.45561317 </v>
   <v>       0.47851729       0.14518397       0.00000000 </v>
   <v>       0.22851725       0.89518386       0.09112262 </v>
   <v>       0.97851723       0.64518380       0.18224524 </v>
   <v>       0.72851718       0.39518374       0.27336785 </v>
   <v>       0.47851712       0.14518362       0.36449048 </v>
   <v>       0.22851700       0.89518356       0.45561317 </v>
   <v>       0.47851729       0.47851732       0.00000000 </v>
   <v>       0.22851725       0.22851723       0.09112262 </v>
   <v>       0.97851723       0.97851718       0.18224524 </v>
   <v>       0.72851718       0.72851712       0.27336785 </v>
   <v>       0.47851712       0.47851700       0.36449048 </v>
   <v>       0.22851700       0.22851694       0.45561317 </v>
   <v>       0.47851729       0.81185067       0.00000000 </v>
   <v>       0.22851725       0.56185061       0.09112262 </v>
   <v>       0.97851723       0.31185055       0.18224524 </v>
   <v>       0.72851718       0.06185049       0.27336785 </v>
   <v>       0.47851712       0.81185037       0.36449048 </v>
   <v>       0.22851700       0.56185025       0.45561317 </v>
   <v>       0.72851735       0.14518397       0.00000000 </v>
   <v>       0.47851729       0.89518386       0.09112261 </v>
   <v>       0.22851726       0.64518380       0.18224524 </v>
   <v>       0.97851723       0.39518368       0.27336788 </v>
   <v>       0.72851718       0.14518362       0.36449048 </v>
   <v>       0.47851712       0.89518356       0.45561314 </v>
   <v>       0.72851735       0.47851729       0.00000000 </v>
   <v>       0.47851729       0.22851722       0.09112261 </v>
   <v>       0.22851726       0.97851718       0.18224524 </v>
   <v>       0.97851723       0.72851706       0.27336788 </v>
   <v>       0.72851718       0.47851700       0.36449048 </v>
   <v>       0.47851712       0.22851688       0.45561314 </v>
   <v>       0.72851735       0.81185073       0.00000000 </v>
   <v>       0.47851729       0.56185067       0.09112261 </v>
   <v>       0.22851726       0.31185058       0.18224524 </v>
   <v>       0.97851723       0.06185048       0.27336788 </v>
   <v>       0.72851718       0.81185037       0.36449048 </v>
   <v>       0.47851712       0.56185031       0.45561314 </v>
   <v>       0.22851729       0.97851729       0.00000000 </v>
   <v>       0.97851723       0.72851718       0.09112262 </v>
   <v>       0.72851718       0.47851712       0.18224524 </v>
   <v>       0.47851723       0.22851706       0.27336785 </v>
   <v>       0.22851712       0.97851694       0.36449048 </v>
   <v>       0.97851706       0.72851694       0.45561317 </v>
   <v>       0.22851729       0.31185061       0.00000000 </v>
   <v>       0.97851723       0.06185054       0.09112262 </v>
   <v>       0.72851718       0.81185049       0.18224524 </v>
   <v>       0.47851723       0.56185043       0.27336785 </v>
   <v>       0.22851712       0.31185031       0.36449048 </v>
   <v>       0.97851706       0.06185019       0.45561317 </v>
   <v>       0.22851729       0.64518410       0.00000000 </v>
   <v>       0.97851723       0.39518395       0.09112262 </v>
   <v>       0.72851718       0.14518389       0.18224524 </v>
   <v>       0.47851723       0.89518380       0.27336785 </v>
   <v>       0.22851712       0.64518368       0.36449048 </v>
   <v>       0.97851706       0.39518362       0.45561317 </v>
   <v>       0.00000000       0.01797951       0.45561314 </v>
   <v>       0.00000000       0.26797950       0.56449056 </v>
   <v>       0.00000000       0.51797956       0.67336792 </v>
   <v>       0.00000000       0.76797956       0.78224528 </v>
   <v>       0.00000003       0.01797962       0.89112258 </v>
   <v>       0.99999994       0.26797962       0.00000012 </v>
   <v>       0.49999994       0.51797944       0.45561314 </v>
   <v>       0.50000000       0.76797950       0.56449056 </v>
   <v>       0.49999991       0.01797950       0.67336792 </v>
   <v>       0.49999991       0.26797950       0.78224528 </v>
   <v>       0.49999991       0.51797950       0.89112258 </v>
   <v>       0.50000006       0.76797974       0.00000012 </v>
   <v>       0.99999994       0.51797944       0.45561314 </v>
   <v>       0.00000000       0.76797950       0.56449056 </v>
   <v>       0.99999994       0.01797950       0.67336792 </v>
   <v>       0.99999988       0.26797950       0.78224528 </v>
   <v>       0.00000000       0.51797950       0.89112258 </v>
   <v>       0.00000006       0.76797974       0.00000012 </v>
   <v>       0.49999997       0.01797951       0.45561314 </v>
   <v>       0.50000000       0.26797950       0.56449056 </v>
   <v>       0.50000000       0.51797956       0.67336792 </v>
   <v>       0.49999988       0.76797956       0.78224528 </v>
   <v>       0.50000006       0.01797962       0.89112258 </v>
   <v>       0.49999994       0.26797962       0.00000012 </v>
   <v>       0.12499997       0.39297947       0.45561314 </v>
   <v>       0.12500000       0.64297950       0.56449056 </v>
   <v>       0.12499992       0.89297950       0.67336792 </v>
   <v>       0.12500003       0.14297962       0.78224528 </v>
   <v>       0.12500003       0.39297962       0.89112264 </v>
   <v>       0.12500001       0.64297962       0.99999994 </v>
   <v>       0.62499994       0.89297944       0.45561314 </v>
   <v>       0.62500000       0.14297950       0.56449056 </v>
   <v>       0.62499994       0.39297950       0.67336792 </v>
   <v>       0.62500006       0.64297962       0.78224528 </v>
   <v>       0.62500000       0.89297962       0.89112264 </v>
   <v>       0.62500000       0.14297962       0.99999994 </v>
   <v>       0.12499998       0.89297944       0.45561314 </v>
   <v>       0.12499999       0.14297950       0.56449056 </v>
   <v>       0.12499999       0.39297950       0.67336792 </v>
   <v>       0.12500003       0.64297962       0.78224528 </v>
   <v>       0.12500001       0.89297962       0.89112264 </v>
   <v>       0.12500000       0.14297962       0.99999994 </v>
   <v>       0.62499994       0.39297947       0.45561314 </v>
   <v>       0.62500000       0.64297950       0.56449056 </v>
   <v>       0.62499994       0.89297950       0.67336792 </v>
   <v>       0.62499994       0.14297962       0.78224528 </v>
   <v>       0.62500006       0.39297962       0.89112258 </v>
   <v>       0.62499994       0.64297962       0.00000012 </v>
  </varray>
 </structure>
 <calculation>
  <scstep>
   <time name="dav">   20.58   20.76</time>
   <time name="total">   22.07   22.26</time>
   <energy>
    <i name="alphaZ">    383.53918962 </i>
    <i name="ewald">  -5783.26415958 </i>
    <i name="hartreedc">  -6843.80738177 </i>
    <i name="XCdc">  -6358.89219627 </i>
    <i name="pawpsdc">  15436.84863564 </i>
    <i name="pawaedc">  -8225.15040161 </i>
    <i name="eentropy">     -0.00067685 </i>
    <i name="bandstr">   2838.40278935 </i>
    <i name="atom">  11936.92408711 </i>
    <i name="e_fr_energy">   3384.59988564 </i>
    <i name="e_wo_entrp">   3384.60056248 </i>
    <i name="e_0_energy">   3384.60022406 </i>
   </energy>
  </scstep>
  <scstep>
   <time name="dav">   23.40   23.62</time>
   <time name="total">   23.40   23.62</time>
   <energy>
    <i name="e_fr_energy">    785.87498522 </i>
    <i name="e_wo_entrp">    785.87762772 </i>
    <i name="e_0_energy">    785.87630647 </i>
   </energy>
  </scstep>
  <scstep>
   <time name="dav">   25.50   25.74</time>
   <time name="total">   25.50   25.74</time>
   <energy>
    <i name="e_fr_energy">    507.91037014 </i>
    <i name="e_wo_entrp">    507.91236923 </i>
    <i name="e_0_energy">    507.91136968 </i>
   </energy>
  </scstep>
  <scstep>
   <time name="dav">   27.17   27.48</time>
   <time name="total">   27.17   27.48</time>
   <energy>
    <i name="e_fr_energy">    491.37441226 </i>
    <i name="e_wo_entrp">    491.37785846 </i>
    <i name="e_0_energy">    491.37613536 </i>
   </energy>
  </scstep>
  <scstep>
   <time name="dav">   29.36   29.70</time>
   <time name="total">   30.93   31.27</time>
   <energy>
    <i name="e_fr_energy">    490.51450529 </i>
    <i name="e_wo_entrp">    490.51818119 </i>
    <i name="e_0_energy">    490.51634324 </i>
   </energy>
  </scstep>
  <scstep>
   <time name="dav">   26.89   27.14</time>
   <time name="total">   29.92   30.20</time>
   <energy>
    <i name="e_fr_energy">    528.37200047 </i>
    <i name="e_wo_entrp">    528.37396463 </i>
    <i name="e_0_energy">    528.37298255 </i>
   </energy>
  </scstep>
  <scstep>
   <time name="dav">   31.40   31.67</time>
   <time name="total">   34.43   34.72</time>
   <energy>
    <i name="e_fr_energy">    250.60584422 </i>
    <i name="e_wo_entrp">    250.60780283 </i>
    <i name="e_0_energy">    250.60682353 </i>
   </energy>
  </scstep>
  <scstep>
   <time name="dav">   28.08   28.33</time>
   <time name="total">   31.10   31.37</time>
   <energy>
    <i name="e_fr_energy">    559.58263405 </i>
    <i name="e_wo_entrp">    559.58534585 </i>
    <i name="e_0_energy">    559.58398995 </i>
   </energy>
  </scstep>
  <scstep>
   <time name="dav">   25.78   26.01</time>
   <time name="total">   28.80   29.05</time>
   <energy>
    <i name="e_fr_energy">    540.29808464 </i>
    <i name="e_wo_entrp">    540.29991878 </i>
    <i name="e_0_energy">    540.29900171 </i>
   </energy>
  </scstep>
  <scstep>
   <time name="dav">   25.20   25.42</time>
   <time name="total">   28.21   28.46</time>
   <energy>
    <i name="e_fr_energy">    548.59348515 </i>
    <i name="e_wo_entrp">    548.59538224 </i>
    <i name="e_0_energy">    548.59443370 </i>
   </energy>
  </scstep>
  <scstep>
   <time name="dav">   23.97   24.18</time>
   <time name="total">   26.97   27.21</time>
   <energy>
    <i name="e_fr_energy">    547.91704015 </i>
    <i name="e_wo_entrp">    547.91838031 </i>
    <i name="e_0_energy">    547.91771023 </i>
   </energy>
  </scstep>
  <scstep>
   <time name="dav">   26.40   26.69</time>
   <time name="total">   29.42   29.74</time>
   <energy>
    <i name="e_fr_energy">    552.50008225 </i>
    <i name="e_wo_entrp">    552.50236311 </i>
    <i name="e_0_energy">    552.50122268 </i>
   </energy>
  </scstep>
  <scstep>
   <time name="dav">   24.26   24.52</time>
   <time name="total">   27.26   27.55</time>
   <energy>
    <i name="e_fr_energy">    553.09277367 </i>
    <i name="e_wo_entrp">    553.09561508 </i>
    <i name="e_0_energy">    553.09419438 </i>
   </energy>
  </scstep>
  <scstep>
   <time name="dav">   23.11   23.35</time>
   <time name="total">   26.13   26.40</time>
   <energy>
    <i name="e_fr_energy">    552.59791397 </i>
    <i name="e_wo_entrp">    552.60029682 </i>
    <i name="e_0_energy">    552.59910540 </i>
   </energy>
  </scstep>
  <scstep>
   <time name="dav">   23.65   23.86</time>
   <time name="total">   26.68   26.91</time>
   <energy>
    <i name="e_fr_energy">    553.10461285 </i>
    <i name="e_wo_entrp">    553.10847395 </i>
    <i name="e_0_energy">    553.10654340 </i>
   </energy>
  </scstep>
  <scstep>
   <time name="dav">   24.38   24.58</time>
   <time name="total">   27.39   27.62</time>
   <energy>
    <i name="e_fr_energy">    553.26940289 </i>
    <i name="e_wo_entrp">    553.27340484 </i>
    <i name="e_0_energy">    553.27140386 </i>
   </energy>
  </scstep>
  <scstep>
   <time name="dav">   24.85   25.12</time>
   <time name="total">   27.87   28.17</time>
   <energy>
    <i name="e_fr_energy">    553.41957276 </i>
    <i name="e_wo_entrp">    553.42354910 </i>
    <i name="e_0_energy">    553.42156093 </i>
   </energy>
  </scstep>
  <scstep>
   <time name="dav">   28.73   29.05</time>
   <time name="total">   31.74   32.09</time>
   <energy>
    <i name="e_fr_energy">    553.47554265 </i>
    <i name="e_wo_entrp">    553.47943616 </i>
    <i name="e_0_energy">    553.47748940 </i>
   </energy>
  </scstep>
  <scstep>
   <time name="dav">   23.02   23.28</time>
   <time name="total">   26.03   26.32</time>
   <energy>
    <i name="e_fr_energy">    553.53068063 </i>
    <i name="e_wo_entrp">    553.53445413 </i>
    <i name="e_0_energy">    553.53256738 </i>
   </energy>
  </scstep>
  <scstep>
   <time name="dav">   24.58   24.81</time>
   <time name="total">   27.59   27.85</time>
   <energy>
    <i name="e_fr_energy">    553.59533242 </i>
    <i name="e_wo_entrp">    553.59853229 </i>
    <i name="e_0_energy">    553.59693235 </i>
   </energy>
  </scstep>
  <scstep>
   <time name="dav">   23.61   23.82</time>
   <time name="total">   26.63   26.86</time>
   <energy>
    <i name="e_fr_energy">    553.59424008 </i>
    <i name="e_wo_entrp">    553.59764425 </i>
    <i name="e_0_energy">    553.59594217 </i>
   </energy>
  </scstep>
  <scstep>
   <time name="dav">   24.86   25.08</time>
   <time name="total">   27.87   28.11</time>
   <energy>
    <i name="e_fr_energy">    553.59774619 </i>
    <i name="e_wo_entrp">    553.60115017 </i>
    <i name="e_0_energy">    553.59944818 </i>
   </energy>
  </scstep>
  <scstep>
   <time name="dav">   24.14   24.35</time>
   <time name="total">   27.16   27.39</time>
   <energy>
    <i name="e_fr_energy">    553.59724086 </i>
    <i name="e_wo_entrp">    553.60063845 </i>
    <i name="e_0_energy">    553.59893965 </i>
   </energy>
  </scstep>
  <scstep>
   <time name="dav">   24.23   24.43</time>
   <time name="total">   27.24   27.46</time>
   <energy>
    <i name="e_fr_energy">    553.59723280 </i>
    <i name="e_wo_entrp">    553.60067635 </i>
    <i name="e_0_energy">    553.59895457 </i>
   </energy>
  </scstep>
  <scstep>
   <time name="dav">   23.47   23.67</time>
   <time name="total">   26.49   26.71</time>
   <energy>
    <i name="e_fr_energy">    553.59497194 </i>
    <i name="e_wo_entrp">    553.59840345 </i>
    <i name="e_0_energy">    553.59668769 </i>
   </energy>
  </scstep>
  <scstep>
   <time name="dav">   24.22   24.45</time>
   <time name="total">   27.23   27.49</time>
   <energy>
    <i name="e_fr_energy">    553.58919009 </i>
    <i name="e_wo_entrp">    553.59264332 </i>
    <i name="e_0_energy">    553.59091671 </i>
   </energy>
  </scstep>
  <scstep>
   <time name="dav">   23.01   23.27</time>
   <time name="total">   26.02   26.31</time>
   <energy>
    <i name="e_fr_energy">    553.59049905 </i>
    <i name="e_wo_entrp">    553.59395468 </i>
    <i name="e_0_energy">    553.59222686 </i>
   </energy>
  </scstep>
  <scstep>
   <time name="dav">   23.68   23.95</time>
   <time name="total">   26.70   27.00</time>
   <energy>
    <i name="e_fr_energy">    553.59215173 </i>
    <i name="e_wo_entrp">    553.59560301 </i>
    <i name="e_0_energy">    553.59387737 </i>
   </energy>
  </scstep>
  <scstep>
   <time name="dav">   25.01   25.29</time>
   <time name="total">   28.04   28.34</time>
   <energy>
    <i name="e_fr_energy">    553.59290515 </i>
    <i name="e_wo_entrp">    553.59636068 </i>
    <i name="e_0_energy">    553.59463292 </i>
   </energy>
  </scstep>
  <scstep>
   <time name="dav">   23.99   24.20</time>
   <time name="total">   27.01   27.24</time>
   <energy>
    <i name="e_fr_energy">    553.59489311 </i>
    <i name="e_wo_entrp">    553.59836237 </i>
    <i name="e_0_energy">    553.59662774 </i>
   </energy>
  </scstep>
  <scstep>
   <time name="dav">   23.98   24.19</time>
   <time name="total">   27.00   27.23</time>
   <energy>
    <i name="e_fr_energy">    553.59945309 </i>
    <i name="e_wo_entrp">    553.60295232 </i>
    <i name="e_0_energy">    553.60120270 </i>
   </energy>
  </scstep>
  <scstep>
   <time name="dav">   24.49   24.70</time>
   <time name="total">   27.51   27.75</time>
   <energy>
    <i name="e_fr_energy">    553.60127746 </i>
    <i name="e_wo_entrp">    553.60477980 </i>
    <i name="e_0_energy">    553.60302863 </i>
   </energy>
  </scstep>
  <scstep>
   <time name="dav">   23.61   23.82</time>
   <time name="total">   26.63   26.87</time>
   <energy>
    <i name="e_fr_energy">    553.60134125 </i>
    <i name="e_wo_entrp">    553.60484821 </i>
    <i name="e_0_energy">    553.60309473 </i>
   </energy>
  </scstep>
  <scstep>
   <time name="dav">   27.45   27.69</time>
   <time name="total">   30.47   30.73</time>
   <energy>
    <i name="e_fr_energy">    553.60143284 </i>
    <i name="e_wo_entrp">    553.60493872 </i>
    <i name="e_0_energy">    553.60318578 </i>
   </energy>
  </scstep>
  <scstep>
   <time name="dav">   25.15   25.37</time>
   <time name="total">   28.17   28.41</time>
   <energy>
    <i name="e_fr_energy">    553.60145119 </i>
    <i name="e_wo_entrp">    553.60495644 </i>
    <i name="e_0_energy">    553.60320381 </i>
   </energy>
  </scstep>
  <scstep>
   <time name="dav">   23.95   24.17</time>
   <time name="total">   26.96   27.21</time>
   <energy>
    <i name="e_fr_energy">    553.60181175 </i>
    <i name="e_wo_entrp">    553.60532358 </i>
    <i name="e_0_energy">    553.60356766 </i>
   </energy>
  </scstep>
  <scstep>
   <time name="dav">   24.17   24.39</time>
   <time name="total">   27.20   27.45</time>
   <energy>
    <i name="e_fr_energy">    553.60212938 </i>
    <i name="e_wo_entrp">    553.60564461 </i>
    <i name="e_0_energy">    553.60388699 </i>
   </energy>
  </scstep>
  <scstep>
   <time name="dav">   24.57   24.79</time>
   <time name="total">   27.60   27.84</time>
   <energy>
    <i name="e_fr_energy">    553.60230455 </i>
    <i name="e_wo_entrp">    553.60582186 </i>
    <i name="e_0_energy">    553.60406320 </i>
   </energy>
  </scstep>
  <scstep>
   <time name="dav">   24.03   24.24</time>
   <time name="total">   27.06   27.29</time>
   <energy>
    <i name="e_fr_energy">    553.60244558 </i>
    <i name="e_wo_entrp">    553.60596585 </i>
    <i name="e_0_energy">    553.60420572 </i>
   </energy>
  </scstep>
  <scstep>
   <time name="dav">   24.30   24.51</time>
   <time name="total">   27.34   27.57</time>
   <energy>
    <i name="e_fr_energy">    553.60253701 </i>
    <i name="e_wo_entrp">    553.60605887 </i>
    <i name="e_0_energy">    553.60429794 </i>
   </energy>
  </scstep>
  <scstep>
   <time name="dav">   25.71   25.94</time>
   <time name="total">   28.74   29.00</time>
   <energy>
    <i name="e_fr_energy">    553.60256432 </i>
    <i name="e_wo_entrp">    553.60608668 </i>
    <i name="e_0_energy">    553.60432550 </i>
   </energy>
  </scstep>
  <scstep>
   <time name="dav">   24.27   24.54</time>
   <time name="total">   27.30   27.60</time>
   <energy>
    <i name="e_fr_energy">    553.60257281 </i>
    <i name="e_wo_entrp">    553.60609513 </i>
    <i name="e_0_energy">    553.60433397 </i>
   </energy>
  </scstep>
  <scstep>
   <time name="dav">   25.89   26.12</time>
   <time name="total">   28.92   29.18</time>
   <energy>
    <i name="e_fr_energy">    553.60257634 </i>
    <i name="e_wo_entrp">    553.60609888 </i>
    <i name="e_0_energy">    553.60433761 </i>
   </energy>
  </scstep>
  <scstep>
   <time name="dav">   24.99   25.22</time>
   <time name="total">   28.03   28.28</time>
   <energy>
    <i name="e_fr_energy">    553.60258423 </i>
    <i name="e_wo_entrp">    553.60610694 </i>
    <i name="e_0_energy">    553.60434558 </i>
   </energy>
  </scstep>
  <scstep>
   <time name="dav">   24.70   24.92</time>
   <time name="total">   27.74   27.98</time>
   <energy>
    <i name="e_fr_energy">    553.60259220 </i>
    <i name="e_wo_entrp">    553.60611525 </i>
    <i name="e_0_energy">    553.60435372 </i>
   </energy>
  </scstep>
  <scstep>
   <time name="dav">   26.09   26.32</time>
   <time name="total">   29.12   29.38</time>
   <energy>
    <i name="e_fr_energy">    553.60259189 </i>
    <i name="e_wo_entrp">    553.60611489 </i>
    <i name="e_0_energy">    553.60435339 </i>
   </energy>
  </scstep>
  <scstep>
   <time name="dav">   22.67   22.86</time>
   <time name="total">   24.14   24.35</time>
   <energy>
    <i name="alphaZ">    383.53918962 </i>
    <i name="ewald">  -5783.26415958 </i>
    <i name="hartreedc">  -7117.04873146 </i>
    <i name="XCdc">  -6309.98608321 </i>
    <i name="pawpsdc">3344730.57437055 </i>
    <i name="pawaedc">**************** </i>
    <i name="eentropy">     -0.00352263 </i>
    <i name="bandstr">    305.23511675 </i>
    <i name="atom">  11936.92408711 </i>
    <i name="e_fr_energy">    553.60259185 </i>
    <i name="e_wo_entrp">    553.60611448 </i>
    <i name="e_0_energy">    553.60435317 </i>
   </energy>
  </scstep>
  <structure>
   <crystal>
    <varray name="basis" >
     <v>       9.40676784       0.00000000       0.00000000 </v>
     <v>      -9.40676880      13.30317974       0.00000000 </v>
     <v>       0.00000000       0.00000000      21.07213974 </v>
    </varray>
    <i name="volume">   2636.96595344 </i>
    <varray name="rec_basis" >
     <v>       0.10630644       0.07517001       0.00000000 </v>
     <v>       0.00000000       0.07517000       0.00000000 </v>
     <v>       0.00000000       0.00000000       0.04745603 </v>
    </varray>
   </crystal>
   <varray name="positions" >
    <v>       0.97851729       0.97851729       0.00000000 </v>
    <v>       0.72851723       0.72851718       0.09112262 </v>
    <v>       0.47851718       0.47851712       0.18224524 </v>
    <v>       0.22851718       0.22851706       0.27336788 </v>
    <v>       0.97851706       0.97851694       0.36449048 </v>
    <v>       0.72851706       0.72851682       0.45561317 </v>
    <v>       0.97851729       0.31185064       0.00000000 </v>
    <v>       0.72851723       0.06185057       0.09112262 </v>
    <v>       0.47851718       0.81185049       0.18224524 </v>
    <v>       0.22851718       0.56185043       0.27336788 </v>
    <v>       0.97851706       0.31185031       0.36449048 </v>
    <v>       0.72851706       0.06185025       0.45561317 </v>
    <v>       0.97851729       0.64518404       0.00000000 </v>
    <v>       0.72851723       0.39518395       0.09112262 </v>
    <v>       0.47851718       0.14518388       0.18224524 </v>
    <v>       0.22851718       0.89518380       0.27336788 </v>
    <v>       0.97851706       0.64518368       0.36449048 </v>
    <v>       0.72851706       0.39518356       0.45561317 </v>
    <v>       0.47851729       0.14518397       0.00000000 </v>
    <v>       0.22851725       0.89518386       0.09112262 </v>
    <v>       0.97851723       0.64518380       0.18224524 </v>
    <v>       0.72851718       0.39518374       0.27336785 </v>
    <v>       0.47851712       0.14518362       0.36449048 </v>
    <v>       0.22851700       0.89518356       0.45561317 </v>
    <v>       0.47851729       0.47851732       0.00000000 </v>
    <v>       0.22851725       0.22851723       0.09112262 </v>
    <v>       0.97851723       0.97851718       0.18224524 </v>
    <v>       0.72851718       0.72851712       0.27336785 </v>
    <v>       0.47851712       0.47851700       0.36449048 </v>
    <v>       0.22851700       0.22851694       0.45561317 </v>
    <v>       0.47851729       0.81185067       0.00000000 </v>
    <v>       0.22851725       0.56185061       0.09112262 </v>
    <v>       0.97851723       0.31185055       0.18224524 </v>
    <v>       0.72851718       0.06185049       0.27336785 </v>
    <v>       0.47851712       0.81185037       0.36449048 </v>
    <v>       0.22851700       0.56185025       0.45561317 </v>
    <v>       0.72851735       0.14518397       0.00000000 </v>
    <v>       0.47851729       0.89518386       0.09112261 </v>
    <v>       0.22851726       0.64518380       0.18224524 </v>
    <v>       0.97851723       0.39518368       0.27336788 </v>
    <v>       0.72851718       0.14518362       0.36449048 </v>
    <v>       0.47851712       0.89518356       0.45561314 </v>
    <v>       0.72851735       0.47851729       0.00000000 </v>
    <v>       0.47851729       0.22851722       0.09112261 </v>
    <v>       0.22851726       0.97851718       0.18224524 </v>
    <v>       0.97851723       0.72851706       0.27336788 </v>
    <v>       0.72851718       0.47851700       0.36449048 </v>
    <v>       0.47851712       0.22851688       0.45561314 </v>
    <v>       0.72851735       0.81185073       0.00000000 </v>
    <v>       0.47851729       0.56185067       0.09112261 </v>
    <v>       0.22851726       0.31185058       0.18224524 </v>
    <v>       0.97851723       0.06185048       0.27336788 </v>
    <v>       0.72851718       0.81185037       0.36449048 </v>
    <v>       0.47851712       0.56185031       0.45561314 </v>
    <v>       0.22851729       0.97851729       0.00000000 </v>
    <v>       0.97851723       0.72851718       0.09112262 </v>
    <v>       0.72851718       0.47851712       0.18224524 </v>
    <v>       0.47851723       0.22851706       0.27336785 </v>
    <v>       0.22851712       0.97851694       0.36449048 </v>
    <v>       0.97851706       0.72851694       0.45561317 </v>
    <v>       0.22851729       0.31185061       0.00000000 </v>
    <v>       0.97851723       0.06185054       0.09112262 </v>
    <v>       0.72851718       0.81185049       0.18224524 </v>
    <v>       0.47851723       0.56185043       0.27336785 </v>
    <v>       0.22851712       0.31185031       0.36449048 </v>
    <v>       0.97851706       0.06185019       0.45561317 </v>
    <v>       0.22851729       0.64518410       0.00000000 </v>
    <v>       0.97851723       0.39518395       0.09112262 </v>
    <v>       0.72851718       0.14518389       0.18224524 </v>
    <v>       0.47851723       0.89518380       0.27336785 </v>
    <v>       0.22851712       0.64518368       0.36449048 </v>
    <v>       0.97851706       0.39518362       0.45561317 </v>
    <v>       0.00000000       0.01797951       0.45561314 </v>
    <v>       0.00000000       0.26797950       0.56449056 </v>
    <v>       0.00000000       0.51797956       0.67336792 </v>
    <v>       0.00000000       0.76797956       0.78224528 </v>
    <v>       0.00000003       0.01797962       0.89112258 </v>
    <v>       0.99999994       0.26797962       0.00000012 </v>
    <v>       0.49999994       0.51797944       0.45561314 </v>
    <v>       0.50000000       0.76797950       0.56449056 </v>
    <v>       0.49999991       0.01797950       0.67336792 </v>
    <v>       0.49999991       0.26797950       0.78224528 </v>
    <v>       0.49999991       0.51797950       0.89112258 </v>
    <v>       0.50000006       0.76797974       0.00000012 </v>
    <v>       0.99999994       0.51797944       0.45561314 </v>
    <v>       0.00000000       0.76797950       0.56449056 </v>
    <v>       0.99999994       0.01797950       0.67336792 </v>
    <v>       0.99999988       0.26797950       0.78224528 </v>
    <v>       0.00000000       0.51797950       0.89112258 </v>
    <v>       0.00000006       0.76797974       0.00000012 </v>
    <v>       0.49999997       0.01797951       0.45561314 </v>
    <v>       0.50000000       0.26797950       0.56449056 </v>
    <v>       0.50000000       0.51797956       0.67336792 </v>
    <v>       0.49999988       0.76797956       0.78224528 </v>
    <v>       0.50000006       0.01797962       0.89112258 </v>
    <v>       0.49999994       0.26797962       0.00000012 </v>
    <v>       0.12499997       0.39297947       0.45561314 </v>
    <v>       0.12500000       0.64297950       0.56449056 </v>
    <v>       0.12499992       0.89297950       0.67336792 </v>
    <v>       0.12500003       0.14297962       0.78224528 </v>
    <v>       0.12500003       0.39297962       0.89112264 </v>
    <v>       0.12500001       0.64297962       0.99999994 </v>
    <v>       0.62499994       0.89297944       0.45561314 </v>
    <v>       0.62500000       0.14297950       0.56449056 </v>
    <v>       0.62499994       0.39297950       0.67336792 </v>
    <v>       0.62500006       0.64297962       0.78224528 </v>
    <v>       0.62500000       0.89297962       0.89112264 </v>
    <v>       0.62500000       0.14297962       0.99999994 </v>
    <v>       0.12499998       0.89297944       0.45561314 </v>
    <v>       0.12499999       0.14297950       0.56449056 </v>
    <v>       0.12499999       0.39297950       0.67336792 </v>
    <v>       0.12500003       0.64297962       0.78224528 </v>
    <v>       0.12500001       0.89297962       0.89112264 </v>
    <v>       0.12500000       0.14297962       0.99999994 </v>
    <v>       0.62499994       0.39297947       0.45561314 </v>
    <v>       0.62500000       0.64297950       0.56449056 </v>
    <v>       0.62499994       0.89297950       0.67336792 </v>
    <v>       0.62499994       0.14297962       0.78224528 </v>
    <v>       0.62500006       0.39297962       0.89112258 </v>
    <v>       0.62499994       0.64297962       0.00000012 </v>
   </varray>
  </structure>
  <varray name="forces" >
   <v>       1.02198347      -6.96544434       3.02937599 </v>
   <v>       0.42314031       3.19720673       6.07565180 </v>
   <v>       0.23942679      -0.14025725       0.12030563 </v>
   <v>      -0.03494264      -0.06681592      -0.22335536 </v>
   <v>       1.01733140      -3.74376163     -13.82218477 </v>
   <v>      -0.98300409      -0.23597217      -1.98677834 </v>
   <v>    -221.40659714     207.24647066       0.22064462 </v>
   <v>       0.42767892      -0.33845322       0.29794236 </v>
   <v>       0.03026104       0.00710370       0.15849564 </v>
   <v>       0.04516347       0.11070384      -0.09192768 </v>
   <v>      -1.31750074      -2.35106373      -4.45802169 </v>
   <v>      22.99545252      11.88453715      -0.22264241 </v>
   <v>     -78.25402324     -14.45498687       0.44437161 </v>
   <v>       0.56282138       0.81292861       0.89112904 </v>
   <v>       0.13673803      -0.10444111       0.22314536 </v>
   <v>       0.04675354      -0.10365747      -0.06769340 </v>
   <v>      -0.20628032       0.26639860      -0.55104378 </v>
   <v>     230.56538434       1.85254159      -0.52991361 </v>
   <v>     -78.25402324     -14.45498687       0.44437161 </v>
   <v>       0.56282138       0.81292861       0.89112904 </v>
   <v>       0.13673803      -0.10444111       0.22314536 </v>
   <v>       0.04675354      -0.10365747      -0.06769340 </v>
   <v>      -0.20628032       0.26639860      -0.55104378 </v>
   <v>     230.56538434       1.85254159      -0.52991361 </v>
   <v>       1.02198347      -6.96544434       3.02937599 </v>
   <v>       0.42314031       3.19720673       6.07565180 </v>
   <v>       0.23942679      -0.14025725       0.12030563 </v>
   <v>      -0.03494264      -0.06681592      -0.22335536 </v>
   <v>       1.01733140      -3.74376163     -13.82218477 </v>
   <v>      -0.98300409      -0.23597217      -1.98677834 </v>
   <v>    -221.40659714     207.24647066       0.22064462 </v>
   <v>       0.42767892      -0.33845322       0.29794236 </v>
   <v>       0.03026104       0.00710370       0.15849564 </v>
   <v>       0.04516347       0.11070384      -0.09192768 </v>
   <v>      -1.31750074      -2.35106373      -4.45802169 </v>
   <v>      22.99545252      11.88453715      -0.22264241 </v>
   <v>     232.13492866       2.83802981       0.55286823 </v>
   <v>       0.24043832      -0.23082734      -0.54763051 </v>
   <v>       0.02130200       0.02338153       0.15537453 </v>
   <v>      -0.08649702       0.19974422      -0.09394998 </v>
   <v>       0.35931194       0.77131791      -1.01629826 </v>
   <v>     -80.07796528     -15.18389160      -0.12297320 </v>
   <v>      -0.83121936       0.03369109       1.37283953 </v>
   <v>       0.51805220      -3.09836241      14.04468578 </v>
   <v>       0.00304365       0.05371499       0.11461489 </v>
   <v>      -0.05065409       0.07602601      -0.12576877 </v>
   <v>       0.45674741       2.72974561      -5.87568706 </v>
   <v>       0.72514249      -6.96659870      -3.34394426 </v>
   <v>      22.75928991      10.44850998       0.30122714 </v>
   <v>      -1.90219044      -2.51928276       4.31866239 </v>
   <v>      -0.24837829      -0.09867069       0.16210718 </v>
   <v>      -0.14009925       0.18949925      -0.14240805 </v>
   <v>       0.54150548      -0.49483869      -0.64618901 </v>
   <v>    -220.03261732     209.29161509       0.81091444 </v>
   <v>      -0.83121936       0.03369109       1.37283953 </v>
   <v>       0.51805220      -3.09836241      14.04468578 </v>
   <v>       0.00304365       0.05371499       0.11461489 </v>
   <v>      -0.05065409       0.07602601      -0.12576877 </v>
   <v>       0.45674741       2.72974561      -5.87568706 </v>
   <v>       0.72514249      -6.96659870      -3.34394426 </v>
   <v>      22.75928991      10.44850998       0.30122714 </v>
   <v>      -1.90219044      -2.51928276       4.31866239 </v>
   <v>      -0.24837829      -0.09867069       0.16210718 </v>
   <v>      -0.14009925       0.18949925      -0.14240805 </v>
   <v>       0.54150548      -0.49483869      -0.64618901 </v>
   <v>    -220.03261732     209.29161509       0.81091444 </v>
   <v>     232.13492866       2.83802981       0.55286823 </v>
   <v>       0.24043832      -0.23082734      -0.54763051 </v>
   <v>       0.02130200       0.02338153       0.15537453 </v>
   <v>      -0.08649702       0.19974422      -0.09394998 </v>
   <v>       0.35931194       0.77131791      -1.01629826 </v>
   <v>     -80.07796528     -15.18389160      -0.12297320 </v>
   <v>     219.10930121    -205.13176665      12.04399626 </v>
   <v>       0.27775703      -0.87980148       0.76479126 </v>
   <v>       0.10206437      -0.29164412       0.11337312 </v>
   <v>       0.10218403      -0.38496131      -0.19700908 </v>
   <v>      -0.55455837      -0.14470813      -3.78202282 </v>
   <v>     202.20415070    -209.63357172       0.49425877 </v>
   <v>     219.10930121    -205.13176665      12.04399626 </v>
   <v>       0.27775703      -0.87980148       0.76479126 </v>
   <v>       0.10206437      -0.29164412       0.11337312 </v>
   <v>       0.10218403      -0.38496131      -0.19700908 </v>
   <v>      -0.55455837      -0.14470813      -3.78202282 </v>
   <v>     202.20415070    -209.63357172       0.49425877 </v>
   <v>     -29.02878387      14.87472308       1.60277044 </v>
   <v>       0.21510643      -0.21743177       4.27107019 </v>
   <v>      -0.03246701      -0.45690150       0.19172909 </v>
   <v>      -0.12194767      -0.34511225      -0.10528388 </v>
   <v>       0.65405698      -0.98593108      -1.45706971 </v>
   <v>     -10.92306932      20.16961469     -14.56522967 </v>
   <v>     -29.02878387      14.87472308       1.60277044 </v>
   <v>       0.21510643      -0.21743177       4.27107019 </v>
   <v>      -0.03246701      -0.45690150       0.19172909 </v>
   <v>      -0.12194767      -0.34511225      -0.10528388 </v>
   <v>       0.65405698      -0.98593108      -1.45706971 </v>
   <v>     -10.92306932      20.16961469     -14.56522967 </v>
   <v>      91.66722199      -4.66708195       4.49882472 </v>
   <v>      -0.01280900       0.64336609       0.93551714 </v>
   <v>       0.05450228       0.36230560       0.31050724 </v>
   <v>      -0.04525352       0.44154159      -0.06988854 </v>
   <v>      -0.63508412       1.00137002      -1.00199375 </v>
   <v>    -147.83755180      -9.33190473      -0.54709799 </v>
   <v>      91.66722199      -4.66708195       4.49882472 </v>
   <v>      -0.01280900       0.64336609       0.93551714 </v>
   <v>       0.05450228       0.36230560       0.31050724 </v>
   <v>      -0.04525352       0.44154159      -0.06988854 </v>
   <v>      -0.63508412       1.00137002      -1.00199375 </v>
   <v>    -147.83755180      -9.33190473      -0.54709799 </v>
   <v>    -235.83276519      -3.04471829       4.53620963 </v>
   <v>      -0.41858192       0.30063000       2.60074092 </v>
   <v>      -0.06815155       0.33141272       0.09982103 </v>
   <v>       0.06744832       0.41453406      -0.04260435 </v>
   <v>       0.30208956       0.07541415      -1.38563054 </v>
   <v>       1.05521236       1.96478251      -8.73572544 </v>
   <v>    -235.83276519      -3.04471829       4.53620963 </v>
   <v>      -0.41858192       0.30063000       2.60074092 </v>
   <v>      -0.06815155       0.33141272       0.09982103 </v>
   <v>       0.06744832       0.41453406      -0.04260435 </v>
   <v>       0.30208956       0.07541415      -1.38563054 </v>
   <v>       1.05521236       1.96478251      -8.73572544 </v>
  </varray>
  <varray name="stress" >
   <v>    1391.15167586    -296.68742629       0.79721347 </v>
   <v>    -296.68740127     535.94368673      -1.43925938 </v>
   <v>       0.79715167      -1.43915016     196.51998228 </v>
  </varray>
  <energy>
   <i name="e_fr_energy">    553.60259185 </i>
   <i name="e_wo_entrp">    553.60611448 </i>
   <i name="e_0_energy">    553.60435317 </i>
  </energy>
  <time name="totalsc"> 1351.39 1364.90</time>
  <eigenvalues>
   <array>
    <dimension dim="1">band</dimension>
    <dimension dim="2">kpoint</dimension>
    <dimension dim="3">spin</dimension>
    <field>eigene</field>
    <field>occ</field>
    <set>
     <set comment="spin 1">
      <set comment="kpoint 1">
       <r>   -9.4041    1.0000 </r>
       <r>   -9.3418    1.0000 </r>
       <r>   -8.5708    1.0000 </r>
       <r>   -8.4051    1.0000 </r>
       <r>   -7.4497    1.0000 </r>
       <r>   -7.2727    1.0000 </r>
       <r>   -6.8471    1.0000 </r>
       <r>   -6.6468    1.0000 </r>
       <r>   -6.5461    1.0000 </r>
       <r>   -6.3937    1.0000 </r>
       <r>   -6.3196    1.0000 </r>
       <r>   -6.1209    1.0000 </r>
       <r>   -5.7486    1.0000 </r>
       <r>   -5.7477    1.0000 </r>
       <r>   -5.7436    1.0000 </r>
       <r>   -5.5469    1.0000 </r>
       <r>   -5.5369    1.0000 </r>
       <r>   -5.2493    1.0000 </r>
       <r>   -5.1596    1.0000 </r>
       <r>   -5.0092    1.0000 </r>
       <r>   -4.9641    1.0000 </r>
       <r>   -4.9163    1.0000 </r>
       <r>   -4.7370    1.0000 </r>
       <r>   -4.7224    1.0000 </r>
       <r>   -4.5204    1.0000 </r>
       <r>   -4.4328    1.0000 </r>
       <r>   -4.2750    1.0000 </r>
       <r>   -4.2313    1.0000 </r>
       <r>   -4.0519    1.0000 </r>
       <r>   -4.0297    1.0000 </r>
       <r>   -4.0208    1.0000 </r>
       <r>   -3.9492    1.0000 </r>
       <r>   -3.8686    1.0000 </r>
       <r>   -3.8075    1.0000 </r>
       <r>   -3.6695    1.0000 </r>
       <r>   -3.6204    1.0000 </r>
       <r>   -3.5680    1.0000 </r>
       <r>   -3.4989    1.0000 </r>
       <r>   -3.4517    1.0000 </r>
       <r>   -3.4428    1.0000 </r>
       <r>   -3.3535    1.0000 </r>
       <r>   -3.2732    1.0000 </r>
       <r>   -3.2462    1.0000 </r>
       <r>   -3.0835    1.0000 </r>
       <r>   -3.0781    1.0000 </r>
       <r>   -3.0444    1.0000 </r>
       <r>   -2.9781    1.0000 </r>
       <r>   -2.8418    1.0000 </r>
       <r>   -2.8222    1.0000 </r>
       <r>   -2.7771    1.0000 </r>
       <r>   -2.7320    1.0000 </r>
       <r>   -2.6826    1.0000 </r>
       <r>   -2.6324    1.0000 </r>
       <r>   -2.5549    1.0000 </r>
       <r>   -2.4790    1.0000 </r>
       <r>   -2.3819    1.0000 </r>
       <r>   -2.3511    1.0000 </r>
       <r>   -2.3058    1.0000 </r>
       <r>   -2.1587    1.0000 </r>
       <r>   -2.1536    1.0000 </r>
       <r>   -2.0998    1.0000 </r>
       <r>   -2.0379    1.0000 </r>
       <r>   -1.9543    1.0000 </r>
       <r>   -1.8761    1.0000 </r>
       <r>   -1.8723    1.0000 </r>
       <r>   -1.7444    1.0000 </r>
       <r>   -1.7017    1.0000 </r>
       <r>   -1.6800    1.0000 </r>
       <r>   -1.6438    1.0000 </r>
       <r>   -1.6204    1.0000 </r>
       <r>   -1.5665    1.0000 </r>
       <r>   -1.5049    1.0000 </r>
       <r>   -1.4788    1.0000 </r>
       <r>   -1.4326    1.0000 </r>
       <r>   -1.3803    1.0000 </r>
       <r>   -1.2484    1.0000 </r>
       <r>   -1.2229    1.0000 </r>
       <r>   -1.1605    1.0000 </r>
       <r>   -1.1240    1.0000 </r>
       <r>   -1.0710    1.0000 </r>
       <r>   -0.9579    1.0000 </r>
       <r>   -0.9029    1.0000 </r>
       <r>   -0.8933    1.0000 </r>
       <r>   -0.8512    1.0000 </r>
       <r>   -0.8099    1.0000 </r>
       <r>   -0.6869    1.0000 </r>
       <r>   -0.6526    1.0000 </r>
       <r>   -0.6356    1.0000 </r>
       <r>   -0.4627    1.0000 </r>
       <r>   -0.3925    1.0000 </r>
       <r>   -0.3503    1.0000 </r>
       <r>   -0.2549    1.0000 </r>
       <r>   -0.2013    1.0000 </r>
       <r>   -0.1614    1.0000 </r>
       <r>   -0.1511    1.0000 </r>
       <r>   -0.0982    1.0000 </r>
       <r>   -0.0948    1.0000 </r>
       <r>   -0.0565    1.0000 </r>
       <r>    0.0186    1.0000 </r>
       <r>    0.0503    1.0000 </r>
       <r>    0.0764    1.0000 </r>
       <r>    0.1563    1.0000 </r>
       <r>    0.1990    1.0000 </r>
       <r>    0.3009    1.0000 </r>
       <r>    0.3426    1.0000 </r>
       <r>    0.4521    1.0000 </r>
       <r>    0.5954    1.0000 </r>
       <r>    0.6005    1.0000 </r>
       <r>    0.6867    1.0000 </r>
       <r>    0.6943    1.0000 </r>
       <r>    0.7556    1.0000 </r>
       <r>    0.7736    1.0000 </r>
       <r>    0.8310    1.0000 </r>
       <r>    0.9024    1.0000 </r>
       <r>    0.9250    1.0000 </r>
       <r>    0.9589    1.0000 </r>
       <r>    0.9999    1.0000 </r>
       <r>    1.1231    1.0000 </r>
       <r>    1.1282    1.0000 </r>
       <r>    1.2109    1.0000 </r>
       <r>    1.2197    1.0000 </r>
       <r>    1.3204    1.0000 </r>
       <r>    1.3677    1.0000 </r>
       <r>    1.3859    1.0000 </r>
       <r>    1.4148    1.0000 </r>
       <r>    1.4773    1.0000 </r>
       <r>    1.4894    1.0000 </r>
       <r>    1.5856    1.0000 </r>
       <r>    1.6220    1.0000 </r>
       <r>    1.6550    1.0000 </r>
       <r>    1.6833    1.0000 </r>
       <r>    1.7822    1.0000 </r>
       <r>    1.8417    1.0000 </r>
       <r>    1.8898    1.0000 </r>
       <r>    1.9192    1.0000 </r>
       <r>    1.9976    1.0000 </r>
       <r>    2.0614    1.0000 </r>
       <r>    2.0946    1.0000 </r>
       <r>    2.1048    1.0000 </r>
       <r>    2.1591    1.0000 </r>
       <r>    2.1696    1.0000 </r>
       <r>    2.2406    1.0000 </r>
       <r>    2.2992    1.0000 </r>
       <r>    2.3481    1.0000 </r>
       <r>    2.3774    1.0000 </r>
       <r>    2.4130    1.0000 </r>
       <r>    2.4665    1.0000 </r>
       <r>    2.4945    1.0000 </r>
       <r>    2.5104    1.0000 </r>
       <r>    2.5405    1.0000 </r>
       <r>    2.5767    1.0000 </r>
       <r>    2.6096    1.0000 </r>
       <r>    2.6445    1.0000 </r>
       <r>    2.7430    1.0000 </r>
       <r>    2.7627    1.0000 </r>
       <r>    2.7937    1.0000 </r>
       <r>    2.8141    1.0000 </r>
       <r>    2.8729    1.0000 </r>
       <r>    2.8829    1.0000 </r>
       <r>    2.9414    1.0000 </r>
       <r>    3.0219    1.0000 </r>
       <r>    3.0525    1.0000 </r>
       <r>    3.1465    1.0000 </r>
       <r>    3.1798    1.0000 </r>
       <r>    3.1946    1.0000 </r>
       <r>    3.2684    1.0000 </r>
       <r>    3.2729    1.0000 </r>
       <r>    3.3227    1.0000 </r>
       <r>    3.3422    1.0000 </r>
       <r>    3.3731    1.0000 </r>
       <r>    3.3930    1.0000 </r>
       <r>    3.4514    1.0000 </r>
       <r>    3.4620    1.0000 </r>
       <r>    3.4789    1.0000 </r>
       <r>    3.5149    1.0000 </r>
       <r>    3.5253    1.0000 </r>
       <r>    3.5620    1.0000 </r>
       <r>    3.6276    1.0000 </r>
       <r>    3.6540    1.0000 </r>
       <r>    3.7322    1.0000 </r>
       <r>    3.7371    1.0000 </r>
       <r>    3.7767    1.0000 </r>
       <r>    3.8263    1.0000 </r>
       <r>    3.8304    1.0000 </r>
       <r>    3.8595    1.0000 </r>
       <r>    3.8770    1.0000 </r>
       <r>    3.9146    1.0000 </r>
       <r>    3.9646    1.0000 </r>
       <r>    3.9827    1.0000 </r>
       <r>    4.0631    1.0000 </r>
       <r>    4.1028    1.0000 </r>
       <r>    4.1262    1.0000 </r>
       <r>    4.1288    1.0000 </r>
       <r>    4.1823    1.0000 </r>
       <r>    4.2569    1.0000 </r>
       <r>    4.2766    1.0000 </r>
       <r>    4.3270    1.0000 </r>
       <r>    4.3679    1.0000 </r>
       <r>    4.4281    1.0000 </r>
       <r>    4.4484    1.0000 </r>
       <r>    4.4838    1.0000 </r>
       <r>    4.5083    1.0000 </r>
       <r>    4.6184    1.0000 </r>
       <r>    4.6482    1.0000 </r>
       <r>    4.7188    1.0000 </r>
       <r>    4.7463    1.0000 </r>
       <r>    4.7701    1.0000 </r>
       <r>    4.7803    1.0000 </r>
       <r>    4.8536    1.0000 </r>
       <r>    4.8883    1.0000 </r>
       <r>    4.9252    1.0000 </r>
       <r>    4.9383    1.0000 </r>
       <r>    5.0148    1.0000 </r>
       <r>    5.0385    1.0000 </r>
       <r>    5.0431    1.0000 </r>
       <r>    5.0926    1.0000 </r>
       <r>    5.2158    1.0000 </r>
       <r>    5.2660    1.0000 </r>
       <r>    5.2686    1.0000 </r>
       <r>    5.3121    1.0000 </r>
       <r>    5.3881    1.0000 </r>
       <r>    5.4291    1.0000 </r>
       <r>    5.4783    1.0000 </r>
       <r>    5.4870    1.0000 </r>
       <r>    5.5533    1.0000 </r>
       <r>    5.6249    1.0000 </r>
       <r>    5.6896    1.0000 </r>
       <r>    5.7120    1.0000 </r>
       <r>    5.7589    1.0000 </r>
       <r>    5.7876    1.0000 </r>
       <r>    5.8111    1.0000 </r>
       <r>    5.8429    1.0000 </r>
       <r>    5.9591    1.0000 </r>
       <r>    5.9608    1.0000 </r>
       <r>    5.9675    1.0000 </r>
       <r>    6.0738    1.0000 </r>
       <r>    6.1140    1.0000 </r>
       <r>    6.2014    1.0000 </r>
       <r>    6.2198    1.0000 </r>
       <r>    6.2424    1.0000 </r>
       <r>    6.2876    0.9831 </r>
       <r>    6.3267    0.0003 </r>
       <r>    6.3613    0.0000 </r>
       <r>    6.4108    0.0000 </r>
       <r>    6.4573    0.0000 </r>
       <r>    6.4706    0.0000 </r>
       <r>    6.5921    0.0000 </r>
       <r>    6.6079    0.0000 </r>
       <r>    6.6646    0.0000 </r>
       <r>    6.6713    0.0000 </r>
       <r>    6.7257    0.0000 </r>
       <r>    6.7554    0.0000 </r>
       <r>    6.8039    0.0000 </r>
       <r>    6.8348    0.0000 </r>
       <r>    6.9485    0.0000 </r>
       <r>    6.9542    0.0000 </r>
       <r>    6.9592    0.0000 </r>
       <r>    7.0625    0.0000 </r>
       <r>    7.0737    0.0000 </r>
       <r>    7.1311    0.0000 </r>
       <r>    7.1639    0.0000 </r>
       <r>    7.2031    0.0000 </r>
       <r>    7.2609    0.0000 </r>
       <r>    7.2755    0.0000 </r>
       <r>    7.3110    0.0000 </r>
       <r>    7.3267    0.0000 </r>
       <r>    7.3425    0.0000 </r>
       <r>    7.3991    0.0000 </r>
       <r>    7.4881    0.0000 </r>
       <r>    7.5014    0.0000 </r>
       <r>    7.5308    0.0000 </r>
       <r>    7.5391    0.0000 </r>
       <r>    7.5921    0.0000 </r>
       <r>    7.6148    0.0000 </r>
       <r>    7.6310    0.0000 </r>
       <r>    7.6576    0.0000 </r>
       <r>    7.6701    0.0000 </r>
       <r>    7.6851    0.0000 </r>
       <r>    7.7367    0.0000 </r>
       <r>    7.7761    0.0000 </r>
       <r>    7.8318    0.0000 </r>
       <r>    7.8367    0.0000 </r>
       <r>    7.8651    0.0000 </r>
       <r>    7.8664    0.0000 </r>
       <r>    7.9035    0.0000 </r>
       <r>    7.9323    0.0000 </r>
       <r>    7.9759    0.0000 </r>
       <r>    7.9917    0.0000 </r>
      </set>
      <set comment="kpoint 2">
       <r>   -9.3897    1.0000 </r>
       <r>   -9.3466    1.0000 </r>
       <r>   -8.5326    1.0000 </r>
       <r>   -8.4172    1.0000 </r>
       <r>   -7.5017    1.0000 </r>
       <r>   -7.3764    1.0000 </r>
       <r>   -6.9964    1.0000 </r>
       <r>   -6.8574    1.0000 </r>
       <r>   -6.4137    1.0000 </r>
       <r>   -6.2607    1.0000 </r>
       <r>   -6.1384    1.0000 </r>
       <r>   -5.9634    1.0000 </r>
       <r>   -5.7850    1.0000 </r>
       <r>   -5.7378    1.0000 </r>
       <r>   -5.6816    1.0000 </r>
       <r>   -5.5915    1.0000 </r>
       <r>   -5.4219    1.0000 </r>
       <r>   -5.3258    1.0000 </r>
       <r>   -5.0568    1.0000 </r>
       <r>   -5.0504    1.0000 </r>
       <r>   -4.8390    1.0000 </r>
       <r>   -4.7985    1.0000 </r>
       <r>   -4.7476    1.0000 </r>
       <r>   -4.6477    1.0000 </r>
       <r>   -4.5599    1.0000 </r>
       <r>   -4.4989    1.0000 </r>
       <r>   -4.2269    1.0000 </r>
       <r>   -4.2248    1.0000 </r>
       <r>   -4.1512    1.0000 </r>
       <r>   -4.0861    1.0000 </r>
       <r>   -4.0467    1.0000 </r>
[...]
       <r>    -6.2948    18.8877    19.2274 </r>
       <r>    -6.2305     8.1114    19.7498 </r>
       <r>    -6.1662     0.0011    19.7501 </r>
       <r>    -6.1019    29.9405    21.6749 </r>
       <r>    -6.0376    12.8253    22.4995 </r>
       <r>    -5.9734     3.9923    22.7567 </r>
       <r>    -5.9091    24.3710    24.3236 </r>
       <r>    -5.8448     2.7440    24.5000 </r>
       <r>    -5.7805    10.2025    25.1559 </r>
       <r>    -5.7162    39.8444    27.7175 </r>
       <r>    -5.6519    27.4773    29.4900 </r>
       <r>    -5.5876     6.6318    29.9164 </r>
       <r>    -5.5233    31.1710    31.9203 </r>
       <r>    -5.4590    13.6188    32.7995 </r>
       <r>    -5.3948    14.7740    33.7493 </r>
       <r>    -5.3305     1.9137    33.8730 </r>
       <r>    -5.2662     9.7536    34.5001 </r>
       <r>    -5.2019    11.6647    35.2500 </r>
       <r>    -5.1376    26.6254    36.9617 </r>
       <r>    -5.0733     2.7905    37.1441 </r>
       <r>    -5.0090    30.8638    39.1283 </r>
       <r>    -4.9447    13.2621    39.9813 </r>
       <r>    -4.8804    12.7851    40.8033 </r>
       <r>    -4.8162    12.2875    41.5938 </r>
       <r>    -4.7519    23.5600    43.1085 </r>
       <r>    -4.6876    37.2048    45.5004 </r>
       <r>    -4.6233    24.4076    47.0695 </r>
       <r>    -4.5590    12.1170    47.8496 </r>
       <r>    -4.4947    49.3912    51.0249 </r>
       <r>    -4.4304    10.0637    51.6741 </r>
       <r>    -4.3661     9.4996    52.2848 </r>
       <r>    -4.3018    12.6980    53.1012 </r>
       <r>    -4.2376    12.0531    53.8760 </r>
       <r>    -4.1733    41.3289    56.5330 </r>
       <r>    -4.1090    30.5955    58.5000 </r>
       <r>    -4.0447    17.3253    59.6138 </r>
       <r>    -3.9804    48.2915    62.7185 </r>
       <r>    -3.9161    27.9672    64.5165 </r>
       <r>    -3.8518    19.1948    65.7551 </r>
       <r>    -3.7875    28.7557    67.6038 </r>
       <r>    -3.7232    11.7914    68.3622 </r>
       <r>    -3.6589    31.5303    70.3900 </r>
       <r>    -3.5947    37.4375    72.7968 </r>
       <r>    -3.5304    31.0563    74.7948 </r>
       <r>    -3.4661    21.5866    76.1829 </r>
       <r>    -3.4018    54.2932    79.6733 </r>
       <r>    -3.3375    21.8202    81.0804 </r>
       <r>    -3.2732    34.4048    83.2922 </r>
       <r>    -3.2089    33.1425    85.4234 </r>
       <r>    -3.1446    28.0078    87.2284 </r>
       <r>    -3.0803    17.6741    88.3647 </r>
       <r>    -3.0161    56.7156    92.0121 </r>
       <r>    -2.9518    28.3146    93.8417 </r>
       <r>    -2.8875    36.3586    96.1798 </r>
       <r>    -2.8232    28.6494    98.0219 </r>
       <r>    -2.7589    42.0077   100.7245 </r>
       <r>    -2.6946    14.7609   101.6774 </r>
       <r>    -2.6303    44.1536   104.5169 </r>
       <r>    -2.5660    21.2496   105.8830 </r>
       <r>    -2.5017    41.1218   108.5268 </r>
       <r>    -2.4375    26.7928   110.2494 </r>
       <r>    -2.3732    40.6661   112.8644 </r>
       <r>    -2.3089    45.9977   115.8219 </r>
       <r>    -2.2446    43.4582   118.6159 </r>
       <r>    -2.1803    32.6580   120.7155 </r>
       <r>    -2.1160    23.6486   122.2380 </r>
       <r>    -2.0517    31.2845   124.2493 </r>
       <r>    -1.9874    25.9473   125.9190 </r>
       <r>    -1.9231    21.2016   127.2824 </r>
       <r>    -1.8589    40.8347   129.9077 </r>
       <r>    -1.7946    35.5289   132.1920 </r>
       <r>    -1.7303    38.8225   134.6931 </r>
       <r>    -1.6660    41.0014   137.3291 </r>
       <r>    -1.6017    33.4212   139.4778 </r>
       <r>    -1.5374    33.5530   141.6349 </r>
       <r>    -1.4731    41.4188   144.2994 </r>
       <r>    -1.4088    46.4520   147.2867 </r>
       <r>    -1.3445    18.8402   148.4999 </r>
       <r>    -1.2802    27.6578   150.2781 </r>
       <r>    -1.2160    29.2780   152.1604 </r>
       <r>    -1.1517    26.7680   153.8816 </r>
       <r>    -1.0874    25.2447   155.5046 </r>
       <r>    -1.0231    45.1005   158.4041 </r>
       <r>    -0.9588    18.4150   159.5879 </r>
       <r>    -0.8945    44.8694   162.4726 </r>
       <r>    -0.8302    26.2380   164.1612 </r>
       <r>    -0.7659    47.2824   167.2009 </r>
       <r>    -0.7016    41.1545   169.8468 </r>
       <r>    -0.6374    30.1409   171.7897 </r>
       <r>    -0.5731    23.1265   173.2765 </r>
       <r>    -0.5088    33.9664   175.4606 </r>
       <r>    -0.4445    40.9485   178.0932 </r>
       <r>    -0.3802    29.1875   179.9699 </r>
       <r>    -0.3159    45.0608   182.8677 </r>
       <r>    -0.2516    22.8770   184.3429 </r>
       <r>    -0.1873    37.0209   186.7230 </r>
       <r>    -0.1230    24.2312   188.2811 </r>
       <r>    -0.0588    42.3029   191.0011 </r>
       <r>     0.0055    39.5952   193.5467 </r>
       <r>     0.0698    48.8390   196.6879 </r>
       <r>     0.1341    19.6140   197.9489 </r>
       <r>     0.1984    44.5918   200.8157 </r>
       <r>     0.2627    28.9845   202.6792 </r>
       <r>     0.3270    52.2868   206.0418 </r>
       <r>     0.3913    37.4548   208.4517 </r>
       <r>     0.4556    33.8603   210.6345 </r>
       <r>     0.5198    33.3578   212.7791 </r>
       <r>     0.5841    36.5777   215.1307 </r>
       <r>     0.6484    32.3831   217.2140 </r>
       <r>     0.7127    41.0841   219.8553 </r>
       <r>     0.7770    48.9564   223.0044 </r>
       <r>     0.8413    51.9324   226.3431 </r>
       <r>     0.9056    14.8615   227.3009 </r>
       <r>     0.9699    52.3886   230.6689 </r>
       <r>     1.0342    51.3580   233.9707 </r>
       <r>     1.0985    25.7252   235.6245 </r>
       <r>     1.1627    39.2743   238.1509 </r>
       <r>     1.2270    37.2507   240.5501 </r>
       <r>     1.2913    26.6253   242.2651 </r>
       <r>     1.3556    47.5534   245.3222 </r>
       <r>     1.4199    14.1053   246.2294 </r>
       <r>     1.4842    39.3920   248.7619 </r>
       <r>     1.5485    53.9971   252.2334 </r>
       <r>     1.6128    28.2629   254.0506 </r>
       <r>     1.6771    47.7118   257.1211 </r>
       <r>     1.7413    53.3693   260.5524 </r>
       <r>     1.8056    35.3030   262.8220 </r>
       <r>     1.8699    55.6741   266.4035 </r>
       <r>     1.9342    44.6335   269.2733 </r>
       <r>     1.9985    22.4881   270.7191 </r>
       <r>     2.0628    58.8026   274.4995 </r>
       <r>     2.1271    34.5480   276.7240 </r>
       <r>     2.1914    36.6893   279.0845 </r>
       <r>     2.2557    54.6905   282.6006 </r>
       <r>     2.3199    56.8262   286.2555 </r>
       <r>     2.3842    38.1993   288.7116 </r>
       <r>     2.4485    52.8981   292.1124 </r>
       <r>     2.5128    34.4652   294.3351 </r>
       <r>     2.5771    49.6561   297.5275 </r>
       <r>     2.6414    51.7937   300.8573 </r>
       <r>     2.7057    58.2282   304.6010 </r>
       <r>     2.7700    35.0288   306.8548 </r>
       <r>     2.8343    58.4100   310.6109 </r>
       <r>     2.8985    54.6454   314.1287 </r>
       <r>     2.9628    46.1486   317.1014 </r>
       <r>     3.0271    34.5211   319.3207 </r>
       <r>     3.0914    52.9532   322.7306 </r>
       <r>     3.1557    59.7913   326.5750 </r>
       <r>     3.2200    54.6896   330.0931 </r>
       <r>     3.2843    45.3592   333.0109 </r>
       <r>     3.3486    68.3765   337.4068 </r>
       <r>     3.4129    58.2357   341.1576 </r>
       <r>     3.4772    71.4349   345.7560 </r>
       <r>     3.5414    46.4003   348.7404 </r>
       <r>     3.6057    61.6584   352.7102 </r>
       <r>     3.6700    61.9124   356.6918 </r>
       <r>     3.7343    59.2120   360.4992 </r>
       <r>     3.7986    69.6453   364.9766 </r>
       <r>     3.8629    70.7311   369.5243 </r>
       <r>     3.9272    73.0945   374.2273 </r>
       <r>     3.9915    59.4608   378.0500 </r>
       <r>     4.0558    64.0126   382.1658 </r>
       <r>     4.1200    62.7995   386.2033 </r>
       <r>     4.1843    50.5868   389.4555 </r>
       <r>     4.2486    37.2294   391.8518 </r>
       <r>     4.3129    59.2276   395.6610 </r>
       <r>     4.3772    65.7470   399.8910 </r>
       <r>     4.4415    37.9644   402.3324 </r>
       <r>     4.5058    50.7350   405.5942 </r>
       <r>     4.5701    59.3846   409.4120 </r>
       <r>     4.6344    38.4893   411.8914 </r>
       <r>     4.6986    47.8691   414.9688 </r>
       <r>     4.7629    41.4772   417.6375 </r>
       <r>     4.8272    43.6011   420.4406 </r>
       <r>     4.8915    30.6184   422.4124 </r>
       <r>     4.9558    49.0093   425.5660 </r>
       <r>     5.0201    46.8142   428.5757 </r>
       <r>     5.0844    53.2936   432.0032 </r>
       <r>     5.1487    42.2917   434.7224 </r>
       <r>     5.2130    32.3903   436.8052 </r>
       <r>     5.2772    31.0938   438.8051 </r>
       <r>     5.3415    29.9059   440.7277 </r>
       <r>     5.4058    54.2096   444.2135 </r>
       <r>     5.4701    16.8504   445.2977 </r>
       <r>     5.5344    26.1105   446.9796 </r>
       <r>     5.5987    52.1375   450.3314 </r>
       <r>     5.6630    29.5842   452.2358 </r>
       <r>     5.7273    40.1124   454.8148 </r>
       <r>     5.7916    42.8883   457.5735 </r>
       <r>     5.8559    44.7301   460.4505 </r>
       <r>     5.9201    45.8705   463.4006 </r>
       <r>     5.9844    45.2904   466.3124 </r>
       <r>     6.0487    41.7316   468.9953 </r>
       <r>     6.1130    45.3366   471.9102 </r>
       <r>     6.1773    41.3540   474.5694 </r>
       <r>     6.2416    38.3536   477.0373 </r>
       <r>     6.3059    37.2333   479.4375 </r>
       <r>     6.3702    46.7199   482.4411 </r>
       <r>     6.4345    42.3231   485.1620 </r>
       <r>     6.4987    51.9069   488.4990 </r>
       <r>     6.5630    46.3090   491.4789 </r>
       <r>     6.6273    48.9289   494.6245 </r>
       <r>     6.6916    38.1887   497.0813 </r>
       <r>     6.7559    38.3876   499.5522 </r>
       <r>     6.8202    55.3745   503.1131 </r>
       <r>     6.8845    46.8750   506.1267 </r>
       <r>     6.9488    54.6434   509.6415 </r>
       <r>     7.0131    35.3757   511.9158 </r>
       <r>     7.0773    53.7193   515.3694 </r>
       <r>     7.1416    55.8803   518.9620 </r>
       <r>     7.2059    57.7278   522.6733 </r>
       <r>     7.2702    45.4855   525.5976 </r>
       <r>     7.3345    61.1565   529.5293 </r>
       <r>     7.3988    51.9832   532.8730 </r>
       <r>     7.4631    51.6198   536.1917 </r>
       <r>     7.5274    59.1605   539.9951 </r>
       <r>     7.5917    62.8550   544.0389 </r>
       <r>     7.6559    58.6573   547.8200 </r>
       <r>     7.7202    53.0856   551.2358 </r>
       <r>     7.7845    73.4253   555.9563 </r>
       <r>     7.8488    61.0757   559.8837 </r>
       <r>     7.9131    68.0927   564.2652 </r>
       <r>     7.9774    56.1838   567.8841 </r>
       <r>     8.0417    70.8363   572.4400 </r>
       <r>     8.1060    40.4128   575.0390 </r>
       <r>     8.1703    14.9301   576.0000 </r>
       <r>     8.2346     0.0000   576.0000 </r>
       <r>     8.2988     0.0000   576.0000 </r>
       <r>     8.3631     0.0000   576.0000 </r>
       <r>     8.4274     0.0000   576.0000 </r>
       <r>     8.4917     0.0000   576.0000 </r>
       <r>     8.5560     0.0000   576.0000 </r>
       <r>     8.6203     0.0000   576.0000 </r>
       <r>     8.6846     0.0000   576.0000 </r>
       <r>     8.7489     0.0000   576.0000 </r>
       <r>     8.8132     0.0000   576.0000 </r>
       <r>     8.8774     0.0000   576.0000 </r>
       <r>     8.9417     0.0000   576.0000 </r>
       <r>     9.0060     0.0000   576.0000 </r>
      </set>
     </set>
    </array>
   </total>
  </dos>
 </calculation>
 <structure name="finalpos" >
  <crystal>
   <varray name="basis" >
    <v>       9.40676784       0.00000000       0.00000000 </v>
    <v>      -9.40676880      13.30317974       0.00000000 </v>
    <v>       0.00000000       0.00000000      21.07213974 </v>
   </varray>
   <i name="volume">   2636.96595344 </i>
   <varray name="rec_basis" >
    <v>       0.10630644       0.07517001       0.00000000 </v>
    <v>       0.00000000       0.07517000       0.00000000 </v>
    <v>       0.00000000       0.00000000       0.04745603 </v>
   </varray>
  </crystal>
  <varray name="positions" >
   <v>       0.97851729       0.97851729       0.00000000 </v>
   <v>       0.72851723       0.72851718       0.09112262 </v>
   <v>       0.47851718       0.47851712       0.18224524 </v>
   <v>       0.22851718       0.22851706       0.27336788 </v>
   <v>       0.97851706       0.97851694       0.36449048 </v>
   <v>       0.72851706       0.72851682       0.45561317 </v>
   <v>       0.97851729       0.31185064       0.00000000 </v>
   <v>       0.72851723       0.06185057       0.09112262 </v>
   <v>       0.47851718       0.81185049       0.18224524 </v>
   <v>       0.22851718       0.56185043       0.27336788 </v>
   <v>       0.97851706       0.31185031       0.36449048 </v>
   <v>       0.72851706       0.06185025       0.45561317 </v>
   <v>       0.97851729       0.64518404       0.00000000 </v>
   <v>       0.72851723       0.39518395       0.09112262 </v>
   <v>       0.47851718       0.14518388       0.18224524 </v>
   <v>       0.22851718       0.89518380       0.27336788 </v>
   <v>       0.97851706       0.64518368       0.36449048 </v>
   <v>       0.72851706       0.39518356       0.45561317 </v>
   <v>       0.47851729       0.14518397       0.00000000 </v>
   <v>       0.22851725       0.89518386       0.09112262 </v>
   <v>       0.97851723       0.64518380       0.18224524 </v>
   <v>       0.72851718       0.39518374       0.27336785 </v>
   <v>       0.47851712       0.14518362       0.36449048 </v>
   <v>       0.22851700       0.89518356       0.45561317 </v>
   <v>       0.47851729       0.47851732       0.00000000 </v>
   <v>       0.22851725       0.22851723       0.09112262 </v>
   <v>       0.97851723       0.97851718       0.18224524 </v>
   <v>       0.72851718       0.72851712       0.27336785 </v>
   <v>       0.47851712       0.47851700       0.36449048 </v>
   <v>       0.22851700       0.22851694       0.45561317 </v>
   <v>       0.47851729       0.81185067       0.00000000 </v>
   <v>       0.22851725       0.56185061       0.09112262 </v>
   <v>       0.97851723       0.31185055       0.18224524 </v>
   <v>       0.72851718       0.06185049       0.27336785 </v>
   <v>       0.47851712       0.81185037       0.36449048 </v>
   <v>       0.22851700       0.56185025       0.45561317 </v>
   <v>       0.72851735       0.14518397       0.00000000 </v>
   <v>       0.47851729       0.89518386       0.09112261 </v>
   <v>       0.22851726       0.64518380       0.18224524 </v>
   <v>       0.97851723       0.39518368       0.27336788 </v>
   <v>       0.72851718       0.14518362       0.36449048 </v>
   <v>       0.47851712       0.89518356       0.45561314 </v>
   <v>       0.72851735       0.47851729       0.00000000 </v>
   <v>       0.47851729       0.22851722       0.09112261 </v>
   <v>       0.22851726       0.97851718       0.18224524 </v>
   <v>       0.97851723       0.72851706       0.27336788 </v>
   <v>       0.72851718       0.47851700       0.36449048 </v>
   <v>       0.47851712       0.22851688       0.45561314 </v>
   <v>       0.72851735       0.81185073       0.00000000 </v>
   <v>       0.47851729       0.56185067       0.09112261 </v>
   <v>       0.22851726       0.31185058       0.18224524 </v>
   <v>       0.97851723       0.06185048       0.27336788 </v>
   <v>       0.72851718       0.81185037       0.36449048 </v>
   <v>       0.47851712       0.56185031       0.45561314 </v>
   <v>       0.22851729       0.97851729       0.00000000 </v>
   <v>       0.97851723       0.72851718       0.09112262 </v>
   <v>       0.72851718       0.47851712       0.18224524 </v>
   <v>       0.47851723       0.22851706       0.27336785 </v>
   <v>       0.22851712       0.97851694       0.36449048 </v>
   <v>       0.97851706       0.72851694       0.45561317 </v>
   <v>       0.22851729       0.31185061       0.00000000 </v>
   <v>       0.97851723       0.06185054       0.09112262 </v>
   <v>       0.72851718       0.81185049       0.18224524 </v>
   <v>       0.47851723       0.56185043       0.27336785 </v>
   <v>       0.22851712       0.31185031       0.36449048 </v>
   <v>       0.97851706       0.06185019       0.45561317 </v>
   <v>       0.22851729       0.64518410       0.00000000 </v>
   <v>       0.97851723       0.39518395       0.09112262 </v>
   <v>       0.72851718       0.14518389       0.18224524 </v>
   <v>       0.47851723       0.89518380       0.27336785 </v>
   <v>       0.22851712       0.64518368       0.36449048 </v>
   <v>       0.97851706       0.39518362       0.45561317 </v>
   <v>       0.00000000       0.01797951       0.45561314 </v>
   <v>       0.00000000       0.26797950       0.56449056 </v>
   <v>       0.00000000       0.51797956       0.67336792 </v>
   <v>       0.00000000       0.76797956       0.78224528 </v>
   <v>       0.00000003       0.01797962       0.89112258 </v>
   <v>       0.99999994       0.26797962       0.00000012 </v>
   <v>       0.49999994       0.51797944       0.45561314 </v>
   <v>       0.50000000       0.76797950       0.56449056 </v>
   <v>       0.49999991       0.01797950       0.67336792 </v>
   <v>       0.49999991       0.26797950       0.78224528 </v>
   <v>       0.49999991       0.51797950       0.89112258 </v>
   <v>       0.50000006       0.76797974       0.00000012 </v>
   <v>       0.99999994       0.51797944       0.45561314 </v>
   <v>       0.00000000       0.76797950       0.56449056 </v>
   <v>       0.99999994       0.01797950       0.67336792 </v>
   <v>       0.99999988       0.26797950       0.78224528 </v>
   <v>       0.00000000       0.51797950       0.89112258 </v>
   <v>       0.00000006       0.76797974       0.00000012 </v>
   <v>       0.49999997       0.01797951       0.45561314 </v>
   <v>       0.50000000       0.26797950       0.56449056 </v>
   <v>       0.50000000       0.51797956       0.67336792 </v>
   <v>       0.49999988       0.76797956       0.78224528 </v>
   <v>       0.50000006       0.01797962       0.89112258 </v>
   <v>       0.49999994       0.26797962       0.00000012 </v>
   <v>       0.12499997       0.39297947       0.45561314 </v>
   <v>       0.12500000       0.64297950       0.56449056 </v>
   <v>       0.12499992       0.89297950       0.67336792 </v>
   <v>       0.12500003       0.14297962       0.78224528 </v>
   <v>       0.12500003       0.39297962       0.89112264 </v>
   <v>       0.12500001       0.64297962       0.99999994 </v>
   <v>       0.62499994       0.89297944       0.45561314 </v>
   <v>       0.62500000       0.14297950       0.56449056 </v>
   <v>       0.62499994       0.39297950       0.67336792 </v>
   <v>       0.62500006       0.64297962       0.78224528 </v>
   <v>       0.62500000       0.89297962       0.89112264 </v>
   <v>       0.62500000       0.14297962       0.99999994 </v>
   <v>       0.12499998       0.89297944       0.45561314 </v>
   <v>       0.12499999       0.14297950       0.56449056 </v>
   <v>       0.12499999       0.39297950       0.67336792 </v>
   <v>       0.12500003       0.64297962       0.78224528 </v>
   <v>       0.12500001       0.89297962       0.89112264 </v>
   <v>       0.12500000       0.14297962       0.99999994 </v>
   <v>       0.62499994       0.39297947       0.45561314 </v>
   <v>       0.62500000       0.64297950       0.56449056 </v>
   <v>       0.62499994       0.89297950       0.67336792 </v>
   <v>       0.62499994       0.14297962       0.78224528 </v>
   <v>       0.62500006       0.39297962       0.89112258 </v>
   <v>       0.62499994       0.64297962       0.00000012 </v>
  </varray>
 </structure>
</modeling>
