Si and Ge interface calculation         
           1
     9.406768    0.000000    0.000000
    -9.406769   13.303180    0.000000
     0.000000    0.000000   21.072140
   Si   Sn
    72    48
Direct configuration=     1
   0.97851729  0.97851729  0.00000000
   0.72851723  0.72851718  0.09112262
   0.47851718  0.47851712  0.18224524
   0.22851718  0.22851706  0.27336788
   0.97851706  0.97851694  0.36449048
   0.72851706  0.72851682  0.45561317
   0.97851729  0.31185064  0.00000000
   0.72851723  0.06185057  0.09112262
   0.47851718  0.81185049  0.18224524
   0.22851718  0.56185043  0.27336788
   0.97851706  0.31185031  0.36449048
   0.72851706  0.06185025  0.45561317
   0.97851729  0.64518404  0.00000000
   0.72851723  0.39518395  0.09112262
   0.47851718  0.14518388  0.18224524
   0.22851718  0.89518380  0.27336788
   0.97851706  0.64518368  0.36449048
   0.72851706  0.39518356  0.45561317
   0.47851729  0.14518397  0.00000000
   0.22851725  0.89518386  0.09112262
   0.97851723  0.64518380  0.18224524
   0.72851718  0.39518374  0.27336785
   0.47851712  0.14518362  0.36449048
   0.22851700  0.89518356  0.45561317
   0.47851729  0.47851732  0.00000000
   0.22851725  0.22851723  0.09112262
   0.97851723  0.97851718  0.18224524
   0.72851718  0.72851712  0.27336785
   0.47851712  0.47851700  0.36449048
   0.22851700  0.22851694  0.45561317
   0.47851729  0.81185067  0.00000000
   0.22851725  0.56185061  0.09112262
   0.97851723  0.31185055  0.18224524
   0.72851718  0.06185049  0.27336785
   0.47851712  0.81185037  0.36449048
   0.22851700  0.56185025  0.45561317
   0.72851735  0.14518397  0.00000000
   0.47851729  0.89518386  0.09112261
   0.22851726  0.64518380  0.18224524
   0.97851723  0.39518368  0.27336788
   0.72851718  0.14518362  0.36449048
   0.47851712  0.89518356  0.45561314
   0.72851735  0.47851729  0.00000000
   0.47851729  0.22851722  0.09112261
   0.22851726  0.97851718  0.18224524
   0.97851723  0.72851706  0.27336788
   0.72851718  0.47851700  0.36449048
   0.47851712  0.22851688  0.45561314
   0.72851735  0.81185073  0.00000000
   0.47851729  0.56185067  0.09112261
   0.22851726  0.31185058  0.18224524
   0.97851723  0.06185048  0.27336788
   0.72851718  0.81185037  0.36449048
   0.47851712  0.56185031  0.45561314
   0.22851729  0.97851729  0.00000000
   0.97851723  0.72851718  0.09112262
   0.72851718  0.47851712  0.18224524
   0.47851723  0.22851706  0.27336785
   0.22851712  0.97851694  0.36449048
   0.97851706  0.72851694  0.45561317
   0.22851729  0.31185061  0.00000000
   0.97851723  0.06185054  0.09112262
   0.72851718  0.81185049  0.18224524
   0.47851723  0.56185043  0.27336785
   0.22851712  0.31185031  0.36449048
   0.97851706  0.06185019  0.45561317
   0.22851729  0.64518410  0.00000000
   0.97851723  0.39518395  0.09112262
   0.72851718  0.14518389  0.18224524
   0.47851723  0.89518380  0.27336785
   0.22851712  0.64518368  0.36449048
   0.97851706  0.39518362  0.45561317
   0.00000000  0.01797951  0.45561314
   0.00000000  0.26797950  0.56449056
   0.00000000  0.51797956  0.67336792
   0.00000000  0.76797956  0.78224528
   0.00000003  0.01797962  0.89112258
   0.99999994  0.26797962  0.00000012
   0.49999994  0.51797944  0.45561314
   0.50000000  0.76797950  0.56449056
   0.49999991  0.01797950  0.67336792
   0.49999991  0.26797950  0.78224528
   0.49999991  0.51797950  0.89112258
   0.50000006  0.76797974  0.00000012
   0.99999994  0.51797944  0.45561314
   0.00000000  0.76797950  0.56449056
   0.99999994  0.01797950  0.67336792
   0.99999988  0.26797950  0.78224528
   0.00000000  0.51797950  0.89112258
   0.00000006  0.76797974  0.00000012
   0.49999997  0.01797951  0.45561314
   0.50000000  0.26797950  0.56449056
   0.50000000  0.51797956  0.67336792
   0.49999988  0.76797956  0.78224528
   0.50000006  0.01797962  0.89112258
   0.49999994  0.26797962  0.00000012
   0.12499997  0.39297947  0.45561314
   0.12500000  0.64297950  0.56449056
   0.12499992  0.89297950  0.67336792
   0.12500003  0.14297962  0.78224528
   0.12500003  0.39297962  0.89112264
   0.12500001  0.64297962  0.99999994
   0.62499994  0.89297944  0.45561314
   0.62500000  0.14297950  0.56449056
   0.62499994  0.39297950  0.67336792
   0.62500006  0.64297962  0.78224528
   0.62500000  0.89297962  0.89112264
   0.62500000  0.14297962  0.99999994
   0.12499998  0.89297944  0.45561314
   0.12499999  0.14297950  0.56449056
   0.12499999  0.39297950  0.67336792
   0.12500003  0.64297962  0.78224528
   0.12500001  0.89297962  0.89112264
   0.12500000  0.14297962  0.99999994
   0.62499994  0.39297947  0.45561314
   0.62500000  0.64297950  0.56449056
   0.62499994  0.89297950  0.67336792
   0.62499994  0.14297962  0.78224528
   0.62500006  0.39297962  0.89112258
   0.62499994  0.64297962  0.00000012
