Si and Ge interface calculation         
           1
    16.002676    0.000000    0.000000
     8.001338   13.858725    0.000000
     0.000000    0.000000   15.779421
   Ge   Sn
    96    72
Direct configuration=     1
   0.31088322  0.31088316  0.41402447
   0.97755003  0.97755003  0.00000003
   0.64421654  0.64421660  0.20701228
   0.81088316  0.31088316  0.41402447
   0.47755000  0.97755003  0.00000004
   0.14421658  0.64421660  0.20701228
   0.31088316  0.81088316  0.41402447
   0.97755003  0.47755000  0.00000004
   0.64421660  0.14421658  0.20701228
   0.81088316  0.81088316  0.41402447
   0.47755000  0.47755000  0.00000000
   0.14421657  0.14421657  0.20701224
   0.47754979  0.47754973  0.46577761
   0.14421669  0.14421661  0.05175311
   0.81088328  0.81088322  0.25876531
   0.97754979  0.47754967  0.46577761
   0.64421666  0.14421663  0.05175311
   0.31088328  0.81088322  0.25876531
   0.47754967  0.97754979  0.46577761
   0.14421663  0.64421666  0.05175311
   0.81088322  0.31088328  0.25876531
   0.97754967  0.97754979  0.46577758
   0.64421660  0.64421666  0.05175311
   0.31088316  0.31088325  0.25876528
   0.56088316  0.56088316  0.41402450
   0.22755001  0.22755001  0.00000005
   0.89421660  0.89421660  0.20701224
   0.06088321  0.56088316  0.41402456
   0.72755003  0.22755005  0.00000005
   0.39421660  0.89421660  0.20701228
   0.56088316  0.06088318  0.41402447
   0.22755001  0.72754997  0.00000001
   0.89421654  0.39421660  0.20701224
   0.06088319  0.06088311  0.41402447
   0.72755003  0.72754991  0.00000003
   0.39421663  0.39421657  0.20701228
   0.72754979  0.72754979  0.46577752
   0.39421663  0.39421663  0.05175303
   0.06088319  0.06088319  0.25876528
   0.22754979  0.72754979  0.46577752
   0.89421660  0.39421663  0.05175305
   0.56088316  0.06088319  0.25876528
   0.72754979  0.22754985  0.46577752
   0.39421663  0.89421666  0.05175305
   0.06088320  0.56088328  0.25876528
   0.22754985  0.22754985  0.46577752
   0.89421672  0.89421666  0.05175304
   0.56088328  0.56088328  0.25876528
   0.31088316  0.56088316  0.41402447
   0.97755003  0.22755001  0.00000002
   0.64421654  0.89421660  0.20701228
   0.81088316  0.56088316  0.41402450
   0.47755003  0.22755001  0.00000003
   0.14421660  0.89421660  0.20701228
   0.31088316  0.06088318  0.41402447
   0.97755003  0.72754997  0.00000003
   0.64421660  0.39421660  0.20701228
   0.81088316  0.06088309  0.41402447
   0.47755000  0.72754991  0.00000003
   0.14421661  0.39421654  0.20701224
   0.47754979  0.72754979  0.46577752
   0.14421661  0.39421660  0.05175305
   0.81088316  0.06088319  0.25876528
   0.97754973  0.72754979  0.46577752
   0.64421660  0.39421663  0.05175305
   0.31088316  0.06088319  0.25876528
   0.47754973  0.22754985  0.46577746
   0.14421663  0.89421666  0.05175304
   0.81088316  0.56088328  0.25876528
   0.97754979  0.22754985  0.46577746
   0.64421666  0.89421666  0.05175303
   0.31088322  0.56088328  0.25876528
   0.56088311  0.31088316  0.41402447
   0.22755001  0.97755003  0.00000003
   0.89421660  0.64421660  0.20701228
   0.06088318  0.31088316  0.41402450
   0.72754997  0.97755003  0.00000004
   0.39421663  0.64421660  0.20701228
   0.56088316  0.81088316  0.41402450
   0.22755000  0.47755000  0.00000004
   0.89421660  0.14421658  0.20701228
   0.06088318  0.81088311  0.41402447
   0.72754997  0.47754994  0.00000002
   0.39421660  0.14421654  0.20701224
   0.72754979  0.47754985  0.46577761
   0.39421669  0.14421672  0.05175309
   0.06088328  0.81088334  0.25876531
   0.22754967  0.47754985  0.46577761
   0.89421666  0.14421673  0.05175310
   0.56088328  0.81088334  0.25876528
   0.72754979  0.97754985  0.46577758
   0.39421669  0.64421672  0.05175311
   0.06088328  0.31088337  0.25876531
   0.22754973  0.97754979  0.46577761
   0.89421666  0.64421666  0.05175309
   0.56088328  0.31088328  0.25876528
   0.00000000  0.32092410  0.94064200
   0.00000000  0.98759079  0.46577766
   0.00000000  0.65425742  0.70320988
   0.33333334  0.65425748  0.94064188
   0.33333334  0.32092413  0.46577766
   0.33333334  0.98759079  0.70320988
   0.66666669  0.98759079  0.94064200
   0.66666669  0.65425748  0.46577766
   0.66666669  0.32092413  0.70320988
   0.33333334  0.32092416  0.00000000
   0.33333334  0.98759079  0.52513576
   0.33333334  0.65425742  0.76256788
   0.00000000  0.98759079  0.00000000
   0.00000000  0.65425742  0.52513576
   0.00000000  0.32092407  0.76256788
   0.66666675  0.65425742  0.00000000
   0.66666675  0.32092407  0.52513576
   0.66666675  0.98759073  0.76256788
   0.49999997  0.32092410  0.94064188
   0.49999997  0.98759079  0.46577766
   0.49999997  0.65425742  0.70320988
   0.16666667  0.98759079  0.94064188
   0.16666669  0.65425748  0.46577766
   0.16666669  0.32092413  0.70320988
   0.83333337  0.65425748  0.94064200
   0.83333337  0.32092416  0.46577766
   0.83333337  0.98759079  0.70320988
   0.16666666  0.65425754  0.00000000
   0.16666667  0.32092413  0.52513576
   0.16666667  0.98759079  0.76256788
   0.83333337  0.32092416  0.99999988
   0.83333337  0.98759079  0.52513564
   0.83333337  0.65425742  0.76256776
   0.50000000  0.98759079  0.00000000
   0.50000000  0.65425742  0.52513564
   0.50000000  0.32092410  0.76256776
   0.16666667  0.48759079  0.94064200
   0.16666667  0.15425748  0.46577766
   0.16666667  0.82092410  0.70320988
   0.49999997  0.82092410  0.94064200
   0.49999997  0.48759079  0.46577766
   0.49999997  0.15425742  0.70320988
   0.83333325  0.15425751  0.94064188
   0.83333325  0.82092422  0.46577761
   0.83333325  0.48759091  0.70320976
   0.49999997  0.48759085  0.00000000
   0.49999997  0.15425745  0.52513576
   0.49999997  0.82092410  0.76256788
   0.16666664  0.15425751  0.99999988
   0.16666664  0.82092416  0.52513564
   0.16666664  0.48759082  0.76256776
   0.83333337  0.82092410  0.00000000
   0.83333337  0.48759076  0.52513576
   0.83333337  0.15425740  0.76256788
   0.00000000  0.82092410  0.94064200
   0.00000000  0.48759076  0.46577766
   0.00000000  0.15425742  0.70320988
   0.66666669  0.48759079  0.94064188
   0.66666669  0.15425746  0.46577766
   0.66666669  0.82092410  0.70320988
   0.33333334  0.15425734  0.94064200
   0.33333334  0.82092404  0.46577766
   0.33333334  0.48759073  0.70320976
   0.00000000  0.48759085  0.00000000
   0.00000000  0.15425751  0.52513576
   0.00000000  0.82092416  0.76256788
   0.33333334  0.82092416  0.00000000
   0.33333334  0.48759082  0.52513576
   0.33333334  0.15425749  0.76256788
   0.66666669  0.15425755  0.00000000
   0.66666669  0.82092416  0.52513576
   0.66666669  0.48759085  0.76256788
