 vasp.6.4.3 19Mar24 (build Oct 22 2024 11:23:12) complex                        
  
 executed on             LinuxIFC date 2025.06.09  16:15:50
 running   64 mpi-ranks, on    4 nodes
 distrk:  each k-point on   64 cores,    1 groups
 distr:  one band on NCORE=  16 cores,    4 groups


--------------------------------------------------------------------------------------------------------


 INCAR:
   SYSTEM = Si and Ge interface calculation
   ISTART = 0
   ICHARG = 2
   LWAVE = .FALSE.
   LREAL = AUTO
   ENCUT = 700
   ENAUG = 900
   ADDGRID = .TRUE.
   LMAXMIX = 6
   LASPH = .TRUE.
   LMIXTAU = .TRUE.
   NCORE = 16
   NELM = 100
   NBANDS = 548
   EDIFF = 1d-7
   AMIX = 0.6
   ISMEAR = 0
   SIGMA = 0.01
   NELECT = 912
   ISPIN = 2
   NUPDOWN = 1
   LVTOT = .FALSE.
   LVHAR = .TRUE.

 POTCAR:    PAW_PBE Ge 05Jan2001                  
 POTCAR:    PAW_PBE Si 05Jan2001                  
 -----------------------------------------------------------------------------
|                                                                             |
|           W    W    AA    RRRRR   N    N  II  N    N   GGGG   !!!           |
|           W    W   A  A   R    R  NN   N  II  NN   N  G    G  !!!           |
|           W    W  A    A  R    R  N N  N  II  N N  N  G       !!!           |
|           W WW W  AAAAAA  RRRRR   N  N N  II  N  N N  G  GGG   !            |
|           WW  WW  A    A  R   R   N   NN  II  N   NN  G    G                |
|           W    W  A    A  R    R  N    N  II  N    N   GGGG   !!!           |
|                                                                             |
|     You use a magnetic or noncollinear calculation, but did not specify     |
|     the initial magnetic moment with the MAGMOM tag. Note that a            |
|     default of 4.386e-3 will be used for all atoms. This ferromagnetic      |
|     setup may break the symmetry of the crystal, in particular it may       |
|     rule out finding an antiferromagnetic solution. Thence, we              |
|     recommend setting the initial magnetic moment manually or verifying     |
|     carefully that this magnetic setup is desired.                          |
|                                                                             |
 -----------------------------------------------------------------------------

 POTCAR:    PAW_PBE Ge 05Jan2001                  
   VRHFIN =Ge: s2p2                                                                                 
   LEXCH  = PE                                                                                      
   EATOM  =   104.9960 eV,    7.7170 Ry                                                             
                                                                                                    
   TITEL  = PAW_PBE Ge 05Jan2001                                                                    
   LULTRA =        F    use ultrasoft PP ?                                                          
   IUNSCR =        1    unscreen: 0-lin 1-nonlin 2-no                                               
   RPACOR =    2.170    partial core radius                                                         
   POMASS =   72.610; ZVAL   =    4.000    mass and valenz                                          
   RCORE  =    2.300    outmost cutoff radius                                                       
   RWIGS  =    2.300; RWIGS  =    1.217    wigner-seitz radius (au A)                               
   ENMAX  =  173.807; ENMIN  =  130.355 eV                                                          
   ICORE  =        3    local potential                                                             
   LCOR   =        T    correct aug charges                                                         
   LPAW   =        T    paw PP                                                                      
   EAUG   =  385.843                                                                                
   DEXC   =    0.000                                                                                
   RMAX   =    2.342    core radius for proj-oper                                                   
   RAUG   =    1.300    factor for augmentation sphere                                              
   RDEP   =    2.318    radius for radial grids                                                     
   RDEPT  =    2.103    core radius for aug-charge                                                  
                                                                                                    
   Atomic configuration                                                                             
   10 entries                                                                                       
     n  l   j            E        occ.                                                              
     1  0  0.50    -10959.8463   2.0000                                                             
     2  0  0.50     -1371.6056   2.0000                                                             
     2  1  1.50     -1198.4791   6.0000                                                             
     3  0  0.50      -168.4733   2.0000                                                             
     3  1  1.50      -115.6019   6.0000                                                             
     3  2  2.50       -29.3106  10.0000                                                             
     4  0  0.50       -11.7309   2.0000                                                             
     4  1  0.50        -3.8952   2.0000                                                             
     4  2  1.50        -4.0817   0.0000                                                             
     4  3  2.50        -4.0817   0.0000                                                             
   Description                                                                                      
     l       E           TYP  RCUT    TYP  RCUT                                                     
     0    -11.7309493     23  2.300                                                                 
     0     -7.4578696     23  2.300                                                                 
     1     -3.8952261     23  2.300                                                                 
     1      6.1178114     23  2.300                                                                 
     2     -4.0817478     23  2.300                                                                 
     3     -1.3605826      7  2.300                                                                 
  local pseudopotential read in
  partial core-charges read in
  partial kinetic energy density read in
  atomic valenz-charges read in
  non local Contribution for L=           0  read in
    real space projection operators read in
  non local Contribution for L=           0  read in
    real space projection operators read in
  non local Contribution for L=           1  read in
    real space projection operators read in
  non local Contribution for L=           1  read in
    real space projection operators read in
  non local Contribution for L=           2  read in
    real space projection operators read in
    PAW grid and wavefunctions read in
 
   number of l-projection  operators is LMAX  =           5
   number of lm-projection operators is LMMAX =          13
 
 POTCAR:    PAW_PBE Si 05Jan2001                  
   VRHFIN =Si: s2p2                                                                                 
   LEXCH  = PE                                                                                      
   EATOM  =   103.0669 eV,    7.5752 Ry                                                             
                                                                                                    
   TITEL  = PAW_PBE Si 05Jan2001                                                                    
   LULTRA =        F    use ultrasoft PP ?                                                          
   IUNSCR =        1    unscreen: 0-lin 1-nonlin 2-no                                               
   RPACOR =    1.500    partial core radius                                                         
   POMASS =   28.085; ZVAL   =    4.000    mass and valenz                                          
   RCORE  =    1.900    outmost cutoff radius                                                       
   RWIGS  =    2.480; RWIGS  =    1.312    wigner-seitz radius (au A)                               
   ENMAX  =  245.345; ENMIN  =  184.009 eV                                                          
   ICORE  =        2    local potential                                                             
   LCOR   =        T    correct aug charges                                                         
   LPAW   =        T    paw PP                                                                      
   EAUG   =  322.069                                                                                
   DEXC   =    0.000                                                                                
   RMAX   =    1.950    core radius for proj-oper                                                   
   RAUG   =    1.300    factor for augmentation sphere                                              
   RDEP   =    1.993    radius for radial grids                                                     
   RDEPT  =    1.837    core radius for aug-charge                                                  
                                                                                                    
   Atomic configuration                                                                             
    6 entries                                                                                       
     n  l   j            E        occ.                                                              
     1  0  0.50     -1785.8828   2.0000                                                             
     2  0  0.50      -139.4969   2.0000                                                             
     2  1  1.50       -95.5546   6.0000                                                             
     3  0  0.50       -10.8127   2.0000                                                             
     3  1  0.50        -4.0811   2.0000                                                             
     3  2  1.50        -4.0817   0.0000                                                             
   Description                                                                                      
     l       E           TYP  RCUT    TYP  RCUT                                                     
     0    -10.8127223     23  1.900                                                                 
     0     -7.6451159     23  1.900                                                                 
     1     -4.0811372     23  1.900                                                                 
     1      2.4879257     23  1.900                                                                 
     2     -4.0817478      7  1.900                                                                 
  local pseudopotential read in
  partial core-charges read in
  partial kinetic energy density read in
  atomic valenz-charges read in
  non local Contribution for L=           0  read in
    real space projection operators read in
  non local Contribution for L=           0  read in
    real space projection operators read in
  non local Contribution for L=           1  read in
    real space projection operators read in
  non local Contribution for L=           1  read in
    real space projection operators read in
    PAW grid and wavefunctions read in
 
   number of l-projection  operators is LMAX  =           4
   number of lm-projection operators is LMMAX =           8
 
 Optimization of the real space projectors (new method)

 maximal supplied QI-value         = 16.25
 optimisation between [QCUT,QGAM] = [ 13.49, 26.98] = [ 50.95,203.80] Ry 
 Optimized for a Real-space Cutoff    1.25 Angstroem

   l    n(q)    QCUT    max X(q) W(low)/X(q) W(high)/X(q)  e(spline) 
   0     10    13.489    65.336    0.91E-04    0.11E-03    0.34E-06
   0     10    13.489    52.220    0.89E-04    0.11E-03    0.34E-06
   1     10    13.489    36.409    0.22E-03    0.27E-03    0.14E-06
   1     10    13.489    21.334    0.21E-03    0.27E-03    0.14E-06
   2      9    13.489     4.673    0.11E-03    0.12E-03    0.19E-06
 Optimization of the real space projectors (new method)

 maximal supplied QI-value         = 19.84
 optimisation between [QCUT,QGAM] = [ 13.49, 26.99] = [ 50.98,203.92] Ry 
 Optimized for a Real-space Cutoff    1.07 Angstroem

   l    n(q)    QCUT    max X(q) W(low)/X(q) W(high)/X(q)  e(spline) 
   0      9    13.493   159.560    0.22E-03    0.15E-03    0.72E-07
   0      9    13.493   115.863    0.21E-03    0.15E-03    0.71E-07
   1      8    13.493    88.339    0.15E-03    0.11E-03    0.13E-06
   1      8    13.493    48.592    0.15E-03    0.10E-03    0.13E-06
  PAW_PBE Ge 05Jan2001                  :
 energy of atom  1       EATOM= -104.9960
 kinetic energy error for atom=    0.0001 (will be added to EATOM!!)
  PAW_PBE Si 05Jan2001                  :
 energy of atom  2       EATOM= -103.0669
 kinetic energy error for atom=    0.0003 (will be added to EATOM!!)
 
 
 POSCAR: Ge+Si
  positions in direct lattice
  No initial velocities read in


 exchange-correlation table for PE
   RHO(1)=    0.500       N(1)  =     2000
   RHO(2)=  100.500       N(2)  =     4000
 


--------------------------------------------------------------------------------------------------------


 ion  position               nearest neighbor table
   1  0.994  0.667  0.000-  31 2.45 100 2.45 153 2.51
   2  0.828  0.667  0.158-  32 2.45 100 2.45  49 2.45 101 2.45
   3  0.661  0.667  0.317-  50 2.45  33 2.45 101 2.45 102 2.45
   4  0.994  0.333  0.000- 210 2.40 103 2.45  34 2.45
   5  0.828  0.333  0.158-  35 2.45 103 2.45  52 2.45 104 2.45
   6  0.661  0.333  0.317-  53 2.45 104 2.45  36 2.45 105 2.45
   7  0.994  0.000  0.000- 106 2.45  28 2.45 213 2.65 150 2.86
   8  0.828  0.000  0.158- 106 2.45  29 2.45 107 2.45  46 2.45
   9  0.661  0.000  0.317- 107 2.45 108 2.45  47 2.45  30 2.45
  10  0.328  0.667  0.000- 162 2.06  40 2.45  82 2.45
  11  0.161  0.667  0.158-  31 2.45  41 2.45  82 2.45  83 2.45
  12  0.994  0.667  0.317-  42 2.45  32 2.45  84 2.45  83 2.45
  13  0.328  0.333  0.000-  43 2.45  85 2.45 165 2.95
  14  0.161  0.333  0.158-  34 2.45  44 2.45  85 2.45  86 2.45
  15  0.994  0.333  0.317-  45 2.45  35 2.45  87 2.45  86 2.45
  16  0.328  0.000  0.000-  88 2.45  37 2.45 159 2.48
  17  0.161  0.000  0.158-  88 2.45  89 2.45  28 2.45  38 2.45
  18  0.994  0.000  0.317-  90 2.45  89 2.45  39 2.45  29 2.45
  19  0.661  0.667  0.000-  91 2.45  49 2.45 141 2.93
  20  0.494  0.667  0.158-  40 2.45  50 2.45  92 2.45  91 2.45
  21  0.328  0.667  0.317-  41 2.45  51 2.45  93 2.45  92 2.45
  22  0.661  0.333  0.000- 201 2.15  94 2.45  52 2.45
  23  0.494  0.333  0.158-  95 2.45  43 2.45  53 2.45  94 2.45
  24  0.328  0.333  0.317-  96 2.45  44 2.45  54 2.45  95 2.45
  25  0.661  0.000  0.000- 204 2.43  97 2.45  46 2.45
  26  0.494  0.000  0.158-  98 2.45  97 2.45  37 2.45  47 2.45
  27  0.328  0.000  0.317-  99 2.45  98 2.45  38 2.45  48 2.45
  28  0.078  0.917  0.079-  55 2.45  56 2.45  17 2.45   7 2.45
  29  0.911  0.917  0.238-  57 2.45   8 2.45  18 2.45  56 2.45
  30  0.744  0.917  0.396-  57 2.45   9 2.45 112 2.63
  31  0.078  0.583  0.079-  11 2.45   1 2.45  58 2.45  59 2.45
  32  0.911  0.583  0.238-   2 2.45  12 2.45  60 2.45  59 2.45
  33  0.744  0.583  0.396-   3 2.45  60 2.45 136 2.74
  34  0.078  0.250  0.079-  14 2.45  61 2.45  62 2.45   4 2.45
  35  0.911  0.250  0.238-   5 2.45  63 2.45  15 2.45  62 2.45
  36  0.744  0.250  0.396- 109 2.01  63 2.45   6 2.45
  37  0.411  0.917  0.079-  65 2.45  64 2.45  16 2.45  26 2.45
  38  0.244  0.917  0.238-  66 2.45  65 2.45  17 2.45  27 2.45
  39  0.078  0.917  0.396-  66 2.45  18 2.45 178 2.45
  40  0.411  0.583  0.079-  10 2.45  20 2.45  68 2.45  67 2.45
  41  0.244  0.583  0.238-  11 2.45  21 2.45  69 2.45  68 2.45
  42  0.078  0.583  0.396- 181 2.39  12 2.45  69 2.45
  43  0.411  0.250  0.079-  13 2.45  71 2.45  23 2.45  70 2.45
  44  0.244  0.250  0.238-  14 2.45  72 2.45  24 2.45  71 2.45
  45  0.078  0.250  0.396-  15 2.45  72 2.45 118 2.60
  46  0.744  0.917  0.079-  73 2.45  74 2.45   8 2.45  25 2.45
  47  0.578  0.917  0.238-  75 2.45  74 2.45  26 2.45   9 2.45
  48  0.411  0.917  0.396- 187 2.35  75 2.45  27 2.45
  49  0.744  0.583  0.079-   2 2.45  19 2.45  76 2.45  77 2.45
  50  0.578  0.583  0.238-  20 2.45   3 2.45  78 2.45  77 2.45
  51  0.411  0.583  0.396- 190 2.29  21 2.45  78 2.45
  52  0.744  0.250  0.079-  79 2.45  80 2.45   5 2.45  22 2.45
  53  0.578  0.250  0.238-  81 2.45  23 2.45   6 2.45  80 2.45
  54  0.411  0.250  0.396-  24 2.45  81 2.45 130 2.77
  55  0.161  0.833  0.000- 216 2.15  82 2.45  28 2.45
  56  0.994  0.833  0.158- 100 2.45  83 2.45  28 2.45  29 2.45
  57  0.828  0.833  0.317- 101 2.45  84 2.45  29 2.45  30 2.45
  58  0.161  0.500  0.000- 219 2.43  85 2.45  31 2.45
  59  0.994  0.500  0.158- 103 2.45  86 2.45  31 2.45  32 2.45
  60  0.828  0.500  0.317- 104 2.45  87 2.45  32 2.45  33 2.45
  61  0.161  0.167  0.000-  88 2.45  34 2.45 156 2.93
  62  0.994  0.167  0.158- 106 2.45  89 2.45  34 2.45  35 2.45
  63  0.828  0.167  0.317-  35 2.45 107 2.45  90 2.45  36 2.45
  64  0.494  0.833  0.000- 225 2.40  37 2.45  91 2.45
  65  0.328  0.833  0.158-  82 2.45  37 2.45  38 2.45  92 2.45
  66  0.161  0.833  0.317-  83 2.45  93 2.45  38 2.45  39 2.45
  67  0.494  0.500  0.000-  94 2.45  40 2.45 228 2.65 165 2.86
  68  0.328  0.500  0.158-  85 2.45  95 2.45  40 2.45  41 2.45
  69  0.161  0.500  0.317-  86 2.45  96 2.45  41 2.45  42 2.45
  70  0.494  0.167  0.000-  43 2.45  97 2.45 168 2.51
  71  0.328  0.167  0.158-  88 2.45  43 2.45  44 2.45  98 2.45
  72  0.161  0.167  0.317-  89 2.45  44 2.45  45 2.45  99 2.45
  73  0.828  0.833  0.000- 100 2.45  46 2.45 150 2.95
  74  0.661  0.833  0.158-  91 2.45 101 2.45  46 2.45  47 2.45
  75  0.494  0.833  0.317-  92 2.45 102 2.45  47 2.45  48 2.45
  76  0.828  0.500  0.000- 103 2.45  49 2.45 144 2.48
  77  0.661  0.500  0.158-  94 2.45 104 2.45  49 2.45  50 2.45
  78  0.494  0.500  0.317-  95 2.45 105 2.45  50 2.45  51 2.45
  79  0.828  0.167  0.000- 147 2.06  52 2.45 106 2.45
  80  0.661  0.167  0.158-  97 2.45  52 2.45  53 2.45 107 2.45
  81  0.494  0.167  0.317-  98 2.45  53 2.45 108 2.45  54 2.45
  82  0.244  0.750  0.079-  65 2.45  11 2.45  55 2.45  10 2.45
  83  0.078  0.750  0.238-  66 2.45  56 2.45  12 2.45  11 2.45
  84  0.911  0.750  0.396-  57 2.45  12 2.45 115 2.77
  85  0.244  0.417  0.079-  68 2.45  58 2.45  14 2.45  13 2.45
  86  0.078  0.417  0.238-  69 2.45  59 2.45  15 2.45  14 2.45
  87  0.911  0.417  0.396- 172 2.35  60 2.45  15 2.45
  88  0.244  0.083  0.079-  71 2.45  61 2.45  17 2.45  16 2.45
  89  0.078  0.083  0.238-  72 2.45  62 2.45  18 2.45  17 2.45
  90  0.911  0.083  0.396- 175 2.29  63 2.45  18 2.45
  91  0.578  0.750  0.079-  74 2.45  19 2.45  20 2.45  64 2.45
  92  0.411  0.750  0.238-  75 2.45  20 2.45  21 2.45  65 2.45
  93  0.244  0.750  0.396- 124 2.01  21 2.45  66 2.45
  94  0.578  0.417  0.079-  77 2.45  22 2.45  67 2.45  23 2.45
  95  0.411  0.417  0.238-  78 2.45  23 2.45  68 2.45  24 2.45
  96  0.244  0.417  0.396-  24 2.45  69 2.45 127 2.63
  97  0.578  0.083  0.079-  80 2.45  25 2.45  26 2.45  70 2.45
  98  0.411  0.083  0.238-  81 2.45  26 2.45  27 2.45  71 2.45
  99  0.244  0.083  0.396-  27 2.45  72 2.45 121 2.74
 100  0.911  0.750  0.079-  56 2.45   2 2.45   1 2.45  73 2.45
 101  0.744  0.750  0.238-  57 2.45   3 2.45  74 2.45   2 2.45
 102  0.578  0.750  0.396-  75 2.45   3 2.45 133 2.60
 103  0.911  0.417  0.079-  59 2.45   5 2.45   4 2.45  76 2.45
 104  0.744  0.417  0.238-  60 2.45  77 2.45   6 2.45   5 2.45
 105  0.578  0.417  0.396-  78 2.45   6 2.45 193 2.45
 106  0.911  0.083  0.079-  62 2.45   8 2.45   7 2.45  79 2.45
 107  0.744  0.083  0.238-  63 2.45   9 2.45  80 2.45   8 2.45
 108  0.578  0.083  0.396- 196 2.39  81 2.45   9 2.45
 109  0.742  0.241  0.508-  36 2.01 226 2.33 142 2.33
 110  0.692  0.891  0.660- 166 2.33 143 2.33 199 2.33 227 2.33
 111  0.642  0.541  0.812- 228 2.33 167 2.33 144 2.33 200 2.33
 112  0.842  0.941  0.508- 199 2.33 145 2.33  30 2.63
 113  0.792  0.591  0.660- 139 2.33 202 2.33 146 2.33 200 2.33
 114  0.742  0.241  0.812- 140 2.33 147 2.33 201 2.33 203 2.33
 115  0.942  0.641  0.508- 148 2.33 202 2.33  84 2.77
 116  0.892  0.291  0.660- 142 2.33 203 2.33 205 2.33 149 2.33
 117  0.842  0.941  0.812- 143 2.33 150 2.33 204 2.33 206 2.33
 118  0.042  0.341  0.508- 151 2.33 205 2.33  45 2.60
 119  0.992  0.991  0.660- 145 2.33 206 2.33 152 2.33 208 2.33
 120  0.942  0.641  0.812- 146 2.33 207 2.33 153 2.33 209 2.33
 121  0.142  0.041  0.508- 208 2.33 154 2.33  99 2.74
 122  0.092  0.691  0.660- 148 2.33 155 2.33 209 2.33 211 2.33
 123  0.042  0.341  0.812- 156 2.33 210 2.33 149 2.33 212 2.33
 124  0.242  0.741  0.508-  93 2.01 211 2.33 157 2.33
 125  0.192  0.391  0.660- 151 2.33 212 2.33 214 2.33 158 2.33
 126  0.142  0.041  0.812- 152 2.33 213 2.33 159 2.33 215 2.33
 127  0.342  0.441  0.508- 214 2.33 160 2.33  96 2.63
 128  0.292  0.091  0.660- 154 2.33 215 2.33 217 2.33 161 2.33
 129  0.242  0.741  0.812- 155 2.33 216 2.33 162 2.33 218 2.33
 130  0.442  0.141  0.508- 217 2.33 163 2.33  54 2.77
 131  0.392  0.791  0.660- 164 2.33 220 2.33 157 2.33 218 2.33
 132  0.342  0.441  0.812- 219 2.33 165 2.33 221 2.33 158 2.33
 133  0.542  0.841  0.508- 220 2.33 166 2.33 102 2.60
 134  0.492  0.491  0.660- 160 2.33 221 2.33 223 2.33 167 2.33
 135  0.442  0.141  0.812- 161 2.33 222 2.33 168 2.33 224 2.33
 136  0.642  0.541  0.508- 139 2.33 223 2.33  33 2.74
 137  0.592  0.191  0.660- 140 2.33 163 2.33 226 2.33 224 2.33
 138  0.542  0.841  0.812- 141 2.33 164 2.33 225 2.33 227 2.33
 139  0.742  0.491  0.584- 136 2.33 113 2.33 170 2.33 172 2.33
 140  0.692  0.141  0.736- 137 2.33 114 2.33 173 2.33 171 2.33
 141  0.642  0.791  0.888- 138 2.33 174 2.33  19 2.93
 142  0.842  0.191  0.584- 173 2.33 116 2.33 175 2.33 109 2.33
 143  0.792  0.841  0.736- 117 2.33 110 2.33 176 2.33 174 2.33
 144  0.742  0.491  0.888- 177 2.33 111 2.33  76 2.48
 145  0.942  0.891  0.584- 119 2.33 178 2.33 112 2.33 176 2.33
 146  0.892  0.541  0.736- 120 2.33 113 2.33 179 2.33 177 2.33
 147  0.842  0.191  0.888-  79 2.06 114 2.33 180 2.33
 148  0.042  0.591  0.584- 122 2.33 181 2.33 115 2.33 179 2.33
 149  0.992  0.241  0.736- 123 2.33 182 2.33 180 2.33 116 2.33
 150  0.942  0.891  0.888- 117 2.33 183 2.33   7 2.86  73 2.95
 151  0.142  0.291  0.584- 125 2.33 184 2.33 118 2.33 182 2.33
 152  0.092  0.941  0.736- 126 2.33 119 2.33 183 2.33 185 2.33
 153  0.042  0.591  0.888- 186 2.33 120 2.33   1 2.51
 154  0.242  0.991  0.584- 128 2.33 187 2.33 121 2.33 185 2.33
 155  0.192  0.641  0.736- 129 2.33 188 2.33 122 2.33 186 2.33
 156  0.142  0.291  0.888- 189 2.33 123 2.33  61 2.93
 157  0.342  0.691  0.584- 188 2.33 190 2.33 131 2.33 124 2.33
 158  0.292  0.341  0.736- 191 2.33 189 2.33 125 2.33 132 2.33
 159  0.242  0.991  0.888- 192 2.33 126 2.33  16 2.48
 160  0.442  0.391  0.584- 134 2.33 193 2.33 127 2.33 191 2.33
 161  0.392  0.041  0.736- 135 2.33 194 2.33 128 2.33 192 2.33
 162  0.342  0.691  0.888-  10 2.06 195 2.33 129 2.33
 163  0.542  0.091  0.584- 137 2.33 196 2.33 130 2.33 194 2.33
 164  0.492  0.741  0.736- 138 2.33 131 2.33 197 2.33 195 2.33
 165  0.442  0.391  0.888- 198 2.33 132 2.33  67 2.86  13 2.95
 166  0.642  0.791  0.584- 169 2.33 110 2.33 197 2.33 133 2.33
 167  0.592  0.441  0.736- 111 2.33 170 2.33 134 2.33 198 2.33
 168  0.542  0.091  0.888- 171 2.33 135 2.33  70 2.51
 169  0.742  0.741  0.508- 166 2.33 202 2.33
 170  0.692  0.391  0.660- 226 2.33 203 2.33 167 2.33 139 2.33
 171  0.642  0.041  0.812- 168 2.33 227 2.33 204 2.33 140 2.33
 172  0.842  0.441  0.508- 139 2.33 205 2.33  87 2.35
 173  0.792  0.091  0.660- 199 2.33 142 2.33 140 2.33 206 2.33
 174  0.742  0.741  0.812- 200 2.33 207 2.33 141 2.33 143 2.33
 175  0.942  0.141  0.508-  90 2.29 208 2.33 142 2.33
 176  0.892  0.791  0.660- 202 2.33 143 2.33 209 2.33 145 2.33
 177  0.842  0.441  0.812- 203 2.33 210 2.33 144 2.33 146 2.33
 178  0.042  0.841  0.508- 211 2.33 145 2.33  39 2.45
 179  0.992  0.491  0.660- 205 2.33 212 2.33 146 2.33 148 2.33
 180  0.942  0.141  0.812- 213 2.33 206 2.33 147 2.33 149 2.33
 181  0.142  0.541  0.508- 214 2.33 148 2.33  42 2.39
 182  0.092  0.191  0.660- 208 2.33 149 2.33 215 2.33 151 2.33
 183  0.042  0.841  0.812- 216 2.33 209 2.33 150 2.33 152 2.33
 184  0.242  0.241  0.508- 151 2.33 217 2.33
 185  0.192  0.891  0.660- 211 2.33 218 2.33 154 2.33 152 2.33
 186  0.142  0.541  0.812- 212 2.33 153 2.33 219 2.33 155 2.33
 187  0.342  0.941  0.508- 154 2.33 220 2.33  48 2.35
 188  0.292  0.591  0.660- 214 2.33 155 2.33 157 2.33 221 2.33
 189  0.242  0.241  0.812- 156 2.33 215 2.33 222 2.33 158 2.33
 190  0.442  0.641  0.508-  51 2.29 223 2.33 157 2.33
 191  0.392  0.291  0.660- 217 2.33 158 2.33 224 2.33 160 2.33
 192  0.342  0.941  0.812- 225 2.33 218 2.33 159 2.33 161 2.33
 193  0.542  0.341  0.508- 160 2.33 226 2.33 105 2.45
 194  0.492  0.991  0.660- 220 2.33 227 2.33 161 2.33 163 2.33
 195  0.442  0.641  0.812- 221 2.33 162 2.33 228 2.33 164 2.33
 196  0.642  0.041  0.508- 163 2.33 199 2.33 108 2.39
 197  0.592  0.691  0.660- 200 2.33 166 2.33 223 2.33 164 2.33
 198  0.542  0.341  0.812- 201 2.33 165 2.33 224 2.33 167 2.33
 199  0.742  0.991  0.584- 173 2.33 196 2.33 112 2.33 110 2.33
 200  0.692  0.641  0.736- 197 2.33 174 2.33 113 2.33 111 2.33
 201  0.642  0.291  0.888-  22 2.15 198 2.33 114 2.33
 202  0.842  0.691  0.584- 176 2.33 113 2.33 169 2.33 115 2.33
 203  0.792  0.341  0.736- 177 2.33 170 2.33 116 2.33 114 2.33
 204  0.742  0.991  0.888- 171 2.33 117 2.33  25 2.43
 205  0.942  0.391  0.584- 179 2.33 118 2.33 172 2.33 116 2.33
 206  0.892  0.041  0.736- 180 2.33 119 2.33 173 2.33 117 2.33
 207  0.842  0.691  0.888- 174 2.33 120 2.33
 208  0.042  0.091  0.584- 182 2.33 121 2.33 175 2.33 119 2.33
 209  0.992  0.741  0.736- 183 2.33 122 2.33 176 2.33 120 2.33
 210  0.942  0.391  0.888- 177 2.33 123 2.33   4 2.40
 211  0.142  0.791  0.584- 185 2.33 124 2.33 178 2.33 122 2.33
 212  0.092  0.441  0.736- 186 2.33 125 2.33 179 2.33 123 2.33
 213  0.042  0.091  0.888- 180 2.33 126 2.33   7 2.65
 214  0.242  0.491  0.584- 188 2.33 181 2.33 125 2.33 127 2.33
 215  0.192  0.141  0.736- 189 2.33 128 2.33 182 2.33 126 2.33
 216  0.142  0.791  0.888-  55 2.15 183 2.33 129 2.33
 217  0.342  0.191  0.584- 191 2.33 130 2.33 128 2.33 184 2.33
 218  0.292  0.841  0.736- 192 2.33 185 2.33 131 2.33 129 2.33
 219  0.242  0.491  0.888- 132 2.33 186 2.33  58 2.43
 220  0.442  0.891  0.584- 194 2.33 187 2.33 131 2.33 133 2.33
 221  0.392  0.541  0.736- 195 2.33 134 2.33 132 2.33 188 2.33
 222  0.342  0.191  0.888- 189 2.33 135 2.33
 223  0.542  0.591  0.584- 190 2.33 134 2.33 197 2.33 136 2.33
 224  0.492  0.241  0.736- 198 2.33 191 2.33 135 2.33 137 2.33
 225  0.442  0.891  0.888- 192 2.33 138 2.33  64 2.40
 226  0.642  0.291  0.584- 109 2.33 170 2.33 137 2.33 193 2.33
 227  0.592  0.941  0.736- 194 2.33 171 2.33 138 2.33 110 2.33
 228  0.542  0.591  0.888- 111 2.33 195 2.33  67 2.65
 
  LATTYP: Found a simple tetragonal cell.
 ALAT       =    16.9734001160
 C/A-ratio  =     1.0522935852
  
  Lattice vectors:
  
 A1 = (  16.9734001160,   0.0000000000,   0.0000000000)
 A2 = (   0.0000000000,  16.9734001160,   0.0000000000)
 A3 = (   0.0000000000,   0.0000000000,  17.8610000610)


Analysis of symmetry for initial positions (statically):
=====================================================================
 Subroutine PRICEL returns following result:
 
  LATTYP: Found a simple tetragonal cell.
 ALAT       =    12.0020066819
 C/A-ratio  =     1.4881678151
  
  Lattice vectors:
  
 A1 = (   8.4866990566,  -8.4867015686,   0.0000000000)
 A2 = (   8.4866990566,   8.4866985474,   0.0000000000)
 A3 = (   0.0000000000,   0.0000000000,  17.8610000610)
 
   2 primitive cells build up your supercell.
 

 Routine SETGRP: Setting up the symmetry group for a 
 simple tetragonal supercell.


 Subroutine GETGRP returns: Found  1 space group operations
 (whereof  1 operations were pure point group operations)
 out of a pool of 16 trial point group operations.


The static configuration has the point symmetry C_1 .


Analysis of symmetry for dynamics (positions and initial velocities):
=====================================================================
 Subroutine PRICEL returns following result:
 
  LATTYP: Found a simple tetragonal cell.
 ALAT       =    12.0020066819
 C/A-ratio  =     1.4881678151
  
  Lattice vectors:
  
 A1 = (   8.4866990566,  -8.4867015686,   0.0000000000)
 A2 = (   8.4866990566,   8.4866985474,   0.0000000000)
 A3 = (   0.0000000000,   0.0000000000,  17.8610000610)
 
   2 primitive cells build up your supercell.
 

 Routine SETGRP: Setting up the symmetry group for a 
 simple tetragonal supercell.


 Subroutine GETGRP returns: Found  1 space group operations
 (whereof  1 operations were pure point group operations)
 out of a pool of 16 trial point group operations.


The dynamic configuration has the point symmetry C_1 .


Analysis of structural, dynamic, and magnetic symmetry:
=====================================================================
 Subroutine PRICEL returns following result:
 
  LATTYP: Found a simple tetragonal cell.
 ALAT       =    12.0020066819
 C/A-ratio  =     1.4881678151
  
  Lattice vectors:
  
 A1 = (   8.4866990566,  -8.4867015686,   0.0000000000)
 A2 = (   8.4866990566,   8.4866985474,   0.0000000000)
 A3 = (   0.0000000000,   0.0000000000,  17.8610000610)
 
   2 primitive cells build up your supercell.
 

 Routine SETGRP: Setting up the symmetry group for a 
 simple tetragonal supercell.


 Subroutine GETGRP returns: Found  1 space group operations
 (whereof  1 operations were pure point group operations)
 out of a pool of 16 trial point group operations.


The overall configuration has the point symmetry C_1 .


 Subroutine INISYM returns: Found  1 space group operations
 (whereof  1 operations are pure point group operations),
 and found     2 'primitive' translations


----------------------------------------------------------------------------------------

                                     Primitive cell                                     

  volume of cell :    2572.8438

  direct lattice vectors                    reciprocal lattice vectors
     8.486699057 -8.486701569  0.000000000     0.058915711 -0.058915715  0.000000000
     8.486699057  8.486698547  0.000000000     0.058915732  0.058915715  0.000000000
     0.000000000  0.000000000 17.861000061     0.000000000  0.000000000  0.055987906

  length of vectors
    12.002006682 12.002004546 17.861000061     0.083319400  0.083319415  0.055987906

  position of ions in fractional coordinates (direct lattice)
     0.327638864  0.660972352  0.000000000
     0.160972248  0.494305677  0.158384174
     0.994305511  0.327638881  0.316768378
     0.660972147  0.327639069  0.000000000
     0.494305531  0.160972036  0.158384174
     0.327638870  0.994305316  0.316768378
     0.994305431  0.994305785  0.000000000
     0.827638814  0.827638753  0.158384174
     0.660972153  0.660972033  0.316768378
     0.660972218  0.994305469  0.000000000
     0.494305571  0.827638763  0.158384174
     0.327638805  0.660972293  0.316768378
     0.994305561  0.660972244  0.000000000
     0.827638854  0.494305480  0.158384174
     0.660972088  0.327639010  0.316768378
     0.327638844  0.327638961  0.000000000
     0.160972167  0.160972225  0.158384174
     0.994305372  0.994305726  0.316768378
     0.994305511  0.327638881  0.000000000
     0.827638789  0.160972427  0.158384174
     0.660972158  0.994305409  0.316768378
     0.327638959  0.994305405  0.000000000
     0.160972237  0.827638979  0.158384174
     0.994305561  0.660972244  0.316768378
     0.660972242  0.660972122  0.000000000
     0.494305520  0.494305696  0.158384174
     0.327638844  0.327638961  0.316768378
     0.160972270  0.994305432  0.079192095
     0.994305496  0.827638955  0.237576291
     0.827638805  0.660972146  0.395960480
     0.494305524  0.660972178  0.079192095
     0.327638750  0.494305701  0.237576291
     0.160972133  0.327639024  0.395960480
     0.827638882  0.327638820  0.079192095
     0.660972108  0.160972343  0.237576291
     0.494305551  0.994305400  0.395960480
     0.494305496  0.327639075  0.079192095
     0.327638835  0.160972056  0.237576291
     0.160972151  0.994305313  0.395960480
     0.827638751  0.994305524  0.079192095
     0.660972089  0.827638802  0.237576291
     0.494305405  0.660972059  0.395960480
     0.160972242  0.660972329  0.079192095
     0.994305565  0.494305592  0.237576291
     0.827638763  0.327638701  0.395960480
     0.827638820  0.660972161  0.079192095
     0.660972151  0.494305433  0.237576291
     0.494305436  0.327639015  0.395960480
     0.160972133  0.327639024  0.079192095
     0.994305397  0.160972229  0.237576291
     0.827638721  0.994305494  0.395960480
     0.494305566  0.994305415  0.079192095
     0.327638897  0.827638687  0.237576291
     0.160972182  0.660972269  0.395960480
     0.500863597  0.983069432  0.507936299
     0.800863611  0.583069262  0.659971476
     0.100863656  0.183069181  0.812006712
     0.900863537  0.783069681  0.507936299
     0.200863611  0.383069571  0.659971476
     0.500863716  0.983069075  0.812006712
     0.300863627  0.583069663  0.507936299
     0.600863611  0.183069523  0.659971476
     0.900863716  0.783069264  0.812006712
     0.700863716  0.383069409  0.507936299
     0.000863551  0.983069535  0.659971476
     0.300863686  0.583069246  0.812006712
     0.100863656  0.183069657  0.507936299
     0.400863761  0.783069280  0.659971476
     0.700863775  0.383069110  0.812006712
     0.250863567  0.233069580  0.583953917
     0.550863731  0.833069382  0.735989094
     0.850863656  0.433069181  0.888024211
     0.650863746  0.033069354  0.583953917
     0.950863671  0.633069391  0.735989094
     0.250863746  0.233069163  0.888024211
     0.050863627  0.833069663  0.583953917
     0.350863641  0.433069493  0.735989094
     0.650863805  0.033069295  0.888024211
     0.450863716  0.633069409  0.583953917
     0.750863731  0.233069475  0.735989094
     0.050863685  0.833069365  0.888024211
     0.850863715  0.433069598  0.583953917
     0.150863642  0.033069161  0.735989094
     0.450863775  0.633069110  0.888024211
     0.000863567  0.483069580  0.507936299
     0.300863791  0.083069322  0.659971476
     0.600863746  0.683068973  0.812006712
     0.400863597  0.283069621  0.507936299
     0.700863641  0.883069303  0.659971476
     0.000863686  0.483069223  0.812006712
     0.800863716  0.083069456  0.507936299
     0.100863641  0.683069493  0.659971476
     0.400863716  0.283069264  0.812006712
     0.200863716  0.883069409  0.507936299
     0.500863641  0.483069565  0.659971476
     0.800863775  0.083069157  0.812006712
     0.600863686  0.683069509  0.507936299
     0.900863790  0.283069607  0.659971476
     0.200863775  0.883069110  0.812006712
     0.750863656  0.733069373  0.583953917
     0.050863581  0.333069410  0.735989094
     0.350863686  0.933069033  0.888024211
     0.150863597  0.533069621  0.583953917
     0.450863641  0.133069303  0.735989094
     0.750863776  0.733069253  0.888024211
     0.550863627  0.333069663  0.583953917
     0.850863641  0.933069493  0.735989094
     0.150863656  0.533069324  0.888024211
     0.950863716  0.133069409  0.583953917
     0.250863671  0.733069535  0.735989094
     0.550863685  0.333069365  0.888024211
     0.350863626  0.933069569  0.583953917
     0.650863671  0.533069370  0.735989094
     0.950863596  0.133069289  0.888024211

  ion indices of the primitive-cell ions
   primitive index   ion index
                 1           1
                 2           2
                 3           3
                 4           4
                 5          65
                 6          66
                 7           7
                 8          68
                 9          69
                10          10
                11          11
                12          12
                13          73
                14          14
                15          15
                16          76
                17          77
                18          18
                19          19
                20          62
                21          21
                22          55
                23          56
                24          57
                25          58
                26          59
                27          60
                28          28
                29          29
                30          96
                31          31
                32          32
                33          33
                34          34
                35          35
                36          93
                37         103
                38          38
                39          39
                40          40
                41          41
                42          42
                43         100
                44         101
                45          45
                46          85
                47          86
                48          87
                49          49
                50          50
                51          51
                52          82
                53          83
                54          84
                55         124
                56         125
                57         111
                58         112
                59         113
                60         129
                61         115
                62         116
                63         117
                64         118
                65         119
                66         120
                67         136
                68         122
                69         123
                70         139
                71         155
                72         141
                73         157
                74         143
                75         144
                76         145
                77         146
                78         162
                79         148
                80         149
                81         150
                82         166
                83         152
                84         153
                85         169
                86         185
                87         186
                88         172
                89         188
                90         174
                91         190
                92         176
                93         177
                94         178
                95         179
                96         195
                97         181
                98         197
                99         183
               100         214
               101         200
               102         216
               103         202
               104         218
               105         219
               106         205
               107         206
               108         207
               109         208
               110         209
               111         210
               112         211
               113         212
               114         213

----------------------------------------------------------------------------------------

 
 
 KPOINTS: Automatic KPOINTS generated             

Automatic generation of k-mesh.
 Grid dimensions read from file:
 generate k-points for:    2    2    2

 Generating k-lattice:

  Cartesian coordinates                     Fractional coordinates (reciprocal lattice)
     0.029457857  0.000000000  0.000000000     0.500000000  0.000000000  0.000000000
     0.000000000  0.029457857  0.000000000     0.000000000  0.500000000  0.000000000
     0.000000000  0.000000000  0.027993953     0.000000000  0.000000000  0.500000000

  Length of vectors
     0.029457857  0.029457857  0.027993953

  Shift w.r.t. Gamma in fractional coordinates (k-lattice)
     0.000000000  0.000000000  0.000000000

 
 Subroutine IBZKPT returns following result:
 ===========================================
 
 Found      8 irreducible k-points:
 
 Following reciprocal coordinates:
            Coordinates               Weight
  0.000000  0.000000  0.000000      1.000000
  0.500000  0.000000  0.000000      1.000000
  0.000000  0.500000  0.000000      1.000000
  0.500000  0.500000  0.000000      1.000000
  0.000000  0.000000  0.500000      1.000000
  0.500000  0.000000  0.500000      1.000000
  0.000000  0.500000  0.500000      1.000000
  0.500000  0.500000  0.500000      1.000000
 
 Following cartesian coordinates:
            Coordinates               Weight
  0.000000  0.000000  0.000000      1.000000
  0.029458  0.000000  0.000000      1.000000
  0.000000  0.029458  0.000000      1.000000
  0.029458  0.029458  0.000000      1.000000
  0.000000  0.000000  0.027994      1.000000
  0.029458  0.000000  0.027994      1.000000
  0.000000  0.029458  0.027994      1.000000
  0.029458  0.029458  0.027994      1.000000
 


--------------------------------------------------------------------------------------------------------




 Dimension of arrays:
   k-points           NKPTS =      8   k-points in BZ     NKDIM =      8   number of bands    NBANDS=    548
   number of dos      NEDOS =    301   number of ions     NIONS =    228
   non local maximal  LDIM  =      5   non local SUM 2l+1 LMDIM =     13
   total plane-waves  NPLWV = ******
   max r-space proj   IRMAX =   2420   max aug-charges    IRDMAX= 127378
   dimension x,y,z NGX =   112 NGY =  112 NGZ =  120
   dimension x,y,z NGXF=   224 NGYF=  224 NGZF=  240
   support grid    NGXF=   448 NGYF=  448 NGZF=  480
   ions per type =             108 120
   NGX,Y,Z   is equivalent  to a cutoff of  10.97, 10.97, 11.17 a.u.
   NGXF,Y,Z  is equivalent  to a cutoff of  21.94, 21.94, 22.34 a.u.

 SYSTEM =  Si and Ge interface calculation         
 POSCAR =  Ge+Si                                   

 Startparameter for this run:
   NWRITE =      2    write-flag & timer
   PREC   = normal    normal or accurate (medium, high low for compatibility)
   ISTART =      0    job   : 0-new  1-cont  2-samecut
   ICHARG =      2    charge: 1-file 2-atom 10-const
   ISPIN  =      2    spin polarized calculation?
   LNONCOLLINEAR =      F non collinear calculations
   LSORBIT =      F    spin-orbit coupling
   INIWAV =      1    electr: 0-lowe 1-rand  2-diag
   LASPH  =      T    aspherical Exc in radial PAW
 Electronic Relaxation 1
   ENCUT  =  700.0 eV  51.45 Ry    7.17 a.u.  36.62 36.62 38.53*2*pi/ulx,y,z
   ENINI  =  700.0     initial cutoff
   ENAUG  =  900.0 eV  augmentation charge cutoff
   NELM   =    100;   NELMIN=  2; NELMDL= -5     # of ELM steps 
   EDIFF  = 0.1E-06   stopping-criterion for ELM
   LREAL  =      T    real-space projection
   NLSPLINE    = F    spline interpolate recip. space projectors
   LCOMPAT=      F    compatible to vasp.4.4
   GGA_COMPAT  = T    GGA compatible to vasp.4.4-vasp.4.6
   LMAXPAW     = -100 max onsite density
   LMAXMIX     =    6 max onsite mixed and CHGCAR
   VOSKOWN=      0    Vosko Wilk Nusair interpolation
   ROPT   =   -0.00050  -0.00050
 Ionic relaxation
   EDIFFG = 0.1E-05   stopping-criterion for IOM
   NSW    =      0    number of steps for IOM
   NBLOCK =      1;   KBLOCK =      1    inner block; outer block 
   IBRION =     -1    ionic relax: 0-MD 1-quasi-New 2-CG
   NFREE  =      0    steps in history (QN), initial steepest desc. (CG)
   ISIF   =      2    stress and relaxation
   IWAVPR =     10    prediction:  0-non 1-charg 2-wave 3-comb
   ISYM   =      2    0-nonsym 1-usesym 2-fastsym
   LCORR  =      T    Harris-Foulkes like correction to forces

   POTIM  = 0.5000    time-step for ionic-motion
   TEIN   =    0.0    initial temperature
   TEBEG  =    0.0;   TEEND  =   0.0 temperature during run
   SMASS  =  -3.00    Nose mass-parameter (am)
   estimated Nose-frequenzy (Omega)   =  0.10E-29 period in steps = 0.13E+47 mass=  -0.658E-26a.u.
   SCALEE = 1.0000    scale energy and forces
   NPACO  =    256;   APACO  = 10.0  distance and # of slots for P.C.
   PSTRESS=    0.0 pullay stress

  Mass of Ions in am
   POMASS =  72.61 28.09
  Ionic Valenz
   ZVAL   =   4.00  4.00
  Atomic Wigner-Seitz radii
   RWIGS  =  -1.00 -1.00
  virtual crystal weights 
   VCA    =   1.00  1.00
   NELECT =     912.0000    total number of electrons
   NUPDOWN=       1.0000    fix difference up-down

 DOS related values:
   EMIN   =  10.00;   EMAX   =-10.00  energy-range for DOS
   EFERMI =   0.00;   METHOD = LEGACY      
   ISMEAR =     0;   SIGMA  =   0.01  broadening in eV -4-tet -1-fermi 0-gaus

 Electronic relaxation 2 (details)
   IALGO  =     38    algorithm
   LDIAG  =      T    sub-space diagonalisation (order eigenvalues)
   LSUBROT=      F    optimize rotation matrix (better conditioning)
   TURBO    =      0    0=normal 1=particle mesh
   IRESTART =      0    0=no restart 2=restart with 2 vectors
   NREBOOT  =      0    no. of reboots
   NMIN     =      0    reboot dimension
   EREF     =   0.00    reference energy to select bands
   IMIX   =      4    mixing-type and parameters
     AMIX     =   0.60;   BMIX     =  1.00
     AMIX_MAG =   2.40;   BMIX_MAG =  1.00
     AMIN     =   0.10
     WC   =   100.;   INIMIX=   1;  MIXPRE=   1;  MAXMIX= -45

 Intra band minimization:
   WEIMIN = 0.0000     energy-eigenvalue tresh-hold
   EBREAK =  0.46E-10  absolut break condition
   DEPER  =   0.30     relativ break condition  

   TIME   =   0.40     timestep for ELM

  volume/ion in A,a.u.               =      22.57       152.30
  Fermi-wavevector in a.u.,A,eV,Ry     =   0.919585  1.737764 11.505588  0.845637
  Thomas-Fermi vector in A             =   2.044795
 
 Write flags
   LWAVE        =      F    write WAVECAR
   LDOWNSAMPLE  =      F    k-point downsampling of WAVECAR
   LCHARG       =      T    write CHGCAR
   LVTOT        =      F    write LOCPOT, total local potential
   LVHAR        =      T    write LOCPOT, Hartree potential only
   WRT_POTENTIAL=  hartree ionic  ! write potential to hdf5 file
   LELF         =      F    write electronic localiz. function (ELF)
   LORBIT       =      0    0 simple, 1 ext, 2 COOP (PROOUT), +10 PAW based schemes


 Dipole corrections
   LMONO      =      F    monopole corrections only (constant potential shift)
   LDIPOL     =      F    correct potential (dipole corrections)
   IDIPOL     =      0    1-x, 2-y, 3-z, 4-all directions 
   EPSILON    =  1.0000000 bulk dielectric constant
   LVACPOTAV  =      F  vacuum potentials using an averaging scheme for the charge density
   VACPOTFLAT =  0.1000000 required flatness to determine vacuum potential
 Exchange correlation treatment:
   GGA     = PE    functional components
   XC_C    = 1    coefficients multiplying the functional components
   LIBXC   =     F    Libxc                    
   VOSKOWN =     0    Vosko Wilk Nusair interpolation
   LHFCALC =     F    Hartree Fock is set to
   LHFONE  =     F    Hartree Fock one center treatment
   AEXX    =    0.0000 exact exchange contribution

 Parameters of functionals:
   PE:
     No parameter
 
 Van der Waals corrections
   IVDW    =     0    specifies the selected vdW correction

 Linear response parameters
   LEPSILON=     F    determine dielectric tensor
   LRPA    =     F    only Hartree local field effects (RPA)
   LNABLA  =     F    use nabla operator in PAW spheres
   LVEL    =     F    velocity operator in full k-point grid
   CSHIFT  =0.1000    complex shift for real part using Kramers Kronig
   OMEGAMAX=  -1.0    maximum frequency
   DEG_THRESHOLD= 0.2000000E-02 threshold for treating states as degnerate
   RTIME   =   -0.100 relaxation time in fs
  (WPLASMAI=    0.000 imaginary part of plasma frequency in eV, 0.658/RTIME)
   DFIELD  = 0.0000000 0.0000000 0.0000000 field for delta impulse in time
 
  Optional k-point grid parameters
   LKPOINTS_OPT  =     F    use optional k-point grid
   KPOINTS_OPT_MODE=     1    mode for optional k-point grid
 
 Orbital magnetization related:
   ORBITALMAG=     F  switch on orbital magnetization
   LCHIMAG   =     F  perturbation theory with respect to B field
   DQ        =  0.001000  dq finite difference perturbation B field
   LLRAUG    =     F  two centre corrections for induced B field
   LBONE     =     F  B-component reconstruction in AE one-centre
   LVGVCALC  =     T  calculate vGv susceptibility
   LVGVAPPL  =     F  apply vGv susceptibility instead of pGv for G=0

 Random number generation:
   RANDOM_GENERATOR = DEFAULT
   PCG_SEED         = not used


--------------------------------------------------------------------------------------------------------


 Static calculation
 charge density and potential will be updated during run
 spin polarized calculation
 Variant of blocked Davidson
 Davidson routine will perform the subspace rotation
 perform sub-space diagonalisation
    after iterative eigenvector-optimisation
 modified Broyden-mixing scheme, WC =      100.0
 initial mixing is a Kerker type mixing with AMIX =  0.6000 and BMIX =      1.0000
 Hartree-type preconditioning will be used
 using additional bands           92
 real space projection scheme for non local part
 use partial core corrections
 calculate Harris-corrections to forces 
   (improved forces if not selfconsistent)
 use gradient corrections 
 use of overlap-Matrix (Vanderbilt PP)
 Gauss-broadening in eV      SIGMA  =   0.01


--------------------------------------------------------------------------------------------------------


  energy-cutoff  :      700.00
  volume of cell :     5145.69
      direct lattice vectors                 reciprocal lattice vectors
    16.973400116  0.000000000  0.000000000     0.058915715  0.000000000  0.000000000
     0.000000000 16.973400116  0.000000000     0.000000000  0.058915715  0.000000000
     0.000000000  0.000000000 17.861000061     0.000000000  0.000000000  0.055987906

  length of vectors
    16.973400116 16.973400116 17.861000061     0.058915715  0.058915715  0.055987906


 
 k-points in units of 2pi/SCALE and weight: Automatic KPOINTS generated             
   0.00000000  0.00000000  0.00000000       0.125
   0.02945786  0.00000000  0.00000000       0.125
   0.00000000  0.02945786  0.00000000       0.125
   0.02945786  0.02945786  0.00000000       0.125
   0.00000000  0.00000000  0.02799395       0.125
   0.02945786  0.00000000  0.02799395       0.125
   0.00000000  0.02945786  0.02799395       0.125
   0.02945786  0.02945786  0.02799395       0.125
 
 k-points in reciprocal lattice and weights: Automatic KPOINTS generated             
   0.00000000  0.00000000  0.00000000       0.125
   0.50000000  0.00000000  0.00000000       0.125
   0.00000000  0.50000000  0.00000000       0.125
   0.50000000  0.50000000  0.00000000       0.125
   0.00000000  0.00000000  0.50000000       0.125
   0.50000000  0.00000000  0.50000000       0.125
   0.00000000  0.50000000  0.50000000       0.125
   0.50000000  0.50000000  0.50000000       0.125
 
 position of ions in fractional coordinates (direct lattice) 
   0.99430549  0.66666657  0.00000000
   0.82763886  0.66666657  0.15838417
   0.66097212  0.66666657  0.31676838
   0.99430549  0.33333328  0.00000000
   0.82763886  0.33333328  0.15838417
   0.66097212  0.33333328  0.31676838
   0.99430549  0.00000000  0.00000000
   0.82763886  0.00000000  0.15838417
   0.66097212  0.00000000  0.31676838
   0.32763880  0.66666657  0.00000000
   0.16097215  0.66666657  0.15838417
   0.99430543  0.66666657  0.31676838
   0.32763880  0.33333328  0.00000000
   0.16097215  0.33333328  0.15838417
   0.99430543  0.33333328  0.31676838
   0.32763880  0.00000000  0.00000000
   0.16097215  0.00000000  0.15838417
   0.99430543  0.00000000  0.31676838
   0.66097212  0.66666657  0.00000000
   0.49430543  0.66666657  0.15838417
   0.32763875  0.66666657  0.31676838
   0.66097212  0.33333328  0.00000000
   0.49430543  0.33333328  0.15838417
   0.32763875  0.33333328  0.31676838
   0.66097212  0.00000000  0.00000000
   0.49430543  0.00000000  0.15838417
   0.32763875  0.00000000  0.31676838
   0.07763884  0.91666657  0.07919210
   0.91097212  0.91666657  0.23757629
   0.74430549  0.91666657  0.39596048
   0.07763884  0.58333331  0.07919210
   0.91097212  0.58333331  0.23757629
   0.74430549  0.58333331  0.39596048
   0.07763884  0.24999995  0.07919210
   0.91097212  0.24999995  0.23757629
   0.74430549  0.24999995  0.39596048
   0.41097209  0.91666657  0.07919210
   0.24430542  0.91666657  0.23757629
   0.07763872  0.91666657  0.39596048
   0.41097209  0.58333331  0.07919210
   0.24430542  0.58333331  0.23757629
   0.07763872  0.58333331  0.39596048
   0.41097209  0.24999995  0.07919210
   0.24430542  0.24999995  0.23757629
   0.07763872  0.24999995  0.39596048
   0.74430549  0.91666657  0.07919210
   0.57763875  0.91666657  0.23757629
   0.41097206  0.91666657  0.39596048
   0.74430549  0.58333331  0.07919210
   0.57763875  0.58333331  0.23757629
   0.41097206  0.58333331  0.39596048
   0.74430549  0.24999995  0.07919210
   0.57763875  0.24999995  0.23757629
   0.41097206  0.24999995  0.39596048
   0.16097216  0.83333319  0.00000000
   0.99430549  0.83333319  0.15838417
   0.82763880  0.83333319  0.31676838
   0.16097216  0.49999991  0.00000000
   0.99430549  0.49999991  0.15838417
   0.82763880  0.49999991  0.31676838
   0.16097216  0.16666664  0.00000000
   0.99430549  0.16666664  0.15838417
   0.82763880  0.16666664  0.31676838
   0.49430543  0.83333319  0.00000000
   0.32763875  0.83333319  0.15838417
   0.16097207  0.83333319  0.31676838
   0.49430543  0.49999991  0.00000000
   0.32763875  0.49999991  0.15838417
   0.16097207  0.49999991  0.31676838
   0.49430543  0.16666664  0.00000000
   0.32763875  0.16666664  0.15838417
   0.16097207  0.16666664  0.31676838
   0.82763880  0.83333319  0.00000000
   0.66097212  0.83333319  0.15838417
   0.49430543  0.83333319  0.31676838
   0.82763880  0.49999991  0.00000000
   0.66097212  0.49999991  0.15838417
   0.49430543  0.49999991  0.31676838
   0.82763880  0.16666664  0.00000000
   0.66097212  0.16666664  0.15838417
   0.49430543  0.16666664  0.31676838
   0.24430546  0.74999988  0.07919210
   0.07763878  0.74999988  0.23757629
   0.91097212  0.74999988  0.39596048
   0.24430546  0.41666663  0.07919210
   0.07763878  0.41666663  0.23757629
   0.91097212  0.41666663  0.39596048
   0.24430546  0.08333333  0.07919210
   0.07763878  0.08333333  0.23757629
   0.91097212  0.08333333  0.39596048
   0.57763886  0.74999988  0.07919210
   0.41097215  0.74999988  0.23757629
   0.24430545  0.74999988  0.39596048
   0.57763886  0.41666663  0.07919210
   0.41097215  0.41666663  0.23757629
   0.24430545  0.41666663  0.39596048
   0.57763886  0.08333333  0.07919210
   0.41097215  0.08333333  0.23757629
   0.24430545  0.08333333  0.39596048
   0.91097218  0.74999988  0.07919210
   0.74430549  0.74999988  0.23757629
   0.57763875  0.74999988  0.39596048
   0.91097218  0.41666663  0.07919210
   0.74430549  0.41666663  0.23757629
   0.57763875  0.41666663  0.39596048
   0.91097218  0.08333333  0.07919210
   0.74430549  0.08333333  0.23757629
   0.57763875  0.08333333  0.39596048
   0.74196649  0.24110293  0.50793630
   0.69196653  0.89110279  0.65997148
   0.64196634  0.54110265  0.81200671
   0.84196651  0.94110292  0.50793630
   0.79196650  0.59110284  0.65997148
   0.74196637  0.24110270  0.81200671
   0.94196653  0.64110285  0.50793630
   0.89196646  0.29110280  0.65997148
   0.84196639  0.94110262  0.81200671
   0.04196656  0.34110284  0.50793630
   0.99196643  0.99110281  0.65997148
   0.94196635  0.64110261  0.81200671
   0.14196658  0.04110289  0.50793630
   0.09196651  0.69110274  0.65997148
   0.04196644  0.34110266  0.81200671
   0.24196649  0.74110287  0.50793630
   0.19196641  0.39110279  0.65997148
   0.14196634  0.04110265  0.81200671
   0.34196651  0.44110283  0.50793630
   0.29196644  0.09110284  0.65997148
   0.24196637  0.74110264  0.81200671
   0.44196665  0.14110303  0.50793630
   0.39196658  0.79110283  0.65997148
   0.34196651  0.44110274  0.81200671
   0.54196656  0.84110290  0.50793630
   0.49196649  0.49110281  0.65997148
   0.44196641  0.14110267  0.81200671
   0.64196658  0.54110289  0.50793630
   0.59196663  0.19110274  0.65997148
   0.54196644  0.84110266  0.81200671
   0.74196649  0.49110287  0.58395392
   0.69196641  0.14110279  0.73598909
   0.64196634  0.79110265  0.88802421
   0.84196651  0.19110274  0.58395392
   0.79196644  0.84110272  0.73598909
   0.74196637  0.49110258  0.88802421
   0.94196653  0.89110285  0.58395392
   0.89196646  0.54110277  0.73598909
   0.84196639  0.19110274  0.88802421
   0.04196656  0.59110284  0.58395392
   0.99196649  0.24110270  0.73598909
   0.94196641  0.89110267  0.88802421
   0.14196658  0.29110283  0.58395392
   0.09196639  0.94110274  0.73598909
   0.04196644  0.59110266  0.88802421
   0.24196661  0.99110287  0.58395392
   0.19196653  0.64110279  0.73598909
   0.14196646  0.29110271  0.88802421
   0.34196651  0.69110274  0.58395392
   0.29196644  0.34110269  0.73598909
   0.24196637  0.99110264  0.88802421
   0.44196665  0.39110285  0.58395392
   0.39196658  0.04110277  0.73598909
   0.34196651  0.69110268  0.88802421
   0.54196668  0.09110284  0.58395392
   0.49196649  0.74110276  0.73598909
   0.44196653  0.39110267  0.88802421
   0.64196658  0.79110283  0.58395392
   0.59196651  0.44110274  0.73598909
   0.54196644  0.09110260  0.88802421
   0.74196649  0.74110287  0.50793630
   0.69196653  0.39110279  0.65997148
   0.64196634  0.04110265  0.81200671
   0.84196651  0.44110286  0.50793630
   0.79196644  0.09110284  0.65997148
   0.74196637  0.74110264  0.81200671
   0.94196653  0.14110279  0.50793630
   0.89196646  0.79110277  0.65997148
   0.84196639  0.44110262  0.81200671
   0.04196656  0.84110284  0.50793630
   0.99196649  0.49110279  0.65997148
   0.94196641  0.14110267  0.81200671
   0.14196658  0.54110289  0.50793630
   0.09196651  0.19110274  0.65997148
   0.04196644  0.84110266  0.81200671
   0.24196649  0.24110281  0.50793630
   0.19196653  0.89110273  0.65997148
   0.14196634  0.54110259  0.81200671
   0.34196651  0.94110286  0.50793630
   0.29196644  0.59110278  0.65997148
   0.24196637  0.24110270  0.81200671
   0.44196653  0.64110279  0.50793630
   0.39196646  0.29110274  0.65997148
   0.34196639  0.94110262  0.81200671
   0.54196656  0.34110284  0.50793630
   0.49196649  0.99110270  0.65997148
   0.44196641  0.64110261  0.81200671
   0.64196658  0.04110289  0.50793630
   0.59196663  0.69110280  0.65997148
   0.54196644  0.34110266  0.81200671
   0.74196649  0.99110293  0.58395392
   0.69196641  0.64110279  0.73598909
   0.64196634  0.29110274  0.88802421
   0.84196651  0.69110286  0.58395392
   0.79196644  0.34110275  0.73598909
   0.74196637  0.99110270  0.88802421
   0.94196653  0.39110285  0.58395392
   0.89196646  0.04110277  0.73598909
   0.84196639  0.69110268  0.88802421
   0.04196656  0.09110284  0.58395392
   0.99196649  0.74110276  0.73598909
   0.94196641  0.39110267  0.88802421
   0.14196658  0.79110295  0.58395392
   0.09196651  0.44110283  0.73598909
   0.04196644  0.09110284  0.88802421
   0.24196649  0.49110281  0.58395392
   0.19196653  0.14110279  0.73598909
   0.14196634  0.79110265  0.88802421
   0.34196663  0.19110286  0.58395392
   0.29196644  0.84110278  0.73598909
   0.24196649  0.49110270  0.88802421
   0.44196653  0.89110291  0.58395392
   0.39196658  0.54110277  0.73598909
   0.34196639  0.19110274  0.88802421
   0.54196644  0.59110284  0.58395392
   0.49196649  0.24110270  0.73598909
   0.44196630  0.89110267  0.88802421
   0.64196658  0.29110283  0.58395392
   0.59196639  0.94110274  0.73598909
   0.54196644  0.59110260  0.88802421
 
 position of ions in cartesian coordinates  (Angst):
  16.87674494 11.31559839  0.00000000
  14.04784561 11.31559839  2.82889974
  11.21894422 11.31559839  5.65780002
  16.87674494  5.65779920  0.00000000
  14.04784561  5.65779920  2.82889974
  11.21894422  5.65779920  5.65780002
  16.87674494  0.00000000  0.00000000
  14.04784561  0.00000000  2.82889974
  11.21894422  0.00000000  5.65780002
   5.56114453 11.31559839  0.00000000
   2.73224468 11.31559839  2.82889974
  16.87674393 11.31559839  5.65780002
   5.56114453  5.65779920  0.00000000
   2.73224468  5.65779920  2.82889974
  16.87674393  5.65779920  5.65780002
   5.56114453  0.00000000  0.00000000
   2.73224468  0.00000000  2.82889974
  16.87674393  0.00000000  5.65780002
  11.21894422 11.31559839  0.00000000
   8.39004388 11.31559839  2.82889974
   5.56114351 11.31559839  5.65780002
  11.21894422  5.65779920  0.00000000
   8.39004388  5.65779920  2.82889974
   5.56114351  5.65779920  5.65780002
  11.21894422  0.00000000  0.00000000
   8.39004388  0.00000000  2.82889974
   5.56114351  0.00000000  5.65780002
   1.31779513 15.55894841  1.41445001
  15.46229425 15.55894841  4.24335015
  12.63339491 15.55894841  7.07225016
   1.31779513  9.90114972  1.41445001
  15.46229425  9.90114972  4.24335015
  12.63339491  9.90114972  7.07225016
   1.31779513  4.24334927  1.41445001
  15.46229425  4.24334927  4.24335015
  12.63339491  4.24334927  7.07225016
   6.97559370 15.55894841  1.41445001
   4.14669359 15.55894841  4.24335015
   1.31779311 15.55894841  7.07225016
   6.97559370  9.90114972  1.41445001
   4.14669359  9.90114972  4.24335015
   1.31779311  9.90114972  7.07225016
   6.97559370  4.24334927  1.41445001
   4.14669359  4.24334927  4.24335015
   1.31779311  4.24334927  7.07225016
  12.63339491 15.55894841  1.41445001
   9.80449354 15.55894841  4.24335015
   6.97559319 15.55894841  7.07225016
  12.63339491  9.90114972  1.41445001
   9.80449354  9.90114972  4.24335015
   6.97559319  9.90114972  7.07225016
  12.63339491  4.24334927  1.41445001
   9.80449354  4.24334927  4.24335015
   6.97559319  4.24334927  7.07225016
   2.73224493 14.14449773  0.00000000
  16.87674494 14.14449773  2.82889974
  14.04784459 14.14449773  5.65780002
   2.73224493  8.48669855  0.00000000
  16.87674494  8.48669855  2.82889974
  14.04784459  8.48669855  5.65780002
   2.73224493  2.82889960  0.00000000
  16.87674494  2.82889960  2.82889974
  14.04784459  2.82889960  5.65780002
   8.39004388 14.14449773  0.00000000
   5.56114351 14.14449773  2.82889974
   2.73224342 14.14449773  5.65780002
   8.39004388  8.48669855  0.00000000
   5.56114351  8.48669855  2.82889974
   2.73224342  8.48669855  5.65780002
   8.39004388  2.82889960  0.00000000
   5.56114351  2.82889960  2.82889974
   2.73224342  2.82889960  5.65780002
  14.04784459 14.14449773  0.00000000
  11.21894422 14.14449773  2.82889974
   8.39004388 14.14449773  5.65780002
  14.04784459  8.48669855  0.00000000
  11.21894422  8.48669855  2.82889974
   8.39004388  8.48669855  5.65780002
  14.04784459  2.82889960  0.00000000
  11.21894422  2.82889960  2.82889974
   8.39004388  2.82889960  5.65780002
   4.14669436 12.73004807  1.41445001
   1.31779413 12.73004807  4.24335015
  15.46229425 12.73004807  7.07225016
   4.14669436  7.07224938  1.41445001
   1.31779413  7.07224938  4.24335015
  15.46229425  7.07224938  7.07225016
   4.14669436  1.41444992  1.41445001
   1.31779413  1.41444992  4.24335015
  15.46229425  1.41444992  7.07225016
   9.80449558 12.73004807  1.41445001
   6.97559470 12.73004807  4.24335015
   4.14669410 12.73004807  7.07225016
   9.80449558  7.07224938  1.41445001
   6.97559470  7.07224938  4.24335015
   4.14669410  7.07224938  7.07225016
   9.80449558  1.41444992  1.41445001
   6.97559470  1.41444992  4.24335015
   4.14669410  1.41444992  7.07225016
  15.46229527 12.73004807  1.41445001
  12.63339491 12.73004807  4.24335015
   9.80449354 12.73004807  7.07225016
  15.46229527  7.07224938  1.41445001
  12.63339491  7.07224938  4.24335015
   9.80449354  7.07224938  7.07225016
  15.46229527  1.41444992  1.41445001
  12.63339491  1.41444992  4.24335015
   9.80449354  1.41444992  7.07225016
  12.59369404  4.09233657  9.07225027
  11.74502485 15.12504422 11.78775057
  10.89635160  9.18435175 14.50325193
  14.29103446 15.97371645  9.07225027
  13.44236425 10.03302500 11.78775057
  12.59369202  4.09233251 14.50325193
  15.98837488 10.88169519  9.07225027
  15.13970365  4.94100425 11.78775057
  14.29103244 15.97371139 14.50325193
   0.71231518  5.78967497  9.07225027
  16.83704305 16.82238464 11.78775057
  15.98837184 10.88169115 14.50325193
   2.40965558  0.69765573  9.07225027
   1.56098437 11.73036338 11.78775057
   0.71231314  5.78967193 14.50325193
   4.10699398 12.57903561  9.07225027
   3.25832275  6.63834416 11.78775057
   2.40965154  0.69765169 14.50325193
   5.80433440  7.48701488  9.07225027
   4.95566317  1.54632494 11.78775057
   4.10699196 12.57903157 14.50325193
   7.50167684  2.39499817  9.07225027
   6.65300561 13.42770482 11.78775057
   5.80433440  7.48701335 14.50325193
   9.19901524 14.27637603  9.07225027
   8.35034401  8.33568458 11.78775057
   7.50167278  2.39499211 14.50325193
  10.89635564  9.18435579  9.07225027
  10.04768645  3.24366332 11.78775057
   9.19901320 14.27637199 14.50325193
  12.59369404  8.33568558 10.43000095
  11.74502281  2.39499413 13.14550125
  10.89635160 13.42770178 15.86100049
  14.29103446  3.24366332 10.43000095
  13.44236323 14.27637299 13.14550125
  12.59369202  8.33568052 15.86100049
  15.98837488 15.12504522 10.43000095
  15.13970365  9.18435377 13.14550125
  14.29103244  3.24366332 15.86100049
   0.71231518 10.03302500 10.43000095
  16.83704407  4.09233251 13.14550125
  15.98837284 15.12504220 15.86100049
   2.40965558  4.94100476 10.43000095
   1.56098235 15.97371341 13.14550125
   0.71231314 10.03302196 15.86100049
   4.10699600 16.82238564 10.43000095
   3.25832479 10.88169419 13.14550125
   2.40965356  4.94100272 15.86100049
   5.80433440 11.73036338 10.43000095
   4.95566317  5.78967244 13.14550125
   4.10699196 16.82238160 15.86100049
   7.50167684  6.63834516 10.43000095
   6.65300561  0.69765371 13.14550125
   5.80433440 11.73036238 15.86100049
   9.19901726  1.54632494 10.43000095
   8.35034401 12.57903359 13.14550125
   7.50167482  6.63834214 15.86100049
  10.89635564 13.42770482 10.43000095
  10.04768443  7.48701335 13.14550125
   9.19901320  1.54632088 15.86100049
  12.59369404 12.57903561  9.07225027
  11.74502485  6.63834416 11.78775057
  10.89635160  0.69765169 14.50325193
  14.29103446  7.48701537  9.07225027
  13.44236323  1.54632494 11.78775057
  12.59369202 12.57903157 14.50325193
  15.98837488  2.39499413  9.07225027
  15.13970365 13.42770380 11.78775057
  14.29103244  7.48701133 14.50325193
   0.71231518 14.27637503  9.07225027
  16.83704407  8.33568407 11.78775057
  15.98837284  2.39499211 14.50325193
   2.40965558  9.18435579  9.07225027
   1.56098437  3.24366332 11.78775057
   0.71231314 14.27637199 14.50325193
   4.10699398  4.09233455  9.07225027
   3.25832479 15.12504320 11.78775057
   2.40965154  9.18435073 14.50325193
   5.80433440 15.97371543  9.07225027
   4.95566317 10.03302398 11.78775057
   4.10699196  4.09233251 14.50325193
   7.50167482 10.88169419  9.07225027
   6.65300359  4.94100323 11.78775057
   5.80433238 15.97371139 14.50325193
   9.19901524  5.78967497  9.07225027
   8.35034401 16.82238260 11.78775057
   7.50167278 10.88169115 14.50325193
  10.89635564  0.69765573  9.07225027
  10.04768645 11.73036440 11.78775057
   9.19901320  5.78967193 14.50325193
  12.59369404 16.82238665 10.43000095
  11.74502281 10.88169419 13.14550125
  10.89635160  4.94100323 15.86100049
  14.29103446 11.73036540 10.43000095
  13.44236323  5.78967344 13.14550125
  12.59369202 16.82238260 15.86100049
  15.98837488  6.63834516 10.43000095
  15.13970365  0.69765371 13.14550125
  14.29103244 11.73036238 15.86100049
   0.71231518  1.54632494 10.43000095
  16.83704407 12.57903359 13.14550125
  15.98837284  6.63834214 15.86100049
   2.40965558 13.42770684 10.43000095
   1.56098437  7.48701488 13.14550125
   0.71231314  1.54632494 15.86100049
   4.10699398  8.33568458 10.43000095
   3.25832479  2.39499413 13.14550125
   2.40965154 13.42770178 15.86100049
   5.80433642  3.24366534 10.43000095
   4.95566317 14.27637401 13.14550125
   4.10699398  8.33568254 15.86100049
   7.50167482 15.12504624 10.43000095
   6.65300561  9.18435377 13.14550125
   5.80433238  3.24366332 15.86100049
   9.19901320 10.03302500 10.43000095
   8.35034401  4.09233251 13.14550125
   7.50167076 15.12504220 15.86100049
  10.89635564  4.94100476 10.43000095
  10.04768241 15.97371341 13.14550125
   9.19901320 10.03302094 15.86100049
 


--------------------------------------------------------------------------------------------------------


 k-point     1 :   0.0000 0.0000 0.0000  plane waves:  216521
 k-point     2 :   0.5000 0.0000 0.0000  plane waves:  216418
 k-point     3 :   0.0000 0.5000 0.0000  plane waves:  216418
 k-point     4 :   0.5000 0.5000 0.0000  plane waves:  216296
 k-point     5 :   0.0000 0.0000 0.5000  plane waves:  216310
 k-point     6 :   0.5000 0.0000 0.5000  plane waves:  216392
 k-point     7 :   0.0000 0.5000 0.5000  plane waves:  216392
 k-point     8 :   0.5000 0.5000 0.5000  plane waves:  216352

 maximum and minimum number of plane-waves per node :     13598    13447

 maximum number of plane-waves:    216521
 maximum index in each direction: 
   IXMAX=   36   IYMAX=   36   IZMAX=   38
   IXMIN=  -37   IYMIN=  -37   IZMIN=  -39


 real space projection operators:
  total allocation   :      36345.52 KBytes
  max/ min on nodes  :       2278.19       2264.62


 parallel 3D FFT for wavefunctions:
    minimum data exchange during FFTs selected (reduces bandwidth)
 parallel 3D FFT for charge:
    minimum data exchange during FFTs selected (reduces bandwidth)


 total amount of memory used by VASP MPI-rank0   577881. kBytes
=======================================================================

   base      :      30000. kBytes
   nonlr-proj:      12088. kBytes
   fftplans  :      30616. kBytes
   grid      :      24869. kBytes
   one-center:        243. kBytes
   wavefun   :     480065. kBytes
 
     INWAV:  cpu time      0.0000: real time      0.0003
 Broyden mixing: mesh for mixing (old mesh)
   NGX = 73   NGY = 73   NGZ = 77
  (NGX  =224   NGY  =224   NGZ  =240)
  gives a total of 410333 points

 initial charge density was supplied:
 charge density of overlapping atoms calculated
 number of electron     912.0000000 magnetization       1.0000000
 keeping initial charge density in first step


--------------------------------------------------------------------------------------------------------


 Maximum index for non-local projection operator          217
 Maximum index for augmentation-charges         2999 (set IRDMAX)


--------------------------------------------------------------------------------------------------------


 First call to EWALD:  gamma=   0.103
 Maximum number of real-space cells 3x 3x 3
 Maximum number of reciprocal cells 3x 3x 3

    FEWALD:  cpu time      0.0069: real time      0.0069


--------------------------------------- Ionic step        1  -------------------------------------------




--------------------------------------- Iteration      1(   1)  ---------------------------------------


    POTLOK:  cpu time      0.4100: real time      0.4139
    SETDIJ:  cpu time      2.1324: real time      2.1418
     EDDAV:  cpu time    113.5430: real time    114.5000
       DOS:  cpu time      0.0033: real time      0.0033
    --------------------------------------------
      LOOP:  cpu time    116.0887: real time    117.0591

 eigenvalue-minimisations  : 17536
 total energy-change (2. order) : 0.3807690E+04  (-0.4038633E+05)
 number of electron     912.0000000 magnetization       1.0000000
 augmentation part      912.0000000 magnetization       1.0000000

 Free energy of the ion-electron system (eV)
  ---------------------------------------------------
  alpha Z        PSCENC =      1093.62735331
  Ewald energy   TEWEN  =    -24081.07626433
  -Hartree energ DENC   =     -2281.42090384
  -exchange      EXHF   =         0.00000000
  -V(xc)+E(xc)   XCENC  =     -1946.90919688
  PAW double counting   =     20094.53666134   -16418.68521354
  entropy T*S    EENTRO =        -0.00362831
  eigenvalues    EBANDS =      3640.06852862
  atomic energy  EATOM  =     23707.55310521
  Solvation  Ediel_sol  =         0.00000000
  ---------------------------------------------------
  free energy    TOTEN  =      3807.69044160 eV

  energy without entropy =     3807.69406990  energy(sigma->0) =     3807.69225575


--------------------------------------------------------------------------------------------------------




--------------------------------------- Iteration      1(   2)  ---------------------------------------


     EDDAV:  cpu time    127.6763: real time    128.7309
       DOS:  cpu time      0.0032: real time      0.0032
    --------------------------------------------
      LOOP:  cpu time    127.6795: real time    128.7341

 eigenvalue-minimisations  : 20448
 total energy-change (2. order) :-0.4447577E+04  (-0.4292252E+04)
 number of electron     912.0000000 magnetization       1.0000000
 augmentation part      912.0000000 magnetization       1.0000000

 Free energy of the ion-electron system (eV)
  ---------------------------------------------------
  alpha Z        PSCENC =      1093.62735331
  Ewald energy   TEWEN  =    -24081.07626433
  -Hartree energ DENC   =     -2281.42090384
  -exchange      EXHF   =         0.00000000
  -V(xc)+E(xc)   XCENC  =     -1946.90919688
  PAW double counting   =     20094.53666134   -16418.68521354
  entropy T*S    EENTRO =        -0.00271038
  eigenvalues    EBANDS =      -807.50917213
  atomic energy  EATOM  =     23707.55310521
  Solvation  Ediel_sol  =         0.00000000
  ---------------------------------------------------
  free energy    TOTEN  =      -639.88634123 eV

  energy without entropy =     -639.88363085  energy(sigma->0) =     -639.88498604


--------------------------------------------------------------------------------------------------------




--------------------------------------- Iteration      1(   3)  ---------------------------------------


     EDDAV:  cpu time    133.9592: real time    135.1699
       DOS:  cpu time      0.0041: real time      0.0041
    --------------------------------------------
      LOOP:  cpu time    133.9633: real time    135.1740

 eigenvalue-minimisations  : 21720
 total energy-change (2. order) :-0.4266388E+03  (-0.4125551E+03)
 number of electron     912.0000000 magnetization       1.0000000
 augmentation part      912.0000000 magnetization       1.0000000

 Free energy of the ion-electron system (eV)
  ---------------------------------------------------
  alpha Z        PSCENC =      1093.62735331
  Ewald energy   TEWEN  =    -24081.07626433
  -Hartree energ DENC   =     -2281.42090384
  -exchange      EXHF   =         0.00000000
  -V(xc)+E(xc)   XCENC  =     -1946.90919688
  PAW double counting   =     20094.53666134   -16418.68521354
  entropy T*S    EENTRO =        -0.00429244
  eigenvalues    EBANDS =     -1234.14635507
  atomic energy  EATOM  =     23707.55310521
  Solvation  Ediel_sol  =         0.00000000
  ---------------------------------------------------
  free energy    TOTEN  =     -1066.52510623 eV

  energy without entropy =    -1066.52081379  energy(sigma->0) =    -1066.52296001


--------------------------------------------------------------------------------------------------------




--------------------------------------- Iteration      1(   4)  ---------------------------------------


     EDDAV:  cpu time    130.7914: real time    132.4215
       DOS:  cpu time      0.0031: real time      0.0031
    --------------------------------------------
      LOOP:  cpu time    130.7945: real time    132.4246

 eigenvalue-minimisations  : 20648
 total energy-change (2. order) :-0.1635103E+02  (-0.1605208E+02)
 number of electron     912.0000000 magnetization       1.0000000
 augmentation part      912.0000000 magnetization       1.0000000

 Free energy of the ion-electron system (eV)
  ---------------------------------------------------
  alpha Z        PSCENC =      1093.62735331
  Ewald energy   TEWEN  =    -24081.07626433
  -Hartree energ DENC   =     -2281.42090384
  -exchange      EXHF   =         0.00000000
  -V(xc)+E(xc)   XCENC  =     -1946.90919688
  PAW double counting   =     20094.53666134   -16418.68521354
  entropy T*S    EENTRO =        -0.00476552
  eigenvalues    EBANDS =     -1250.49690839
  atomic energy  EATOM  =     23707.55310521
  Solvation  Ediel_sol  =         0.00000000
  ---------------------------------------------------
  free energy    TOTEN  =     -1082.87613262 eV

  energy without entropy =    -1082.87136710  energy(sigma->0) =    -1082.87374986


--------------------------------------------------------------------------------------------------------




--------------------------------------- Iteration      1(   5)  ---------------------------------------


     EDDAV:  cpu time    143.7363: real time    144.9411
       DOS:  cpu time      0.0034: real time      0.0034
    CHARGE:  cpu time      4.5146: real time      4.6051
    MIXING:  cpu time      0.0213: real time      0.0214
    --------------------------------------------
      LOOP:  cpu time    148.2758: real time    149.5712

 eigenvalue-minimisations  : 23672
 total energy-change (2. order) :-0.6551195E+00  (-0.6509049E+00)
 number of electron     911.9999993 magnetization       1.0000000
 augmentation part      -99.5463624 magnetization      -0.0555733

 Broyden mixing:
  rms(total) = 0.42252E+01    rms(broyden)= 0.42252E+01
  rms(prec ) = 0.45642E+01
  weight for this iteration     100.00

 Free energy of the ion-electron system (eV)
  ---------------------------------------------------
  alpha Z        PSCENC =      1093.62735331
  Ewald energy   TEWEN  =    -24081.07626433
  -Hartree energ DENC   =     -2281.42090384
  -exchange      EXHF   =         0.00000000
  -V(xc)+E(xc)   XCENC  =     -1946.90919688
  PAW double counting   =     20094.53666134   -16418.68521354
  entropy T*S    EENTRO =        -0.00473167
  eigenvalues    EBANDS =     -1251.15206176
  atomic energy  EATOM  =     23707.55310521
  Solvation  Ediel_sol  =         0.00000000
  ---------------------------------------------------
  free energy    TOTEN  =     -1083.53125215 eV

  energy without entropy =    -1083.52652048  energy(sigma->0) =    -1083.52888631


--------------------------------------------------------------------------------------------------------




--------------------------------------- Iteration      1(   6)  ---------------------------------------


    POTLOK:  cpu time      0.4013: real time      0.4362
    SETDIJ:  cpu time      2.1389: real time      2.2130
     EDDAV:  cpu time    133.6737: real time    134.7810
       DOS:  cpu time      0.0040: real time      0.0040
    CHARGE:  cpu time      4.4946: real time      4.5344
    MIXING:  cpu time      0.0215: real time      0.0427
    --------------------------------------------
      LOOP:  cpu time    140.7340: real time    142.0113

 eigenvalue-minimisations  : 21680
 total energy-change (2. order) : 0.1865647E+02  (-0.4213986E+01)
 number of electron     911.9999993 magnetization       1.0000000
 augmentation part      -99.3520911 magnetization      -0.0562315

 Broyden mixing:
[...]
      2.73224      0.00000      2.82890         0.037480     -0.017914      0.036120
     16.87674      0.00000      5.65780        -0.059216     -0.008900      0.394075
     11.21894     11.31560      0.00000        -0.696603      0.609843     -1.867076
      8.39004     11.31560      2.82890        -0.031879      0.057652      0.071345
      5.56114     11.31560      5.65780        -0.127613      0.010991      0.355644
     11.21894      5.65780      0.00000         0.589300      0.945869      1.870328
      8.39004      5.65780      2.82890         0.048843     -0.053994      0.056705
      5.56114      5.65780      5.65780        -0.270701      0.168354     -0.156403
     11.21894      0.00000      0.00000         0.229401     -0.823859     -0.688054
      8.39004      0.00000      2.82890        -0.014832      0.011693      0.089420
      5.56114      0.00000      5.65780         0.174573     -0.304563     -0.191056
      1.31780     15.55895      1.41445         0.104559      0.034132     -0.382119
     15.46229     15.55895      4.24335        -0.046835     -0.020855     -0.046939
     12.63339     15.55895      7.07225         0.520151     -0.778099      1.451680
      1.31780      9.90115      1.41445         0.011080      0.498444      0.197027
     15.46229      9.90115      4.24335        -0.035644      0.020530     -0.078277
     12.63339      9.90115      7.07225        -0.649630      0.731036      1.717690
      1.31780      4.24335      1.41445         0.113926     -0.392768      0.046571
     15.46229      4.24335      4.24335        -0.031394      0.061215     -0.113506
     12.63339      4.24335      7.07225         0.158664      0.408387     -5.449455
      6.97559     15.55895      1.41445         0.050006     -0.463049      0.165812
      4.14669     15.55895      4.24335        -0.005246     -0.021640     -0.059640
      1.31779     15.55895      7.07225         0.322763      0.317963      1.462853
      6.97559      9.90115      1.41445        -0.166252     -0.020060     -0.357734
      4.14669      9.90115      4.24335         0.011490      0.002580     -0.098698
      1.31779      9.90115      7.07225         0.204235     -0.551557      0.413819
      6.97559      4.24335      1.41445        -0.167134      0.296312      0.101494
      4.14669      4.24335      4.24335        -0.010885      0.003814     -0.071019
      1.31779      4.24335      7.07225        -0.634834      0.467324      1.331940
     12.63339     15.55895      1.41445        -0.220671      0.203968      0.222735
      9.80449     15.55895      4.24335         0.040036     -0.027028     -0.083252
      6.97559     15.55895      7.07225        -0.120264      0.695576      0.226548
     12.63339      9.90115      1.41445         0.251803     -0.164893      0.152124
      9.80449      9.90115      4.24335         0.015068      0.055665     -0.031307
      6.97559      9.90115      7.07225        -0.439627     -0.670723      0.150043
     12.63339      4.24335      1.41445         0.022571      0.004487     -0.384901
      9.80449      4.24335      4.24335         0.043840     -0.075416     -0.122014
      6.97559      4.24335      7.07225         0.636058     -0.520751      1.672154
      2.73224     14.14450      0.00000         0.589300      0.945869      1.870328
     16.87674     14.14450      2.82890         0.048843     -0.053994      0.056705
     14.04784     14.14450      5.65780        -0.270701      0.168354     -0.156403
      2.73224      8.48670      0.00000         0.229401     -0.823859     -0.688054
     16.87674      8.48670      2.82890        -0.014832      0.011693      0.089420
     14.04784      8.48670      5.65780         0.174573     -0.304563     -0.191056
      2.73224      2.82890      0.00000        -0.696603      0.609843     -1.867076
     16.87674      2.82890      2.82890        -0.031879      0.057652      0.071345
     14.04784      2.82890      5.65780        -0.127613      0.010991      0.355644
      8.39004     14.14450      0.00000        -0.335641      0.449181     -0.484957
      5.56114     14.14450      2.82890        -0.053292      0.026606      0.116548
      2.73224     14.14450      5.65780         0.134679      0.002081      0.363687
      8.39004      8.48670      0.00000        -0.046208     -0.126801     -2.160311
      5.56114      8.48670      2.82890        -0.027884      0.029280      0.050643
      2.73224      8.48670      5.65780        -0.121208      0.382626     -0.219605
      8.39004      2.82890      0.00000         0.507464     -0.433608     -0.992498
      5.56114      2.82890      2.82890        -0.007899     -0.013782      0.064171
      2.73224      2.82890      5.65780         0.259459     -0.200435     -0.075716
     14.04784     14.14450      0.00000         0.621903     -0.619262     -1.843255
     11.21894     14.14450      2.82890         0.007428     -0.007578      0.077919
      8.39004     14.14450      5.65780         0.024026     -0.481612     -0.118237
     14.04784      8.48670      0.00000        -0.365525      0.867398     -0.962886
     11.21894      8.48670      2.82890         0.037480     -0.017914      0.036120
      8.39004      8.48670      5.65780        -0.059216     -0.008900      0.394075
     14.04784      2.82890      0.00000        -0.595432     -0.957556      3.933925
     11.21894      2.82890      2.82890         0.045062     -0.026277      0.131487
      8.39004      2.82890      5.65780         0.004893      0.445541     -0.136433
      4.14669     12.73005      1.41445         0.022571      0.004487     -0.384901
      1.31779     12.73005      4.24335         0.043840     -0.075416     -0.122014
     15.46229     12.73005      7.07225         0.636058     -0.520751      1.672154
      4.14669      7.07225      1.41445        -0.220671      0.203968      0.222735
      1.31779      7.07225      4.24335         0.040036     -0.027028     -0.083252
     15.46229      7.07225      7.07225        -0.120264      0.695576      0.226548
      4.14669      1.41445      1.41445         0.251803     -0.164893      0.152124
      1.31779      1.41445      4.24335         0.015068      0.055665     -0.031307
     15.46229      1.41445      7.07225        -0.439627     -0.670723      0.150043
      9.80450     12.73005      1.41445         0.113926     -0.392768      0.046571
      6.97559     12.73005      4.24335        -0.031394      0.061215     -0.113506
      4.14669     12.73005      7.07225         0.158664      0.408387     -5.449455
      9.80450      7.07225      1.41445         0.104559      0.034132     -0.382119
      6.97559      7.07225      4.24335        -0.046835     -0.020855     -0.046939
      4.14669      7.07225      7.07225         0.520151     -0.778099      1.451680
      9.80450      1.41445      1.41445         0.011080      0.498444      0.197027
      6.97559      1.41445      4.24335        -0.035644      0.020530     -0.078277
      4.14669      1.41445      7.07225        -0.649630      0.731036      1.717690
     15.46230     12.73005      1.41445        -0.167134      0.296312      0.101494
     12.63339     12.73005      4.24335        -0.010885      0.003814     -0.071019
      9.80449     12.73005      7.07225        -0.634834      0.467324      1.331940
     15.46230      7.07225      1.41445         0.050006     -0.463049      0.165812
     12.63339      7.07225      4.24335        -0.005246     -0.021640     -0.059640
      9.80449      7.07225      7.07225         0.322763      0.317963      1.462853
     15.46230      1.41445      1.41445        -0.166252     -0.020060     -0.357734
     12.63339      1.41445      4.24335         0.011490      0.002580     -0.098698
      9.80449      1.41445      7.07225         0.204235     -0.551557      0.413819
     12.59369      4.09234      9.07225        -0.209966     -0.412137      5.689354
     11.74502     15.12504     11.78775        -0.088314      0.020176      0.043400
     10.89635      9.18435     14.50325        -0.236130      0.049233      0.415431
     14.29103     15.97372      9.07225        -0.842847      0.490448     -1.086821
     13.44236     10.03302     11.78775         0.069488     -0.027411      0.060255
     12.59369      4.09233     14.50325         0.036444      0.010957      0.569837
     15.98837     10.88170      9.07225        -0.642464      0.131838     -0.742767
     15.13970      4.94100     11.78775         0.069237      0.006558      0.066272
     14.29103     15.97371     14.50325         0.321580     -0.001056      0.364547
      0.71232      5.78967      9.07225         0.861611     -0.112454     -0.541284
     16.83704     16.82238     11.78775        -0.026072      0.006429     -0.019497
     15.98837     10.88169     14.50325         0.057368     -0.125234     -0.018998
      2.40966      0.69766      9.07225         0.746392     -0.519597     -1.492388
      1.56098     11.73036     11.78775        -0.065590      0.008021      0.066697
      0.71231      5.78967     14.50325        -0.174367      0.074099     -0.002895
      4.10699     12.57904      9.07225        -0.209966     -0.412137      5.689354
      3.25832      6.63834     11.78775        -0.088314      0.020176      0.043400
      2.40965      0.69765     14.50325        -0.236130      0.049233      0.415431
      5.80433      7.48701      9.07225        -0.842847      0.490448     -1.086821
      4.95566      1.54632     11.78775         0.069488     -0.027411      0.060255
      4.10699     12.57903     14.50325         0.036444      0.010957      0.569837
      7.50168      2.39500      9.07225        -0.642464      0.131838     -0.742767
      6.65301     13.42770     11.78775         0.069237      0.006558      0.066272
      5.80433      7.48701     14.50325         0.321580     -0.001056      0.364547
      9.19902     14.27638      9.07225         0.861611     -0.112454     -0.541284
      8.35034      8.33568     11.78775        -0.026072      0.006429     -0.019497
      7.50167      2.39499     14.50325         0.057368     -0.125234     -0.018998
     10.89636      9.18436      9.07225         0.746392     -0.519597     -1.492388
     10.04769      3.24366     11.78775        -0.065590      0.008021      0.066697
      9.19901     14.27637     14.50325        -0.174367      0.074099     -0.002895
     12.59369      8.33569     10.43000        -0.382913     -0.046621     -0.333333
     11.74502      2.39499     13.14550        -0.073808     -0.001651     -0.061945
     10.89635     13.42770     15.86100         0.558924     -0.141475      0.864321
     14.29103      3.24366     10.43000        -0.024840     -0.028944     -0.545042
     13.44236     14.27637     13.14550        -0.039526      0.021125     -0.055465
     12.59369      8.33568     15.86100         0.770775     -0.430125      0.525808
     15.98837     15.12505     10.43000         0.157913     -0.086997     -0.415608
     15.13970      9.18435     13.14550         0.098000     -0.019286     -0.038538
     14.29103      3.24366     15.86100         0.651593      0.923819     -4.210829
      0.71232     10.03302     10.43000         0.275768     -0.016851      0.012338
     16.83704      4.09233     13.14550         0.039913     -0.010897     -0.056547
     15.98837     15.12504     15.86100        -0.714084      0.474660      1.641023
      2.40966      4.94100     10.43000        -0.013823      0.119829     -0.021321
      1.56098     15.97371     13.14550         0.082368     -0.017192      0.005188
      0.71231     10.03302     15.86100        -0.856123      0.036056      0.275600
      4.10700     16.82239     10.43000        -0.382913     -0.046621     -0.333333
      3.25832     10.88169     13.14550        -0.073808     -0.001651     -0.061945
      2.40965      4.94100     15.86100         0.558924     -0.141475      0.864321
      5.80433     11.73036     10.43000        -0.024840     -0.028944     -0.545042
      4.95566      5.78967     13.14550        -0.039526      0.021125     -0.055465
      4.10699     16.82238     15.86100         0.770775     -0.430125      0.525808
      7.50168      6.63835     10.43000         0.157913     -0.086997     -0.415608
      6.65301      0.69765     13.14550         0.098000     -0.019286     -0.038538
      5.80433     11.73036     15.86100         0.651593      0.923819     -4.210829
      9.19902      1.54632     10.43000         0.275768     -0.016851      0.012338
      8.35034     12.57903     13.14550         0.039913     -0.010897     -0.056547
      7.50167      6.63834     15.86100        -0.714084      0.474660      1.641023
     10.89636     13.42770     10.43000        -0.013823      0.119829     -0.021321
     10.04768      7.48701     13.14550         0.082368     -0.017192      0.005188
      9.19901      1.54632     15.86100        -0.856123      0.036056      0.275600
     12.59369     12.57904      9.07225         0.139584     -0.039271     -0.887925
     11.74502      6.63834     11.78775         0.096008     -0.014804      0.018971
     10.89635      0.69765     14.50325         0.431534      0.118310      0.090243
     14.29103      7.48702      9.07225         0.666590     -0.192031      0.293476
     13.44236      1.54632     11.78775        -0.090130      0.004051      0.044862
     12.59369     12.57903     14.50325         0.001655      0.027380      0.083038
     15.98837      2.39499      9.07225         0.641519      0.499975      0.311371
     15.13970     13.42770     11.78775        -0.005492      0.008454      0.055715
     14.29103      7.48701     14.50325        -0.449474     -0.118354      0.208130
      0.71232     14.27638      9.07225        -0.647017     -0.066531     -0.841933
     16.83704      8.33568     11.78775         0.031192     -0.005234      0.021031
     15.98837      2.39499     14.50325        -0.023940      0.014099      0.486901
      2.40966      9.18436      9.07225        -0.771066      0.097985      0.163522
      1.56098      3.24366     11.78775         0.001026     -0.000237      0.051526
      0.71231     14.27637     14.50325         0.047836     -0.045910      0.446076
      4.10699      4.09233      9.07225         0.139584     -0.039271     -0.887925
      3.25832     15.12504     11.78775         0.096008     -0.014804      0.018971
      2.40965      9.18435     14.50325         0.431534      0.118310      0.090243
      5.80433     15.97372      9.07225         0.666590     -0.192031      0.293476
      4.95566     10.03302     11.78775        -0.090130      0.004051      0.044862
      4.10699      4.09233     14.50325         0.001655      0.027380      0.083038
      7.50167     10.88169      9.07225         0.641519      0.499975      0.311371
      6.65300      4.94100     11.78775        -0.005492      0.008454      0.055715
      5.80433     15.97371     14.50325        -0.449474     -0.118354      0.208130
      9.19902      5.78967      9.07225        -0.647017     -0.066531     -0.841933
      8.35034     16.82238     11.78775         0.031192     -0.005234      0.021031
      7.50167     10.88169     14.50325        -0.023940      0.014099      0.486901
     10.89636      0.69766      9.07225        -0.771066      0.097985      0.163522
     10.04769     11.73036     11.78775         0.001026     -0.000237      0.051526
      9.19901      5.78967     14.50325         0.047836     -0.045910      0.446076
     12.59369     16.82239     10.43000         0.419870      0.106303     -0.241055
     11.74502     10.88169     13.14550         0.021121     -0.005704     -0.053417
     10.89635      4.94100     15.86100        -0.721549     -0.908444     -2.219094
     14.29103     11.73037     10.43000        -0.028458     -0.077644     -0.043678
     13.44236      5.78967     13.14550         0.074356      0.001009     -0.048533
     12.59369     16.82238     15.86100        -0.760634      0.325684      0.174180
     15.98837      6.63835     10.43000        -0.387247     -0.081693     -0.064472
     15.13970      0.69765     13.14550        -0.103403      0.018272     -0.007227
     14.29103     11.73036     15.86100        -0.270384      0.073310      0.866057
      0.71232      1.54632     10.43000        -0.069016      0.067854     -0.445568
     16.83704     12.57903     13.14550        -0.013641      0.010513     -0.051321
     15.98837      6.63834     15.86100         0.846201      0.007523     -0.130899
      2.40966     13.42771     10.43000         0.057417      0.030616     -0.507096
      1.56098      7.48701     13.14550        -0.058582      0.015786     -0.028609
      0.71231      1.54632     15.86100         0.609205     -0.272158      1.549772
      4.10699      8.33568     10.43000         0.419870      0.106303     -0.241055
      3.25832      2.39499     13.14550         0.021121     -0.005704     -0.053417
      2.40965     13.42770     15.86100        -0.721549     -0.908444     -2.219094
      5.80434      3.24367     10.43000        -0.028458     -0.077644     -0.043678
      4.95566     14.27637     13.14550         0.074356      0.001009     -0.048533
      4.10699      8.33568     15.86100        -0.760634      0.325684      0.174180
      7.50167     15.12505     10.43000        -0.387247     -0.081693     -0.064472
      6.65301      9.18435     13.14550        -0.103403      0.018272     -0.007227
      5.80433      3.24366     15.86100        -0.270384      0.073310      0.866057
      9.19901     10.03302     10.43000        -0.069016      0.067854     -0.445568
      8.35034      4.09233     13.14550        -0.013641      0.010513     -0.051321
      7.50167     15.12504     15.86100         0.846201      0.007523     -0.130899
     10.89636      4.94100     10.43000         0.057417      0.030616     -0.507096
     10.04768     15.97371     13.14550        -0.058582      0.015786     -0.028609
      9.19901     10.03302     15.86100         0.609205     -0.272158      1.549772
 -----------------------------------------------------------------------------------
    total drift:                               -0.159340     -0.080888     -0.039811


--------------------------------------------------------------------------------------------------------



  FREE ENERGIE OF THE ION-ELECTRON SYSTEM (eV)
  ---------------------------------------------------
  free  energy   TOTEN  =     -1063.53339467 eV

  energy  without entropy=    -1063.52964972  energy(sigma->0) =    -1063.53152219
 


--------------------------------------------------------------------------------------------------------


    POTLOK:  cpu time      2.5639: real time      2.5754


--------------------------------------------------------------------------------------------------------


     LOOP+:  cpu time   3013.9011: real time   3041.2316
    4ORBIT:  cpu time      0.0000: real time      0.0000

 total amount of memory used by VASP MPI-rank0   577881. kBytes
=======================================================================

   base      :      30000. kBytes
   nonlr-proj:      12088. kBytes
   fftplans  :      30616. kBytes
   grid      :      24869. kBytes
   one-center:        243. kBytes
   wavefun   :     480065. kBytes
 
  
  
 General timing and accounting informations for this job:
 ========================================================
  
                  Total CPU time used (sec):     3208.844
                            User time (sec):     3054.908
                          System time (sec):      153.935
                         Elapsed time (sec):     3242.604
  
                   Maximum memory used (kb):      871788.
                   Average memory used (kb):          N/A
  
                          Minor page faults:       443671
                          Major page faults:          204
                 Voluntary context switches:         2096
