<?xml version="1.0" encoding="ISO-8859-1"?>
<modeling>
 <generator>
  <i name="program" type="string">vasp </i>
  <i name="version" type="string">6.4.3  </i>
  <i name="subversion" type="string">19Mar24 (build Oct 22 2024 11:23:12) complex                          parallel </i>
  <i name="platform" type="string">LinuxIFC </i>
  <i name="date" type="string">2025 06 09 </i>
  <i name="time" type="string">16:15:50 </i>
 </generator>
 <incar>
  <i type="string" name="SYSTEM">Si and Ge interface calculation</i>
  <i type="int" name="ISTART">     0</i>
  <i type="logical" name="ADDGRID"> T  </i>
  <i type="int" name="ISPIN">     2</i>
  <i name="AMIX">      0.60000000</i>
  <i type="int" name="ICHARG">     2</i>
  <i type="int" name="NELM">   100</i>
  <i name="EDIFF">      0.00000010</i>
  <i name="ENCUT">    700.00000000</i>
  <i name="ENAUG">    900.00000000</i>
  <i type="int" name="NBANDS">   548</i>
  <i name="NUPDOWN">      1.00000000</i>
  <i name="NELECT">    912.00000000</i>
  <i type="string" name="LREAL">AUTO</i>
  <i type="int" name="ISMEAR">     0</i>
  <i name="SIGMA">      0.01000000</i>
  <i type="int" name="LMAXMIX">     6</i>
  <i type="logical" name="LWAVE"> F  </i>
  <i type="logical" name="LVTOT"> F  </i>
  <i type="logical" name="LVHAR"> T  </i>
  <i type="logical" name="LASPH"> T  </i>
  <i type="logical" name="LMIXTAU"> T  </i>
 </incar>
 <primitive_cell>
  <structure name="primitive_cell" >
   <crystal>
    <varray name="basis" >
     <v>       8.48669906      -8.48670157       0.00000000 </v>
     <v>       8.48669906       8.48669855       0.00000000 </v>
     <v>       0.00000000       0.00000000      17.86100006 </v>
    </varray>
    <i name="volume">   2572.84381502 </i>
    <varray name="rec_basis" >
     <v>       0.05891571      -0.05891571       0.00000000 </v>
     <v>       0.05891573       0.05891571       0.00000000 </v>
     <v>       0.00000000       0.00000000       0.05598791 </v>
    </varray>
   </crystal>
   <varray name="positions" >
    <v>       0.32763886       0.66097235       0.00000000 </v>
    <v>       0.16097225       0.49430568       0.15838417 </v>
    <v>       0.99430551       0.32763888       0.31676838 </v>
    <v>       0.66097215       0.32763907       0.00000000 </v>
    <v>       0.49430553       0.16097204       0.15838417 </v>
    <v>       0.32763887       0.99430532       0.31676838 </v>
    <v>       0.99430543       0.99430579       0.00000000 </v>
    <v>       0.82763881       0.82763875       0.15838417 </v>
    <v>       0.66097215       0.66097203       0.31676838 </v>
    <v>       0.66097222       0.99430547       0.00000000 </v>
    <v>       0.49430557       0.82763876       0.15838417 </v>
    <v>       0.32763881       0.66097229       0.31676838 </v>
    <v>       0.99430556       0.66097224       0.00000000 </v>
    <v>       0.82763885       0.49430548       0.15838417 </v>
    <v>       0.66097209       0.32763901       0.31676838 </v>
    <v>       0.32763884       0.32763896       0.00000000 </v>
    <v>       0.16097217       0.16097222       0.15838417 </v>
    <v>       0.99430537       0.99430573       0.31676838 </v>
    <v>       0.99430551       0.32763888       0.00000000 </v>
    <v>       0.82763879       0.16097243       0.15838417 </v>
    <v>       0.66097216       0.99430541       0.31676838 </v>
    <v>       0.32763896       0.99430540       0.00000000 </v>
    <v>       0.16097224       0.82763898       0.15838417 </v>
    <v>       0.99430556       0.66097224       0.31676838 </v>
    <v>       0.66097224       0.66097212       0.00000000 </v>
    <v>       0.49430552       0.49430570       0.15838417 </v>
    <v>       0.32763884       0.32763896       0.31676838 </v>
    <v>       0.16097227       0.99430543       0.07919210 </v>
    <v>       0.99430550       0.82763895       0.23757629 </v>
    <v>       0.82763881       0.66097215       0.39596048 </v>
    <v>       0.49430552       0.66097218       0.07919210 </v>
    <v>       0.32763875       0.49430570       0.23757629 </v>
    <v>       0.16097213       0.32763902       0.39596048 </v>
    <v>       0.82763888       0.32763882       0.07919210 </v>
    <v>       0.66097211       0.16097234       0.23757629 </v>
    <v>       0.49430555       0.99430540       0.39596048 </v>
    <v>       0.49430550       0.32763907       0.07919210 </v>
    <v>       0.32763884       0.16097206       0.23757629 </v>
    <v>       0.16097215       0.99430531       0.39596048 </v>
    <v>       0.82763875       0.99430552       0.07919210 </v>
    <v>       0.66097209       0.82763880       0.23757629 </v>
    <v>       0.49430541       0.66097206       0.39596048 </v>
    <v>       0.16097224       0.66097233       0.07919210 </v>
    <v>       0.99430557       0.49430559       0.23757629 </v>
    <v>       0.82763876       0.32763870       0.39596048 </v>
    <v>       0.82763882       0.66097216       0.07919210 </v>
    <v>       0.66097215       0.49430543       0.23757629 </v>
    <v>       0.49430544       0.32763901       0.39596048 </v>
    <v>       0.16097213       0.32763902       0.07919210 </v>
    <v>       0.99430540       0.16097223       0.23757629 </v>
    <v>       0.82763872       0.99430549       0.39596048 </v>
    <v>       0.49430557       0.99430542       0.07919210 </v>
    <v>       0.32763890       0.82763869       0.23757629 </v>
    <v>       0.16097218       0.66097227       0.39596048 </v>
    <v>       0.50086360       0.98306943       0.50793630 </v>
    <v>       0.80086361       0.58306926       0.65997148 </v>
    <v>       0.10086366       0.18306918       0.81200671 </v>
    <v>       0.90086354       0.78306968       0.50793630 </v>
    <v>       0.20086361       0.38306957       0.65997148 </v>
    <v>       0.50086372       0.98306907       0.81200671 </v>
    <v>       0.30086363       0.58306966       0.50793630 </v>
    <v>       0.60086361       0.18306952       0.65997148 </v>
    <v>       0.90086372       0.78306926       0.81200671 </v>
    <v>       0.70086372       0.38306941       0.50793630 </v>
    <v>       0.00086355       0.98306953       0.65997148 </v>
    <v>       0.30086369       0.58306925       0.81200671 </v>
    <v>       0.10086366       0.18306966       0.50793630 </v>
    <v>       0.40086376       0.78306928       0.65997148 </v>
    <v>       0.70086378       0.38306911       0.81200671 </v>
    <v>       0.25086357       0.23306958       0.58395392 </v>
    <v>       0.55086373       0.83306938       0.73598909 </v>
    <v>       0.85086366       0.43306918       0.88802421 </v>
    <v>       0.65086375       0.03306935       0.58395392 </v>
    <v>       0.95086367       0.63306939       0.73598909 </v>
    <v>       0.25086375       0.23306916       0.88802421 </v>
    <v>       0.05086363       0.83306966       0.58395392 </v>
    <v>       0.35086364       0.43306949       0.73598909 </v>
    <v>       0.65086381       0.03306930       0.88802421 </v>
    <v>       0.45086372       0.63306941       0.58395392 </v>
    <v>       0.75086373       0.23306947       0.73598909 </v>
    <v>       0.05086369       0.83306936       0.88802421 </v>
    <v>       0.85086372       0.43306960       0.58395392 </v>
    <v>       0.15086364       0.03306916       0.73598909 </v>
    <v>       0.45086378       0.63306911       0.88802421 </v>
    <v>       0.00086357       0.48306958       0.50793630 </v>
    <v>       0.30086379       0.08306932       0.65997148 </v>
    <v>       0.60086375       0.68306897       0.81200671 </v>
    <v>       0.40086360       0.28306962       0.50793630 </v>
    <v>       0.70086364       0.88306930       0.65997148 </v>
    <v>       0.00086369       0.48306922       0.81200671 </v>
    <v>       0.80086372       0.08306946       0.50793630 </v>
    <v>       0.10086364       0.68306949       0.65997148 </v>
    <v>       0.40086372       0.28306926       0.81200671 </v>
    <v>       0.20086372       0.88306941       0.50793630 </v>
    <v>       0.50086364       0.48306956       0.65997148 </v>
    <v>       0.80086378       0.08306916       0.81200671 </v>
    <v>       0.60086369       0.68306951       0.50793630 </v>
    <v>       0.90086379       0.28306961       0.65997148 </v>
    <v>       0.20086378       0.88306911       0.81200671 </v>
    <v>       0.75086366       0.73306937       0.58395392 </v>
    <v>       0.05086358       0.33306941       0.73598909 </v>
    <v>       0.35086369       0.93306903       0.88802421 </v>
    <v>       0.15086360       0.53306962       0.58395392 </v>
    <v>       0.45086364       0.13306930       0.73598909 </v>
    <v>       0.75086378       0.73306925       0.88802421 </v>
    <v>       0.55086363       0.33306966       0.58395392 </v>
    <v>       0.85086364       0.93306949       0.73598909 </v>
    <v>       0.15086366       0.53306932       0.88802421 </v>
    <v>       0.95086372       0.13306941       0.58395392 </v>
    <v>       0.25086367       0.73306953       0.73598909 </v>
    <v>       0.55086369       0.33306936       0.88802421 </v>
    <v>       0.35086363       0.93306957       0.58395392 </v>
    <v>       0.65086367       0.53306937       0.73598909 </v>
    <v>       0.95086360       0.13306929       0.88802421 </v>
   </varray>
  </structure>
  <varray name="primitive_index" >
   <v type="int" >        1 </v>
   <v type="int" >        2 </v>
   <v type="int" >        3 </v>
   <v type="int" >        4 </v>
   <v type="int" >       65 </v>
   <v type="int" >       66 </v>
   <v type="int" >        7 </v>
   <v type="int" >       68 </v>
   <v type="int" >       69 </v>
   <v type="int" >       10 </v>
   <v type="int" >       11 </v>
   <v type="int" >       12 </v>
   <v type="int" >       73 </v>
   <v type="int" >       14 </v>
   <v type="int" >       15 </v>
   <v type="int" >       76 </v>
   <v type="int" >       77 </v>
   <v type="int" >       18 </v>
   <v type="int" >       19 </v>
   <v type="int" >       62 </v>
   <v type="int" >       21 </v>
   <v type="int" >       55 </v>
   <v type="int" >       56 </v>
   <v type="int" >       57 </v>
   <v type="int" >       58 </v>
   <v type="int" >       59 </v>
   <v type="int" >       60 </v>
   <v type="int" >       28 </v>
   <v type="int" >       29 </v>
   <v type="int" >       96 </v>
   <v type="int" >       31 </v>
   <v type="int" >       32 </v>
   <v type="int" >       33 </v>
   <v type="int" >       34 </v>
   <v type="int" >       35 </v>
   <v type="int" >       93 </v>
   <v type="int" >      103 </v>
   <v type="int" >       38 </v>
   <v type="int" >       39 </v>
   <v type="int" >       40 </v>
   <v type="int" >       41 </v>
   <v type="int" >       42 </v>
   <v type="int" >      100 </v>
   <v type="int" >      101 </v>
   <v type="int" >       45 </v>
   <v type="int" >       85 </v>
   <v type="int" >       86 </v>
   <v type="int" >       87 </v>
   <v type="int" >       49 </v>
   <v type="int" >       50 </v>
   <v type="int" >       51 </v>
   <v type="int" >       82 </v>
   <v type="int" >       83 </v>
   <v type="int" >       84 </v>
   <v type="int" >      124 </v>
   <v type="int" >      125 </v>
   <v type="int" >      111 </v>
   <v type="int" >      112 </v>
   <v type="int" >      113 </v>
   <v type="int" >      129 </v>
   <v type="int" >      115 </v>
   <v type="int" >      116 </v>
   <v type="int" >      117 </v>
   <v type="int" >      118 </v>
   <v type="int" >      119 </v>
   <v type="int" >      120 </v>
   <v type="int" >      136 </v>
   <v type="int" >      122 </v>
   <v type="int" >      123 </v>
   <v type="int" >      139 </v>
   <v type="int" >      155 </v>
   <v type="int" >      141 </v>
   <v type="int" >      157 </v>
   <v type="int" >      143 </v>
   <v type="int" >      144 </v>
   <v type="int" >      145 </v>
   <v type="int" >      146 </v>
   <v type="int" >      162 </v>
   <v type="int" >      148 </v>
   <v type="int" >      149 </v>
   <v type="int" >      150 </v>
   <v type="int" >      166 </v>
   <v type="int" >      152 </v>
   <v type="int" >      153 </v>
   <v type="int" >      169 </v>
   <v type="int" >      185 </v>
   <v type="int" >      186 </v>
   <v type="int" >      172 </v>
   <v type="int" >      188 </v>
   <v type="int" >      174 </v>
   <v type="int" >      190 </v>
   <v type="int" >      176 </v>
   <v type="int" >      177 </v>
   <v type="int" >      178 </v>
   <v type="int" >      179 </v>
   <v type="int" >      195 </v>
   <v type="int" >      181 </v>
   <v type="int" >      197 </v>
   <v type="int" >      183 </v>
   <v type="int" >      214 </v>
   <v type="int" >      200 </v>
   <v type="int" >      216 </v>
   <v type="int" >      202 </v>
   <v type="int" >      218 </v>
   <v type="int" >      219 </v>
   <v type="int" >      205 </v>
   <v type="int" >      206 </v>
   <v type="int" >      207 </v>
   <v type="int" >      208 </v>
   <v type="int" >      209 </v>
   <v type="int" >      210 </v>
   <v type="int" >      211 </v>
   <v type="int" >      212 </v>
   <v type="int" >      213 </v>
  </varray>
 </primitive_cell>
 <kpoints>
  <generation param="Gamma">
   <v type="int" name="divisions">       2        2        2 </v>
   <v name="usershift">      0.00000000       0.00000000       0.00000000 </v>
   <v name="genvec1">      0.50000000       0.00000000       0.00000000 </v>
   <v name="genvec2">      0.00000000       0.50000000       0.00000000 </v>
   <v name="genvec3">      0.00000000       0.00000000       0.50000000 </v>
   <v name="shift">      0.00000000       0.00000000       0.00000000 </v>
  </generation>
  <varray name="kpointlist" >
   <v>       0.00000000       0.00000000       0.00000000 </v>
   <v>       0.50000000       0.00000000       0.00000000 </v>
   <v>       0.00000000       0.50000000       0.00000000 </v>
   <v>       0.50000000       0.50000000       0.00000000 </v>
   <v>       0.00000000       0.00000000       0.50000000 </v>
   <v>       0.50000000       0.00000000       0.50000000 </v>
   <v>       0.00000000       0.50000000       0.50000000 </v>
   <v>       0.50000000       0.50000000       0.50000000 </v>
  </varray>
  <varray name="weights" >
   <v>       0.12500000 </v>
   <v>       0.12500000 </v>
   <v>       0.12500000 </v>
   <v>       0.12500000 </v>
   <v>       0.12500000 </v>
   <v>       0.12500000 </v>
   <v>       0.12500000 </v>
   <v>       0.12500000 </v>
  </varray>
 </kpoints>
 <parameters>
  <separator name="general" >
   <i type="string" name="SYSTEM">Si and Ge interface calculation</i>
   <i type="logical" name="LCOMPAT"> F  </i>
  </separator>
  <separator name="electronic" >
   <i type="string" name="PREC">normal</i>
   <i name="ENMAX">    700.00000000</i>
   <i name="ENAUG">    900.00000000</i>
   <i name="EDIFF">      0.00000010</i>
   <i type="int" name="IALGO">    38</i>
   <i type="int" name="IWAVPR">    10</i>
   <i type="int" name="NBANDS">   548</i>
   <i type="int" name="NBANDSLOW">    -1</i>
   <i type="int" name="NBANDSHIGH">    -1</i>
   <i name="NELECT">    912.00000000</i>
   <i type="int" name="TURBO">     0</i>
   <i type="int" name="IRESTART">     0</i>
   <i type="int" name="NREBOOT">     0</i>
   <i type="int" name="NMIN">     0</i>
   <i name="EREF">      0.00000000</i>
   <separator name="electronic smearing" >
    <i type="int" name="ISMEAR">     0</i>
    <i name="SIGMA">      0.01000000</i>
    <i name="KSPACING">      0.50000000</i>
    <i type="logical" name="KGAMMA"> T  </i>
    <i type="logical" name="KBLOWUP"> T  </i>
   </separator>
   <separator name="electronic projectors" >
    <i type="logical" name="LREAL"> T  </i>
    <v name="ROPT">     -0.00050000     -0.00050000</v>
    <i type="int" name="LMAXPAW">  -100</i>
    <i type="int" name="LMAXMIX">     6</i>
    <i type="logical" name="NLSPLINE"> F  </i>
   </separator>
   <separator name="electronic startup" >
    <i type="int" name="ISTART">     0</i>
    <i type="int" name="ICHARG">     2</i>
    <i type="int" name="INIWAV">     1</i>
   </separator>
   <separator name="electronic spin" >
    <i type="int" name="ISPIN">     2</i>
    <i type="logical" name="LNONCOLLINEAR"> F  </i>
    <v name="MAGMOM">      0.00438596      0.00438596      0.00438596      0.00438596      0.00438596      0.00438596      0.00438596      0.00438596      0.00438596      0.00438596      0.00438596      0.00438596      0.00438596      0.00438596      0.00438596      0.00438596      0.00438596      0.00438596      0.00438596      0.00438596
      0.00438596      0.00438596      0.00438596      0.00438596      0.00438596      0.00438596      0.00438596      0.00438596      0.00438596      0.00438596      0.00438596      0.00438596      0.00438596      0.00438596      0.00438596      0.00438596      0.00438596      0.00438596      0.00438596      0.00438596
      0.00438596      0.00438596      0.00438596      0.00438596      0.00438596      0.00438596      0.00438596      0.00438596      0.00438596      0.00438596      0.00438596      0.00438596      0.00438596      0.00438596      0.00438596      0.00438596      0.00438596      0.00438596      0.00438596      0.00438596
      0.00438596      0.00438596      0.00438596      0.00438596      0.00438596      0.00438596      0.00438596      0.00438596      0.00438596      0.00438596      0.00438596      0.00438596      0.00438596      0.00438596      0.00438596      0.00438596      0.00438596      0.00438596      0.00438596      0.00438596
      0.00438596      0.00438596      0.00438596      0.00438596      0.00438596      0.00438596      0.00438596      0.00438596      0.00438596      0.00438596      0.00438596      0.00438596      0.00438596      0.00438596      0.00438596      0.00438596      0.00438596      0.00438596      0.00438596      0.00438596
      0.00438596      0.00438596      0.00438596      0.00438596      0.00438596      0.00438596      0.00438596      0.00438596      0.00438596      0.00438596      0.00438596      0.00438596      0.00438596      0.00438596      0.00438596      0.00438596      0.00438596      0.00438596      0.00438596      0.00438596
      0.00438596      0.00438596      0.00438596      0.00438596      0.00438596      0.00438596      0.00438596      0.00438596      0.00438596      0.00438596      0.00438596      0.00438596      0.00438596      0.00438596      0.00438596      0.00438596      0.00438596      0.00438596      0.00438596      0.00438596
      0.00438596      0.00438596      0.00438596      0.00438596      0.00438596      0.00438596      0.00438596      0.00438596      0.00438596      0.00438596      0.00438596      0.00438596      0.00438596      0.00438596      0.00438596      0.00438596      0.00438596      0.00438596      0.00438596      0.00438596
      0.00438596      0.00438596      0.00438596      0.00438596      0.00438596      0.00438596      0.00438596      0.00438596      0.00438596      0.00438596      0.00438596      0.00438596      0.00438596      0.00438596      0.00438596      0.00438596      0.00438596      0.00438596      0.00438596      0.00438596
      0.00438596      0.00438596      0.00438596      0.00438596      0.00438596      0.00438596      0.00438596      0.00438596      0.00438596      0.00438596      0.00438596      0.00438596      0.00438596      0.00438596      0.00438596      0.00438596      0.00438596      0.00438596      0.00438596      0.00438596
      0.00438596      0.00438596      0.00438596      0.00438596      0.00438596      0.00438596      0.00438596      0.00438596      0.00438596      0.00438596      0.00438596      0.00438596      0.00438596      0.00438596      0.00438596      0.00438596      0.00438596      0.00438596      0.00438596      0.00438596
      0.00438596      0.00438596      0.00438596      0.00438596      0.00438596      0.00438596      0.00438596      0.00438596</v>
    <i name="NUPDOWN">      1.00000000</i>
    <i type="logical" name="LSORBIT"> F  </i>
    <v name="SAXIS">      0.00000000      0.00000000      1.00000000</v>
    <i type="logical" name="LSPIRAL"> F  </i>
    <v name="QSPIRAL">      0.00000000      0.00000000      0.00000000</v>
    <i type="logical" name="LZEROZ"> F  </i>
   </separator>
   <separator name="electronic exchange-correlation" >
    <i type="logical" name="LASPH"> T  </i>
   </separator>
   <separator name="electronic convergence" >
    <i type="int" name="NELM">   100</i>
    <i type="int" name="NELMDL">    -5</i>
    <i type="int" name="NELMIN">     2</i>
    <i name="ENINI">    700.00000000</i>
    <separator name="electronic convergence detail" >
     <i type="logical" name="LDIAG"> T  </i>
     <i type="logical" name="LSUBROT"> F  </i>
     <i name="WEIMIN">      0.00000000</i>
     <i name="EBREAK">      0.00000000</i>
     <i name="DEPER">      0.30000000</i>
     <i type="int" name="NRMM">     4</i>
     <i name="TIME">      0.40000000</i>
    </separator>
   </separator>
   <separator name="electronic mixer" >
    <i name="AMIX">      0.60000000</i>
    <i name="BMIX">      1.00000000</i>
    <i name="AMIN">      0.10000000</i>
    <i name="AMIX_MAG">      2.40000000</i>
    <i name="BMIX_MAG">      1.00000000</i>
    <separator name="electronic mixer details" >
     <i type="int" name="IMIX">     4</i>
     <i type="logical" name="MIXFIRST"> F  </i>
     <i type="int" name="MAXMIX">   -45</i>
     <i name="WC">    100.00000000</i>
     <i type="int" name="INIMIX">     1</i>
     <i type="int" name="MIXPRE">     1</i>
     <i type="int" name="MREMOVE">     5</i>
    </separator>
   </separator>
   <separator name="electronic dipolcorrection" >
    <i type="logical" name="LDIPOL"> F  </i>
    <i type="logical" name="LMONO"> F  </i>
    <i type="int" name="IDIPOL">     0</i>
    <i name="EPSILON">      1.00000000</i>
    <v name="DIPOL">   -100.00000000   -100.00000000   -100.00000000</v>
    <i name="EFIELD">      0.00000000</i>
    <i type="logical" name="LVACPOTAV"> F  </i>
   </separator>
  </separator>
  <separator name="grids" >
   <i type="int" name="NGX">   112</i>
   <i type="int" name="NGY">   112</i>
   <i type="int" name="NGZ">   120</i>
   <i type="int" name="NGXF">   224</i>
   <i type="int" name="NGYF">   224</i>
   <i type="int" name="NGZF">   240</i>
   <i type="logical" name="ADDGRID"> T  </i>
  </separator>
  <separator name="ionic" >
   <i type="int" name="NSW">     0</i>
   <i type="int" name="IBRION">    -1</i>
   <i type="int" name="MDALGO">     0</i>
   <i type="int" name="ISIF">     2</i>
   <i name="PSTRESS">      0.00000000</i>
   <i name="EDIFFG">      0.00000100</i>
   <i type="int" name="NFREE">     0</i>
   <i name="POTIM">      0.50000000</i>
   <i name="SMASS">     -3.00000000</i>
   <i name="SCALEE">      1.00000000</i>
  </separator>
  <separator name="ionic md" >
   <i name="TEBEG">      0.00010000</i>
   <i name="TEEND">      0.00010000</i>
   <i type="int" name="NBLOCK">     1</i>
   <i type="int" name="KBLOCK">     1</i>
   <i type="int" name="NPACO">   256</i>
   <i name="APACO">     10.00000000</i>
  </separator>
  <separator name="symmetry" >
   <i type="int" name="ISYM">     2</i>
   <i name="SYMPREC">      0.00001000</i>
  </separator>
  <separator name="dos" >
   <i type="int" name="LORBIT">     0</i>
   <v name="RWIGS">     -1.00000000     -1.00000000</v>
   <i type="int" name="NEDOS">   301</i>
   <i name="EMIN">     10.00000000</i>
   <i name="EMAX">    -10.00000000</i>
   <i name="EFERMI">      0.00000000</i>
  </separator>
  <separator name="writing" >
   <i type="int" name="NWRITE">     2</i>
   <i type="logical" name="LWAVE"> F  </i>
   <i type="logical" name="LDOWNSAMPLE"> F  </i>
   <i type="logical" name="LCHARG"> T  </i>
   <i type="logical" name="LPARD"> F  </i>
   <i type="logical" name="LVTOT"> F  </i>
   <i type="logical" name="LVHAR"> T  </i>
   <i type="logical" name="LELF"> F  </i>
   <i type="logical" name="LOPTICS"> F  </i>
   <v name="STM">      0.00000000      0.00000000      0.00000000      0.00000000      0.00000000      0.00000000      0.00000000</v>
  </separator>
  <separator name="performance" >
   <i type="int" name="NPAR">     4</i>
   <i type="int" name="NSIM">     4</i>
   <i type="int" name="NBLK">    -1</i>
   <i type="logical" name="LPLANE"> T  </i>
   <i type="logical" name="LSCALAPACK"> T  </i>
   <i type="logical" name="LSCAAWARE"> F  </i>
   <i type="logical" name="LSCALU"> F  </i>
   <i type="logical" name="LASYNC"> F  </i>
   <i type="logical" name="LORBITALREAL"> F  </i>
  </separator>
  <separator name="miscellaneous" >
   <i type="int" name="IDIOT">     3</i>
   <i type="int" name="PHON_NSTRUCT">    -1</i>
   <i type="logical" name="LMUSIC"> F  </i>
   <v name="POMASS">     72.61000000     28.08500000</v>
   <v name="DARWINR">      0.00000000      0.00000000</v>
   <v name="DARWINV">      1.00000000      1.00000000</v>
   <i type="logical" name="LCORR"> T  </i>
  </separator>
  <i type="logical" name="GGA_COMPAT"> T  </i>
  <i type="logical" name="LBERRY"> F  </i>
  <i type="int" name="ICORELEVEL">     0</i>
  <i type="logical" name="LDAU"> F  </i>
  <i type="int" name="I_CONSTRAINED_M">     0</i>
  <separator name="electronic exchange-correlation" >
   <i type="string" name="GGA    ">PE</i>
   <i type="string" name="XC_C">1</i>
   <i type="int" name="VOSKOWN">     0</i>
   <i type="logical" name="LHFCALC"> F  </i>
   <i type="string" name="PRECFOCK"></i>
   <i type="logical" name="LSYMGRAD"> F  </i>
   <i type="logical" name="LHFONE"> F  </i>
   <i type="logical" name="LRHFCALC"> F  </i>
   <i type="logical" name="LTHOMAS"> F  </i>
   <i type="logical" name="LMODELHF"> F  </i>
   <i type="logical" name="LFOCKACE"> F  </i>
   <i name="ENCUT4O">     -1.00000000</i>
   <i type="int" name="EXXOEP">     0</i>
   <i type="int" name="FOURORBIT">     0</i>
   <i name="AEXX">      0.00000000</i>
   <i name="HFALPHA">      0.00000000</i>
   <i name="MCALPHA">      0.00000000</i>
   <i name="ALDAX">      1.00000000</i>
   <i name="AGGAX">      1.00000000</i>
   <i name="AMGGAX">      1.00000000</i>
   <i name="ALDAC">      1.00000000</i>
   <i name="AGGAC">      1.00000000</i>
   <i name="AMGGAC">      1.00000000</i>
   <i type="int" name="NKREDX">     1</i>
   <i type="int" name="NKREDY">     1</i>
   <i type="int" name="NKREDZ">     1</i>
   <i type="logical" name="SHIFTRED"> F  </i>
   <i type="logical" name="ODDONLY"> F  </i>
   <i type="logical" name="EVENONLY"> F  </i>
   <i type="int" name="LMAXFOCK">     0</i>
   <i type="int" name="NMAXFOCKAE">     0</i>
   <i type="logical" name="LFOCKAEDFT"> F  </i>
   <i name="HFSCREEN">      0.00000000</i>
   <i name="HFSCREENC">      0.00000000</i>
   <i type="int" name="NBANDSGWLOW">     0</i>
  </separator>
  <separator name="vdW DFT" >
   <i type="logical" name="LUSE_VDW"> F  </i>
   <i type="int" name="IVDW_NL">    -1</i>
   <i type="logical" name="LSPIN_VDW"> F  </i>
   <i name="ZAB_VDW">     -0.84910000</i>
   <i name="GAMMA_VDW">      1.39626340</i>
   <i name="ALPHA_VDW">      0.00000000</i>
   <i name="PARAM1">      0.12340000</i>
   <i name="PARAM2">      1.00000000</i>
   <i name="BPARAM">      6.30000000</i>
   <i name="CPARAM">      0.00930000</i>
  </separator>
  <separator name="model GW" >
   <i type="int" name="MODEL_GW">     0</i>
   <i name="MODEL_EPS0">     13.54128483</i>
   <i name="MODEL_ALPHA">      1.00000000</i>
  </separator>
  <separator name="linear response parameters" >
   <i type="logical" name="LEPSILON"> F  </i>
   <i type="logical" name="LRPA"> F  </i>
   <i type="logical" name="LNABLA"> F  </i>
   <i type="logical" name="LVEL"> F  </i>
   <i name="CSHIFT">      0.10000000</i>
   <i name="OMEGAMAX">     -1.00000000</i>
   <i name="DEG_THRESHOLD">      0.00200000</i>
   <i name="RTIME">     -0.10000000</i>
   <i name="WPLASMAI">      0.00000000</i>
   <v name="DFIELD">      0.00000000      0.00000000      0.00000000</v>
   <v name="WPLASMA">      0.00000000      0.00000000      0.00000000      0.00000000      0.00000000      0.00000000      0.00000000      0.00000000      0.00000000</v>
  </separator>
  <separator name="orbital magnetization" >
   <i type="logical" name="NUCIND"> F  </i>
   <v name="MAGPOS">      0.00000000      0.00000000      0.00000000</v>
   <i type="logical" name="LNICSALL"> T  </i>
   <i type="logical" name="ORBITALMAG"> F  </i>
   <i type="logical" name="LMAGBLOCH"> F  </i>
   <i type="logical" name="LCHIMAG"> F  </i>
   <i type="logical" name="LGAUGE"> T  </i>
   <i type="int" name="MAGATOM">     0</i>
   <v name="MAGDIPOL">      0.00000000      0.00000000      0.00000000</v>
   <v name="AVECCONST">      0.00000000      0.00000000      0.00000000</v>
  </separator>
  <separator name="response functions" >
   <i type="logical" name="LALL_IN_ONE"> F  </i>
   <i type="int" name="IALL_IN_ONE">    -1</i>
   <i type="int" name="NBANDS_WAVE">    -1</i>
   <i type="logical" name="LFINITE_TEMPERATURE"> F  </i>
   <i type="logical" name="LADDER"> F  </i>
   <i type="logical" name="LRPAFORCE"> F  </i>
   <i type="logical" name="LFXC"> F  </i>
   <i type="logical" name="LHARTREE"> T  </i>
   <i type="int" name="IBSE">     0</i>
   <v type="int" name="KPOINT">    -1     0     0     0</v>
   <i type="logical" name="LTCTC"> F  </i>
   <i type="logical" name="LTCTE"> F  </i>
   <i type="logical" name="LTETE"> F  </i>
   <i type="logical" name="LTRIPLET"> F  </i>
   <i type="logical" name="LFXCEPS"> F  </i>
   <i type="logical" name="LFXHEG"> F  </i>
   <i type="int" name="NATURALO">     2</i>
   <i type="logical" name="LHOLEGF"> F  </i>
   <i type="logical" name="L2ORDER"> F  </i>
   <i type="logical" name="LDMP1"> F  </i>
   <i type="logical" name="LMP2LT"> F  </i>
   <i type="logical" name="LSMP2LT"> F  </i>
   <i type="logical" name="LGWLF"> F  </i>
   <i name="ENCUTGW">     -1.60000002</i>
   <i name="ENCUTGWSOFT">     -1.60000002</i>
   <i name="ENCUTLF">     -1.00000000</i>
   <i type="logical" name="ESF_SPLINES"> F  </i>
   <i name="ESF_CONV">      0.01000000</i>
   <i type="int" name="ESF_NINTER">    15</i>
   <i type="int" name="LMAXMP2">    -1</i>
   <i name="SCISSOR">      0.00000000</i>
   <i type="int" name="NOMEGA">     0</i>
   <i type="int" name="NOMEGAR">     0</i>
   <i type="int" name="NBANDSGW">    -1</i>
   <i type="int" name="NBANDSO">    -1</i>
   <i type="int" name="NBANDSV">    -1</i>
   <i type="int" name="NELMGW">     1</i>
   <i type="int" name="NELMHF">     1</i>
   <i type="int" name="DIM">     3</i>
   <i type="int" name="IESPILON">     4</i>
   <i type="int" name="ANTIRES">     0</i>
   <i name="OMEGAMAX">    -30.00000000</i>
   <i name="OMEGAMIN">    -30.00000000</i>
   <i name="OMEGATL">   -200.00000000</i>
   <i type="int" name="OMEGAGRID">     0</i>
   <i name="CSHIFT">     -0.10000000</i>
   <i type="logical" name="LSELFENERGY"> F  </i>
   <i type="logical" name="LSPECTRAL"> F  </i>
   <i type="logical" name="LSPECTRALGW"> F  </i>
   <i type="logical" name="LSINGLES"> F  </i>
   <i type="logical" name="LFERMIGW"> F  </i>
   <i type="logical" name="ODDONLYGW"> F  </i>
   <i type="logical" name="EVENONLYGW"> F  </i>
   <i type="int" name="NKREDLFX">     1</i>
   <i type="int" name="NKREDLFY">     1</i>
   <i type="int" name="NKREDLFZ">     1</i>
   <i type="int" name="MAXMEM">  2800</i>
   <i type="int" name="TELESCOPE">     0</i>
   <i type="int" name="NTAUPAR">    -1</i>
   <i type="int" name="NOMEGAPAR">    -1</i>
   <i name="DAMP_NEWTON">      0.80000001</i>
   <i name="LAMBDA">      1.00000000</i>
  </separator>
  <separator name="External order field" >
   <i name="OFIELD_KAPPA">      0.00000000</i>
   <v name="OFIELD_K">      0.00000000      0.00000000      0.00000000</v>
   <i name="OFIELD_Q6_NEAR">      0.00000000</i>
   <i name="OFIELD_Q6_FAR">      0.00000000</i>
   <i name="OFIELD_A">      0.00000000</i>
  </separator>
  <separator name="optional k-points parameters" >
   <i type="int" name="KPOINTS_OPT_MODE">     1</i>
   <i type="logical" name="LKPOINTS_OPT"> F  </i>
  </separator>
 </parameters>
 <atominfo>
  <atoms>     228 </atoms>
  <types>       2 </types>
  <array name="atoms" >
   <dimension dim="1">ion</dimension>
   <field type="string">element</field>
   <field type="int">atomtype</field>
   <set>
    <rc><c>Ge</c><c>   1</c></rc>
    <rc><c>Ge</c><c>   1</c></rc>
    <rc><c>Ge</c><c>   1</c></rc>
    <rc><c>Ge</c><c>   1</c></rc>
    <rc><c>Ge</c><c>   1</c></rc>
    <rc><c>Ge</c><c>   1</c></rc>
    <rc><c>Ge</c><c>   1</c></rc>
    <rc><c>Ge</c><c>   1</c></rc>
    <rc><c>Ge</c><c>   1</c></rc>
    <rc><c>Ge</c><c>   1</c></rc>
    <rc><c>Ge</c><c>   1</c></rc>
    <rc><c>Ge</c><c>   1</c></rc>
    <rc><c>Ge</c><c>   1</c></rc>
    <rc><c>Ge</c><c>   1</c></rc>
    <rc><c>Ge</c><c>   1</c></rc>
    <rc><c>Ge</c><c>   1</c></rc>
    <rc><c>Ge</c><c>   1</c></rc>
    <rc><c>Ge</c><c>   1</c></rc>
    <rc><c>Ge</c><c>   1</c></rc>
    <rc><c>Ge</c><c>   1</c></rc>
    <rc><c>Ge</c><c>   1</c></rc>
    <rc><c>Ge</c><c>   1</c></rc>
    <rc><c>Ge</c><c>   1</c></rc>
    <rc><c>Ge</c><c>   1</c></rc>
    <rc><c>Ge</c><c>   1</c></rc>
    <rc><c>Ge</c><c>   1</c></rc>
    <rc><c>Ge</c><c>   1</c></rc>
    <rc><c>Ge</c><c>   1</c></rc>
    <rc><c>Ge</c><c>   1</c></rc>
    <rc><c>Ge</c><c>   1</c></rc>
    <rc><c>Ge</c><c>   1</c></rc>
    <rc><c>Ge</c><c>   1</c></rc>
    <rc><c>Ge</c><c>   1</c></rc>
    <rc><c>Ge</c><c>   1</c></rc>
    <rc><c>Ge</c><c>   1</c></rc>
    <rc><c>Ge</c><c>   1</c></rc>
    <rc><c>Ge</c><c>   1</c></rc>
    <rc><c>Ge</c><c>   1</c></rc>
    <rc><c>Ge</c><c>   1</c></rc>
    <rc><c>Ge</c><c>   1</c></rc>
    <rc><c>Ge</c><c>   1</c></rc>
    <rc><c>Ge</c><c>   1</c></rc>
    <rc><c>Ge</c><c>   1</c></rc>
    <rc><c>Ge</c><c>   1</c></rc>
    <rc><c>Ge</c><c>   1</c></rc>
    <rc><c>Ge</c><c>   1</c></rc>
    <rc><c>Ge</c><c>   1</c></rc>
    <rc><c>Ge</c><c>   1</c></rc>
    <rc><c>Ge</c><c>   1</c></rc>
    <rc><c>Ge</c><c>   1</c></rc>
    <rc><c>Ge</c><c>   1</c></rc>
    <rc><c>Ge</c><c>   1</c></rc>
    <rc><c>Ge</c><c>   1</c></rc>
    <rc><c>Ge</c><c>   1</c></rc>
    <rc><c>Ge</c><c>   1</c></rc>
    <rc><c>Ge</c><c>   1</c></rc>
    <rc><c>Ge</c><c>   1</c></rc>
    <rc><c>Ge</c><c>   1</c></rc>
    <rc><c>Ge</c><c>   1</c></rc>
    <rc><c>Ge</c><c>   1</c></rc>
    <rc><c>Ge</c><c>   1</c></rc>
    <rc><c>Ge</c><c>   1</c></rc>
    <rc><c>Ge</c><c>   1</c></rc>
    <rc><c>Ge</c><c>   1</c></rc>
    <rc><c>Ge</c><c>   1</c></rc>
    <rc><c>Ge</c><c>   1</c></rc>
    <rc><c>Ge</c><c>   1</c></rc>
    <rc><c>Ge</c><c>   1</c></rc>
    <rc><c>Ge</c><c>   1</c></rc>
    <rc><c>Ge</c><c>   1</c></rc>
    <rc><c>Ge</c><c>   1</c></rc>
    <rc><c>Ge</c><c>   1</c></rc>
    <rc><c>Ge</c><c>   1</c></rc>
    <rc><c>Ge</c><c>   1</c></rc>
    <rc><c>Ge</c><c>   1</c></rc>
    <rc><c>Ge</c><c>   1</c></rc>
    <rc><c>Ge</c><c>   1</c></rc>
    <rc><c>Ge</c><c>   1</c></rc>
    <rc><c>Ge</c><c>   1</c></rc>
    <rc><c>Ge</c><c>   1</c></rc>
    <rc><c>Ge</c><c>   1</c></rc>
    <rc><c>Ge</c><c>   1</c></rc>
    <rc><c>Ge</c><c>   1</c></rc>
    <rc><c>Ge</c><c>   1</c></rc>
    <rc><c>Ge</c><c>   1</c></rc>
    <rc><c>Ge</c><c>   1</c></rc>
    <rc><c>Ge</c><c>   1</c></rc>
    <rc><c>Ge</c><c>   1</c></rc>
    <rc><c>Ge</c><c>   1</c></rc>
    <rc><c>Ge</c><c>   1</c></rc>
    <rc><c>Ge</c><c>   1</c></rc>
    <rc><c>Ge</c><c>   1</c></rc>
    <rc><c>Ge</c><c>   1</c></rc>
    <rc><c>Ge</c><c>   1</c></rc>
    <rc><c>Ge</c><c>   1</c></rc>
    <rc><c>Ge</c><c>   1</c></rc>
    <rc><c>Ge</c><c>   1</c></rc>
    <rc><c>Ge</c><c>   1</c></rc>
    <rc><c>Ge</c><c>   1</c></rc>
    <rc><c>Ge</c><c>   1</c></rc>
    <rc><c>Ge</c><c>   1</c></rc>
    <rc><c>Ge</c><c>   1</c></rc>
    <rc><c>Ge</c><c>   1</c></rc>
    <rc><c>Ge</c><c>   1</c></rc>
    <rc><c>Ge</c><c>   1</c></rc>
    <rc><c>Ge</c><c>   1</c></rc>
    <rc><c>Ge</c><c>   1</c></rc>
    <rc><c>Ge</c><c>   1</c></rc>
    <rc><c>Si</c><c>   2</c></rc>
    <rc><c>Si</c><c>   2</c></rc>
    <rc><c>Si</c><c>   2</c></rc>
    <rc><c>Si</c><c>   2</c></rc>
    <rc><c>Si</c><c>   2</c></rc>
    <rc><c>Si</c><c>   2</c></rc>
    <rc><c>Si</c><c>   2</c></rc>
    <rc><c>Si</c><c>   2</c></rc>
    <rc><c>Si</c><c>   2</c></rc>
    <rc><c>Si</c><c>   2</c></rc>
    <rc><c>Si</c><c>   2</c></rc>
    <rc><c>Si</c><c>   2</c></rc>
    <rc><c>Si</c><c>   2</c></rc>
    <rc><c>Si</c><c>   2</c></rc>
    <rc><c>Si</c><c>   2</c></rc>
    <rc><c>Si</c><c>   2</c></rc>
    <rc><c>Si</c><c>   2</c></rc>
    <rc><c>Si</c><c>   2</c></rc>
    <rc><c>Si</c><c>   2</c></rc>
    <rc><c>Si</c><c>   2</c></rc>
    <rc><c>Si</c><c>   2</c></rc>
    <rc><c>Si</c><c>   2</c></rc>
    <rc><c>Si</c><c>   2</c></rc>
    <rc><c>Si</c><c>   2</c></rc>
    <rc><c>Si</c><c>   2</c></rc>
    <rc><c>Si</c><c>   2</c></rc>
    <rc><c>Si</c><c>   2</c></rc>
    <rc><c>Si</c><c>   2</c></rc>
    <rc><c>Si</c><c>   2</c></rc>
    <rc><c>Si</c><c>   2</c></rc>
    <rc><c>Si</c><c>   2</c></rc>
    <rc><c>Si</c><c>   2</c></rc>
    <rc><c>Si</c><c>   2</c></rc>
    <rc><c>Si</c><c>   2</c></rc>
    <rc><c>Si</c><c>   2</c></rc>
    <rc><c>Si</c><c>   2</c></rc>
    <rc><c>Si</c><c>   2</c></rc>
    <rc><c>Si</c><c>   2</c></rc>
    <rc><c>Si</c><c>   2</c></rc>
    <rc><c>Si</c><c>   2</c></rc>
    <rc><c>Si</c><c>   2</c></rc>
    <rc><c>Si</c><c>   2</c></rc>
    <rc><c>Si</c><c>   2</c></rc>
    <rc><c>Si</c><c>   2</c></rc>
    <rc><c>Si</c><c>   2</c></rc>
    <rc><c>Si</c><c>   2</c></rc>
    <rc><c>Si</c><c>   2</c></rc>
    <rc><c>Si</c><c>   2</c></rc>
    <rc><c>Si</c><c>   2</c></rc>
    <rc><c>Si</c><c>   2</c></rc>
    <rc><c>Si</c><c>   2</c></rc>
    <rc><c>Si</c><c>   2</c></rc>
    <rc><c>Si</c><c>   2</c></rc>
    <rc><c>Si</c><c>   2</c></rc>
    <rc><c>Si</c><c>   2</c></rc>
    <rc><c>Si</c><c>   2</c></rc>
    <rc><c>Si</c><c>   2</c></rc>
    <rc><c>Si</c><c>   2</c></rc>
    <rc><c>Si</c><c>   2</c></rc>
    <rc><c>Si</c><c>   2</c></rc>
    <rc><c>Si</c><c>   2</c></rc>
    <rc><c>Si</c><c>   2</c></rc>
    <rc><c>Si</c><c>   2</c></rc>
    <rc><c>Si</c><c>   2</c></rc>
    <rc><c>Si</c><c>   2</c></rc>
    <rc><c>Si</c><c>   2</c></rc>
    <rc><c>Si</c><c>   2</c></rc>
    <rc><c>Si</c><c>   2</c></rc>
    <rc><c>Si</c><c>   2</c></rc>
    <rc><c>Si</c><c>   2</c></rc>
    <rc><c>Si</c><c>   2</c></rc>
    <rc><c>Si</c><c>   2</c></rc>
    <rc><c>Si</c><c>   2</c></rc>
    <rc><c>Si</c><c>   2</c></rc>
    <rc><c>Si</c><c>   2</c></rc>
    <rc><c>Si</c><c>   2</c></rc>
    <rc><c>Si</c><c>   2</c></rc>
    <rc><c>Si</c><c>   2</c></rc>
    <rc><c>Si</c><c>   2</c></rc>
    <rc><c>Si</c><c>   2</c></rc>
    <rc><c>Si</c><c>   2</c></rc>
    <rc><c>Si</c><c>   2</c></rc>
    <rc><c>Si</c><c>   2</c></rc>
    <rc><c>Si</c><c>   2</c></rc>
    <rc><c>Si</c><c>   2</c></rc>
    <rc><c>Si</c><c>   2</c></rc>
    <rc><c>Si</c><c>   2</c></rc>
    <rc><c>Si</c><c>   2</c></rc>
    <rc><c>Si</c><c>   2</c></rc>
    <rc><c>Si</c><c>   2</c></rc>
    <rc><c>Si</c><c>   2</c></rc>
    <rc><c>Si</c><c>   2</c></rc>
    <rc><c>Si</c><c>   2</c></rc>
    <rc><c>Si</c><c>   2</c></rc>
    <rc><c>Si</c><c>   2</c></rc>
    <rc><c>Si</c><c>   2</c></rc>
    <rc><c>Si</c><c>   2</c></rc>
    <rc><c>Si</c><c>   2</c></rc>
    <rc><c>Si</c><c>   2</c></rc>
    <rc><c>Si</c><c>   2</c></rc>
    <rc><c>Si</c><c>   2</c></rc>
    <rc><c>Si</c><c>   2</c></rc>
    <rc><c>Si</c><c>   2</c></rc>
    <rc><c>Si</c><c>   2</c></rc>
    <rc><c>Si</c><c>   2</c></rc>
    <rc><c>Si</c><c>   2</c></rc>
    <rc><c>Si</c><c>   2</c></rc>
    <rc><c>Si</c><c>   2</c></rc>
    <rc><c>Si</c><c>   2</c></rc>
    <rc><c>Si</c><c>   2</c></rc>
    <rc><c>Si</c><c>   2</c></rc>
    <rc><c>Si</c><c>   2</c></rc>
    <rc><c>Si</c><c>   2</c></rc>
    <rc><c>Si</c><c>   2</c></rc>
    <rc><c>Si</c><c>   2</c></rc>
    <rc><c>Si</c><c>   2</c></rc>
    <rc><c>Si</c><c>   2</c></rc>
    <rc><c>Si</c><c>   2</c></rc>
    <rc><c>Si</c><c>   2</c></rc>
    <rc><c>Si</c><c>   2</c></rc>
   </set>
  </array>
  <array name="atomtypes" >
   <dimension dim="1">type</dimension>
   <field type="int">atomspertype</field>
   <field type="string">element</field>
   <field>mass</field>
   <field>valence</field>
   <field type="string">pseudopotential</field>
   <set>
    <rc><c> 108</c><c>Ge</c><c>     72.61000000</c><c>      4.00000000</c><c>  PAW_PBE Ge 05Jan2001                  </c></rc>
    <rc><c> 120</c><c>Si</c><c>     28.08500000</c><c>      4.00000000</c><c>  PAW_PBE Si 05Jan2001                  </c></rc>
   </set>
  </array>
 </atominfo>
 <structure name="initialpos" >
  <crystal>
   <varray name="basis" >
    <v>      16.97340012       0.00000000       0.00000000 </v>
    <v>       0.00000000      16.97340012       0.00000000 </v>
    <v>       0.00000000       0.00000000      17.86100006 </v>
   </varray>
   <i name="volume">   5145.68823724 </i>
   <varray name="rec_basis" >
    <v>       0.05891571       0.00000000       0.00000000 </v>
    <v>       0.00000000       0.05891571       0.00000000 </v>
    <v>       0.00000000       0.00000000       0.05598791 </v>
   </varray>
  </crystal>
  <varray name="positions" >
   <v>       0.99430549       0.66666657       0.00000000 </v>
   <v>       0.82763886       0.66666657       0.15838417 </v>
   <v>       0.66097212       0.66666657       0.31676838 </v>
   <v>       0.99430549       0.33333328       0.00000000 </v>
   <v>       0.82763886       0.33333328       0.15838417 </v>
   <v>       0.66097212       0.33333328       0.31676838 </v>
   <v>       0.99430549       0.00000000       0.00000000 </v>
   <v>       0.82763886       0.00000000       0.15838417 </v>
   <v>       0.66097212       0.00000000       0.31676838 </v>
   <v>       0.32763880       0.66666657       0.00000000 </v>
   <v>       0.16097215       0.66666657       0.15838417 </v>
   <v>       0.99430543       0.66666657       0.31676838 </v>
   <v>       0.32763880       0.33333328       0.00000000 </v>
   <v>       0.16097215       0.33333328       0.15838417 </v>
   <v>       0.99430543       0.33333328       0.31676838 </v>
   <v>       0.32763880       0.00000000       0.00000000 </v>
   <v>       0.16097215       0.00000000       0.15838417 </v>
   <v>       0.99430543       0.00000000       0.31676838 </v>
   <v>       0.66097212       0.66666657       0.00000000 </v>
   <v>       0.49430543       0.66666657       0.15838417 </v>
   <v>       0.32763875       0.66666657       0.31676838 </v>
   <v>       0.66097212       0.33333328       0.00000000 </v>
   <v>       0.49430543       0.33333328       0.15838417 </v>
   <v>       0.32763875       0.33333328       0.31676838 </v>
   <v>       0.66097212       0.00000000       0.00000000 </v>
   <v>       0.49430543       0.00000000       0.15838417 </v>
   <v>       0.32763875       0.00000000       0.31676838 </v>
   <v>       0.07763884       0.91666657       0.07919210 </v>
   <v>       0.91097212       0.91666657       0.23757629 </v>
   <v>       0.74430549       0.91666657       0.39596048 </v>
   <v>       0.07763884       0.58333331       0.07919210 </v>
   <v>       0.91097212       0.58333331       0.23757629 </v>
   <v>       0.74430549       0.58333331       0.39596048 </v>
   <v>       0.07763884       0.24999995       0.07919210 </v>
   <v>       0.91097212       0.24999995       0.23757629 </v>
   <v>       0.74430549       0.24999995       0.39596048 </v>
   <v>       0.41097209       0.91666657       0.07919210 </v>
   <v>       0.24430542       0.91666657       0.23757629 </v>
   <v>       0.07763872       0.91666657       0.39596048 </v>
   <v>       0.41097209       0.58333331       0.07919210 </v>
   <v>       0.24430542       0.58333331       0.23757629 </v>
   <v>       0.07763872       0.58333331       0.39596048 </v>
   <v>       0.41097209       0.24999995       0.07919210 </v>
   <v>       0.24430542       0.24999995       0.23757629 </v>
   <v>       0.07763872       0.24999995       0.39596048 </v>
   <v>       0.74430549       0.91666657       0.07919210 </v>
   <v>       0.57763875       0.91666657       0.23757629 </v>
   <v>       0.41097206       0.91666657       0.39596048 </v>
   <v>       0.74430549       0.58333331       0.07919210 </v>
   <v>       0.57763875       0.58333331       0.23757629 </v>
   <v>       0.41097206       0.58333331       0.39596048 </v>
   <v>       0.74430549       0.24999995       0.07919210 </v>
   <v>       0.57763875       0.24999995       0.23757629 </v>
   <v>       0.41097206       0.24999995       0.39596048 </v>
   <v>       0.16097216       0.83333319       0.00000000 </v>
   <v>       0.99430549       0.83333319       0.15838417 </v>
   <v>       0.82763880       0.83333319       0.31676838 </v>
   <v>       0.16097216       0.49999991       0.00000000 </v>
   <v>       0.99430549       0.49999991       0.15838417 </v>
   <v>       0.82763880       0.49999991       0.31676838 </v>
   <v>       0.16097216       0.16666664       0.00000000 </v>
   <v>       0.99430549       0.16666664       0.15838417 </v>
   <v>       0.82763880       0.16666664       0.31676838 </v>
   <v>       0.49430543       0.83333319       0.00000000 </v>
   <v>       0.32763875       0.83333319       0.15838417 </v>
   <v>       0.16097207       0.83333319       0.31676838 </v>
   <v>       0.49430543       0.49999991       0.00000000 </v>
   <v>       0.32763875       0.49999991       0.15838417 </v>
   <v>       0.16097207       0.49999991       0.31676838 </v>
   <v>       0.49430543       0.16666664       0.00000000 </v>
   <v>       0.32763875       0.16666664       0.15838417 </v>
   <v>       0.16097207       0.16666664       0.31676838 </v>
   <v>       0.82763880       0.83333319       0.00000000 </v>
   <v>       0.66097212       0.83333319       0.15838417 </v>
   <v>       0.49430543       0.83333319       0.31676838 </v>
   <v>       0.82763880       0.49999991       0.00000000 </v>
   <v>       0.66097212       0.49999991       0.15838417 </v>
   <v>       0.49430543       0.49999991       0.31676838 </v>
   <v>       0.82763880       0.16666664       0.00000000 </v>
   <v>       0.66097212       0.16666664       0.15838417 </v>
   <v>       0.49430543       0.16666664       0.31676838 </v>
   <v>       0.24430546       0.74999988       0.07919210 </v>
   <v>       0.07763878       0.74999988       0.23757629 </v>
   <v>       0.91097212       0.74999988       0.39596048 </v>
   <v>       0.24430546       0.41666663       0.07919210 </v>
   <v>       0.07763878       0.41666663       0.23757629 </v>
   <v>       0.91097212       0.41666663       0.39596048 </v>
   <v>       0.24430546       0.08333333       0.07919210 </v>
   <v>       0.07763878       0.08333333       0.23757629 </v>
   <v>       0.91097212       0.08333333       0.39596048 </v>
   <v>       0.57763886       0.74999988       0.07919210 </v>
   <v>       0.41097215       0.74999988       0.23757629 </v>
   <v>       0.24430545       0.74999988       0.39596048 </v>
   <v>       0.57763886       0.41666663       0.07919210 </v>
   <v>       0.41097215       0.41666663       0.23757629 </v>
   <v>       0.24430545       0.41666663       0.39596048 </v>
   <v>       0.57763886       0.08333333       0.07919210 </v>
   <v>       0.41097215       0.08333333       0.23757629 </v>
   <v>       0.24430545       0.08333333       0.39596048 </v>
   <v>       0.91097218       0.74999988       0.07919210 </v>
   <v>       0.74430549       0.74999988       0.23757629 </v>
   <v>       0.57763875       0.74999988       0.39596048 </v>
   <v>       0.91097218       0.41666663       0.07919210 </v>
   <v>       0.74430549       0.41666663       0.23757629 </v>
   <v>       0.57763875       0.41666663       0.39596048 </v>
   <v>       0.91097218       0.08333333       0.07919210 </v>
   <v>       0.74430549       0.08333333       0.23757629 </v>
   <v>       0.57763875       0.08333333       0.39596048 </v>
   <v>       0.74196649       0.24110293       0.50793630 </v>
   <v>       0.69196653       0.89110279       0.65997148 </v>
   <v>       0.64196634       0.54110265       0.81200671 </v>
   <v>       0.84196651       0.94110292       0.50793630 </v>
   <v>       0.79196650       0.59110284       0.65997148 </v>
   <v>       0.74196637       0.24110270       0.81200671 </v>
   <v>       0.94196653       0.64110285       0.50793630 </v>
   <v>       0.89196646       0.29110280       0.65997148 </v>
   <v>       0.84196639       0.94110262       0.81200671 </v>
   <v>       0.04196656       0.34110284       0.50793630 </v>
   <v>       0.99196643       0.99110281       0.65997148 </v>
   <v>       0.94196635       0.64110261       0.81200671 </v>
   <v>       0.14196658       0.04110289       0.50793630 </v>
   <v>       0.09196651       0.69110274       0.65997148 </v>
   <v>       0.04196644       0.34110266       0.81200671 </v>
   <v>       0.24196649       0.74110287       0.50793630 </v>
   <v>       0.19196641       0.39110279       0.65997148 </v>
   <v>       0.14196634       0.04110265       0.81200671 </v>
   <v>       0.34196651       0.44110283       0.50793630 </v>
   <v>       0.29196644       0.09110284       0.65997148 </v>
   <v>       0.24196637       0.74110264       0.81200671 </v>
   <v>       0.44196665       0.14110303       0.50793630 </v>
   <v>       0.39196658       0.79110283       0.65997148 </v>
   <v>       0.34196651       0.44110274       0.81200671 </v>
   <v>       0.54196656       0.84110290       0.50793630 </v>
   <v>       0.49196649       0.49110281       0.65997148 </v>
   <v>       0.44196641       0.14110267       0.81200671 </v>
   <v>       0.64196658       0.54110289       0.50793630 </v>
   <v>       0.59196663       0.19110274       0.65997148 </v>
   <v>       0.54196644       0.84110266       0.81200671 </v>
   <v>       0.74196649       0.49110287       0.58395392 </v>
   <v>       0.69196641       0.14110279       0.73598909 </v>
   <v>       0.64196634       0.79110265       0.88802421 </v>
   <v>       0.84196651       0.19110274       0.58395392 </v>
   <v>       0.79196644       0.84110272       0.73598909 </v>
   <v>       0.74196637       0.49110258       0.88802421 </v>
   <v>       0.94196653       0.89110285       0.58395392 </v>
   <v>       0.89196646       0.54110277       0.73598909 </v>
   <v>       0.84196639       0.19110274       0.88802421 </v>
   <v>       0.04196656       0.59110284       0.58395392 </v>
   <v>       0.99196649       0.24110270       0.73598909 </v>
   <v>       0.94196641       0.89110267       0.88802421 </v>
   <v>       0.14196658       0.29110283       0.58395392 </v>
   <v>       0.09196639       0.94110274       0.73598909 </v>
   <v>       0.04196644       0.59110266       0.88802421 </v>
   <v>       0.24196661       0.99110287       0.58395392 </v>
   <v>       0.19196653       0.64110279       0.73598909 </v>
   <v>       0.14196646       0.29110271       0.88802421 </v>
   <v>       0.34196651       0.69110274       0.58395392 </v>
   <v>       0.29196644       0.34110269       0.73598909 </v>
   <v>       0.24196637       0.99110264       0.88802421 </v>
   <v>       0.44196665       0.39110285       0.58395392 </v>
   <v>       0.39196658       0.04110277       0.73598909 </v>
   <v>       0.34196651       0.69110268       0.88802421 </v>
   <v>       0.54196668       0.09110284       0.58395392 </v>
   <v>       0.49196649       0.74110276       0.73598909 </v>
   <v>       0.44196653       0.39110267       0.88802421 </v>
   <v>       0.64196658       0.79110283       0.58395392 </v>
   <v>       0.59196651       0.44110274       0.73598909 </v>
   <v>       0.54196644       0.09110260       0.88802421 </v>
   <v>       0.74196649       0.74110287       0.50793630 </v>
   <v>       0.69196653       0.39110279       0.65997148 </v>
   <v>       0.64196634       0.04110265       0.81200671 </v>
   <v>       0.84196651       0.44110286       0.50793630 </v>
   <v>       0.79196644       0.09110284       0.65997148 </v>
   <v>       0.74196637       0.74110264       0.81200671 </v>
   <v>       0.94196653       0.14110279       0.50793630 </v>
   <v>       0.89196646       0.79110277       0.65997148 </v>
   <v>       0.84196639       0.44110262       0.81200671 </v>
   <v>       0.04196656       0.84110284       0.50793630 </v>
   <v>       0.99196649       0.49110279       0.65997148 </v>
   <v>       0.94196641       0.14110267       0.81200671 </v>
   <v>       0.14196658       0.54110289       0.50793630 </v>
   <v>       0.09196651       0.19110274       0.65997148 </v>
   <v>       0.04196644       0.84110266       0.81200671 </v>
   <v>       0.24196649       0.24110281       0.50793630 </v>
   <v>       0.19196653       0.89110273       0.65997148 </v>
   <v>       0.14196634       0.54110259       0.81200671 </v>
   <v>       0.34196651       0.94110286       0.50793630 </v>
   <v>       0.29196644       0.59110278       0.65997148 </v>
   <v>       0.24196637       0.24110270       0.81200671 </v>
   <v>       0.44196653       0.64110279       0.50793630 </v>
   <v>       0.39196646       0.29110274       0.65997148 </v>
   <v>       0.34196639       0.94110262       0.81200671 </v>
   <v>       0.54196656       0.34110284       0.50793630 </v>
   <v>       0.49196649       0.99110270       0.65997148 </v>
   <v>       0.44196641       0.64110261       0.81200671 </v>
   <v>       0.64196658       0.04110289       0.50793630 </v>
   <v>       0.59196663       0.69110280       0.65997148 </v>
   <v>       0.54196644       0.34110266       0.81200671 </v>
   <v>       0.74196649       0.99110293       0.58395392 </v>
   <v>       0.69196641       0.64110279       0.73598909 </v>
   <v>       0.64196634       0.29110274       0.88802421 </v>
   <v>       0.84196651       0.69110286       0.58395392 </v>
   <v>       0.79196644       0.34110275       0.73598909 </v>
   <v>       0.74196637       0.99110270       0.88802421 </v>
   <v>       0.94196653       0.39110285       0.58395392 </v>
   <v>       0.89196646       0.04110277       0.73598909 </v>
   <v>       0.84196639       0.69110268       0.88802421 </v>
   <v>       0.04196656       0.09110284       0.58395392 </v>
   <v>       0.99196649       0.74110276       0.73598909 </v>
   <v>       0.94196641       0.39110267       0.88802421 </v>
   <v>       0.14196658       0.79110295       0.58395392 </v>
   <v>       0.09196651       0.44110283       0.73598909 </v>
   <v>       0.04196644       0.09110284       0.88802421 </v>
   <v>       0.24196649       0.49110281       0.58395392 </v>
   <v>       0.19196653       0.14110279       0.73598909 </v>
   <v>       0.14196634       0.79110265       0.88802421 </v>
   <v>       0.34196663       0.19110286       0.58395392 </v>
   <v>       0.29196644       0.84110278       0.73598909 </v>
   <v>       0.24196649       0.49110270       0.88802421 </v>
   <v>       0.44196653       0.89110291       0.58395392 </v>
   <v>       0.39196658       0.54110277       0.73598909 </v>
   <v>       0.34196639       0.19110274       0.88802421 </v>
   <v>       0.54196644       0.59110284       0.58395392 </v>
   <v>       0.49196649       0.24110270       0.73598909 </v>
   <v>       0.44196630       0.89110267       0.88802421 </v>
   <v>       0.64196658       0.29110283       0.58395392 </v>
   <v>       0.59196639       0.94110274       0.73598909 </v>
   <v>       0.54196644       0.59110260       0.88802421 </v>
  </varray>
 </structure>
 <calculation>
  <scstep>
   <time name="dav">  113.54  114.50</time>
   <time name="total">  116.09  117.06</time>
   <energy>
    <i name="alphaZ">   1093.62735331 </i>
    <i name="ewald"> -24081.07626433 </i>
    <i name="hartreedc">  -2281.42090384 </i>
    <i name="XCdc">  -1946.90919688 </i>
    <i name="pawpsdc">  20094.53666134 </i>
    <i name="pawaedc"> -16418.68521354 </i>
    <i name="eentropy">     -0.00362831 </i>
    <i name="bandstr">   3640.06852862 </i>
    <i name="atom">  23707.55310521 </i>
    <i name="e_fr_energy">   3807.69044160 </i>
    <i name="e_wo_entrp">   3807.69406990 </i>
    <i name="e_0_energy">   3807.69225575 </i>
   </energy>
  </scstep>
  <scstep>
   <time name="dav">  127.68  128.73</time>
   <time name="total">  127.68  128.73</time>
   <energy>
    <i name="e_fr_energy">   -639.88634123 </i>
    <i name="e_wo_entrp">   -639.88363085 </i>
    <i name="e_0_energy">   -639.88498604 </i>
   </energy>
  </scstep>
  <scstep>
   <time name="dav">  133.96  135.17</time>
   <time name="total">  133.96  135.17</time>
   <energy>
    <i name="e_fr_energy">  -1066.52510623 </i>
    <i name="e_wo_entrp">  -1066.52081379 </i>
    <i name="e_0_energy">  -1066.52296001 </i>
   </energy>
  </scstep>
  <scstep>
   <time name="dav">  130.79  132.42</time>
   <time name="total">  130.79  132.42</time>
   <energy>
    <i name="e_fr_energy">  -1082.87613262 </i>
    <i name="e_wo_entrp">  -1082.87136710 </i>
    <i name="e_0_energy">  -1082.87374986 </i>
   </energy>
  </scstep>
  <scstep>
   <time name="dav">  143.74  144.94</time>
   <time name="total">  148.28  149.57</time>
   <energy>
    <i name="e_fr_energy">  -1083.53125215 </i>
    <i name="e_wo_entrp">  -1083.52652048 </i>
    <i name="e_0_energy">  -1083.52888631 </i>
   </energy>
  </scstep>
  <scstep>
   <time name="dav">  133.67  134.78</time>
   <time name="total">  140.73  142.01</time>
   <energy>
    <i name="e_fr_energy">  -1064.87478201 </i>
    <i name="e_wo_entrp">  -1064.87184067 </i>
    <i name="e_0_energy">  -1064.87331134 </i>
   </energy>
  </scstep>
  <scstep>
   <time name="dav">  129.59  130.65</time>
   <time name="total">  136.67  137.79</time>
   <energy>
    <i name="e_fr_energy">  -1064.36952792 </i>
    <i name="e_wo_entrp">  -1064.36684298 </i>
    <i name="e_0_energy">  -1064.36818545 </i>
   </energy>
  </scstep>
  <scstep>
   <time name="dav">  127.74  128.78</time>
   <time name="total">  134.81  135.90</time>
   <energy>
    <i name="e_fr_energy">  -1063.55677750 </i>
    <i name="e_wo_entrp">  -1063.55294741 </i>
    <i name="e_0_energy">  -1063.55486245 </i>
   </energy>
  </scstep>
  <scstep>
   <time name="dav">  131.76  132.94</time>
   <time name="total">  138.81  140.06</time>
   <energy>
    <i name="e_fr_energy">  -1063.55251253 </i>
    <i name="e_wo_entrp">  -1063.54895226 </i>
    <i name="e_0_energy">  -1063.55073239 </i>
   </energy>
  </scstep>
  <scstep>
   <time name="dav">  130.12  131.29</time>
   <time name="total">  137.21  138.51</time>
   <energy>
    <i name="e_fr_energy">  -1063.53547375 </i>
    <i name="e_wo_entrp">  -1063.53161939 </i>
    <i name="e_0_energy">  -1063.53354657 </i>
   </energy>
  </scstep>
  <scstep>
   <time name="dav">  132.63  133.71</time>
   <time name="total">  139.75  140.89</time>
   <energy>
    <i name="e_fr_energy">  -1063.53596117 </i>
    <i name="e_wo_entrp">  -1063.53223778 </i>
    <i name="e_0_energy">  -1063.53409947 </i>
   </energy>
  </scstep>
  <scstep>
   <time name="dav">  133.51  134.61</time>
   <time name="total">  140.63  141.79</time>
   <energy>
    <i name="e_fr_energy">  -1063.53321424 </i>
    <i name="e_wo_entrp">  -1063.52948267 </i>
    <i name="e_0_energy">  -1063.53134846 </i>
   </energy>
  </scstep>
  <scstep>
   <time name="dav">  124.22  125.54</time>
   <time name="total">  131.34  132.72</time>
   <energy>
    <i name="e_fr_energy">  -1063.53331262 </i>
    <i name="e_wo_entrp">  -1063.52956036 </i>
    <i name="e_0_energy">  -1063.53143649 </i>
   </energy>
  </scstep>
  <scstep>
   <time name="dav">  126.10  127.13</time>
   <time name="total">  133.16  134.24</time>
   <energy>
    <i name="e_fr_energy">  -1063.53336765 </i>
    <i name="e_wo_entrp">  -1063.52961607 </i>
    <i name="e_0_energy">  -1063.53149186 </i>
   </energy>
  </scstep>
  <scstep>
   <time name="dav">  125.89  126.89</time>
   <time name="total">  132.95  134.00</time>
   <energy>
    <i name="e_fr_energy">  -1063.53338089 </i>
    <i name="e_wo_entrp">  -1063.52964329 </i>
    <i name="e_0_energy">  -1063.53151209 </i>
   </energy>
  </scstep>
  <scstep>
   <time name="dav">  126.07  127.08</time>
   <time name="total">  133.12  134.18</time>
   <energy>
    <i name="e_fr_energy">  -1063.53338732 </i>
    <i name="e_wo_entrp">  -1063.52964410 </i>
    <i name="e_0_energy">  -1063.53151571 </i>
   </energy>
  </scstep>
  <scstep>
   <time name="dav">  126.27  127.28</time>
   <time name="total">  133.32  134.38</time>
   <energy>
    <i name="e_fr_energy">  -1063.53338876 </i>
    <i name="e_wo_entrp">  -1063.52964213 </i>
    <i name="e_0_energy">  -1063.53151545 </i>
   </energy>
  </scstep>
  <scstep>
   <time name="dav">  121.75  122.72</time>
   <time name="total">  128.78  129.81</time>
   <energy>
    <i name="e_fr_energy">  -1063.53339058 </i>
    <i name="e_wo_entrp">  -1063.52964503 </i>
    <i name="e_0_energy">  -1063.53151780 </i>
   </energy>
  </scstep>
  <scstep>
   <time name="dav">  126.26  127.27</time>
   <time name="total">  133.34  134.40</time>
   <energy>
    <i name="e_fr_energy">  -1063.53339248 </i>
    <i name="e_wo_entrp">  -1063.52964765 </i>
    <i name="e_0_energy">  -1063.53152007 </i>
   </energy>
  </scstep>
  <scstep>
   <time name="dav">   88.55   89.25</time>
   <time name="total">   95.61   96.37</time>
   <energy>
    <i name="e_fr_energy">  -1063.53339381 </i>
    <i name="e_wo_entrp">  -1063.52964882 </i>
    <i name="e_0_energy">  -1063.53152131 </i>
   </energy>
  </scstep>
  <scstep>
   <time name="dav">   78.40   79.03</time>
   <time name="total">   85.45   86.13</time>
   <energy>
    <i name="e_fr_energy">  -1063.53339440 </i>
    <i name="e_wo_entrp">  -1063.52964932 </i>
    <i name="e_0_energy">  -1063.53152186 </i>
   </energy>
  </scstep>
  <scstep>
   <time name="dav">   77.27   77.89</time>
   <time name="total">   84.35   85.02</time>
   <energy>
    <i name="e_fr_energy">  -1063.53339462 </i>
    <i name="e_wo_entrp">  -1063.52964962 </i>
    <i name="e_0_energy">  -1063.53152212 </i>
   </energy>
  </scstep>
  <scstep>
   <time name="dav">   77.04   77.67</time>
   <time name="total">   79.56   80.20</time>
   <energy>
    <i name="alphaZ">   1093.62735331 </i>
    <i name="ewald"> -24081.07626433 </i>
    <i name="hartreedc">  -2643.35500400 </i>
    <i name="XCdc">  -1886.95187760 </i>
    <i name="pawpsdc">  70660.76044281 </i>
    <i name="pawaedc"> -67012.98088431 </i>
    <i name="eentropy">     -0.00374496 </i>
    <i name="bandstr">   -901.10652080 </i>
    <i name="atom">  23707.55310521 </i>
    <i name="e_fr_energy">  -1063.53339467 </i>
    <i name="e_wo_entrp">  -1063.52964972 </i>
    <i name="e_0_energy">  -1063.53152219 </i>
   </energy>
  </scstep>
  <structure>
   <crystal>
    <varray name="basis" >
     <v>      16.97340012       0.00000000       0.00000000 </v>
     <v>       0.00000000      16.97340012       0.00000000 </v>
     <v>       0.00000000       0.00000000      17.86100006 </v>
    </varray>
    <i name="volume">   5145.68823724 </i>
    <varray name="rec_basis" >
     <v>       0.05891571       0.00000000       0.00000000 </v>
     <v>       0.00000000       0.05891571       0.00000000 </v>
     <v>       0.00000000       0.00000000       0.05598791 </v>
    </varray>
   </crystal>
   <varray name="positions" >
    <v>       0.99430549       0.66666657       0.00000000 </v>
    <v>       0.82763886       0.66666657       0.15838417 </v>
    <v>       0.66097212       0.66666657       0.31676838 </v>
    <v>       0.99430549       0.33333328       0.00000000 </v>
    <v>       0.82763886       0.33333328       0.15838417 </v>
    <v>       0.66097212       0.33333328       0.31676838 </v>
    <v>       0.99430549       0.00000000       0.00000000 </v>
    <v>       0.82763886       0.00000000       0.15838417 </v>
    <v>       0.66097212       0.00000000       0.31676838 </v>
    <v>       0.32763880       0.66666657       0.00000000 </v>
    <v>       0.16097215       0.66666657       0.15838417 </v>
    <v>       0.99430543       0.66666657       0.31676838 </v>
    <v>       0.32763880       0.33333328       0.00000000 </v>
    <v>       0.16097215       0.33333328       0.15838417 </v>
    <v>       0.99430543       0.33333328       0.31676838 </v>
    <v>       0.32763880       0.00000000       0.00000000 </v>
    <v>       0.16097215       0.00000000       0.15838417 </v>
    <v>       0.99430543       0.00000000       0.31676838 </v>
    <v>       0.66097212       0.66666657       0.00000000 </v>
    <v>       0.49430543       0.66666657       0.15838417 </v>
    <v>       0.32763875       0.66666657       0.31676838 </v>
    <v>       0.66097212       0.33333328       0.00000000 </v>
    <v>       0.49430543       0.33333328       0.15838417 </v>
    <v>       0.32763875       0.33333328       0.31676838 </v>
    <v>       0.66097212       0.00000000       0.00000000 </v>
    <v>       0.49430543       0.00000000       0.15838417 </v>
    <v>       0.32763875       0.00000000       0.31676838 </v>
    <v>       0.07763884       0.91666657       0.07919210 </v>
    <v>       0.91097212       0.91666657       0.23757629 </v>
    <v>       0.74430549       0.91666657       0.39596048 </v>
    <v>       0.07763884       0.58333331       0.07919210 </v>
    <v>       0.91097212       0.58333331       0.23757629 </v>
    <v>       0.74430549       0.58333331       0.39596048 </v>
    <v>       0.07763884       0.24999995       0.07919210 </v>
    <v>       0.91097212       0.24999995       0.23757629 </v>
    <v>       0.74430549       0.24999995       0.39596048 </v>
    <v>       0.41097209       0.91666657       0.07919210 </v>
    <v>       0.24430542       0.91666657       0.23757629 </v>
    <v>       0.07763872       0.91666657       0.39596048 </v>
    <v>       0.41097209       0.58333331       0.07919210 </v>
    <v>       0.24430542       0.58333331       0.23757629 </v>
    <v>       0.07763872       0.58333331       0.39596048 </v>
    <v>       0.41097209       0.24999995       0.07919210 </v>
    <v>       0.24430542       0.24999995       0.23757629 </v>
    <v>       0.07763872       0.24999995       0.39596048 </v>
    <v>       0.74430549       0.91666657       0.07919210 </v>
    <v>       0.57763875       0.91666657       0.23757629 </v>
    <v>       0.41097206       0.91666657       0.39596048 </v>
    <v>       0.74430549       0.58333331       0.07919210 </v>
    <v>       0.57763875       0.58333331       0.23757629 </v>
    <v>       0.41097206       0.58333331       0.39596048 </v>
    <v>       0.74430549       0.24999995       0.07919210 </v>
    <v>       0.57763875       0.24999995       0.23757629 </v>
    <v>       0.41097206       0.24999995       0.39596048 </v>
    <v>       0.16097216       0.83333319       0.00000000 </v>
    <v>       0.99430549       0.83333319       0.15838417 </v>
    <v>       0.82763880       0.83333319       0.31676838 </v>
    <v>       0.16097216       0.49999991       0.00000000 </v>
    <v>       0.99430549       0.49999991       0.15838417 </v>
    <v>       0.82763880       0.49999991       0.31676838 </v>
    <v>       0.16097216       0.16666664       0.00000000 </v>
    <v>       0.99430549       0.16666664       0.15838417 </v>
    <v>       0.82763880       0.16666664       0.31676838 </v>
    <v>       0.49430543       0.83333319       0.00000000 </v>
    <v>       0.32763875       0.83333319       0.15838417 </v>
    <v>       0.16097207       0.83333319       0.31676838 </v>
    <v>       0.49430543       0.49999991       0.00000000 </v>
    <v>       0.32763875       0.49999991       0.15838417 </v>
    <v>       0.16097207       0.49999991       0.31676838 </v>
    <v>       0.49430543       0.16666664       0.00000000 </v>
    <v>       0.32763875       0.16666664       0.15838417 </v>
    <v>       0.16097207       0.16666664       0.31676838 </v>
    <v>       0.82763880       0.83333319       0.00000000 </v>
    <v>       0.66097212       0.83333319       0.15838417 </v>
    <v>       0.49430543       0.83333319       0.31676838 </v>
    <v>       0.82763880       0.49999991       0.00000000 </v>
    <v>       0.66097212       0.49999991       0.15838417 </v>
    <v>       0.49430543       0.49999991       0.31676838 </v>
    <v>       0.82763880       0.16666664       0.00000000 </v>
    <v>       0.66097212       0.16666664       0.15838417 </v>
    <v>       0.49430543       0.16666664       0.31676838 </v>
    <v>       0.24430546       0.74999988       0.07919210 </v>
    <v>       0.07763878       0.74999988       0.23757629 </v>
    <v>       0.91097212       0.74999988       0.39596048 </v>
    <v>       0.24430546       0.41666663       0.07919210 </v>
    <v>       0.07763878       0.41666663       0.23757629 </v>
    <v>       0.91097212       0.41666663       0.39596048 </v>
    <v>       0.24430546       0.08333333       0.07919210 </v>
    <v>       0.07763878       0.08333333       0.23757629 </v>
    <v>       0.91097212       0.08333333       0.39596048 </v>
    <v>       0.57763886       0.74999988       0.07919210 </v>
    <v>       0.41097215       0.74999988       0.23757629 </v>
    <v>       0.24430545       0.74999988       0.39596048 </v>
    <v>       0.57763886       0.41666663       0.07919210 </v>
    <v>       0.41097215       0.41666663       0.23757629 </v>
    <v>       0.24430545       0.41666663       0.39596048 </v>
    <v>       0.57763886       0.08333333       0.07919210 </v>
    <v>       0.41097215       0.08333333       0.23757629 </v>
    <v>       0.24430545       0.08333333       0.39596048 </v>
    <v>       0.91097218       0.74999988       0.07919210 </v>
    <v>       0.74430549       0.74999988       0.23757629 </v>
    <v>       0.57763875       0.74999988       0.39596048 </v>
    <v>       0.91097218       0.41666663       0.07919210 </v>
    <v>       0.74430549       0.41666663       0.23757629 </v>
    <v>       0.57763875       0.41666663       0.39596048 </v>
    <v>       0.91097218       0.08333333       0.07919210 </v>
    <v>       0.74430549       0.08333333       0.23757629 </v>
    <v>       0.57763875       0.08333333       0.39596048 </v>
    <v>       0.74196649       0.24110293       0.50793630 </v>
    <v>       0.69196653       0.89110279       0.65997148 </v>
    <v>       0.64196634       0.54110265       0.81200671 </v>
    <v>       0.84196651       0.94110292       0.50793630 </v>
    <v>       0.79196650       0.59110284       0.65997148 </v>
    <v>       0.74196637       0.24110270       0.81200671 </v>
    <v>       0.94196653       0.64110285       0.50793630 </v>
    <v>       0.89196646       0.29110280       0.65997148 </v>
    <v>       0.84196639       0.94110262       0.81200671 </v>
    <v>       0.04196656       0.34110284       0.50793630 </v>
    <v>       0.99196643       0.99110281       0.65997148 </v>
    <v>       0.94196635       0.64110261       0.81200671 </v>
    <v>       0.14196658       0.04110289       0.50793630 </v>
    <v>       0.09196651       0.69110274       0.65997148 </v>
    <v>       0.04196644       0.34110266       0.81200671 </v>
    <v>       0.24196649       0.74110287       0.50793630 </v>
    <v>       0.19196641       0.39110279       0.65997148 </v>
    <v>       0.14196634       0.04110265       0.81200671 </v>
    <v>       0.34196651       0.44110283       0.50793630 </v>
    <v>       0.29196644       0.09110284       0.65997148 </v>
    <v>       0.24196637       0.74110264       0.81200671 </v>
    <v>       0.44196665       0.14110303       0.50793630 </v>
    <v>       0.39196658       0.79110283       0.65997148 </v>
    <v>       0.34196651       0.44110274       0.81200671 </v>
    <v>       0.54196656       0.84110290       0.50793630 </v>
    <v>       0.49196649       0.49110281       0.65997148 </v>
    <v>       0.44196641       0.14110267       0.81200671 </v>
    <v>       0.64196658       0.54110289       0.50793630 </v>
    <v>       0.59196663       0.19110274       0.65997148 </v>
    <v>       0.54196644       0.84110266       0.81200671 </v>
    <v>       0.74196649       0.49110287       0.58395392 </v>
    <v>       0.69196641       0.14110279       0.73598909 </v>
    <v>       0.64196634       0.79110265       0.88802421 </v>
    <v>       0.84196651       0.19110274       0.58395392 </v>
    <v>       0.79196644       0.84110272       0.73598909 </v>
    <v>       0.74196637       0.49110258       0.88802421 </v>
    <v>       0.94196653       0.89110285       0.58395392 </v>
    <v>       0.89196646       0.54110277       0.73598909 </v>
    <v>       0.84196639       0.19110274       0.88802421 </v>
    <v>       0.04196656       0.59110284       0.58395392 </v>
    <v>       0.99196649       0.24110270       0.73598909 </v>
    <v>       0.94196641       0.89110267       0.88802421 </v>
    <v>       0.14196658       0.29110283       0.58395392 </v>
    <v>       0.09196639       0.94110274       0.73598909 </v>
    <v>       0.04196644       0.59110266       0.88802421 </v>
    <v>       0.24196661       0.99110287       0.58395392 </v>
    <v>       0.19196653       0.64110279       0.73598909 </v>
    <v>       0.14196646       0.29110271       0.88802421 </v>
    <v>       0.34196651       0.69110274       0.58395392 </v>
    <v>       0.29196644       0.34110269       0.73598909 </v>
    <v>       0.24196637       0.99110264       0.88802421 </v>
    <v>       0.44196665       0.39110285       0.58395392 </v>
    <v>       0.39196658       0.04110277       0.73598909 </v>
    <v>       0.34196651       0.69110268       0.88802421 </v>
    <v>       0.54196668       0.09110284       0.58395392 </v>
    <v>       0.49196649       0.74110276       0.73598909 </v>
    <v>       0.44196653       0.39110267       0.88802421 </v>
    <v>       0.64196658       0.79110283       0.58395392 </v>
    <v>       0.59196651       0.44110274       0.73598909 </v>
    <v>       0.54196644       0.09110260       0.88802421 </v>
    <v>       0.74196649       0.74110287       0.50793630 </v>
    <v>       0.69196653       0.39110279       0.65997148 </v>
    <v>       0.64196634       0.04110265       0.81200671 </v>
    <v>       0.84196651       0.44110286       0.50793630 </v>
    <v>       0.79196644       0.09110284       0.65997148 </v>
    <v>       0.74196637       0.74110264       0.81200671 </v>
    <v>       0.94196653       0.14110279       0.50793630 </v>
    <v>       0.89196646       0.79110277       0.65997148 </v>
    <v>       0.84196639       0.44110262       0.81200671 </v>
    <v>       0.04196656       0.84110284       0.50793630 </v>
    <v>       0.99196649       0.49110279       0.65997148 </v>
    <v>       0.94196641       0.14110267       0.81200671 </v>
    <v>       0.14196658       0.54110289       0.50793630 </v>
    <v>       0.09196651       0.19110274       0.65997148 </v>
    <v>       0.04196644       0.84110266       0.81200671 </v>
    <v>       0.24196649       0.24110281       0.50793630 </v>
    <v>       0.19196653       0.89110273       0.65997148 </v>
    <v>       0.14196634       0.54110259       0.81200671 </v>
    <v>       0.34196651       0.94110286       0.50793630 </v>
    <v>       0.29196644       0.59110278       0.65997148 </v>
    <v>       0.24196637       0.24110270       0.81200671 </v>
    <v>       0.44196653       0.64110279       0.50793630 </v>
    <v>       0.39196646       0.29110274       0.65997148 </v>
    <v>       0.34196639       0.94110262       0.81200671 </v>
    <v>       0.54196656       0.34110284       0.50793630 </v>
    <v>       0.49196649       0.99110270       0.65997148 </v>
    <v>       0.44196641       0.64110261       0.81200671 </v>
    <v>       0.64196658       0.04110289       0.50793630 </v>
    <v>       0.59196663       0.69110280       0.65997148 </v>
    <v>       0.54196644       0.34110266       0.81200671 </v>
    <v>       0.74196649       0.99110293       0.58395392 </v>
    <v>       0.69196641       0.64110279       0.73598909 </v>
    <v>       0.64196634       0.29110274       0.88802421 </v>
    <v>       0.84196651       0.69110286       0.58395392 </v>
    <v>       0.79196644       0.34110275       0.73598909 </v>
    <v>       0.74196637       0.99110270       0.88802421 </v>
    <v>       0.94196653       0.39110285       0.58395392 </v>
    <v>       0.89196646       0.04110277       0.73598909 </v>
    <v>       0.84196639       0.69110268       0.88802421 </v>
    <v>       0.04196656       0.09110284       0.58395392 </v>
    <v>       0.99196649       0.74110276       0.73598909 </v>
    <v>       0.94196641       0.39110267       0.88802421 </v>
    <v>       0.14196658       0.79110295       0.58395392 </v>
    <v>       0.09196651       0.44110283       0.73598909 </v>
    <v>       0.04196644       0.09110284       0.88802421 </v>
    <v>       0.24196649       0.49110281       0.58395392 </v>
    <v>       0.19196653       0.14110279       0.73598909 </v>
    <v>       0.14196634       0.79110265       0.88802421 </v>
    <v>       0.34196663       0.19110286       0.58395392 </v>
    <v>       0.29196644       0.84110278       0.73598909 </v>
    <v>       0.24196649       0.49110270       0.88802421 </v>
    <v>       0.44196653       0.89110291       0.58395392 </v>
    <v>       0.39196658       0.54110277       0.73598909 </v>
    <v>       0.34196639       0.19110274       0.88802421 </v>
    <v>       0.54196644       0.59110284       0.58395392 </v>
    <v>       0.49196649       0.24110270       0.73598909 </v>
    <v>       0.44196630       0.89110267       0.88802421 </v>
    <v>       0.64196658       0.29110283       0.58395392 </v>
    <v>       0.59196639       0.94110274       0.73598909 </v>
    <v>       0.54196644       0.59110260       0.88802421 </v>
   </varray>
  </structure>
  <varray name="forces" >
   <v>       0.50746403      -0.43360771      -0.99249793 </v>
   <v>      -0.00789881      -0.01378163       0.06417140 </v>
   <v>       0.25945891      -0.20043512      -0.07571593 </v>
   <v>      -0.33564098       0.44918143      -0.48495742 </v>
   <v>      -0.05329177       0.02660555       0.11654829 </v>
   <v>       0.13467864       0.00208130       0.36368716 </v>
   <v>      -0.04620760      -0.12680056      -2.16031094 </v>
   <v>      -0.02788370       0.02927979       0.05064293 </v>
   <v>      -0.12120827       0.38262638      -0.21960483 </v>
   <v>      -0.59543222      -0.95755607       3.93392478 </v>
   <v>       0.04506232      -0.02627734       0.13148721 </v>
   <v>       0.00489348       0.44554063      -0.13643293 </v>
   <v>       0.62190258      -0.61926182      -1.84325504 </v>
   <v>       0.00742769      -0.00757822       0.07791891 </v>
   <v>       0.02402600      -0.48161168      -0.11823716 </v>
   <v>      -0.36552544       0.86739804      -0.96288560 </v>
   <v>       0.03747971      -0.01791444       0.03612010 </v>
   <v>      -0.05921637      -0.00890038       0.39407521 </v>
   <v>      -0.69660340       0.60984322      -1.86707558 </v>
   <v>      -0.03187860       0.05765160       0.07134543 </v>
   <v>      -0.12761314       0.01099128       0.35564378 </v>
   <v>       0.58929963       0.94586869       1.87032842 </v>
   <v>       0.04884278      -0.05399438       0.05670459 </v>
   <v>      -0.27070098       0.16835401      -0.15640267 </v>
   <v>       0.22940093      -0.82385885      -0.68805369 </v>
   <v>      -0.01483194       0.01169335       0.08941988 </v>
   <v>       0.17457308      -0.30456263      -0.19105602 </v>
   <v>       0.10455891       0.03413247      -0.38211923 </v>
   <v>      -0.04683486      -0.02085518      -0.04693855 </v>
   <v>       0.52015073      -0.77809906       1.45168044 </v>
   <v>       0.01107999       0.49844436       0.19702742 </v>
[...]
       <r>     1.8699   104.6624   684.2011 </r>
       <r>     1.9233   116.2024   690.4074 </r>
       <r>     1.9767   130.0949   697.3558 </r>
       <r>     2.0301   110.2906   703.2465 </r>
       <r>     2.0835    89.5799   708.0309 </r>
       <r>     2.1369   124.6233   714.6871 </r>
       <r>     2.1903   192.9982   724.9951 </r>
       <r>     2.2437   131.6423   732.0261 </r>
       <r>     2.2972   133.0696   739.1334 </r>
       <r>     2.3506   115.2461   745.2887 </r>
       <r>     2.4040   136.0660   752.5560 </r>
       <r>     2.4574   133.3042   759.6757 </r>
       <r>     2.5108   111.8504   765.6497 </r>
       <r>     2.5642   101.7772   771.0856 </r>
       <r>     2.6176   161.4175   779.7069 </r>
       <r>     2.6710    93.2288   784.6863 </r>
       <r>     2.7244   124.6178   791.3421 </r>
       <r>     2.7778   115.4584   797.5088 </r>
       <r>     2.8313   116.4345   803.7276 </r>
       <r>     2.8847   154.3489   811.9713 </r>
       <r>     2.9381   129.7683   818.9023 </r>
       <r>     2.9915   119.1896   825.2682 </r>
       <r>     3.0449    66.9424   828.8436 </r>
       <r>     3.0983   114.1143   834.9385 </r>
       <r>     3.1517    73.6916   838.8744 </r>
       <r>     3.2051    78.5005   843.0671 </r>
       <r>     3.2585    49.2173   845.6958 </r>
       <r>     3.3119    93.2239   850.6749 </r>
       <r>     3.3654    89.2610   855.4423 </r>
       <r>     3.4188   110.2435   861.3304 </r>
       <r>     3.4722    92.3468   866.2626 </r>
       <r>     3.5256    58.1276   869.3672 </r>
       <r>     3.5790    92.7284   874.3199 </r>
       <r>     3.6324    44.0767   876.6740 </r>
       <r>     3.6858    31.4528   878.3539 </r>
       <r>     3.7392    78.5229   882.5478 </r>
       <r>     3.7926    54.0260   885.4334 </r>
       <r>     3.8460    73.3409   889.3505 </r>
       <r>     3.8995    23.0769   890.5831 </r>
       <r>     3.9529    38.4807   892.6383 </r>
       <r>     4.0063    79.9868   896.9104 </r>
       <r>     4.0597    34.7618   898.7671 </r>
       <r>     4.1131    24.4802   900.0745 </r>
       <r>     4.1665    42.5547   902.3474 </r>
       <r>     4.2199    50.4550   905.0422 </r>
       <r>     4.2733    77.6254   909.1882 </r>
       <r>     4.3267    51.1920   911.9224 </r>
       <r>     4.3801    69.2547   915.6213 </r>
       <r>     4.4336    70.6111   919.3926 </r>
       <r>     4.4870    51.9057   922.1649 </r>
       <r>     4.5404    52.6078   924.9747 </r>
       <r>     4.5938    90.1672   929.7905 </r>
       <r>     4.6472    39.5341   931.9021 </r>
       <r>     4.7006    73.4657   935.8259 </r>
       <r>     4.7540    94.6830   940.8829 </r>
       <r>     4.8074    54.6184   943.8001 </r>
       <r>     4.8608    80.7490   948.1129 </r>
       <r>     4.9142    99.1504   953.4085 </r>
       <r>     4.9677    75.7711   957.4555 </r>
       <r>     5.0211    81.2454   961.7948 </r>
       <r>     5.0745    78.9647   966.0123 </r>
       <r>     5.1279   108.6473   971.8151 </r>
       <r>     5.1813   106.2417   977.4895 </r>
       <r>     5.2347    79.3589   981.7281 </r>
       <r>     5.2881    71.2007   985.5309 </r>
       <r>     5.3415    84.8201   990.0612 </r>
       <r>     5.3949   106.4514   995.7467 </r>
       <r>     5.4483    70.4077   999.5072 </r>
       <r>     5.5018   134.7500  1006.7042 </r>
       <r>     5.5552    88.9582  1011.4554 </r>
       <r>     5.6086   101.5403  1016.8787 </r>
       <r>     5.6620   124.3910  1023.5225 </r>
       <r>     5.7154   105.7125  1029.1686 </r>
       <r>     5.7688    79.5250  1033.4161 </r>
       <r>     5.8222   114.8616  1039.5508 </r>
       <r>     5.8756   110.2466  1045.4391 </r>
       <r>     5.9290   128.8311  1052.3200 </r>
       <r>     5.9824   115.8729  1058.5087 </r>
       <r>     6.0359   115.0234  1064.6521 </r>
       <r>     6.0893   117.0859  1070.9057 </r>
       <r>     6.1427    58.3119  1074.0201 </r>
       <r>     6.1961   108.3336  1079.8062 </r>
       <r>     6.2495    90.5108  1084.6404 </r>
       <r>     6.3029    78.0659  1088.8099 </r>
       <r>     6.3563    78.0310  1092.9776 </r>
       <r>     6.4097    46.2687  1095.4488 </r>
       <r>     6.4631    10.3205  1096.0000 </r>
       <r>     6.5165     0.0000  1096.0000 </r>
       <r>     6.5700     0.0000  1096.0000 </r>
       <r>     6.6234     0.0000  1096.0000 </r>
       <r>     6.6768     0.0000  1096.0000 </r>
       <r>     6.7302     0.0000  1096.0000 </r>
       <r>     6.7836     0.0000  1096.0000 </r>
       <r>     6.8370     0.0000  1096.0000 </r>
       <r>     6.8904     0.0000  1096.0000 </r>
       <r>     6.9438     0.0000  1096.0000 </r>
       <r>     6.9972     0.0000  1096.0000 </r>
       <r>     7.0506     0.0000  1096.0000 </r>
       <r>     7.1041     0.0000  1096.0000 </r>
       <r>     7.1575     0.0000  1096.0000 </r>
      </set>
     </set>
    </array>
   </total>
  </dos>
 </calculation>
 <structure name="finalpos" >
  <crystal>
   <varray name="basis" >
    <v>      16.97340012       0.00000000       0.00000000 </v>
    <v>       0.00000000      16.97340012       0.00000000 </v>
    <v>       0.00000000       0.00000000      17.86100006 </v>
   </varray>
   <i name="volume">   5145.68823724 </i>
   <varray name="rec_basis" >
    <v>       0.05891571       0.00000000       0.00000000 </v>
    <v>       0.00000000       0.05891571       0.00000000 </v>
    <v>       0.00000000       0.00000000       0.05598791 </v>
   </varray>
  </crystal>
  <varray name="positions" >
   <v>       0.99430549       0.66666657       0.00000000 </v>
   <v>       0.82763886       0.66666657       0.15838417 </v>
   <v>       0.66097212       0.66666657       0.31676838 </v>
   <v>       0.99430549       0.33333328       0.00000000 </v>
   <v>       0.82763886       0.33333328       0.15838417 </v>
   <v>       0.66097212       0.33333328       0.31676838 </v>
   <v>       0.99430549       0.00000000       0.00000000 </v>
   <v>       0.82763886       0.00000000       0.15838417 </v>
   <v>       0.66097212       0.00000000       0.31676838 </v>
   <v>       0.32763880       0.66666657       0.00000000 </v>
   <v>       0.16097215       0.66666657       0.15838417 </v>
   <v>       0.99430543       0.66666657       0.31676838 </v>
   <v>       0.32763880       0.33333328       0.00000000 </v>
   <v>       0.16097215       0.33333328       0.15838417 </v>
   <v>       0.99430543       0.33333328       0.31676838 </v>
   <v>       0.32763880       0.00000000       0.00000000 </v>
   <v>       0.16097215       0.00000000       0.15838417 </v>
   <v>       0.99430543       0.00000000       0.31676838 </v>
   <v>       0.66097212       0.66666657       0.00000000 </v>
   <v>       0.49430543       0.66666657       0.15838417 </v>
   <v>       0.32763875       0.66666657       0.31676838 </v>
   <v>       0.66097212       0.33333328       0.00000000 </v>
   <v>       0.49430543       0.33333328       0.15838417 </v>
   <v>       0.32763875       0.33333328       0.31676838 </v>
   <v>       0.66097212       0.00000000       0.00000000 </v>
   <v>       0.49430543       0.00000000       0.15838417 </v>
   <v>       0.32763875       0.00000000       0.31676838 </v>
   <v>       0.07763884       0.91666657       0.07919210 </v>
   <v>       0.91097212       0.91666657       0.23757629 </v>
   <v>       0.74430549       0.91666657       0.39596048 </v>
   <v>       0.07763884       0.58333331       0.07919210 </v>
   <v>       0.91097212       0.58333331       0.23757629 </v>
   <v>       0.74430549       0.58333331       0.39596048 </v>
   <v>       0.07763884       0.24999995       0.07919210 </v>
   <v>       0.91097212       0.24999995       0.23757629 </v>
   <v>       0.74430549       0.24999995       0.39596048 </v>
   <v>       0.41097209       0.91666657       0.07919210 </v>
   <v>       0.24430542       0.91666657       0.23757629 </v>
   <v>       0.07763872       0.91666657       0.39596048 </v>
   <v>       0.41097209       0.58333331       0.07919210 </v>
   <v>       0.24430542       0.58333331       0.23757629 </v>
   <v>       0.07763872       0.58333331       0.39596048 </v>
   <v>       0.41097209       0.24999995       0.07919210 </v>
   <v>       0.24430542       0.24999995       0.23757629 </v>
   <v>       0.07763872       0.24999995       0.39596048 </v>
   <v>       0.74430549       0.91666657       0.07919210 </v>
   <v>       0.57763875       0.91666657       0.23757629 </v>
   <v>       0.41097206       0.91666657       0.39596048 </v>
   <v>       0.74430549       0.58333331       0.07919210 </v>
   <v>       0.57763875       0.58333331       0.23757629 </v>
   <v>       0.41097206       0.58333331       0.39596048 </v>
   <v>       0.74430549       0.24999995       0.07919210 </v>
   <v>       0.57763875       0.24999995       0.23757629 </v>
   <v>       0.41097206       0.24999995       0.39596048 </v>
   <v>       0.16097216       0.83333319       0.00000000 </v>
   <v>       0.99430549       0.83333319       0.15838417 </v>
   <v>       0.82763880       0.83333319       0.31676838 </v>
   <v>       0.16097216       0.49999991       0.00000000 </v>
   <v>       0.99430549       0.49999991       0.15838417 </v>
   <v>       0.82763880       0.49999991       0.31676838 </v>
   <v>       0.16097216       0.16666664       0.00000000 </v>
   <v>       0.99430549       0.16666664       0.15838417 </v>
   <v>       0.82763880       0.16666664       0.31676838 </v>
   <v>       0.49430543       0.83333319       0.00000000 </v>
   <v>       0.32763875       0.83333319       0.15838417 </v>
   <v>       0.16097207       0.83333319       0.31676838 </v>
   <v>       0.49430543       0.49999991       0.00000000 </v>
   <v>       0.32763875       0.49999991       0.15838417 </v>
   <v>       0.16097207       0.49999991       0.31676838 </v>
   <v>       0.49430543       0.16666664       0.00000000 </v>
   <v>       0.32763875       0.16666664       0.15838417 </v>
   <v>       0.16097207       0.16666664       0.31676838 </v>
   <v>       0.82763880       0.83333319       0.00000000 </v>
   <v>       0.66097212       0.83333319       0.15838417 </v>
   <v>       0.49430543       0.83333319       0.31676838 </v>
   <v>       0.82763880       0.49999991       0.00000000 </v>
   <v>       0.66097212       0.49999991       0.15838417 </v>
   <v>       0.49430543       0.49999991       0.31676838 </v>
   <v>       0.82763880       0.16666664       0.00000000 </v>
   <v>       0.66097212       0.16666664       0.15838417 </v>
   <v>       0.49430543       0.16666664       0.31676838 </v>
   <v>       0.24430546       0.74999988       0.07919210 </v>
   <v>       0.07763878       0.74999988       0.23757629 </v>
   <v>       0.91097212       0.74999988       0.39596048 </v>
   <v>       0.24430546       0.41666663       0.07919210 </v>
   <v>       0.07763878       0.41666663       0.23757629 </v>
   <v>       0.91097212       0.41666663       0.39596048 </v>
   <v>       0.24430546       0.08333333       0.07919210 </v>
   <v>       0.07763878       0.08333333       0.23757629 </v>
   <v>       0.91097212       0.08333333       0.39596048 </v>
   <v>       0.57763886       0.74999988       0.07919210 </v>
   <v>       0.41097215       0.74999988       0.23757629 </v>
   <v>       0.24430545       0.74999988       0.39596048 </v>
   <v>       0.57763886       0.41666663       0.07919210 </v>
   <v>       0.41097215       0.41666663       0.23757629 </v>
   <v>       0.24430545       0.41666663       0.39596048 </v>
   <v>       0.57763886       0.08333333       0.07919210 </v>
   <v>       0.41097215       0.08333333       0.23757629 </v>
   <v>       0.24430545       0.08333333       0.39596048 </v>
   <v>       0.91097218       0.74999988       0.07919210 </v>
   <v>       0.74430549       0.74999988       0.23757629 </v>
   <v>       0.57763875       0.74999988       0.39596048 </v>
   <v>       0.91097218       0.41666663       0.07919210 </v>
   <v>       0.74430549       0.41666663       0.23757629 </v>
   <v>       0.57763875       0.41666663       0.39596048 </v>
   <v>       0.91097218       0.08333333       0.07919210 </v>
   <v>       0.74430549       0.08333333       0.23757629 </v>
   <v>       0.57763875       0.08333333       0.39596048 </v>
   <v>       0.74196649       0.24110293       0.50793630 </v>
   <v>       0.69196653       0.89110279       0.65997148 </v>
   <v>       0.64196634       0.54110265       0.81200671 </v>
   <v>       0.84196651       0.94110292       0.50793630 </v>
   <v>       0.79196650       0.59110284       0.65997148 </v>
   <v>       0.74196637       0.24110270       0.81200671 </v>
   <v>       0.94196653       0.64110285       0.50793630 </v>
   <v>       0.89196646       0.29110280       0.65997148 </v>
   <v>       0.84196639       0.94110262       0.81200671 </v>
   <v>       0.04196656       0.34110284       0.50793630 </v>
   <v>       0.99196643       0.99110281       0.65997148 </v>
   <v>       0.94196635       0.64110261       0.81200671 </v>
   <v>       0.14196658       0.04110289       0.50793630 </v>
   <v>       0.09196651       0.69110274       0.65997148 </v>
   <v>       0.04196644       0.34110266       0.81200671 </v>
   <v>       0.24196649       0.74110287       0.50793630 </v>
   <v>       0.19196641       0.39110279       0.65997148 </v>
   <v>       0.14196634       0.04110265       0.81200671 </v>
   <v>       0.34196651       0.44110283       0.50793630 </v>
   <v>       0.29196644       0.09110284       0.65997148 </v>
   <v>       0.24196637       0.74110264       0.81200671 </v>
   <v>       0.44196665       0.14110303       0.50793630 </v>
   <v>       0.39196658       0.79110283       0.65997148 </v>
   <v>       0.34196651       0.44110274       0.81200671 </v>
   <v>       0.54196656       0.84110290       0.50793630 </v>
   <v>       0.49196649       0.49110281       0.65997148 </v>
   <v>       0.44196641       0.14110267       0.81200671 </v>
   <v>       0.64196658       0.54110289       0.50793630 </v>
   <v>       0.59196663       0.19110274       0.65997148 </v>
   <v>       0.54196644       0.84110266       0.81200671 </v>
   <v>       0.74196649       0.49110287       0.58395392 </v>
   <v>       0.69196641       0.14110279       0.73598909 </v>
   <v>       0.64196634       0.79110265       0.88802421 </v>
   <v>       0.84196651       0.19110274       0.58395392 </v>
   <v>       0.79196644       0.84110272       0.73598909 </v>
   <v>       0.74196637       0.49110258       0.88802421 </v>
   <v>       0.94196653       0.89110285       0.58395392 </v>
   <v>       0.89196646       0.54110277       0.73598909 </v>
   <v>       0.84196639       0.19110274       0.88802421 </v>
   <v>       0.04196656       0.59110284       0.58395392 </v>
   <v>       0.99196649       0.24110270       0.73598909 </v>
   <v>       0.94196641       0.89110267       0.88802421 </v>
   <v>       0.14196658       0.29110283       0.58395392 </v>
   <v>       0.09196639       0.94110274       0.73598909 </v>
   <v>       0.04196644       0.59110266       0.88802421 </v>
   <v>       0.24196661       0.99110287       0.58395392 </v>
   <v>       0.19196653       0.64110279       0.73598909 </v>
   <v>       0.14196646       0.29110271       0.88802421 </v>
   <v>       0.34196651       0.69110274       0.58395392 </v>
   <v>       0.29196644       0.34110269       0.73598909 </v>
   <v>       0.24196637       0.99110264       0.88802421 </v>
   <v>       0.44196665       0.39110285       0.58395392 </v>
   <v>       0.39196658       0.04110277       0.73598909 </v>
   <v>       0.34196651       0.69110268       0.88802421 </v>
   <v>       0.54196668       0.09110284       0.58395392 </v>
   <v>       0.49196649       0.74110276       0.73598909 </v>
   <v>       0.44196653       0.39110267       0.88802421 </v>
   <v>       0.64196658       0.79110283       0.58395392 </v>
   <v>       0.59196651       0.44110274       0.73598909 </v>
   <v>       0.54196644       0.09110260       0.88802421 </v>
   <v>       0.74196649       0.74110287       0.50793630 </v>
   <v>       0.69196653       0.39110279       0.65997148 </v>
   <v>       0.64196634       0.04110265       0.81200671 </v>
   <v>       0.84196651       0.44110286       0.50793630 </v>
   <v>       0.79196644       0.09110284       0.65997148 </v>
   <v>       0.74196637       0.74110264       0.81200671 </v>
   <v>       0.94196653       0.14110279       0.50793630 </v>
   <v>       0.89196646       0.79110277       0.65997148 </v>
   <v>       0.84196639       0.44110262       0.81200671 </v>
   <v>       0.04196656       0.84110284       0.50793630 </v>
   <v>       0.99196649       0.49110279       0.65997148 </v>
   <v>       0.94196641       0.14110267       0.81200671 </v>
   <v>       0.14196658       0.54110289       0.50793630 </v>
   <v>       0.09196651       0.19110274       0.65997148 </v>
   <v>       0.04196644       0.84110266       0.81200671 </v>
   <v>       0.24196649       0.24110281       0.50793630 </v>
   <v>       0.19196653       0.89110273       0.65997148 </v>
   <v>       0.14196634       0.54110259       0.81200671 </v>
   <v>       0.34196651       0.94110286       0.50793630 </v>
   <v>       0.29196644       0.59110278       0.65997148 </v>
   <v>       0.24196637       0.24110270       0.81200671 </v>
   <v>       0.44196653       0.64110279       0.50793630 </v>
   <v>       0.39196646       0.29110274       0.65997148 </v>
   <v>       0.34196639       0.94110262       0.81200671 </v>
   <v>       0.54196656       0.34110284       0.50793630 </v>
   <v>       0.49196649       0.99110270       0.65997148 </v>
   <v>       0.44196641       0.64110261       0.81200671 </v>
   <v>       0.64196658       0.04110289       0.50793630 </v>
   <v>       0.59196663       0.69110280       0.65997148 </v>
   <v>       0.54196644       0.34110266       0.81200671 </v>
   <v>       0.74196649       0.99110293       0.58395392 </v>
   <v>       0.69196641       0.64110279       0.73598909 </v>
   <v>       0.64196634       0.29110274       0.88802421 </v>
   <v>       0.84196651       0.69110286       0.58395392 </v>
   <v>       0.79196644       0.34110275       0.73598909 </v>
   <v>       0.74196637       0.99110270       0.88802421 </v>
   <v>       0.94196653       0.39110285       0.58395392 </v>
   <v>       0.89196646       0.04110277       0.73598909 </v>
   <v>       0.84196639       0.69110268       0.88802421 </v>
   <v>       0.04196656       0.09110284       0.58395392 </v>
   <v>       0.99196649       0.74110276       0.73598909 </v>
   <v>       0.94196641       0.39110267       0.88802421 </v>
   <v>       0.14196658       0.79110295       0.58395392 </v>
   <v>       0.09196651       0.44110283       0.73598909 </v>
   <v>       0.04196644       0.09110284       0.88802421 </v>
   <v>       0.24196649       0.49110281       0.58395392 </v>
   <v>       0.19196653       0.14110279       0.73598909 </v>
   <v>       0.14196634       0.79110265       0.88802421 </v>
   <v>       0.34196663       0.19110286       0.58395392 </v>
   <v>       0.29196644       0.84110278       0.73598909 </v>
   <v>       0.24196649       0.49110270       0.88802421 </v>
   <v>       0.44196653       0.89110291       0.58395392 </v>
   <v>       0.39196658       0.54110277       0.73598909 </v>
   <v>       0.34196639       0.19110274       0.88802421 </v>
   <v>       0.54196644       0.59110284       0.58395392 </v>
   <v>       0.49196649       0.24110270       0.73598909 </v>
   <v>       0.44196630       0.89110267       0.88802421 </v>
   <v>       0.64196658       0.29110283       0.58395392 </v>
   <v>       0.59196639       0.94110274       0.73598909 </v>
   <v>       0.54196644       0.59110260       0.88802421 </v>
  </varray>
 </structure>
</modeling>
