 120 120   0   0
  0.1383406E+02  0.1330318E-08  0.1629300E-08  0.8390060E-09  0.5000000E-15
  1.000000000000000E-004
  CAR 
 Si and Ge interface calculation         
      7.17461722    -15.23801654  301      3.82551580      1.00000000
    -15.238  0.0000E+00  0.0000E+00  0.0000E+00  0.0000E+00
    -15.163  0.0000E+00  0.0000E+00  0.0000E+00  0.0000E+00
    -15.089  0.0000E+00  0.0000E+00  0.0000E+00  0.0000E+00
    -15.014  0.0000E+00  0.0000E+00  0.0000E+00  0.0000E+00
    -14.939  0.0000E+00  0.0000E+00  0.0000E+00  0.0000E+00
    -14.864  0.0000E+00  0.0000E+00  0.0000E+00  0.0000E+00
    -14.790  0.0000E+00  0.0000E+00  0.0000E+00  0.0000E+00
    -14.715  0.0000E+00  0.0000E+00  0.0000E+00  0.0000E+00
    -14.640  0.0000E+00  0.0000E+00  0.0000E+00  0.0000E+00
    -14.566  0.0000E+00  0.0000E+00  0.0000E+00  0.0000E+00
    -14.491  0.0000E+00  0.0000E+00  0.0000E+00  0.0000E+00
    -14.416  0.0000E+00  0.0000E+00  0.0000E+00  0.0000E+00
    -14.342  0.0000E+00  0.0000E+00  0.0000E+00  0.0000E+00
    -14.267  0.3042E-10  0.6254E-14  0.2273E-11  0.4672E-15
    -14.192  0.4461E+01  0.4444E+01  0.3333E+00  0.3320E+00
    -14.117  0.1212E+02  0.9660E+01  0.1239E+01  0.1055E+01
    -14.043  0.1464E+02  0.1691E+02  0.2333E+01  0.2333E+01
    -13.968  0.6881E-01  0.1771E-02  0.2338E+01  0.2333E+01
    -13.893  0.2627E+02  0.2404E+02  0.4301E+01  0.4129E+01
    -13.819  0.8923E+01  0.1157E+02  0.5000E+01  0.4994E+01
    -13.744  0.1572E+02  0.1275E+02  0.6175E+01  0.5953E+01
    -13.669  0.2195E+01  0.3691E+01  0.6351E+01  0.6334E+01
    -13.594  0.1762E+02  0.1780E+02  0.7667E+01  0.7664E+01
    -13.520  0.1881E+02  0.1790E+02  0.9072E+01  0.9004E+01
    -13.445  0.7963E+01  0.8835E+01  0.9667E+01  0.9666E+01
    -13.370  0.9689E+01  0.3093E+01  0.1039E+02  0.9898E+01
    -13.296  0.8464E+01  0.1477E+02  0.1102E+02  0.1100E+02
    -13.221  0.2502E+02  0.2327E+02  0.1289E+02  0.1274E+02
    -13.146  0.1635E+02  0.1626E+02  0.1411E+02  0.1396E+02
    -13.071  0.1179E+02  0.1304E+02  0.1500E+02  0.1500E+02
    -12.997  0.2221E+02  0.2108E+02  0.1666E+02  0.1658E+02
    -12.922  0.8067E+01  0.5012E+01  0.1727E+02  0.1704E+02
    -12.847  0.8923E+01  0.1282E+02  0.1800E+02  0.1800E+02
    -12.773  0.8827E+01  0.7250E+01  0.1866E+02  0.1854E+02
    -12.698  0.1685E+02  0.1527E+02  0.1993E+02  0.1981E+02
    -12.623  0.1078E+00  0.2577E+01  0.2001E+02  0.2000E+02
    -12.549  0.3548E+02  0.3450E+02  0.2266E+02  0.2258E+02
    -12.474  0.8912E+01  0.8561E+01  0.2333E+02  0.2331E+02
    -12.399  0.8911E+01  0.8923E+01  0.2400E+02  0.2400E+02
    -12.324  0.4457E+01  0.4370E+01  0.2433E+02  0.2433E+02
    -12.250  0.8921E+01  0.8844E+01  0.2500E+02  0.2499E+02
    -12.175  0.1066E-05  0.3676E-08  0.2500E+02  0.2500E+02
    -12.100  0.1296E+02  0.1091E+02  0.2597E+02  0.2581E+02
    -12.026  0.2015E+02  0.2143E+02  0.2752E+02  0.2742E+02
    -11.951  0.6384E+01  0.7761E+01  0.2800E+02  0.2800E+02
    -11.876  0.1107E-12  0.0000E+00  0.2800E+02  0.2800E+02
    -11.801  0.4456E+01  0.4373E+01  0.2833E+02  0.2833E+02
    -11.727  0.8228E+01  0.6001E+01  0.2895E+02  0.2878E+02
    -11.652  0.0000E+00  0.2923E+01  0.2900E+02  0.2900E+02
    -11.577  0.5854E-01  0.3336E-02  0.2900E+02  0.2900E+02
    -11.503  0.1350E+02  0.1339E+02  0.3001E+02  0.3000E+02
    -11.428  0.3998E+02  0.4002E+02  0.3300E+02  0.3299E+02
    -11.353  0.1759E+02  0.1451E+02  0.3431E+02  0.3408E+02
    -11.278  0.1810E+02  0.2118E+02  0.3567E+02  0.3567E+02
    -11.204  0.1232E+02  0.9552E+01  0.3659E+02  0.3638E+02
    -11.129  0.4462E+01  0.8142E+01  0.3700E+02  0.3700E+02
    -11.054  0.8590E+01  0.6939E+01  0.3764E+02  0.3752E+02
    -10.980  0.1785E+02  0.1782E+02  0.3900E+02  0.3900E+02
    -10.905  0.1093E+02  0.9086E+01  0.3982E+02  0.3968E+02
    -10.830  0.1583E+02  0.1749E+02  0.4100E+02  0.4100E+02
    -10.755  0.8963E+01  0.8920E+01  0.4167E+02  0.4167E+02
    -10.681  0.1779E+02  0.1763E+02  0.4300E+02  0.4298E+02
    -10.606  0.2371E+00  0.2192E-01  0.4302E+02  0.4300E+02
    -10.531  0.1761E+02  0.1777E+02  0.4433E+02  0.4433E+02
    -10.457  0.8623E+01  0.6695E+01  0.4498E+02  0.4483E+02
    -10.382  0.8854E+01  0.9800E+01  0.4566E+02  0.4560E+02
    -10.307  0.2530E-01  0.2852E-03  0.4567E+02  0.4567E+02
    -10.233  0.4437E+01  0.4461E+01  0.4600E+02  0.4600E+02
    -10.158  0.6566E+01  0.4838E+01  0.4649E+02  0.4636E+02
    -10.083  0.3348E+02  0.3355E+02  0.4899E+02  0.4887E+02
    -10.008  0.4462E+01  0.5463E+01  0.4933E+02  0.4933E+02
     -9.934  0.1775E+02  0.1600E+02  0.5066E+02  0.5053E+02
     -9.859  0.2035E+02  0.1557E+02  0.5219E+02  0.5178E+02
     -9.784  0.2890E+02  0.3319E+02  0.5437E+02  0.5430E+02
     -9.710  0.2116E+02  0.1880E+02  0.5595E+02  0.5574E+02
     -9.635  0.1060E+02  0.1181E+02  0.5679E+02  0.5664E+02
     -9.560  0.2956E+02  0.3113E+02  0.5900E+02  0.5900E+02
     -9.485  0.1768E+02  0.1579E+02  0.6032E+02  0.6018E+02
     -9.411  0.1795E+02  0.1245E+02  0.6167E+02  0.6115E+02
     -9.336  0.4346E+01  0.1034E+02  0.6202E+02  0.6200E+02
     -9.261  0.2720E+02  0.2675E+02  0.6405E+02  0.6400E+02
     -9.187  0.3527E+02  0.2937E+02  0.6669E+02  0.6620E+02
     -9.112  0.1789E+02  0.2348E+02  0.6809E+02  0.6799E+02
     -9.037  0.3268E+02  0.3187E+02  0.7054E+02  0.7039E+02
     -8.962  0.1238E+02  0.8065E+01  0.7146E+02  0.7104E+02
     -8.888  0.2127E+01  0.8391E+01  0.7167E+02  0.7167E+02
     -8.813  0.2257E+02  0.2231E+02  0.7335E+02  0.7333E+02
     -8.738  0.1900E+02  0.1699E+02  0.7477E+02  0.7460E+02
     -8.664  0.2831E+02  0.2863E+02  0.7689E+02  0.7675E+02
     -8.589  0.2368E+02  0.2424E+02  0.7866E+02  0.7857E+02
     -8.514  0.1779E+02  0.1832E+02  0.8000E+02  0.8000E+02
     -8.440  0.2506E+01  0.3237E+00  0.8019E+02  0.8002E+02
     -8.365  0.1336E+02  0.1365E+02  0.8119E+02  0.8104E+02
     -8.290  0.1092E+02  0.1280E+02  0.8200E+02  0.8200E+02
     -8.215  0.4440E+01  0.4462E+01  0.8233E+02  0.8233E+02
     -8.141  0.1211E-04  0.1408E-07  0.8233E+02  0.8233E+02
     -8.066  0.8924E+01  0.8924E+01  0.8300E+02  0.8300E+02
     -7.991  0.0000E+00  0.0000E+00  0.8300E+02  0.8300E+02
     -7.917  0.1625E-09  0.3176E-13  0.8300E+02  0.8300E+02
     -7.842  0.1294E+02  0.1108E+02  0.8397E+02  0.8383E+02
     -7.767  0.0000E+00  0.2295E+01  0.8400E+02  0.8400E+02
     -7.692  0.2884E+01  0.1453E+01  0.8422E+02  0.8411E+02
     -7.618  0.6563E+01  0.7519E+01  0.8472E+02  0.8467E+02
     -7.543  0.3782E+01  0.4414E+01  0.8500E+02  0.8500E+02
     -7.468  0.6990E+01  0.2763E+01  0.8552E+02  0.8521E+02
     -7.394  0.2402E+02  0.2814E+02  0.8733E+02  0.8731E+02
     -7.319  0.4130E-01  0.5002E-03  0.8734E+02  0.8733E+02
     -7.244  0.1178E+02  0.8308E+01  0.8822E+02  0.8795E+02
     -7.169  0.7537E+00  0.5077E+01  0.8833E+02  0.8833E+02
     -7.095  0.4283E+01  0.3735E+01  0.8865E+02  0.8861E+02
     -7.020  0.2724E+00  0.5850E+00  0.8869E+02  0.8867E+02
     -6.945  0.8732E+01  0.8915E+01  0.8934E+02  0.8933E+02
     -6.871  0.6783E+01  0.6172E+01  0.8985E+02  0.8979E+02
     -6.796  0.2006E+02  0.1863E+02  0.9135E+02  0.9119E+02
     -6.721  0.2369E+02  0.2034E+02  0.9313E+02  0.9279E+02
     -6.647  0.2374E+02  0.2455E+02  0.9491E+02  0.9466E+02
     -6.572  0.3653E+02  0.3766E+02  0.9765E+02  0.9748E+02
     -6.497  0.2340E+02  0.1949E+02  0.9940E+02  0.9903E+02
     -6.422  0.2937E+02  0.3031E+02  0.1016E+03  0.1013E+03
     -6.348  0.2554E+02  0.2507E+02  0.1036E+03  0.1032E+03
     -6.273  0.2865E+02  0.3216E+02  0.1057E+03  0.1057E+03
     -6.198  0.2089E+02  0.2007E+02  0.1073E+03  0.1072E+03
     -6.124  0.2670E+02  0.2391E+02  0.1093E+03  0.1090E+03
     -6.049  0.2594E+02  0.2420E+02  0.1113E+03  0.1109E+03
     -5.974  0.2779E+02  0.2861E+02  0.1134E+03  0.1131E+03
     -5.899  0.3808E+02  0.4128E+02  0.1163E+03  0.1161E+03
     -5.825  0.3057E+02  0.3072E+02  0.1186E+03  0.1185E+03
     -5.750  0.3067E+02  0.2752E+02  0.1209E+03  0.1206E+03
     -5.675  0.2694E+02  0.2740E+02  0.1229E+03  0.1227E+03
     -5.601  0.3128E+02  0.2906E+02  0.1252E+03  0.1249E+03
     -5.526  0.2074E+02  0.2435E+02  0.1268E+03  0.1267E+03
     -5.451  0.2357E+02  0.2285E+02  0.1286E+03  0.1284E+03
     -5.376  0.2161E+02  0.2005E+02  0.1303E+03  0.1299E+03
     -5.302  0.4275E+02  0.4358E+02  0.1335E+03  0.1332E+03
     -5.227  0.3430E+02  0.3620E+02  0.1361E+03  0.1360E+03
     -5.152  0.2503E+02  0.2249E+02  0.1380E+03  0.1377E+03
     -5.078  0.2758E+02  0.2985E+02  0.1401E+03  0.1399E+03
     -5.003  0.3352E+02  0.3247E+02  0.1426E+03  0.1423E+03
     -4.928  0.2818E+02  0.2992E+02  0.1448E+03  0.1446E+03
     -4.853  0.3838E+02  0.3412E+02  0.1476E+03  0.1472E+03
     -4.779  0.3484E+02  0.3312E+02  0.1503E+03  0.1497E+03
     -4.704  0.2532E+02  0.2936E+02  0.1522E+03  0.1520E+03
     -4.629  0.2240E+02  0.2250E+02  0.1539E+03  0.1537E+03
     -4.555  0.2917E+02  0.2873E+02  0.1561E+03  0.1559E+03
     -4.480  0.4061E+02  0.4175E+02  0.1591E+03  0.1590E+03
     -4.405  0.3261E+02  0.2666E+02  0.1616E+03  0.1611E+03
     -4.331  0.2178E+02  0.2546E+02  0.1632E+03  0.1630E+03
     -4.256  0.1736E+02  0.1579E+02  0.1646E+03  0.1642E+03
     -4.181  0.2997E+02  0.3249E+02  0.1669E+03  0.1667E+03
     -4.106  0.1827E+02  0.1435E+02  0.1682E+03  0.1678E+03
     -4.032  0.2117E+02  0.2325E+02  0.1698E+03  0.1695E+03
     -3.957  0.3526E+02  0.3479E+02  0.1726E+03  0.1721E+03
     -3.882  0.3016E+02  0.3351E+02  0.1749E+03  0.1746E+03
     -3.808  0.2705E+02  0.2686E+02  0.1769E+03  0.1766E+03
     -3.733  0.3147E+02  0.2923E+02  0.1793E+03  0.1788E+03
     -3.658  0.4465E+02  0.4641E+02  0.1827E+03  0.1823E+03
     -3.583  0.2657E+02  0.2743E+02  0.1847E+03  0.1844E+03
     -3.509  0.3395E+02  0.3223E+02  0.1872E+03  0.1869E+03
     -3.434  0.2347E+02  0.2348E+02  0.1890E+03  0.1886E+03
     -3.359  0.2560E+02  0.2785E+02  0.1910E+03  0.1908E+03
     -3.285  0.2704E+02  0.2597E+02  0.1930E+03  0.1927E+03
     -3.210  0.2013E+02  0.2225E+02  0.1945E+03  0.1944E+03
     -3.135  0.2136E+02  0.2040E+02  0.1961E+03  0.1959E+03
     -3.060  0.2290E+02  0.2411E+02  0.1978E+03  0.1977E+03
     -2.986  0.2148E+02  0.1863E+02  0.1994E+03  0.1991E+03
     -2.911  0.1790E+02  0.1691E+02  0.2008E+03  0.2005E+03
     -2.836  0.3292E+02  0.3322E+02  0.2034E+03  0.2029E+03
     -2.762  0.3738E+02  0.3913E+02  0.2062E+03  0.2059E+03
     -2.687  0.3638E+02  0.3709E+02  0.2089E+03  0.2088E+03
     -2.612  0.3946E+02  0.3982E+02  0.2119E+03  0.2117E+03
     -2.538  0.3685E+02  0.3479E+02  0.2146E+03  0.2144E+03
     -2.463  0.3591E+02  0.3324E+02  0.2173E+03  0.2169E+03
     -2.388  0.3608E+02  0.3843E+02  0.2201E+03  0.2197E+03
     -2.313  0.3313E+02  0.3464E+02  0.2226E+03  0.2223E+03
     -2.239  0.3298E+02  0.3225E+02  0.2250E+03  0.2248E+03
     -2.164  0.3282E+02  0.3295E+02  0.2275E+03  0.2273E+03
     -2.089  0.2600E+02  0.2699E+02  0.2295E+03  0.2293E+03
     -2.015  0.3091E+02  0.2819E+02  0.2318E+03  0.2315E+03
     -1.940  0.3147E+02  0.3104E+02  0.2342E+03  0.2338E+03
     -1.865  0.3657E+02  0.3626E+02  0.2369E+03  0.2365E+03
     -1.790  0.3977E+02  0.3933E+02  0.2400E+03  0.2395E+03
     -1.716  0.4877E+02  0.4677E+02  0.2436E+03  0.2430E+03
     -1.641  0.3720E+02  0.4044E+02  0.2465E+03  0.2461E+03
     -1.566  0.5210E+02  0.5300E+02  0.2504E+03  0.2501E+03
     -1.492  0.3617E+02  0.3698E+02  0.2532E+03  0.2529E+03
     -1.417  0.4361E+02  0.4329E+02  0.2565E+03  0.2562E+03
     -1.342  0.4895E+02  0.4945E+02  0.2602E+03  0.2599E+03
     -1.267  0.2772E+02  0.3144E+02  0.2623E+03  0.2622E+03
     -1.193  0.4122E+02  0.3687E+02  0.2654E+03  0.2650E+03
     -1.118  0.3274E+02  0.3374E+02  0.2679E+03  0.2676E+03
     -1.043  0.3826E+02  0.4020E+02  0.2708E+03  0.2706E+03
     -0.969  0.2983E+02  0.2710E+02  0.2731E+03  0.2726E+03
     -0.894  0.3044E+02  0.3397E+02  0.2754E+03  0.2752E+03
     -0.819  0.3592E+02  0.3542E+02  0.2782E+03  0.2778E+03
     -0.745  0.3006E+02  0.2855E+02  0.2804E+03  0.2800E+03
     -0.670  0.4277E+02  0.4305E+02  0.2836E+03  0.2832E+03
     -0.595  0.3623E+02  0.3819E+02  0.2864E+03  0.2861E+03
     -0.520  0.3127E+02  0.3359E+02  0.2888E+03  0.2886E+03
     -0.446  0.3379E+02  0.3158E+02  0.2913E+03  0.2910E+03
     -0.371  0.2225E+02  0.2319E+02  0.2930E+03  0.2927E+03
     -0.296  0.3664E+02  0.3590E+02  0.2957E+03  0.2954E+03
     -0.222  0.3553E+02  0.3384E+02  0.2984E+03  0.2980E+03
     -0.147  0.3858E+02  0.3842E+02  0.3013E+03  0.3009E+03
     -0.072  0.2537E+02  0.2954E+02  0.3033E+03  0.3031E+03
      0.003  0.3742E+02  0.3330E+02  0.3061E+03  0.3057E+03
      0.077  0.4897E+02  0.4897E+02  0.3098E+03  0.3094E+03
      0.152  0.3592E+02  0.3377E+02  0.3125E+03  0.3120E+03
      0.227  0.3999E+02  0.4071E+02  0.3155E+03  0.3151E+03
      0.301  0.4929E+02  0.4889E+02  0.3192E+03  0.3188E+03
      0.376  0.3062E+02  0.3122E+02  0.3216E+03  0.3211E+03
      0.451  0.2959E+02  0.2946E+02  0.3238E+03  0.3234E+03
      0.526  0.4788E+02  0.4475E+02  0.3274E+03  0.3268E+03
      0.600  0.4070E+02  0.4167E+02  0.3305E+03  0.3300E+03
      0.675  0.3946E+02  0.4417E+02  0.3334E+03  0.3333E+03
      0.750  0.3893E+02  0.3434E+02  0.3363E+03  0.3360E+03
      0.824  0.4437E+02  0.4676E+02  0.3397E+03  0.3395E+03
      0.899  0.5134E+02  0.4363E+02  0.3435E+03  0.3428E+03
      0.974  0.2527E+02  0.3000E+02  0.3455E+03  0.3451E+03
      1.048  0.4508E+02  0.4057E+02  0.3488E+03  0.3482E+03
      1.123  0.3820E+02  0.4378E+02  0.3517E+03  0.3515E+03
      1.198  0.4312E+02  0.4171E+02  0.3550E+03  0.3546E+03
      1.273  0.4956E+02  0.4536E+02  0.3587E+03  0.3580E+03
      1.347  0.4804E+02  0.5119E+02  0.3623E+03  0.3619E+03
      1.422  0.4598E+02  0.4485E+02  0.3658E+03  0.3653E+03
      1.497  0.4182E+02  0.4315E+02  0.3689E+03  0.3685E+03
      1.571  0.4240E+02  0.4181E+02  0.3722E+03  0.3717E+03
      1.646  0.3504E+02  0.3549E+02  0.3748E+03  0.3744E+03
      1.721  0.5076E+02  0.4943E+02  0.3787E+03  0.3781E+03
      1.796  0.4742E+02  0.4656E+02  0.3823E+03  0.3816E+03
      1.870  0.4480E+02  0.4624E+02  0.3857E+03  0.3850E+03
      1.945  0.4750E+02  0.4356E+02  0.3893E+03  0.3884E+03
      2.020  0.4331E+02  0.5150E+02  0.3926E+03  0.3922E+03
      2.094  0.4585E+02  0.3909E+02  0.3960E+03  0.3952E+03
      2.169  0.4757E+02  0.5244E+02  0.3996E+03  0.3991E+03
      2.244  0.3898E+02  0.3897E+02  0.4026E+03  0.4021E+03
      2.319  0.4536E+02  0.4419E+02  0.4060E+03  0.4055E+03
      2.393  0.5285E+02  0.4972E+02  0.4100E+03  0.4092E+03
      2.468  0.4858E+02  0.4970E+02  0.4136E+03  0.4129E+03
      2.543  0.4875E+02  0.5235E+02  0.4173E+03  0.4169E+03
      2.617  0.4808E+02  0.4625E+02  0.4210E+03  0.4204E+03
      2.692  0.5093E+02  0.4793E+02  0.4248E+03  0.4240E+03
      2.767  0.5202E+02  0.5505E+02  0.4287E+03  0.4281E+03
      2.842  0.4999E+02  0.4642E+02  0.4325E+03  0.4316E+03
      2.916  0.5617E+02  0.5538E+02  0.4368E+03  0.4358E+03
      2.991  0.4512E+02  0.5026E+02  0.4402E+03  0.4396E+03
      3.066  0.3965E+02  0.3536E+02  0.4432E+03  0.4423E+03
      3.140  0.4751E+02  0.4994E+02  0.4468E+03  0.4460E+03
      3.215  0.4989E+02  0.4776E+02  0.4505E+03  0.4496E+03
      3.290  0.3283E+02  0.3841E+02  0.4531E+03  0.4525E+03
      3.364  0.4889E+02  0.4656E+02  0.4568E+03  0.4560E+03
      3.439  0.4529E+02  0.4003E+02  0.4602E+03  0.4591E+03
      3.514  0.3950E+02  0.4724E+02  0.4632E+03  0.4627E+03
      3.589  0.5339E+02  0.4318E+02  0.4673E+03  0.4659E+03
      3.663  0.5724E+02  0.5984E+02  0.4716E+03  0.4704E+03
      3.738  0.6085E+02  0.6192E+02  0.4763E+03  0.4750E+03
      3.813  0.4034E+02  0.4531E+02  0.4794E+03  0.4785E+03
      3.887  0.4281E+02  0.4404E+02  0.4826E+03  0.4818E+03
      3.962  0.4253E+02  0.3519E+02  0.4858E+03  0.4845E+03
      4.037  0.5103E+02  0.5053E+02  0.4897E+03  0.4883E+03
      4.112  0.4666E+02  0.5279E+02  0.4933E+03  0.4923E+03
      4.186  0.3880E+02  0.3753E+02  0.4963E+03  0.4952E+03
      4.261  0.4253E+02  0.4473E+02  0.4995E+03  0.4986E+03
      4.336  0.5671E+02  0.4963E+02  0.5038E+03  0.5023E+03
      4.410  0.3556E+02  0.4605E+02  0.5065E+03  0.5058E+03
      4.485  0.4061E+02  0.4125E+02  0.5096E+03  0.5089E+03
      4.560  0.4168E+02  0.4077E+02  0.5127E+03  0.5120E+03
      4.635  0.5001E+02  0.4844E+02  0.5165E+03  0.5156E+03
      4.709  0.5716E+02  0.5493E+02  0.5208E+03  0.5198E+03
      4.784  0.4027E+02  0.4052E+02  0.5239E+03  0.5229E+03
      4.859  0.4595E+02  0.4713E+02  0.5274E+03  0.5264E+03
      4.933  0.3958E+02  0.4287E+02  0.5304E+03  0.5297E+03
      5.008  0.4544E+02  0.3835E+02  0.5338E+03  0.5326E+03
      5.083  0.4879E+02  0.4851E+02  0.5375E+03  0.5362E+03
      5.157  0.3956E+02  0.4781E+02  0.5406E+03  0.5398E+03
      5.232  0.3896E+02  0.3739E+02  0.5435E+03  0.5427E+03
      5.307  0.3648E+02  0.3818E+02  0.5463E+03  0.5456E+03
      5.382  0.4056E+02  0.4108E+02  0.5493E+03  0.5487E+03
      5.456  0.3088E+02  0.2730E+02  0.5516E+03  0.5508E+03
      5.531  0.2747E+02  0.3388E+02  0.5537E+03  0.5533E+03
      5.606  0.2542E+02  0.2594E+02  0.5556E+03  0.5553E+03
      5.680  0.4102E+02  0.3784E+02  0.5587E+03  0.5581E+03
      5.755  0.3646E+02  0.3676E+02  0.5614E+03  0.5609E+03
      5.830  0.5413E+02  0.4924E+02  0.5655E+03  0.5646E+03
      5.905  0.3927E+02  0.4056E+02  0.5686E+03  0.5678E+03
      5.979  0.3427E+02  0.3075E+02  0.5711E+03  0.5701E+03
      6.054  0.3994E+02  0.4683E+02  0.5742E+03  0.5737E+03
      6.129  0.2147E+02  0.2754E+02  0.5758E+03  0.5758E+03
      6.203  0.2231E+01  0.2625E+01  0.5760E+03  0.5760E+03
      6.278  0.0000E+00  0.0000E+00  0.5760E+03  0.5760E+03
      6.353  0.0000E+00  0.0000E+00  0.5760E+03  0.5760E+03
      6.428  0.0000E+00  0.0000E+00  0.5760E+03  0.5760E+03
      6.502  0.0000E+00  0.0000E+00  0.5760E+03  0.5760E+03
      6.577  0.0000E+00  0.0000E+00  0.5760E+03  0.5760E+03
      6.652  0.0000E+00  0.0000E+00  0.5760E+03  0.5760E+03
      6.726  0.0000E+00  0.0000E+00  0.5760E+03  0.5760E+03
      6.801  0.0000E+00  0.0000E+00  0.5760E+03  0.5760E+03
      6.876  0.0000E+00  0.0000E+00  0.5760E+03  0.5760E+03
      6.950  0.0000E+00  0.0000E+00  0.5760E+03  0.5760E+03
      7.025  0.0000E+00  0.0000E+00  0.5760E+03  0.5760E+03
      7.100  0.0000E+00  0.0000E+00  0.5760E+03  0.5760E+03
      7.175  0.0000E+00  0.0000E+00  0.5760E+03  0.5760E+03
