  72  72   0   0
  0.1785417E+02  0.7680595E-09  0.1629300E-08  0.1027250E-08  0.5000000E-15
  1.000000000000000E-004
  CAR 
 Si and Ge interface calculation         
      9.34013941    -10.69781355  301      6.24532166      1.00000000
    -10.698  0.0000E+00  0.0000E+00  0.0000E+00  0.0000E+00
    -10.631  0.0000E+00  0.0000E+00  0.0000E+00  0.0000E+00
    -10.564  0.0000E+00  0.0000E+00  0.0000E+00  0.0000E+00
    -10.497  0.0000E+00  0.0000E+00  0.0000E+00  0.0000E+00
    -10.431  0.0000E+00  0.0000E+00  0.0000E+00  0.0000E+00
    -10.364  0.0000E+00  0.0000E+00  0.0000E+00  0.0000E+00
    -10.297  0.0000E+00  0.0000E+00  0.0000E+00  0.0000E+00
    -10.230  0.0000E+00  0.0000E+00  0.0000E+00  0.0000E+00
    -10.163  0.0000E+00  0.0000E+00  0.0000E+00  0.0000E+00
    -10.097  0.0000E+00  0.0000E+00  0.0000E+00  0.0000E+00
    -10.030  0.0000E+00  0.0000E+00  0.0000E+00  0.0000E+00
     -9.963  0.0000E+00  0.0000E+00  0.0000E+00  0.0000E+00
     -9.896  0.0000E+00  0.0000E+00  0.0000E+00  0.0000E+00
     -9.830  0.2074E-08  0.1385E-15  0.1385E-09  0.9252E-17
     -9.763  0.7463E+01  0.5415E+01  0.4984E+00  0.3617E+00
     -9.696  0.1133E-04  0.2071E+01  0.5000E+00  0.5000E+00
     -9.629  0.1497E+02  0.1462E+02  0.1500E+01  0.1477E+01
     -9.562  0.0000E+00  0.3279E+00  0.1500E+01  0.1500E+01
     -9.496  0.0000E+00  0.0000E+00  0.1500E+01  0.1500E+01
     -9.429  0.0000E+00  0.0000E+00  0.1500E+01  0.1500E+01
     -9.362  0.1242E-05  0.1362E-11  0.1500E+01  0.1500E+01
     -9.295  0.2213E+02  0.1430E+02  0.2978E+01  0.2455E+01
     -9.228  0.5289E+01  0.8120E+01  0.3348E+01  0.3005E+01
     -9.162  0.9760E+01  0.1489E+02  0.4000E+01  0.4000E+01
     -9.095  0.0000E+00  0.0000E+00  0.4000E+01  0.4000E+01
     -9.028  0.0000E+00  0.0000E+00  0.4000E+01  0.4000E+01
     -8.961  0.1874E+01  0.7981E-02  0.4125E+01  0.4001E+01
     -8.894  0.1310E+02  0.1496E+02  0.5000E+01  0.5000E+01
     -8.828  0.1195E+02  0.1559E+01  0.5798E+01  0.5104E+01
     -8.761  0.3017E+01  0.1341E+02  0.6000E+01  0.6000E+01
     -8.694  0.0000E+00  0.0000E+00  0.6000E+01  0.6000E+01
     -8.627  0.4630E+00  0.6151E-03  0.6031E+01  0.6000E+01
     -8.560  0.2033E+02  0.1567E+02  0.7389E+01  0.7047E+01
     -8.494  0.1683E+01  0.6782E+01  0.7501E+01  0.7500E+01
     -8.427  0.1344E+02  0.8237E+01  0.8399E+01  0.8050E+01
     -8.360  0.1969E+01  0.6739E+01  0.8530E+01  0.8500E+01
     -8.293  0.1452E+02  0.1496E+02  0.9500E+01  0.9500E+01
     -8.226  0.3757E+01  0.3629E+01  0.9751E+01  0.9742E+01
     -8.160  0.3728E+01  0.3855E+01  0.1000E+02  0.1000E+02
     -8.093  0.9992E+01  0.7407E+01  0.1067E+02  0.1049E+02
     -8.026  0.1246E+02  0.1498E+02  0.1150E+02  0.1150E+02
     -7.959  0.2243E+02  0.2028E+02  0.1300E+02  0.1285E+02
     -7.893  0.7484E+01  0.9621E+01  0.1350E+02  0.1350E+02
     -7.826  0.0000E+00  0.0000E+00  0.1350E+02  0.1350E+02
     -7.759  0.9804E-02  0.5720E-05  0.1350E+02  0.1350E+02
     -7.692  0.7496E+01  0.7480E+01  0.1400E+02  0.1400E+02
     -7.625  0.1476E+02  0.1172E+02  0.1499E+02  0.1478E+02
     -7.559  0.7566E+01  0.1020E+02  0.1550E+02  0.1546E+02
     -7.492  0.1494E+02  0.1369E+02  0.1650E+02  0.1639E+02
     -7.425  0.0000E+00  0.1587E+01  0.1650E+02  0.1650E+02
     -7.358  0.0000E+00  0.0000E+00  0.1650E+02  0.1650E+02
     -7.291  0.4648E-07  0.3536E-12  0.1650E+02  0.1650E+02
     -7.225  0.7487E+01  0.7108E+01  0.1700E+02  0.1697E+02
     -7.158  0.1778E+02  0.1536E+02  0.1819E+02  0.1800E+02
     -7.091  0.2181E+01  0.4863E+01  0.1833E+02  0.1833E+02
     -7.024  0.2096E+02  0.1192E+02  0.1973E+02  0.1913E+02
     -6.957  0.6389E+01  0.1547E+02  0.2017E+02  0.2017E+02
     -6.891  0.1053E+02  0.6094E+01  0.2087E+02  0.2057E+02
     -6.824  0.3870E+01  0.6737E+01  0.2113E+02  0.2103E+02
     -6.757  0.3081E+01  0.4615E+01  0.2133E+02  0.2133E+02
     -6.690  0.1651E+02  0.1307E+02  0.2244E+02  0.2221E+02
     -6.623  0.9600E+01  0.9629E+01  0.2308E+02  0.2285E+02
     -6.557  0.8554E+01  0.8215E+01  0.2365E+02  0.2340E+02
     -6.490  0.5237E+01  0.8948E+01  0.2400E+02  0.2400E+02
     -6.423  0.8417E+00  0.4993E-01  0.2406E+02  0.2400E+02
     -6.356  0.6648E+01  0.7376E+01  0.2450E+02  0.2450E+02
     -6.289  0.2071E+02  0.1196E+02  0.2588E+02  0.2530E+02
     -6.223  0.2248E+02  0.2610E+02  0.2739E+02  0.2704E+02
     -6.156  0.1619E+01  0.6893E+01  0.2750E+02  0.2750E+02
     -6.089  0.5476E+00  0.5705E-01  0.2754E+02  0.2750E+02
     -6.022  0.7195E+01  0.4300E+01  0.2802E+02  0.2779E+02
     -5.955  0.4351E+01  0.6452E+01  0.2831E+02  0.2822E+02
     -5.889  0.1558E+02  0.1227E+02  0.2935E+02  0.2904E+02
     -5.822  0.3442E+01  0.8098E+01  0.2958E+02  0.2958E+02
     -5.755  0.1048E+02  0.8575E+01  0.3028E+02  0.3016E+02
     -5.688  0.1122E+02  0.1235E+02  0.3103E+02  0.3098E+02
     -5.622  0.1007E+02  0.1029E+02  0.3171E+02  0.3167E+02
     -5.555  0.1700E+02  0.1492E+02  0.3284E+02  0.3267E+02
     -5.488  0.8509E+01  0.8153E+01  0.3341E+02  0.3321E+02
     -5.421  0.9540E+01  0.8911E+01  0.3405E+02  0.3381E+02
     -5.354  0.2051E+02  0.2411E+02  0.3542E+02  0.3542E+02
     -5.288  0.1234E+02  0.7230E+01  0.3624E+02  0.3590E+02
     -5.221  0.2483E+02  0.2725E+02  0.3790E+02  0.3772E+02
     -5.154  0.1410E+02  0.1577E+02  0.3884E+02  0.3877E+02
     -5.087  0.9784E+01  0.8164E+01  0.3949E+02  0.3932E+02
     -5.020  0.2957E+02  0.2927E+02  0.4147E+02  0.4127E+02
     -4.954  0.8894E+01  0.1086E+02  0.4206E+02  0.4200E+02
     -4.887  0.1963E+02  0.1412E+02  0.4338E+02  0.4295E+02
     -4.820  0.1236E+02  0.1817E+02  0.4420E+02  0.4417E+02
     -4.753  0.1380E+02  0.1042E+02  0.4512E+02  0.4486E+02
     -4.686  0.1495E+02  0.1552E+02  0.4613E+02  0.4590E+02
     -4.620  0.1379E+02  0.1570E+02  0.4705E+02  0.4695E+02
     -4.553  0.1562E+02  0.1484E+02  0.4810E+02  0.4794E+02
     -4.486  0.2865E+02  0.2545E+02  0.5001E+02  0.4965E+02
     -4.419  0.2255E+02  0.2564E+02  0.5152E+02  0.5136E+02
     -4.352  0.1165E+02  0.1141E+02  0.5230E+02  0.5212E+02
     -4.286  0.8062E+01  0.1053E+02  0.5284E+02  0.5283E+02
     -4.219  0.1148E+02  0.6946E+01  0.5361E+02  0.5329E+02
     -4.152  0.1653E+02  0.1754E+02  0.5471E+02  0.5446E+02
     -4.085  0.1848E+02  0.1897E+02  0.5595E+02  0.5573E+02
     -4.018  0.1788E+02  0.1805E+02  0.5714E+02  0.5694E+02
     -3.952  0.2844E+02  0.2345E+02  0.5904E+02  0.5851E+02
     -3.885  0.1025E+02  0.1613E+02  0.5974E+02  0.5959E+02
     -3.818  0.1989E+02  0.1875E+02  0.6107E+02  0.6084E+02
     -3.751  0.1614E+02  0.1563E+02  0.6214E+02  0.6189E+02
     -3.685  0.2258E+02  0.2440E+02  0.6365E+02  0.6352E+02
     -3.618  0.7661E+01  0.9720E+01  0.6417E+02  0.6417E+02
     -3.551  0.1452E+02  0.1125E+02  0.6514E+02  0.6492E+02
     -3.484  0.1737E+02  0.1807E+02  0.6630E+02  0.6613E+02
     -3.417  0.1300E+02  0.1382E+02  0.6717E+02  0.6706E+02
     -3.351  0.1358E+02  0.1324E+02  0.6808E+02  0.6794E+02
     -3.284  0.2100E+02  0.2085E+02  0.6948E+02  0.6934E+02
     -3.217  0.1634E+02  0.1646E+02  0.7057E+02  0.7044E+02
     -3.150  0.1433E+02  0.1464E+02  0.7153E+02  0.7142E+02
     -3.083  0.1372E+02  0.1076E+02  0.7245E+02  0.7214E+02
     -3.017  0.1759E+02  0.1923E+02  0.7362E+02  0.7342E+02
     -2.950  0.3047E+02  0.2382E+02  0.7566E+02  0.7501E+02
     -2.883  0.1870E+02  0.2683E+02  0.7691E+02  0.7681E+02
     -2.816  0.1877E+02  0.1544E+02  0.7817E+02  0.7784E+02
     -2.749  0.8859E+01  0.1263E+02  0.7876E+02  0.7868E+02
     -2.683  0.1339E+02  0.1166E+02  0.7966E+02  0.7946E+02
     -2.616  0.6359E+01  0.8155E+01  0.8008E+02  0.8001E+02
     -2.549  0.1394E+02  0.1124E+02  0.8102E+02  0.8076E+02
     -2.482  0.2020E+02  0.1945E+02  0.8236E+02  0.8206E+02
     -2.415  0.1832E+02  0.1681E+02  0.8359E+02  0.8318E+02
     -2.349  0.3086E+02  0.2809E+02  0.8565E+02  0.8506E+02
     -2.282  0.2761E+02  0.3463E+02  0.8750E+02  0.8737E+02
     -2.215  0.7416E+01  0.9348E+01  0.8800E+02  0.8800E+02
     -2.148  0.9729E+01  0.7342E+01  0.8865E+02  0.8849E+02
     -2.081  0.1458E+02  0.1338E+02  0.8962E+02  0.8938E+02
     -2.015  0.1803E+02  0.1827E+02  0.9083E+02  0.9061E+02
     -1.948  0.2324E+02  0.2376E+02  0.9238E+02  0.9220E+02
     -1.881  0.1735E+02  0.1539E+02  0.9355E+02  0.9322E+02
     -1.814  0.1614E+02  0.1788E+02  0.9462E+02  0.9442E+02
     -1.748  0.2648E+02  0.2176E+02  0.9640E+02  0.9587E+02
     -1.681  0.1909E+02  0.2398E+02  0.9767E+02  0.9748E+02
     -1.614  0.2505E+02  0.2069E+02  0.9935E+02  0.9887E+02
     -1.547  0.2811E+02  0.2985E+02  0.1012E+03  0.1009E+03
     -1.480  0.1760E+02  0.1850E+02  0.1024E+03  0.1021E+03
     -1.414  0.2316E+02  0.2435E+02  0.1040E+03  0.1037E+03
     -1.347  0.1086E+02  0.1165E+02  0.1047E+03  0.1045E+03
     -1.280  0.3298E+02  0.3155E+02  0.1069E+03  0.1066E+03
     -1.213  0.1603E+02  0.1123E+02  0.1080E+03  0.1074E+03
     -1.146  0.2180E+02  0.2747E+02  0.1094E+03  0.1092E+03
     -1.080  0.1353E+02  0.1294E+02  0.1103E+03  0.1101E+03
     -1.013  0.1680E+02  0.1570E+02  0.1115E+03  0.1111E+03
     -0.946  0.1314E+02  0.1399E+02  0.1123E+03  0.1121E+03
     -0.879  0.3268E+02  0.3132E+02  0.1145E+03  0.1141E+03
     -0.812  0.2416E+02  0.2638E+02  0.1161E+03  0.1159E+03
     -0.746  0.2243E+02  0.2055E+02  0.1176E+03  0.1173E+03
     -0.679  0.2279E+02  0.2095E+02  0.1192E+03  0.1187E+03
     -0.612  0.2055E+02  0.2239E+02  0.1205E+03  0.1202E+03
     -0.545  0.2946E+02  0.3085E+02  0.1225E+03  0.1222E+03
     -0.478  0.6886E+01  0.9410E+01  0.1230E+03  0.1229E+03
     -0.412  0.8430E+01  0.5502E+01  0.1235E+03  0.1232E+03
     -0.345  0.2306E+02  0.2172E+02  0.1251E+03  0.1247E+03
     -0.278  0.2974E+02  0.3230E+02  0.1271E+03  0.1269E+03
     -0.211  0.2053E+02  0.2087E+02  0.1284E+03  0.1282E+03
     -0.144  0.1820E+02  0.1395E+02  0.1296E+03  0.1292E+03
     -0.078  0.1647E+02  0.1961E+02  0.1307E+03  0.1305E+03
     -0.011  0.2081E+02  0.1937E+02  0.1321E+03  0.1318E+03
      0.056  0.1927E+02  0.1338E+02  0.1334E+03  0.1327E+03
      0.123  0.2843E+02  0.3782E+02  0.1353E+03  0.1352E+03
      0.189  0.2230E+02  0.1783E+02  0.1368E+03  0.1364E+03
      0.256  0.1224E+02  0.1700E+02  0.1376E+03  0.1375E+03
      0.323  0.8767E+01  0.8701E+01  0.1382E+03  0.1381E+03
      0.390  0.1598E+02  0.1472E+02  0.1393E+03  0.1391E+03
      0.457  0.1468E+02  0.1226E+02  0.1403E+03  0.1399E+03
      0.523  0.2270E+02  0.2320E+02  0.1418E+03  0.1415E+03
      0.590  0.2298E+02  0.2482E+02  0.1433E+03  0.1431E+03
      0.657  0.5112E+01  0.8049E+01  0.1437E+03  0.1437E+03
      0.724  0.1681E+02  0.1456E+02  0.1448E+03  0.1446E+03
      0.791  0.1466E+02  0.1027E+02  0.1458E+03  0.1453E+03
      0.857  0.2672E+02  0.2532E+02  0.1476E+03  0.1470E+03
      0.924  0.2227E+02  0.2925E+02  0.1491E+03  0.1490E+03
      0.991  0.2569E+02  0.2228E+02  0.1508E+03  0.1505E+03
      1.058  0.1805E+02  0.1697E+02  0.1520E+03  0.1516E+03
      1.125  0.2838E+02  0.2901E+02  0.1539E+03  0.1535E+03
      1.191  0.3566E+02  0.3766E+02  0.1563E+03  0.1561E+03
      1.258  0.2797E+02  0.2141E+02  0.1581E+03  0.1575E+03
      1.325  0.2691E+02  0.2959E+02  0.1599E+03  0.1595E+03
      1.392  0.2116E+02  0.2255E+02  0.1614E+03  0.1610E+03
      1.459  0.2836E+02  0.2935E+02  0.1632E+03  0.1629E+03
      1.525  0.3878E+02  0.3538E+02  0.1658E+03  0.1653E+03
      1.592  0.1948E+02  0.2268E+02  0.1671E+03  0.1668E+03
      1.659  0.2074E+02  0.1875E+02  0.1685E+03  0.1681E+03
      1.726  0.2880E+02  0.3291E+02  0.1705E+03  0.1703E+03
      1.793  0.2363E+02  0.2167E+02  0.1720E+03  0.1717E+03
      1.859  0.1193E+02  0.1423E+02  0.1728E+03  0.1727E+03
      1.926  0.3158E+02  0.2718E+02  0.1749E+03  0.1745E+03
      1.993  0.1480E+02  0.1912E+02  0.1759E+03  0.1758E+03
      2.060  0.2624E+02  0.2010E+02  0.1777E+03  0.1771E+03
      2.126  0.2959E+02  0.3650E+02  0.1797E+03  0.1796E+03
      2.193  0.2688E+02  0.2074E+02  0.1815E+03  0.1810E+03
      2.260  0.2987E+02  0.3183E+02  0.1835E+03  0.1831E+03
      2.327  0.2255E+02  0.2374E+02  0.1850E+03  0.1847E+03
      2.394  0.2451E+02  0.2507E+02  0.1866E+03  0.1863E+03
      2.460  0.2704E+02  0.2351E+02  0.1884E+03  0.1879E+03
      2.527  0.2696E+02  0.2857E+02  0.1902E+03  0.1898E+03
      2.594  0.2092E+02  0.2108E+02  0.1916E+03  0.1912E+03
      2.661  0.3183E+02  0.3548E+02  0.1937E+03  0.1936E+03
      2.728  0.3012E+02  0.2497E+02  0.1958E+03  0.1953E+03
      2.794  0.2329E+02  0.2396E+02  0.1973E+03  0.1969E+03
      2.861  0.2613E+02  0.2975E+02  0.1991E+03  0.1989E+03
      2.928  0.2762E+02  0.2591E+02  0.2009E+03  0.2006E+03
      2.995  0.2831E+02  0.2522E+02  0.2028E+03  0.2023E+03
      3.062  0.2759E+02  0.3239E+02  0.2047E+03  0.2045E+03
      3.128  0.1522E+02  0.1240E+02  0.2057E+03  0.2053E+03
      3.195  0.3323E+02  0.3373E+02  0.2079E+03  0.2075E+03
      3.262  0.1328E+02  0.1318E+02  0.2088E+03  0.2084E+03
      3.329  0.3388E+02  0.3655E+02  0.2110E+03  0.2109E+03
      3.396  0.3813E+02  0.3311E+02  0.2136E+03  0.2131E+03
      3.462  0.3728E+02  0.3707E+02  0.2161E+03  0.2156E+03
      3.529  0.2713E+02  0.3044E+02  0.2179E+03  0.2176E+03
      3.596  0.3076E+02  0.2638E+02  0.2200E+03  0.2194E+03
      3.663  0.2819E+02  0.2885E+02  0.2219E+03  0.2213E+03
      3.730  0.2952E+02  0.2914E+02  0.2238E+03  0.2232E+03
      3.796  0.2652E+02  0.2935E+02  0.2256E+03  0.2252E+03
      3.863  0.2870E+02  0.2967E+02  0.2275E+03  0.2272E+03
      3.930  0.2430E+02  0.2461E+02  0.2291E+03  0.2288E+03
      3.997  0.2544E+02  0.2722E+02  0.2308E+03  0.2307E+03
      4.063  0.2969E+02  0.2815E+02  0.2328E+03  0.2325E+03
      4.130  0.3280E+02  0.2698E+02  0.2350E+03  0.2343E+03
      4.197  0.2818E+02  0.2751E+02  0.2369E+03  0.2362E+03
      4.264  0.3012E+02  0.3479E+02  0.2389E+03  0.2385E+03
      4.331  0.1437E+02  0.1824E+02  0.2399E+03  0.2397E+03
      4.397  0.3334E+02  0.2995E+02  0.2421E+03  0.2417E+03
      4.464  0.1747E+02  0.2025E+02  0.2433E+03  0.2431E+03
      4.531  0.3258E+02  0.2414E+02  0.2455E+03  0.2447E+03
      4.598  0.2196E+02  0.3016E+02  0.2469E+03  0.2467E+03
      4.665  0.1883E+02  0.1769E+02  0.2482E+03  0.2479E+03
      4.731  0.2368E+02  0.2297E+02  0.2498E+03  0.2494E+03
      4.798  0.2397E+02  0.1967E+02  0.2514E+03  0.2507E+03
      4.865  0.2901E+02  0.3431E+02  0.2533E+03  0.2530E+03
      4.932  0.3592E+02  0.2709E+02  0.2557E+03  0.2548E+03
      4.999  0.2249E+02  0.2736E+02  0.2572E+03  0.2567E+03
      5.065  0.2473E+02  0.2741E+02  0.2589E+03  0.2585E+03
      5.132  0.2253E+02  0.2395E+02  0.2604E+03  0.2601E+03
      5.199  0.2181E+02  0.1717E+02  0.2618E+03  0.2613E+03
      5.266  0.3038E+02  0.3186E+02  0.2639E+03  0.2634E+03
      5.333  0.9954E+01  0.1170E+02  0.2645E+03  0.2642E+03
      5.399  0.2276E+02  0.2461E+02  0.2661E+03  0.2658E+03
      5.466  0.1932E+02  0.1909E+02  0.2674E+03  0.2671E+03
      5.533  0.2645E+02  0.1933E+02  0.2691E+03  0.2684E+03
      5.600  0.2459E+02  0.3394E+02  0.2708E+03  0.2707E+03
      5.667  0.2896E+02  0.2536E+02  0.2727E+03  0.2724E+03
      5.733  0.2030E+02  0.1774E+02  0.2741E+03  0.2735E+03
      5.800  0.3475E+02  0.3279E+02  0.2764E+03  0.2757E+03
      5.867  0.2362E+02  0.2528E+02  0.2780E+03  0.2774E+03
      5.934  0.2377E+02  0.2410E+02  0.2796E+03  0.2790E+03
      6.000  0.2928E+02  0.2030E+02  0.2815E+03  0.2804E+03
      6.067  0.2891E+02  0.3565E+02  0.2835E+03  0.2828E+03
      6.134  0.1833E+02  0.2257E+02  0.2847E+03  0.2843E+03
      6.201  0.2610E+02  0.2400E+02  0.2864E+03  0.2859E+03
      6.268  0.2863E+02  0.2235E+02  0.2884E+03  0.2874E+03
      6.334  0.2877E+02  0.3421E+02  0.2903E+03  0.2897E+03
      6.401  0.2607E+02  0.2256E+02  0.2920E+03  0.2912E+03
      6.468  0.2120E+02  0.2728E+02  0.2935E+03  0.2930E+03
      6.535  0.1992E+02  0.2419E+02  0.2948E+03  0.2946E+03
      6.602  0.2452E+02  0.2214E+02  0.2964E+03  0.2961E+03
      6.668  0.3270E+02  0.2671E+02  0.2986E+03  0.2979E+03
      6.735  0.2638E+02  0.2742E+02  0.3004E+03  0.2997E+03
      6.802  0.2878E+02  0.2957E+02  0.3023E+03  0.3017E+03
      6.869  0.3195E+02  0.2867E+02  0.3044E+03  0.3036E+03
      6.936  0.2735E+02  0.3283E+02  0.3063E+03  0.3058E+03
      7.002  0.3273E+02  0.3361E+02  0.3085E+03  0.3081E+03
      7.069  0.2115E+02  0.1665E+02  0.3099E+03  0.3092E+03
      7.136  0.3409E+02  0.3473E+02  0.3121E+03  0.3115E+03
      7.203  0.2787E+02  0.3143E+02  0.3140E+03  0.3136E+03
      7.270  0.3008E+02  0.2697E+02  0.3160E+03  0.3154E+03
      7.336  0.3472E+02  0.3782E+02  0.3183E+03  0.3179E+03
      7.403  0.2746E+02  0.2263E+02  0.3202E+03  0.3194E+03
      7.470  0.2131E+02  0.2530E+02  0.3216E+03  0.3211E+03
      7.537  0.4720E+02  0.4300E+02  0.3248E+03  0.3240E+03
      7.604  0.3220E+02  0.3194E+02  0.3269E+03  0.3262E+03
      7.670  0.2945E+02  0.3472E+02  0.3289E+03  0.3285E+03
      7.737  0.3857E+02  0.3776E+02  0.3315E+03  0.3310E+03
      7.804  0.3077E+02  0.2713E+02  0.3335E+03  0.3328E+03
      7.871  0.3164E+02  0.3518E+02  0.3356E+03  0.3352E+03
      7.937  0.3130E+02  0.2758E+02  0.3377E+03  0.3370E+03
      8.004  0.4963E+02  0.4838E+02  0.3411E+03  0.3402E+03
      8.071  0.3694E+02  0.4097E+02  0.3435E+03  0.3430E+03
      8.138  0.3270E+02  0.2955E+02  0.3457E+03  0.3450E+03
      8.205  0.2736E+02  0.3569E+02  0.3475E+03  0.3473E+03
      8.271  0.4358E+02  0.3711E+02  0.3505E+03  0.3498E+03
      8.338  0.1375E+02  0.1703E+02  0.3514E+03  0.3510E+03
      8.405  0.6807E+01  0.1296E+02  0.3518E+03  0.3518E+03
      8.472  0.2470E+01  0.2495E+01  0.3520E+03  0.3520E+03
      8.539  0.0000E+00  0.0000E+00  0.3520E+03  0.3520E+03
      8.605  0.0000E+00  0.0000E+00  0.3520E+03  0.3520E+03
      8.672  0.0000E+00  0.0000E+00  0.3520E+03  0.3520E+03
      8.739  0.0000E+00  0.0000E+00  0.3520E+03  0.3520E+03
      8.806  0.0000E+00  0.0000E+00  0.3520E+03  0.3520E+03
      8.873  0.0000E+00  0.0000E+00  0.3520E+03  0.3520E+03
      8.939  0.0000E+00  0.0000E+00  0.3520E+03  0.3520E+03
      9.006  0.0000E+00  0.0000E+00  0.3520E+03  0.3520E+03
      9.073  0.0000E+00  0.0000E+00  0.3520E+03  0.3520E+03
      9.140  0.0000E+00  0.0000E+00  0.3520E+03  0.3520E+03
      9.207  0.0000E+00  0.0000E+00  0.3520E+03  0.3520E+03
      9.273  0.0000E+00  0.0000E+00  0.3520E+03  0.3520E+03
      9.340  0.0000E+00  0.0000E+00  0.3520E+03  0.3520E+03
