 168 168   0   0
  0.2680331E+02  0.1600268E-08  0.1600268E-08  0.2030401E-08  0.5000000E-15
  1.000000000000000E-004
  CAR 
 Si and Ge interface calculation         
      6.60477362     -9.48740243  301      3.63444674      1.00000000
     -9.487  0.0000E+00  0.0000E+00  0.0000E+00  0.0000E+00
     -9.434  0.0000E+00  0.0000E+00  0.0000E+00  0.0000E+00
     -9.380  0.0000E+00  0.0000E+00  0.0000E+00  0.0000E+00
     -9.326  0.0000E+00  0.0000E+00  0.0000E+00  0.0000E+00
     -9.273  0.0000E+00  0.0000E+00  0.0000E+00  0.0000E+00
     -9.219  0.0000E+00  0.0000E+00  0.0000E+00  0.0000E+00
     -9.166  0.0000E+00  0.0000E+00  0.0000E+00  0.0000E+00
     -9.112  0.0000E+00  0.0000E+00  0.0000E+00  0.0000E+00
     -9.058  0.0000E+00  0.0000E+00  0.0000E+00  0.0000E+00
     -9.005  0.0000E+00  0.0000E+00  0.0000E+00  0.0000E+00
     -8.951  0.0000E+00  0.0000E+00  0.0000E+00  0.0000E+00
     -8.897  0.0000E+00  0.0000E+00  0.0000E+00  0.0000E+00
     -8.844  0.0000E+00  0.0000E+00  0.0000E+00  0.0000E+00
     -8.790  0.5881E-05  0.1367E-06  0.3154E-06  0.7333E-08
     -8.736  0.9293E+01  0.9128E+01  0.4985E+00  0.4896E+00
     -8.683  0.2874E-01  0.1931E+00  0.5000E+00  0.5000E+00
     -8.629  0.2375E-07  0.2352E-09  0.5000E+00  0.5000E+00
     -8.576  0.5181E+02  0.4331E+02  0.3279E+01  0.2823E+01
     -8.522  0.4118E+01  0.1262E+02  0.3500E+01  0.3500E+01
     -8.468  0.0000E+00  0.0000E+00  0.3500E+01  0.3500E+01
     -8.415  0.0000E+00  0.0000E+00  0.3500E+01  0.3500E+01
     -8.361  0.8028E-02  0.3460E-03  0.3500E+01  0.3500E+01
     -8.307  0.9313E+01  0.9319E+01  0.4000E+01  0.4000E+01
     -8.254  0.2106E+02  0.8889E+01  0.5130E+01  0.4477E+01
     -8.200  0.3487E+02  0.4704E+02  0.7000E+01  0.7000E+01
     -8.146  0.5584E+02  0.5500E+02  0.9995E+01  0.9950E+01
     -8.093  0.2522E+02  0.2178E+02  0.1135E+02  0.1112E+02
     -8.039  0.3080E+02  0.3507E+02  0.1300E+02  0.1300E+02
     -7.985  0.0000E+00  0.0000E+00  0.1300E+02  0.1300E+02
     -7.932  0.0000E+00  0.0000E+00  0.1300E+02  0.1300E+02
     -7.878  0.1043E-07  0.5346E-10  0.1300E+02  0.1300E+02
     -7.825  0.5046E+02  0.3903E+02  0.1571E+02  0.1509E+02
     -7.771  0.5471E+01  0.1690E+02  0.1600E+02  0.1600E+02
     -7.717  0.1492E-03  0.1569E-04  0.1600E+02  0.1600E+02
     -7.664  0.2816E+02  0.2761E+02  0.1751E+02  0.1748E+02
     -7.610  0.8271E+02  0.7748E+02  0.2195E+02  0.2164E+02
     -7.556  0.5692E+02  0.6270E+02  0.2500E+02  0.2500E+02
     -7.503  0.8098E+01  0.6764E+01  0.2543E+02  0.2536E+02
     -7.449  0.1223E+01  0.2558E+01  0.2550E+02  0.2550E+02
     -7.395  0.8244E-09  0.3255E-10  0.2550E+02  0.2550E+02
     -7.342  0.3782E+02  0.2850E+02  0.2753E+02  0.2703E+02
     -7.288  0.7403E+02  0.8334E+02  0.3150E+02  0.3150E+02
     -7.234  0.4301E-01  0.1653E-01  0.3150E+02  0.3150E+02
     -7.181  0.6161E+02  0.5646E+02  0.3481E+02  0.3453E+02
     -7.127  0.5021E+02  0.5539E+02  0.3750E+02  0.3750E+02
     -7.074  0.0000E+00  0.0000E+00  0.3750E+02  0.3750E+02
     -7.020  0.6822E-01  0.7243E-02  0.3750E+02  0.3750E+02
     -6.966  0.5586E+02  0.5590E+02  0.4050E+02  0.4050E+02
     -6.913  0.8159E+02  0.7603E+02  0.4488E+02  0.4458E+02
     -6.859  0.2464E+02  0.2130E+02  0.4620E+02  0.4572E+02
     -6.805  0.9316E+02  0.9886E+02  0.5120E+02  0.5102E+02
     -6.752  0.3131E+02  0.3051E+02  0.5287E+02  0.5266E+02
     -6.698  0.6759E+02  0.7161E+02  0.5650E+02  0.5650E+02
     -6.644  0.7692E+01  0.4464E+01  0.5691E+02  0.5674E+02
     -6.591  0.1254E+02  0.1093E+02  0.5759E+02  0.5733E+02
     -6.537  0.3082E+02  0.3103E+02  0.5924E+02  0.5899E+02
     -6.484  0.4850E+02  0.5214E+02  0.6184E+02  0.6179E+02
     -6.430  0.2168E+02  0.2244E+02  0.6300E+02  0.6299E+02
     -6.376  0.8882E+02  0.8075E+02  0.6777E+02  0.6732E+02
     -6.323  0.1156E+03  0.1055E+03  0.7397E+02  0.7298E+02
     -6.269  0.4725E+02  0.6564E+02  0.7650E+02  0.7650E+02
     -6.215  0.1821E+02  0.1220E+02  0.7748E+02  0.7715E+02
     -6.162  0.4709E+02  0.5306E+02  0.8000E+02  0.8000E+02
     -6.108  0.4615E+01  0.4651E+01  0.8025E+02  0.8025E+02
     -6.054  0.7429E+02  0.6798E+02  0.8424E+02  0.8390E+02
     -6.001  0.9913E+01  0.1600E+02  0.8477E+02  0.8475E+02
     -5.947  0.9968E+02  0.7883E+02  0.9011E+02  0.8898E+02
     -5.893  0.3057E+02  0.5160E+02  0.9175E+02  0.9175E+02
     -5.840  0.3004E+02  0.2727E+02  0.9337E+02  0.9321E+02
     -5.786  0.7527E+02  0.6779E+02  0.9740E+02  0.9685E+02
     -5.733  0.6706E+02  0.7736E+02  0.1010E+03  0.1010E+03
     -5.679  0.1888E+02  0.1204E+02  0.1020E+03  0.1016E+03
     -5.625  0.9088E+01  0.1592E+02  0.1025E+03  0.1025E+03
     -5.572  0.5308E+01  0.1443E+01  0.1028E+03  0.1026E+03
     -5.518  0.8627E+02  0.7770E+02  0.1074E+03  0.1067E+03
     -5.464  0.6720E+02  0.6961E+02  0.1110E+03  0.1105E+03
     -5.411  0.6683E+02  0.7083E+02  0.1146E+03  0.1143E+03
     -5.357  0.2273E+02  0.2506E+02  0.1158E+03  0.1156E+03
     -5.303  0.7835E+02  0.7272E+02  0.1200E+03  0.1195E+03
     -5.250  0.5794E+02  0.6574E+02  0.1231E+03  0.1230E+03
     -5.196  0.2554E+02  0.2705E+02  0.1245E+03  0.1245E+03
     -5.143  0.5575E+02  0.5399E+02  0.1275E+03  0.1274E+03
     -5.089  0.5585E+02  0.5341E+02  0.1305E+03  0.1303E+03
     -5.035  0.3743E+02  0.3842E+02  0.1325E+03  0.1323E+03
     -4.982  0.7757E+02  0.6660E+02  0.1367E+03  0.1359E+03
     -4.928  0.6166E+02  0.6916E+02  0.1400E+03  0.1396E+03
     -4.874  0.6417E+02  0.6162E+02  0.1434E+03  0.1429E+03
     -4.821  0.7354E+02  0.7830E+02  0.1474E+03  0.1471E+03
     -4.767  0.9167E+02  0.9284E+02  0.1523E+03  0.1521E+03
     -4.713  0.3905E+02  0.3565E+02  0.1544E+03  0.1540E+03
     -4.660  0.3080E+02  0.3727E+02  0.1560E+03  0.1560E+03
     -4.606  0.4166E+02  0.4186E+02  0.1582E+03  0.1582E+03
     -4.552  0.3417E+02  0.2991E+02  0.1601E+03  0.1599E+03
     -4.499  0.2520E+02  0.2777E+02  0.1614E+03  0.1613E+03
     -4.445  0.2782E+02  0.2537E+02  0.1629E+03  0.1627E+03
     -4.392  0.4532E+02  0.4342E+02  0.1654E+03  0.1650E+03
     -4.338  0.9939E+02  0.1007E+03  0.1707E+03  0.1704E+03
     -4.284  0.3435E+02  0.3106E+02  0.1725E+03  0.1721E+03
     -4.231  0.4848E+02  0.5188E+02  0.1751E+03  0.1749E+03
     -4.177  0.3482E+02  0.3953E+02  0.1770E+03  0.1770E+03
     -4.123  0.2861E+02  0.2150E+02  0.1785E+03  0.1782E+03
     -4.070  0.6073E+02  0.5710E+02  0.1818E+03  0.1812E+03
     -4.016  0.2252E+02  0.3326E+02  0.1830E+03  0.1830E+03
     -3.962  0.1395E+02  0.1383E+02  0.1837E+03  0.1837E+03
     -3.909  0.2798E+02  0.2750E+02  0.1852E+03  0.1852E+03
     -3.855  0.5812E+02  0.5654E+02  0.1884E+03  0.1883E+03
     -3.802  0.6209E+02  0.6040E+02  0.1917E+03  0.1915E+03
     -3.748  0.5290E+02  0.4686E+02  0.1945E+03  0.1940E+03
     -3.694  0.6105E+02  0.6302E+02  0.1978E+03  0.1974E+03
     -3.641  0.6662E+02  0.6030E+02  0.2014E+03  0.2006E+03
     -3.587  0.1617E+02  0.3041E+02  0.2023E+03  0.2023E+03
     -3.533  0.5504E+02  0.4601E+02  0.2052E+03  0.2047E+03
     -3.480  0.6708E+02  0.6962E+02  0.2088E+03  0.2085E+03
     -3.426  0.5940E+02  0.6504E+02  0.2120E+03  0.2119E+03
     -3.372  0.3000E+01  0.1960E+01  0.2121E+03  0.2120E+03
     -3.319  0.5317E+02  0.5503E+02  0.2150E+03  0.2150E+03
     -3.265  0.1630E+02  0.1349E+02  0.2159E+03  0.2157E+03
     -3.211  0.9254E+02  0.9432E+02  0.2208E+03  0.2208E+03
     -3.158  0.1030E+03  0.9048E+02  0.2264E+03  0.2256E+03
     -3.104  0.3512E+02  0.4851E+02  0.2282E+03  0.2282E+03
     -3.051  0.2992E+02  0.1781E+02  0.2299E+03  0.2292E+03
     -2.997  0.8651E+02  0.9650E+02  0.2345E+03  0.2344E+03
     -2.943  0.7525E+02  0.7704E+02  0.2385E+03  0.2385E+03
     -2.890  0.9247E+02  0.9246E+02  0.2435E+03  0.2435E+03
     -2.836  0.2778E+02  0.2700E+02  0.2450E+03  0.2449E+03
     -2.782  0.3945E+02  0.3573E+02  0.2471E+03  0.2468E+03
     -2.729  0.8773E+02  0.8205E+02  0.2518E+03  0.2512E+03
     -2.675  0.3947E+02  0.4641E+02  0.2539E+03  0.2537E+03
     -2.621  0.4345E+02  0.4723E+02  0.2562E+03  0.2562E+03
     -2.568  0.1523E-02  0.1389E-03  0.2563E+03  0.2563E+03
     -2.514  0.8121E+02  0.7690E+02  0.2606E+03  0.2604E+03
     -2.460  0.2997E+02  0.3270E+02  0.2622E+03  0.2621E+03
     -2.407  0.6558E+02  0.6070E+02  0.2657E+03  0.2654E+03
     -2.353  0.5392E+02  0.5081E+02  0.2686E+03  0.2681E+03
     -2.300  0.1113E+03  0.1092E+03  0.2746E+03  0.2740E+03
     -2.246  0.1222E+02  0.2386E+02  0.2753E+03  0.2753E+03
     -2.192  0.5585E+02  0.5575E+02  0.2782E+03  0.2782E+03
     -2.139  0.2792E+02  0.2780E+02  0.2797E+03  0.2797E+03
     -2.085  0.1009E+02  0.7929E+01  0.2803E+03  0.2802E+03
     -2.031  0.3194E+02  0.3435E+02  0.2820E+03  0.2820E+03
     -1.978  0.1139E+01  0.3356E+00  0.2821E+03  0.2820E+03
     -1.924  0.5481E+02  0.5559E+02  0.2850E+03  0.2850E+03
     -1.870  0.4421E+02  0.4065E+02  0.2874E+03  0.2872E+03
     -1.817  0.5364E+02  0.5722E+02  0.2902E+03  0.2902E+03
     -1.763  0.5471E+02  0.5112E+02  0.2932E+03  0.2930E+03
     -1.710  0.1486E+01  0.4869E+01  0.2933E+03  0.2933E+03
     -1.656  0.6587E+02  0.4971E+02  0.2968E+03  0.2959E+03
     -1.602  0.8072E+02  0.9533E+02  0.3011E+03  0.3010E+03
     -1.549  0.6674E+02  0.6736E+02  0.3047E+03  0.3046E+03
     -1.495  0.5453E+01  0.6587E+01  0.3050E+03  0.3050E+03
     -1.441  0.9846E+01  0.6317E+01  0.3055E+03  0.3053E+03
     -1.388  0.3200E+02  0.3525E+02  0.3072E+03  0.3072E+03
     -1.334  0.1032E+00  0.3886E+00  0.3072E+03  0.3072E+03
     -1.280  0.6983E-01  0.2021E-02  0.3073E+03  0.3073E+03
     -1.227  0.2802E+02  0.2798E+02  0.3088E+03  0.3088E+03
     -1.173  0.2784E+02  0.2794E+02  0.3102E+03  0.3102E+03
     -1.119  0.1552E-14  0.0000E+00  0.3102E+03  0.3102E+03
     -1.066  0.6455E+01  0.1824E+01  0.3106E+03  0.3103E+03
     -1.012  0.2151E+02  0.2614E+02  0.3117E+03  0.3117E+03
     -0.959  0.0000E+00  0.0000E+00  0.3118E+03  0.3118E+03
     -0.905  0.2276E-05  0.1095E-06  0.3118E+03  0.3118E+03
     -0.851  0.1908E+02  0.1502E+02  0.3128E+03  0.3126E+03
     -0.798  0.4332E+02  0.3907E+02  0.3151E+03  0.3147E+03
     -0.744  0.3303E+02  0.3915E+02  0.3169E+03  0.3168E+03
     -0.690  0.2605E+02  0.2310E+02  0.3183E+03  0.3180E+03
     -0.637  0.6103E+02  0.5982E+02  0.3215E+03  0.3212E+03
     -0.583  0.3340E+02  0.3059E+02  0.3233E+03  0.3228E+03
     -0.529  0.7802E+01  0.1697E+02  0.3238E+03  0.3237E+03
     -0.476  0.0000E+00  0.0000E+00  0.3238E+03  0.3238E+03
     -0.422  0.4965E-01  0.1101E-01  0.3238E+03  0.3238E+03
     -0.369  0.8113E+01  0.5670E+01  0.3242E+03  0.3241E+03
     -0.315  0.5707E+02  0.5942E+02  0.3272E+03  0.3272E+03
     -0.261  0.1193E+03  0.9619E+02  0.3336E+03  0.3324E+03
     -0.208  0.1154E+03  0.1294E+03  0.3398E+03  0.3393E+03
     -0.154  0.3483E+02  0.3364E+02  0.3417E+03  0.3411E+03
     -0.100  0.1097E+03  0.1141E+03  0.3476E+03  0.3473E+03
     -0.047  0.9095E+02  0.8742E+02  0.3525E+03  0.3520E+03
      0.007  0.1088E+03  0.1054E+03  0.3583E+03  0.3576E+03
      0.061  0.4413E+02  0.5436E+02  0.3607E+03  0.3605E+03
      0.114  0.3156E+02  0.2816E+02  0.3624E+03  0.3620E+03
      0.168  0.5200E+02  0.5602E+02  0.3652E+03  0.3650E+03
      0.222  0.1355E+03  0.1188E+03  0.3724E+03  0.3714E+03
      0.275  0.1229E+03  0.1314E+03  0.3790E+03  0.3785E+03
      0.329  0.1215E+03  0.1101E+03  0.3855E+03  0.3844E+03
      0.382  0.6927E+02  0.8058E+02  0.3892E+03  0.3887E+03
      0.436  0.1052E+03  0.9670E+02  0.3949E+03  0.3939E+03
      0.490  0.1083E+03  0.1236E+03  0.4007E+03  0.4005E+03
      0.543  0.4318E+02  0.4647E+02  0.4030E+03  0.4030E+03
      0.597  0.7600E+02  0.6505E+02  0.4071E+03  0.4065E+03
      0.651  0.3532E+02  0.3620E+02  0.4090E+03  0.4084E+03
      0.704  0.5011E+02  0.5466E+02  0.4117E+03  0.4114E+03
      0.758  0.1150E+03  0.1120E+03  0.4178E+03  0.4174E+03
      0.812  0.1154E+03  0.1070E+03  0.4240E+03  0.4231E+03
      0.865  0.1164E+03  0.1243E+03  0.4303E+03  0.4298E+03
      0.919  0.1727E+03  0.1713E+03  0.4395E+03  0.4390E+03
      0.973  0.1218E+03  0.1202E+03  0.4461E+03  0.4454E+03
      1.026  0.1167E+03  0.1189E+03  0.4523E+03  0.4518E+03
      1.080  0.8498E+02  0.8718E+02  0.4569E+03  0.4565E+03
      1.133  0.1458E+03  0.1443E+03  0.4647E+03  0.4642E+03
      1.187  0.8371E+02  0.7083E+02  0.4692E+03  0.4680E+03
      1.241  0.1239E+03  0.1344E+03  0.4758E+03  0.4752E+03
      1.294  0.1067E+03  0.1065E+03  0.4816E+03  0.4809E+03
      1.348  0.9793E+02  0.9927E+02  0.4868E+03  0.4863E+03
      1.402  0.1174E+03  0.1123E+03  0.4931E+03  0.4923E+03
      1.455  0.7075E+02  0.8150E+02  0.4969E+03  0.4967E+03
      1.509  0.1627E+03  0.1499E+03  0.5056E+03  0.5047E+03
      1.563  0.1454E+03  0.1573E+03  0.5134E+03  0.5131E+03
      1.616  0.1181E+03  0.1081E+03  0.5198E+03  0.5189E+03
      1.670  0.9257E+02  0.1081E+03  0.5247E+03  0.5247E+03
      1.723  0.1371E+03  0.1205E+03  0.5321E+03  0.5312E+03
      1.777  0.1041E+03  0.1069E+03  0.5377E+03  0.5369E+03
      1.831  0.8676E+02  0.8898E+02  0.5423E+03  0.5417E+03
      1.884  0.8823E+02  0.9489E+02  0.5471E+03  0.5468E+03
      1.938  0.8822E+02  0.8574E+02  0.5518E+03  0.5514E+03
      1.992  0.7890E+02  0.8010E+02  0.5560E+03  0.5557E+03
      2.045  0.6737E+02  0.6864E+02  0.5597E+03  0.5594E+03
      2.099  0.8676E+02  0.8266E+02  0.5643E+03  0.5638E+03
      2.153  0.1587E+03  0.1586E+03  0.5728E+03  0.5723E+03
      2.206  0.9141E+02  0.8203E+02  0.5777E+03  0.5767E+03
      2.260  0.8801E+02  0.9698E+02  0.5824E+03  0.5819E+03
      2.314  0.8988E+02  0.9698E+02  0.5873E+03  0.5871E+03
      2.367  0.5114E+02  0.5080E+02  0.5900E+03  0.5898E+03
      2.421  0.1065E+03  0.1004E+03  0.5957E+03  0.5952E+03
      2.474  0.5649E+02  0.6323E+02  0.5988E+03  0.5986E+03
      2.528  0.7966E+02  0.7393E+02  0.6030E+03  0.6026E+03
      2.582  0.4187E+02  0.4816E+02  0.6053E+03  0.6052E+03
      2.635  0.9172E+02  0.8881E+02  0.6102E+03  0.6099E+03
      2.689  0.1248E+03  0.1228E+03  0.6169E+03  0.6165E+03
      2.743  0.5226E+02  0.5288E+02  0.6197E+03  0.6193E+03
      2.796  0.1000E+03  0.9478E+02  0.6251E+03  0.6244E+03
      2.850  0.6379E+02  0.6925E+02  0.6285E+03  0.6281E+03
      2.904  0.6539E+02  0.6952E+02  0.6320E+03  0.6319E+03
      2.957  0.1434E+02  0.1627E+02  0.6328E+03  0.6327E+03
      3.011  0.6337E+02  0.4637E+02  0.6362E+03  0.6352E+03
      3.064  0.6245E+02  0.7870E+02  0.6395E+03  0.6395E+03
      3.118  0.2456E+02  0.1938E+02  0.6408E+03  0.6405E+03
      3.172  0.1082E+03  0.1050E+03  0.6466E+03  0.6461E+03
      3.225  0.5786E+02  0.6416E+02  0.6497E+03  0.6496E+03
      3.279  0.3938E+02  0.2871E+02  0.6518E+03  0.6511E+03
      3.333  0.7780E+02  0.6053E+02  0.6560E+03  0.6544E+03
      3.386  0.5877E+02  0.8611E+02  0.6592E+03  0.6590E+03
      3.440  0.4596E+02  0.4012E+02  0.6616E+03  0.6611E+03
      3.494  0.4246E+02  0.4914E+02  0.6639E+03  0.6638E+03
      3.547  0.3782E+02  0.2774E+02  0.6659E+03  0.6653E+03
      3.601  0.6868E+02  0.6191E+02  0.6696E+03  0.6686E+03
      3.655  0.5344E+02  0.6928E+02  0.6725E+03  0.6723E+03
      3.708  0.4204E+02  0.3204E+02  0.6747E+03  0.6740E+03
      3.762  0.1258E+02  0.1390E+02  0.6754E+03  0.6748E+03
      3.815  0.3402E+02  0.4550E+02  0.6772E+03  0.6772E+03
      3.869  0.2652E+02  0.8166E+01  0.6787E+03  0.6776E+03
      3.923  0.6259E+01  0.2547E+02  0.6790E+03  0.6790E+03
      3.976  0.1149E+02  0.9671E+01  0.6796E+03  0.6795E+03
      4.030  0.5839E+02  0.5883E+02  0.6827E+03  0.6827E+03
      4.084  0.8875E+01  0.4938E+01  0.6832E+03  0.6829E+03
      4.137  0.6179E+02  0.5517E+02  0.6865E+03  0.6859E+03
      4.191  0.6453E+02  0.7641E+02  0.6900E+03  0.6900E+03
      4.245  0.1634E+02  0.1019E+02  0.6909E+03  0.6905E+03
      4.298  0.6158E+02  0.6387E+02  0.6942E+03  0.6940E+03
      4.352  0.2847E+02  0.2764E+02  0.6957E+03  0.6955E+03
      4.406  0.4617E+02  0.4836E+02  0.6982E+03  0.6980E+03
      4.459  0.1045E+02  0.7856E+01  0.6987E+03  0.6985E+03
      4.513  0.7891E+02  0.6886E+02  0.7030E+03  0.7022E+03
      4.566  0.7012E+02  0.8436E+02  0.7067E+03  0.7067E+03
      4.620  0.6489E+01  0.3633E+01  0.7071E+03  0.7069E+03
      4.674  0.7150E+02  0.7127E+02  0.7109E+03  0.7107E+03
      4.727  0.9003E+02  0.8555E+02  0.7158E+03  0.7153E+03
      4.781  0.9915E+02  0.1043E+03  0.7211E+03  0.7209E+03
      4.835  0.7105E+02  0.6981E+02  0.7249E+03  0.7246E+03
      4.888  0.4642E+02  0.4822E+02  0.7274E+03  0.7272E+03
      4.942  0.3097E+02  0.3094E+02  0.7290E+03  0.7289E+03
      4.996  0.6121E+02  0.5987E+02  0.7323E+03  0.7321E+03
      5.049  0.6386E+02  0.6662E+02  0.7357E+03  0.7357E+03
      5.103  0.6692E+02  0.6544E+02  0.7393E+03  0.7392E+03
      5.156  0.1253E+03  0.1136E+03  0.7461E+03  0.7453E+03
      5.210  0.9885E+02  0.1120E+03  0.7514E+03  0.7513E+03
      5.264  0.1028E+03  0.8662E+02  0.7569E+03  0.7559E+03
      5.317  0.6852E+02  0.7564E+02  0.7605E+03  0.7600E+03
      5.371  0.7303E+02  0.7943E+02  0.7645E+03  0.7642E+03
      5.425  0.7324E+02  0.7562E+02  0.7684E+03  0.7683E+03
      5.478  0.1013E+03  0.9628E+02  0.7738E+03  0.7735E+03
      5.532  0.1041E+03  0.9375E+02  0.7794E+03  0.7785E+03
      5.586  0.7913E+02  0.8683E+02  0.7837E+03  0.7832E+03
      5.639  0.9870E+02  0.1003E+03  0.7890E+03  0.7885E+03
      5.693  0.9793E+02  0.9394E+02  0.7942E+03  0.7936E+03
      5.747  0.1165E+03  0.1199E+03  0.8005E+03  0.8000E+03
      5.800  0.6755E+02  0.7117E+02  0.8041E+03  0.8038E+03
      5.854  0.6471E+02  0.6242E+02  0.8075E+03  0.8072E+03
      5.907  0.8476E+01  0.1543E+02  0.8080E+03  0.8080E+03
      5.961  0.0000E+00  0.0000E+00  0.8080E+03  0.8080E+03
      6.015  0.0000E+00  0.0000E+00  0.8080E+03  0.8080E+03
      6.068  0.0000E+00  0.0000E+00  0.8080E+03  0.8080E+03
      6.122  0.0000E+00  0.0000E+00  0.8080E+03  0.8080E+03
      6.176  0.0000E+00  0.0000E+00  0.8080E+03  0.8080E+03
      6.229  0.0000E+00  0.0000E+00  0.8080E+03  0.8080E+03
      6.283  0.0000E+00  0.0000E+00  0.8080E+03  0.8080E+03
      6.337  0.0000E+00  0.0000E+00  0.8080E+03  0.8080E+03
      6.390  0.0000E+00  0.0000E+00  0.8080E+03  0.8080E+03
      6.444  0.0000E+00  0.0000E+00  0.8080E+03  0.8080E+03
      6.497  0.0000E+00  0.0000E+00  0.8080E+03  0.8080E+03
      6.551  0.0000E+00  0.0000E+00  0.8080E+03  0.8080E+03
      6.605  0.0000E+00  0.0000E+00  0.8080E+03  0.8080E+03
