Si and Ge interface calculation         
           1
    11.315600    0.000000    0.000000
     0.000000   17.891535    0.000000
     0.000000   -0.000000   13.867381
   Ge   Sn
    48    48
Direct configuration=     1
   0.94556874  0.07620380  0.00000001
   0.69556868  0.42620391  0.06450953
   0.44556868  0.77620399  0.12901904
   0.19556862  0.12620413  0.19352862
   0.94556868  0.47620416  0.25803810
   0.69556868  0.82620430  0.32254755
   0.44556874  0.07620380  0.00000001
   0.19556871  0.42620391  0.06450953
   0.94556868  0.77620399  0.12901904
   0.69556868  0.12620413  0.19352862
   0.44556868  0.47620416  0.25803810
   0.19556862  0.82620430  0.32254755
   0.07056873  0.82620394  0.00000003
   0.82056868  0.17620409  0.06450951
   0.57056868  0.52620411  0.12901899
   0.32056862  0.87620413  0.19352861
   0.07056862  0.22620416  0.25803813
   0.82056856  0.57620430  0.32254761
   0.57056874  0.82620394  0.00000003
   0.32056874  0.17620409  0.06450951
   0.07056871  0.52620411  0.12901899
   0.82056868  0.87620413  0.19352861
   0.57056868  0.22620416  0.25803813
   0.32056862  0.57620430  0.32254761
   0.94556874  0.57620382  0.00000002
   0.69556868  0.92620391  0.06450950
   0.44556868  0.27620399  0.12901905
   0.19556862  0.62620413  0.19352855
   0.94556868  0.97620416  0.25803810
   0.69556868  0.32620430  0.32254761
   0.44556874  0.57620382  0.00000002
   0.19556871  0.92620391  0.06450950
   0.94556868  0.27620399  0.12901905
   0.69556868  0.62620413  0.19352855
   0.44556868  0.97620416  0.25803810
   0.19556862  0.32620430  0.32254761
   0.07056873  0.32620382  0.00000000
   0.82056868  0.67620397  0.06450953
   0.57056868  0.02620399  0.12901904
   0.32056862  0.37620413  0.19352856
   0.07056862  0.72620416  0.25803807
   0.82056856  0.07620430  0.32254752
   0.57056874  0.32620382  0.00000000
   0.32056874  0.67620397  0.06450953
   0.07056871  0.02620399  0.12901904
   0.82056868  0.37620413  0.19352856
   0.57056868  0.72620416  0.25803807
   0.32056862  0.07620430  0.32254752
   0.56592894  0.21380341  0.42247537
   0.23259544  0.08880341  0.51799476
   0.89926219  0.96380341  0.61351401
   0.56592882  0.83880341  0.70903337
   0.23259532  0.71380329  0.80455279
   0.89926183  0.58880329  0.90007210
   0.56592894  0.71380341  0.42247537
   0.23259544  0.58880329  0.51799476
   0.89926219  0.46380329  0.61351401
   0.56592882  0.33880329  0.70903337
   0.23259532  0.21380329  0.80455279
   0.89926183  0.08880329  0.90007210
   0.81592894  0.46380341  0.42247537
   0.48259556  0.33880341  0.51799476
   0.14926219  0.21380341  0.61351407
   0.81592882  0.08880341  0.70903337
   0.48259544  0.96380341  0.80455279
   0.14926183  0.83880329  0.90007222
   0.81592894  0.96380341  0.42247537
   0.48259544  0.83880341  0.51799476
   0.14926219  0.71380341  0.61351401
   0.81592882  0.58880341  0.70903337
   0.48259544  0.46380329  0.80455267
   0.14926183  0.33880329  0.90007222
   0.56592894  0.46380341  0.42247537
   0.23259544  0.33880341  0.51799476
   0.89926219  0.21380341  0.61351401
   0.56592882  0.08880341  0.70903337
   0.23259532  0.96380335  0.80455279
   0.89926195  0.83880329  0.90007210
   0.56592894  0.96380341  0.42247537
   0.23259544  0.83880341  0.51799476
   0.89926219  0.71380341  0.61351401
   0.56592882  0.58880341  0.70903337
   0.23259544  0.46380329  0.80455279
   0.89926183  0.33880329  0.90007210
   0.81592894  0.21380341  0.42247540
   0.48259556  0.08880341  0.51799476
   0.14926219  0.96380341  0.61351401
   0.81592882  0.83880341  0.70903337
   0.48259544  0.71380341  0.80455279
   0.14926195  0.58880329  0.90007210
   0.81592894  0.71380341  0.42247537
   0.48259556  0.58880329  0.51799476
   0.14926219  0.46380329  0.61351401
   0.81592882  0.33880329  0.70903337
   0.48259544  0.21380329  0.80455279
   0.14926195  0.08880329  0.90007210
