  48  48   0   0
  0.3605713E+02  0.1297840E-08  0.1946760E-08  0.9190413E-09  0.5000000E-15
  1.000000000000000E-004
  CAR 
 Si and Ge interface calculation         
      3.73066814    -10.27389029  301      1.67666800      1.00000000
    -10.274  0.0000E+00  0.0000E+00  0.0000E+00  0.0000E+00
    -10.227  0.0000E+00  0.0000E+00  0.0000E+00  0.0000E+00
    -10.181  0.0000E+00  0.0000E+00  0.0000E+00  0.0000E+00
    -10.134  0.0000E+00  0.0000E+00  0.0000E+00  0.0000E+00
    -10.087  0.0000E+00  0.0000E+00  0.0000E+00  0.0000E+00
    -10.040  0.0000E+00  0.0000E+00  0.0000E+00  0.0000E+00
     -9.994  0.0000E+00  0.0000E+00  0.0000E+00  0.0000E+00
     -9.947  0.0000E+00  0.0000E+00  0.0000E+00  0.0000E+00
     -9.900  0.0000E+00  0.0000E+00  0.0000E+00  0.0000E+00
     -9.854  0.0000E+00  0.0000E+00  0.0000E+00  0.0000E+00
     -9.807  0.0000E+00  0.0000E+00  0.0000E+00  0.0000E+00
     -9.760  0.0000E+00  0.0000E+00  0.0000E+00  0.0000E+00
     -9.714  0.0000E+00  0.0000E+00  0.0000E+00  0.0000E+00
     -9.667  0.3201E-04  0.4904E-07  0.1494E-05  0.2289E-08
     -9.620  0.2460E+02  0.9691E+01  0.1148E+01  0.4524E+00
     -9.574  0.1825E+02  0.3315E+02  0.2000E+01  0.2000E+01
     -9.527  0.0000E+00  0.0000E+00  0.2000E+01  0.2000E+01
     -9.480  0.5129E-12  0.0000E+00  0.2000E+01  0.2000E+01
     -9.434  0.1244E+01  0.3189E-01  0.2058E+01  0.2001E+01
     -9.387  0.4097E+02  0.3340E+02  0.3971E+01  0.3561E+01
     -9.340  0.6290E+00  0.9410E+01  0.4000E+01  0.4000E+01
     -9.294  0.0000E+00  0.0000E+00  0.4000E+01  0.4000E+01
     -9.247  0.1189E+00  0.4781E-03  0.4006E+01  0.4000E+01
     -9.200  0.3770E+02  0.2106E+02  0.5766E+01  0.4983E+01
     -9.154  0.5023E+01  0.2178E+02  0.6000E+01  0.6000E+01
     -9.107  0.0000E+00  0.0000E+00  0.6000E+01  0.6000E+01
     -9.060  0.0000E+00  0.0000E+00  0.6000E+01  0.6000E+01
     -9.013  0.0000E+00  0.0000E+00  0.6000E+01  0.6000E+01
     -8.967  0.0000E+00  0.0000E+00  0.6000E+01  0.6000E+01
     -8.920  0.0000E+00  0.0000E+00  0.6000E+01  0.6000E+01
     -8.873  0.0000E+00  0.0000E+00  0.6000E+01  0.6000E+01
     -8.827  0.5220E-04  0.1496E-08  0.6000E+01  0.6000E+01
     -8.780  0.1299E+02  0.5791E+01  0.6606E+01  0.6270E+01
     -8.733  0.2897E+02  0.3203E+02  0.7959E+01  0.7766E+01
     -8.687  0.7249E+01  0.6313E+01  0.8297E+01  0.8061E+01
     -8.640  0.3647E+02  0.4029E+02  0.1000E+02  0.9941E+01
     -8.593  0.1029E-01  0.1259E+01  0.1000E+02  0.1000E+02
     -8.547  0.0000E+00  0.0000E+00  0.1000E+02  0.1000E+02
     -8.500  0.0000E+00  0.0000E+00  0.1000E+02  0.1000E+02
     -8.453  0.0000E+00  0.0000E+00  0.1000E+02  0.1000E+02
     -8.407  0.6970E-01  0.5211E-04  0.1000E+02  0.1000E+02
     -8.360  0.7836E+01  0.6097E+01  0.1037E+02  0.1028E+02
     -8.313  0.3109E+02  0.2360E+02  0.1182E+02  0.1139E+02
     -8.267  0.3848E+01  0.1315E+02  0.1200E+02  0.1200E+02
     -8.220  0.1355E+01  0.1720E-01  0.1206E+02  0.1200E+02
     -8.173  0.3431E+02  0.2542E+02  0.1366E+02  0.1319E+02
     -8.127  0.7183E+01  0.1740E+02  0.1400E+02  0.1400E+02
     -8.080  0.0000E+00  0.9843E-02  0.1400E+02  0.1400E+02
     -8.033  0.0000E+00  0.0000E+00  0.1400E+02  0.1400E+02
     -7.986  0.1079E-04  0.2418E-11  0.1400E+02  0.1400E+02
     -7.940  0.5408E+01  0.1425E+01  0.1425E+02  0.1407E+02
     -7.893  0.2371E+02  0.1540E+02  0.1536E+02  0.1479E+02
     -7.846  0.1854E+02  0.2929E+02  0.1622E+02  0.1615E+02
     -7.800  0.1865E+02  0.1055E+02  0.1710E+02  0.1665E+02
     -7.753  0.1536E+02  0.1823E+02  0.1781E+02  0.1750E+02
     -7.706  0.1822E+02  0.1923E+02  0.1866E+02  0.1839E+02
     -7.660  0.1423E+02  0.1016E+02  0.1933E+02  0.1887E+02
     -7.613  0.1406E+02  0.1667E+02  0.1998E+02  0.1965E+02
     -7.566  0.8752E+01  0.1130E+02  0.2039E+02  0.2017E+02
     -7.520  0.1729E+02  0.1396E+02  0.2120E+02  0.2083E+02
     -7.473  0.1340E+02  0.1754E+02  0.2182E+02  0.2164E+02
     -7.426  0.3100E+02  0.1869E+02  0.2327E+02  0.2252E+02
     -7.380  0.8458E+01  0.2459E+02  0.2367E+02  0.2367E+02
     -7.333  0.5197E+01  0.1112E+01  0.2391E+02  0.2372E+02
     -7.286  0.1374E+02  0.1558E+02  0.2455E+02  0.2444E+02
     -7.240  0.1956E+02  0.1610E+02  0.2546E+02  0.2520E+02
     -7.193  0.1238E+02  0.1472E+02  0.2604E+02  0.2588E+02
     -7.146  0.1277E+02  0.1299E+02  0.2664E+02  0.2649E+02
     -7.100  0.1723E+02  0.1832E+02  0.2744E+02  0.2735E+02
     -7.053  0.2304E+02  0.1662E+02  0.2852E+02  0.2812E+02
     -7.006  0.8746E+01  0.1641E+02  0.2893E+02  0.2889E+02
     -6.959  0.1914E+02  0.1537E+02  0.2982E+02  0.2960E+02
     -6.913  0.2377E+02  0.1790E+02  0.3093E+02  0.3044E+02
     -6.866  0.1138E+02  0.2142E+02  0.3146E+02  0.3144E+02
     -6.819  0.1677E+02  0.1648E+02  0.3224E+02  0.3221E+02
     -6.773  0.2359E+02  0.1937E+02  0.3334E+02  0.3311E+02
     -6.726  0.1954E+02  0.2117E+02  0.3426E+02  0.3410E+02
     -6.679  0.1634E+02  0.1177E+02  0.3502E+02  0.3465E+02
     -6.633  0.1400E+02  0.1646E+02  0.3567E+02  0.3542E+02
     -6.586  0.2693E+02  0.2483E+02  0.3693E+02  0.3658E+02
     -6.539  0.1303E+02  0.1433E+02  0.3754E+02  0.3725E+02
     -6.493  0.1421E+02  0.1436E+02  0.3820E+02  0.3792E+02
     -6.446  0.2391E+02  0.2194E+02  0.3932E+02  0.3894E+02
     -6.399  0.1166E+02  0.1575E+02  0.3986E+02  0.3968E+02
     -6.353  0.1915E+02  0.1747E+02  0.4076E+02  0.4049E+02
     -6.306  0.1269E+02  0.1127E+02  0.4135E+02  0.4102E+02
     -6.259  0.1418E+02  0.1295E+02  0.4201E+02  0.4162E+02
     -6.213  0.1871E+02  0.2282E+02  0.4288E+02  0.4269E+02
     -6.166  0.1297E+02  0.1593E+02  0.4349E+02  0.4343E+02
     -6.119  0.2389E+02  0.1957E+02  0.4460E+02  0.4435E+02
     -6.073  0.1108E+02  0.1404E+02  0.4512E+02  0.4500E+02
     -6.026  0.2122E+02  0.2024E+02  0.4611E+02  0.4595E+02
     -5.979  0.1191E+02  0.1034E+02  0.4667E+02  0.4643E+02
     -5.932  0.1664E+02  0.1697E+02  0.4745E+02  0.4722E+02
     -5.886  0.1591E+02  0.1421E+02  0.4819E+02  0.4788E+02
     -5.839  0.1044E+02  0.1446E+02  0.4867E+02  0.4856E+02
     -5.792  0.2260E+02  0.1891E+02  0.4973E+02  0.4944E+02
     -5.746  0.1351E+02  0.1451E+02  0.5036E+02  0.5012E+02
     -5.699  0.1607E+02  0.2004E+02  0.5111E+02  0.5106E+02
     -5.652  0.7293E+01  0.3414E+01  0.5145E+02  0.5121E+02
     -5.606  0.1488E+02  0.1609E+02  0.5215E+02  0.5197E+02
     -5.559  0.1117E+02  0.1482E+02  0.5267E+02  0.5266E+02
     -5.512  0.1006E+02  0.5867E+01  0.5314E+02  0.5293E+02
     -5.466  0.1483E+02  0.1392E+02  0.5383E+02  0.5358E+02
     -5.419  0.1305E+02  0.1278E+02  0.5444E+02  0.5418E+02
     -5.372  0.1538E+02  0.1540E+02  0.5516E+02  0.5490E+02
     -5.326  0.1308E+02  0.1452E+02  0.5577E+02  0.5558E+02
     -5.279  0.5814E+01  0.9105E+01  0.5604E+02  0.5600E+02
     -5.232  0.4937E+01  0.4760E+01  0.5627E+02  0.5622E+02
     -5.186  0.2235E+02  0.1753E+02  0.5731E+02  0.5704E+02
     -5.139  0.9793E+01  0.1180E+02  0.5777E+02  0.5759E+02
     -5.092  0.9863E+01  0.1116E+02  0.5823E+02  0.5811E+02
     -5.046  0.1760E+02  0.1425E+02  0.5905E+02  0.5878E+02
     -4.999  0.2984E+02  0.3142E+02  0.6044E+02  0.6024E+02
     -4.952  0.1353E+02  0.1237E+02  0.6108E+02  0.6082E+02
     -4.905  0.1041E+02  0.1557E+02  0.6156E+02  0.6155E+02
     -4.859  0.3426E+01  0.2534E+01  0.6172E+02  0.6167E+02
     -4.812  0.2187E+02  0.1579E+02  0.6274E+02  0.6240E+02
     -4.765  0.1473E+02  0.1306E+02  0.6343E+02  0.6301E+02
     -4.719  0.1625E+02  0.1792E+02  0.6419E+02  0.6385E+02
     -4.672  0.7870E+01  0.1511E+02  0.6456E+02  0.6456E+02
     -4.625  0.7156E+01  0.3862E+01  0.6489E+02  0.6474E+02
     -4.579  0.1784E+02  0.1299E+02  0.6572E+02  0.6534E+02
     -4.532  0.2202E+02  0.2649E+02  0.6675E+02  0.6658E+02
     -4.485  0.9301E+01  0.1137E+02  0.6718E+02  0.6711E+02
     -4.439  0.2167E+02  0.1673E+02  0.6820E+02  0.6789E+02
     -4.392  0.1306E+02  0.8171E+01  0.6881E+02  0.6827E+02
     -4.345  0.2157E+02  0.2566E+02  0.6981E+02  0.6947E+02
     -4.299  0.1277E+02  0.1370E+02  0.7041E+02  0.7011E+02
     -4.252  0.2221E+02  0.2498E+02  0.7145E+02  0.7127E+02
     -4.205  0.2377E+01  0.6014E+01  0.7156E+02  0.7156E+02
     -4.159  0.1644E+02  0.7971E+01  0.7232E+02  0.7193E+02
     -4.112  0.1336E+02  0.1826E+02  0.7295E+02  0.7278E+02
     -4.065  0.1581E+02  0.8653E+01  0.7369E+02  0.7318E+02
     -4.019  0.1701E+02  0.2169E+02  0.7448E+02  0.7420E+02
     -3.972  0.1130E+02  0.1142E+02  0.7501E+02  0.7473E+02
     -3.925  0.1672E+02  0.1836E+02  0.7579E+02  0.7559E+02
     -3.878  0.1323E+02  0.1141E+02  0.7641E+02  0.7612E+02
     -3.832  0.1340E+02  0.1110E+02  0.7703E+02  0.7664E+02
     -3.785  0.2043E+02  0.2428E+02  0.7798E+02  0.7777E+02
     -3.738  0.5429E+01  0.9656E+01  0.7824E+02  0.7822E+02
     -3.692  0.1879E+02  0.1612E+02  0.7912E+02  0.7897E+02
     -3.645  0.6377E+01  0.7688E+01  0.7941E+02  0.7933E+02
     -3.598  0.1252E+02  0.1157E+02  0.8000E+02  0.7987E+02
     -3.552  0.8888E+01  0.2898E+01  0.8041E+02  0.8001E+02
     -3.505  0.2120E+02  0.2570E+02  0.8140E+02  0.8121E+02
     -3.458  0.1032E+02  0.1197E+02  0.8188E+02  0.8177E+02
     -3.412  0.1141E+02  0.9694E+01  0.8242E+02  0.8222E+02
     -3.365  0.1011E+02  0.1401E+02  0.8289E+02  0.8287E+02
     -3.318  0.5652E+01  0.4260E+01  0.8315E+02  0.8307E+02
     -3.272  0.1349E+02  0.1059E+02  0.8378E+02  0.8357E+02
     -3.225  0.1165E+02  0.1304E+02  0.8433E+02  0.8418E+02
     -3.178  0.9547E+01  0.7895E+01  0.8477E+02  0.8454E+02
     -3.132  0.1857E+02  0.1774E+02  0.8564E+02  0.8537E+02
     -3.085  0.6907E+00  0.6309E+01  0.8567E+02  0.8567E+02
     -3.038  0.7052E+01  0.6922E+01  0.8600E+02  0.8599E+02
     -2.992  0.8097E+01  0.3422E+01  0.8638E+02  0.8615E+02
     -2.945  0.1770E+02  0.1631E+02  0.8720E+02  0.8691E+02
     -2.898  0.1707E+02  0.1995E+02  0.8800E+02  0.8784E+02
     -2.851  0.5168E+01  0.8125E+01  0.8824E+02  0.8822E+02
     -2.805  0.1405E+02  0.1412E+02  0.8890E+02  0.8888E+02
     -2.758  0.1028E+02  0.5810E+01  0.8938E+02  0.8915E+02
     -2.711  0.3793E+01  0.7732E+01  0.8956E+02  0.8951E+02
     -2.665  0.1402E+02  0.1066E+02  0.9021E+02  0.9001E+02
     -2.618  0.4993E+01  0.8175E+01  0.9044E+02  0.9039E+02
     -2.571  0.1096E+02  0.6709E+01  0.9096E+02  0.9071E+02
     -2.525  0.1272E+02  0.1292E+02  0.9155E+02  0.9131E+02
     -2.478  0.1679E+02  0.2054E+02  0.9233E+02  0.9227E+02
     -2.431  0.4775E+01  0.5623E+01  0.9256E+02  0.9253E+02
     -2.385  0.1043E+01  0.5579E+00  0.9260E+02  0.9256E+02
     -2.338  0.1973E+02  0.1653E+02  0.9353E+02  0.9333E+02
     -2.291  0.1564E+01  0.4900E+01  0.9360E+02  0.9356E+02
     -2.245  0.4301E+01  0.4750E+01  0.9380E+02  0.9378E+02
     -2.198  0.9067E+01  0.9348E+01  0.9422E+02  0.9421E+02
     -2.151  0.4082E-01  0.1697E+00  0.9422E+02  0.9422E+02
     -2.105  0.7057E+01  0.6111E+01  0.9455E+02  0.9451E+02
     -2.058  0.4367E+01  0.3002E+01  0.9476E+02  0.9465E+02
     -2.011  0.7327E+01  0.6512E+01  0.9510E+02  0.9495E+02
     -1.965  0.3785E+01  0.3729E+01  0.9528E+02  0.9513E+02
     -1.918  0.5233E+01  0.5038E+01  0.9552E+02  0.9536E+02
     -1.871  0.4948E+01  0.4874E+01  0.9575E+02  0.9559E+02
     -1.824  0.5637E+00  0.4057E+01  0.9578E+02  0.9578E+02
     -1.778  0.8927E+00  0.5187E-02  0.9582E+02  0.9578E+02
     -1.731  0.3868E+01  0.4754E+01  0.9600E+02  0.9600E+02
     -1.684  0.3524E-10  0.9626E-03  0.9600E+02  0.9600E+02
     -1.638  0.1146E+01  0.8220E-01  0.9605E+02  0.9600E+02
     -1.591  0.4087E+01  0.2482E+01  0.9624E+02  0.9612E+02
     -1.544  0.2408E+02  0.2304E+02  0.9737E+02  0.9720E+02
     -1.498  0.1603E+02  0.1816E+02  0.9812E+02  0.9804E+02
     -1.451  0.3472E+02  0.2195E+02  0.9974E+02  0.9907E+02
     -1.404  0.1489E+02  0.2691E+02  0.1004E+03  0.1003E+03
     -1.358  0.2666E+02  0.2378E+02  0.1017E+03  0.1014E+03
     -1.311  0.2572E+02  0.2148E+02  0.1029E+03  0.1024E+03
     -1.264  0.1475E+02  0.2158E+02  0.1036E+03  0.1034E+03
     -1.218  0.2064E+02  0.1927E+02  0.1045E+03  0.1043E+03
     -1.171  0.2916E+02  0.2123E+02  0.1059E+03  0.1053E+03
     -1.124  0.3044E+02  0.3502E+02  0.1073E+03  0.1070E+03
     -1.078  0.3047E+02  0.2644E+02  0.1087E+03  0.1082E+03
     -1.031  0.1968E+02  0.2743E+02  0.1097E+03  0.1095E+03
     -0.984  0.2581E+02  0.2147E+02  0.1109E+03  0.1105E+03
     -0.938  0.2226E+02  0.2640E+02  0.1119E+03  0.1117E+03
     -0.891  0.2302E+02  0.1693E+02  0.1130E+03  0.1125E+03
     -0.844  0.2781E+02  0.2981E+02  0.1143E+03  0.1139E+03
     -0.797  0.2783E+02  0.2343E+02  0.1156E+03  0.1150E+03
     -0.751  0.3529E+02  0.3847E+02  0.1172E+03  0.1168E+03
     -0.704  0.3713E+02  0.3052E+02  0.1189E+03  0.1182E+03
     -0.657  0.2973E+02  0.4296E+02  0.1203E+03  0.1202E+03
     -0.611  0.2446E+02  0.1582E+02  0.1215E+03  0.1210E+03
     -0.564  0.2433E+02  0.2834E+02  0.1226E+03  0.1223E+03
     -0.517  0.4069E+02  0.3721E+02  0.1245E+03  0.1240E+03
     -0.471  0.2752E+02  0.2718E+02  0.1258E+03  0.1253E+03
     -0.424  0.3540E+02  0.3279E+02  0.1275E+03  0.1268E+03
     -0.377  0.3310E+02  0.2684E+02  0.1290E+03  0.1281E+03
     -0.331  0.3235E+02  0.4018E+02  0.1305E+03  0.1299E+03
     -0.284  0.4544E+02  0.4385E+02  0.1326E+03  0.1320E+03
     -0.237  0.2112E+02  0.2892E+02  0.1336E+03  0.1333E+03
     -0.191  0.2734E+02  0.2081E+02  0.1349E+03  0.1343E+03
     -0.144  0.3190E+02  0.2972E+02  0.1364E+03  0.1357E+03
     -0.097  0.3312E+02  0.3402E+02  0.1379E+03  0.1373E+03
     -0.051  0.2955E+02  0.3077E+02  0.1393E+03  0.1387E+03
     -0.004  0.2510E+02  0.2994E+02  0.1405E+03  0.1401E+03
      0.043  0.3174E+02  0.3087E+02  0.1420E+03  0.1416E+03
      0.089  0.3180E+02  0.3519E+02  0.1434E+03  0.1432E+03
      0.136  0.3030E+02  0.1599E+02  0.1449E+03  0.1440E+03
      0.183  0.3166E+02  0.3776E+02  0.1463E+03  0.1457E+03
      0.230  0.2782E+02  0.3131E+02  0.1476E+03  0.1472E+03
      0.276  0.3166E+02  0.3300E+02  0.1491E+03  0.1487E+03
      0.323  0.2592E+02  0.2738E+02  0.1503E+03  0.1500E+03
      0.370  0.2802E+02  0.2280E+02  0.1516E+03  0.1511E+03
      0.416  0.3613E+02  0.3937E+02  0.1533E+03  0.1529E+03
      0.463  0.2993E+02  0.2695E+02  0.1547E+03  0.1542E+03
      0.510  0.2465E+02  0.2287E+02  0.1559E+03  0.1552E+03
      0.556  0.3203E+02  0.3574E+02  0.1574E+03  0.1569E+03
      0.603  0.3276E+02  0.2831E+02  0.1589E+03  0.1582E+03
      0.650  0.3661E+02  0.3302E+02  0.1606E+03  0.1598E+03
      0.696  0.3583E+02  0.2905E+02  0.1623E+03  0.1611E+03
      0.743  0.4072E+02  0.4542E+02  0.1642E+03  0.1632E+03
      0.790  0.3163E+02  0.4280E+02  0.1656E+03  0.1652E+03
      0.836  0.2047E+02  0.1596E+02  0.1666E+03  0.1660E+03
      0.883  0.2614E+02  0.3273E+02  0.1678E+03  0.1675E+03
      0.930  0.3100E+02  0.3305E+02  0.1693E+03  0.1691E+03
      0.976  0.3116E+02  0.1853E+02  0.1707E+03  0.1699E+03
      1.023  0.2072E+02  0.3297E+02  0.1717E+03  0.1715E+03
      1.070  0.3833E+02  0.3428E+02  0.1735E+03  0.1731E+03
      1.116  0.2351E+02  0.1912E+02  0.1746E+03  0.1739E+03
      1.163  0.2883E+02  0.2454E+02  0.1759E+03  0.1751E+03
      1.210  0.4266E+02  0.3575E+02  0.1779E+03  0.1768E+03
      1.257  0.1625E+02  0.3820E+02  0.1787E+03  0.1785E+03
      1.303  0.4324E+02  0.2498E+02  0.1807E+03  0.1797E+03
      1.350  0.3064E+02  0.2685E+02  0.1821E+03  0.1810E+03
      1.397  0.3645E+02  0.4810E+02  0.1838E+03  0.1832E+03
      1.443  0.2741E+02  0.2112E+02  0.1851E+03  0.1842E+03
      1.490  0.3115E+02  0.3270E+02  0.1866E+03  0.1857E+03
      1.537  0.2474E+02  0.2420E+02  0.1877E+03  0.1869E+03
      1.583  0.3217E+02  0.3603E+02  0.1892E+03  0.1885E+03
      1.630  0.3202E+02  0.2715E+02  0.1907E+03  0.1898E+03
      1.677  0.2666E+02  0.2568E+02  0.1920E+03  0.1910E+03
      1.723  0.3172E+02  0.3131E+02  0.1934E+03  0.1925E+03
      1.770  0.3152E+02  0.3617E+02  0.1949E+03  0.1941E+03
      1.817  0.3044E+02  0.3450E+02  0.1963E+03  0.1958E+03
      1.863  0.2797E+02  0.2198E+02  0.1976E+03  0.1968E+03
      1.910  0.2652E+02  0.3246E+02  0.1989E+03  0.1983E+03
      1.957  0.1284E+02  0.1896E+02  0.1995E+03  0.1992E+03
      2.003  0.2086E+02  0.1749E+02  0.2004E+03  0.2000E+03
      2.050  0.4399E+02  0.3745E+02  0.2025E+03  0.2018E+03
      2.097  0.2997E+02  0.2815E+02  0.2039E+03  0.2031E+03
      2.143  0.3409E+02  0.3236E+02  0.2055E+03  0.2046E+03
      2.190  0.3253E+02  0.3487E+02  0.2070E+03  0.2062E+03
      2.237  0.1641E+02  0.2676E+02  0.2078E+03  0.2075E+03
      2.284  0.3527E+02  0.3172E+02  0.2094E+03  0.2089E+03
      2.330  0.2294E+02  0.2126E+02  0.2105E+03  0.2099E+03
      2.377  0.2527E+02  0.2491E+02  0.2117E+03  0.2111E+03
      2.424  0.3335E+02  0.3034E+02  0.2132E+03  0.2125E+03
      2.470  0.3054E+02  0.3324E+02  0.2147E+03  0.2141E+03
      2.517  0.2339E+02  0.2494E+02  0.2157E+03  0.2152E+03
      2.564  0.3603E+02  0.3670E+02  0.2174E+03  0.2169E+03
      2.610  0.2888E+02  0.2851E+02  0.2188E+03  0.2183E+03
      2.657  0.4046E+02  0.2804E+02  0.2207E+03  0.2196E+03
      2.704  0.2460E+02  0.3815E+02  0.2218E+03  0.2214E+03
      2.750  0.2707E+02  0.2241E+02  0.2231E+03  0.2224E+03
      2.797  0.3028E+02  0.3243E+02  0.2245E+03  0.2239E+03
      2.844  0.2582E+02  0.2394E+02  0.2257E+03  0.2250E+03
      2.890  0.2849E+02  0.3100E+02  0.2270E+03  0.2265E+03
      2.937  0.3416E+02  0.3012E+02  0.2286E+03  0.2279E+03
      2.984  0.2783E+02  0.3355E+02  0.2299E+03  0.2295E+03
      3.030  0.2092E+02  0.2048E+02  0.2309E+03  0.2304E+03
      3.077  0.2049E+02  0.2014E+02  0.2319E+03  0.2313E+03
      3.124  0.3180E+01  0.1394E+02  0.2320E+03  0.2320E+03
      3.170  0.0000E+00  0.6321E-04  0.2320E+03  0.2320E+03
      3.217  0.0000E+00  0.0000E+00  0.2320E+03  0.2320E+03
      3.264  0.0000E+00  0.0000E+00  0.2320E+03  0.2320E+03
      3.311  0.0000E+00  0.0000E+00  0.2320E+03  0.2320E+03
      3.357  0.0000E+00  0.0000E+00  0.2320E+03  0.2320E+03
      3.404  0.0000E+00  0.0000E+00  0.2320E+03  0.2320E+03
      3.451  0.0000E+00  0.0000E+00  0.2320E+03  0.2320E+03
      3.497  0.0000E+00  0.0000E+00  0.2320E+03  0.2320E+03
      3.544  0.0000E+00  0.0000E+00  0.2320E+03  0.2320E+03
      3.591  0.0000E+00  0.0000E+00  0.2320E+03  0.2320E+03
      3.637  0.0000E+00  0.0000E+00  0.2320E+03  0.2320E+03
      3.684  0.0000E+00  0.0000E+00  0.2320E+03  0.2320E+03
      3.731  0.0000E+00  0.0000E+00  0.2320E+03  0.2320E+03
