<?xml version="1.0" encoding="ISO-8859-1"?>
<modeling>
 <generator>
  <i name="program" type="string">vasp </i>
  <i name="version" type="string">6.4.3  </i>
  <i name="subversion" type="string">19Mar24 (build Oct 22 2024 11:23:12) complex                          parallel </i>
  <i name="platform" type="string">LinuxIFC </i>
  <i name="date" type="string">2025 04 30 </i>
  <i name="time" type="string">04:34:05 </i>
 </generator>
 <incar>
  <i type="string" name="SYSTEM">Si122 and Ge001 interface calculation</i>
  <i type="int" name="ISTART">     0</i>
  <i type="logical" name="ADDGRID"> T  </i>
  <i type="int" name="ISPIN">     2</i>
  <i name="AMIX">      0.60000000</i>
  <i type="int" name="ICHARG">     2</i>
  <i type="int" name="NELM">   100</i>
  <i name="EDIFF">      0.00000010</i>
  <i name="ENCUT">    700.00000000</i>
  <i name="ENAUG">    900.00000000</i>
  <i type="int" name="NBANDS">   188</i>
  <i name="NUPDOWN">      1.00000000</i>
  <i name="NELECT">    312.00000000</i>
  <i type="string" name="LREAL">AUTO</i>
  <i type="int" name="ISMEAR">     0</i>
  <i name="SIGMA">      0.01000000</i>
  <i type="int" name="LMAXMIX">     6</i>
  <i type="logical" name="LWAVE"> F  </i>
  <i type="logical" name="LVTOT"> F  </i>
  <i type="logical" name="LVHAR"> T  </i>
  <i type="logical" name="LASPH"> T  </i>
  <i type="logical" name="LMIXTAU"> T  </i>
 </incar>
 <primitive_cell>
  <structure name="primitive_cell" >
   <crystal>
    <varray name="basis" >
     <v>       3.87494516       0.00000000       0.00000000 </v>
     <v>       0.00000000      11.62483548       0.00000000 </v>
     <v>       0.00000000       0.00000000      18.63333333 </v>
    </varray>
    <i name="volume">    839.34968003 </i>
    <varray name="rec_basis" >
     <v>       0.25806817       0.00000000       0.00000000 </v>
     <v>       0.00000000       0.08602272       0.00000000 </v>
     <v>       0.00000000       0.00000000       0.05366726 </v>
    </varray>
   </crystal>
   <varray name="positions" >
    <v>       0.00000000       0.00000000       0.00000000 </v>
    <v>       0.50000000       0.27777778       0.04901610 </v>
    <v>       0.00000000       0.55555556       0.09803220 </v>
    <v>       0.50000000       0.88888889       0.02450805 </v>
    <v>       1.00000000       0.16666667       0.07352415 </v>
    <v>       0.50000000       0.44444444       0.12254025 </v>
    <v>       0.93054357       0.38524590       0.18157424 </v>
    <v>       0.43054357       0.21857924       0.33345259 </v>
    <v>       0.93054357       0.05191257       0.48533095 </v>
    <v>       0.43054357       0.88524590       0.63720930 </v>
    <v>       0.93054357       0.71857924       0.78908766 </v>
    <v>       0.43054357       0.55191257       0.94096601 </v>
    <v>       0.93054357       0.71857924       0.18157424 </v>
    <v>       0.43054357       0.55191257       0.33345259 </v>
    <v>       0.93054357       0.38524590       0.48533095 </v>
    <v>       0.43054357       0.21857924       0.63720930 </v>
    <v>       0.93054357       0.05191257       0.78908766 </v>
    <v>       0.43054357       0.88524590       0.94096601 </v>
    <v>       0.93054357       0.05191257       0.18157424 </v>
    <v>       0.43054357       0.88524590       0.33345259 </v>
    <v>       0.93054357       0.71857924       0.48533095 </v>
    <v>       0.43054357       0.55191257       0.63720930 </v>
    <v>       0.93054357       0.38524590       0.78908766 </v>
    <v>       0.43054357       0.21857924       0.94096601 </v>
    <v>       0.93054357       0.55191257       0.25751342 </v>
    <v>       0.43054357       0.38524590       0.40939177 </v>
    <v>       0.93054357       0.21857924       0.56127013 </v>
    <v>       0.43054357       0.05191257       0.71314848 </v>
    <v>       0.93054357       0.88524590       0.86502683 </v>
    <v>       0.93054357       0.88524590       0.25751342 </v>
    <v>       0.43054357       0.71857924       0.40939177 </v>
    <v>       0.93054357       0.55191257       0.56127013 </v>
    <v>       0.43054357       0.38524590       0.71314848 </v>
    <v>       0.93054357       0.21857924       0.86502683 </v>
    <v>       0.93054357       0.21857924       0.25751342 </v>
    <v>       0.43054357       0.05191257       0.40939177 </v>
    <v>       0.93054357       0.88524590       0.56127013 </v>
    <v>       0.43054357       0.71857924       0.71314848 </v>
    <v>       0.93054357       0.55191257       0.86502683 </v>
   </varray>
  </structure>
  <varray name="primitive_index" >
   <v type="int" >        1 </v>
   <v type="int" >        5 </v>
   <v type="int" >        3 </v>
   <v type="int" >       10 </v>
   <v type="int" >        8 </v>
   <v type="int" >       12 </v>
   <v type="int" >       13 </v>
   <v type="int" >       32 </v>
   <v type="int" >       33 </v>
   <v type="int" >       34 </v>
   <v type="int" >       17 </v>
   <v type="int" >       18 </v>
   <v type="int" >       19 </v>
   <v type="int" >       20 </v>
   <v type="int" >       21 </v>
   <v type="int" >       40 </v>
   <v type="int" >       41 </v>
   <v type="int" >       42 </v>
   <v type="int" >       43 </v>
   <v type="int" >       44 </v>
   <v type="int" >       27 </v>
   <v type="int" >       28 </v>
   <v type="int" >       29 </v>
   <v type="int" >       48 </v>
   <v type="int" >       49 </v>
   <v type="int" >       65 </v>
   <v type="int" >       66 </v>
   <v type="int" >       67 </v>
   <v type="int" >       53 </v>
   <v type="int" >       54 </v>
   <v type="int" >       55 </v>
   <v type="int" >       56 </v>
   <v type="int" >       72 </v>
   <v type="int" >       73 </v>
   <v type="int" >       74 </v>
   <v type="int" >       75 </v>
   <v type="int" >       61 </v>
   <v type="int" >       62 </v>
   <v type="int" >       63 </v>
  </varray>
 </primitive_cell>
 <kpoints>
  <generation param="Gamma">
   <v type="int" name="divisions">       4        3        2 </v>
   <v name="usershift">      0.00000000       0.00000000       0.00000000 </v>
   <v name="genvec1">      0.25000000       0.00000000       0.00000000 </v>
   <v name="genvec2">      0.00000000       0.33333333       0.00000000 </v>
   <v name="genvec3">      0.00000000       0.00000000       0.50000000 </v>
   <v name="shift">      0.00000000       0.00000000       0.00000000 </v>
  </generation>
  <varray name="kpointlist" >
   <v>       0.00000000       0.00000000       0.00000000 </v>
   <v>       0.25000000       0.00000000       0.00000000 </v>
   <v>       0.50000000       0.00000000       0.00000000 </v>
   <v>       0.00000000       0.33333333       0.00000000 </v>
   <v>       0.25000000       0.33333333       0.00000000 </v>
   <v>       0.50000000       0.33333333       0.00000000 </v>
   <v>      -0.25000000       0.33333333       0.00000000 </v>
   <v>       0.00000000       0.00000000       0.50000000 </v>
   <v>       0.25000000       0.00000000       0.50000000 </v>
   <v>       0.50000000       0.00000000       0.50000000 </v>
   <v>       0.00000000       0.33333333       0.50000000 </v>
   <v>       0.25000000       0.33333333       0.50000000 </v>
   <v>       0.50000000       0.33333333       0.50000000 </v>
   <v>      -0.25000000       0.33333333       0.50000000 </v>
  </varray>
  <varray name="weights" >
   <v>       0.04166667 </v>
   <v>       0.08333333 </v>
   <v>       0.04166667 </v>
   <v>       0.08333333 </v>
   <v>       0.08333333 </v>
   <v>       0.08333333 </v>
   <v>       0.08333333 </v>
   <v>       0.04166667 </v>
   <v>       0.08333333 </v>
   <v>       0.04166667 </v>
   <v>       0.08333333 </v>
   <v>       0.08333333 </v>
   <v>       0.08333333 </v>
   <v>       0.08333333 </v>
  </varray>
 </kpoints>
 <parameters>
  <separator name="general" >
   <i type="string" name="SYSTEM">Si122 and Ge001 interface calculation</i>
   <i type="logical" name="LCOMPAT"> F  </i>
  </separator>
  <separator name="electronic" >
   <i type="string" name="PREC">normal</i>
   <i name="ENMAX">    700.00000000</i>
   <i name="ENAUG">    900.00000000</i>
   <i name="EDIFF">      0.00000010</i>
   <i type="int" name="IALGO">    38</i>
   <i type="int" name="IWAVPR">    10</i>
   <i type="int" name="NBANDS">   188</i>
   <i type="int" name="NBANDSLOW">    -1</i>
   <i type="int" name="NBANDSHIGH">    -1</i>
   <i name="NELECT">    312.00000000</i>
   <i type="int" name="TURBO">     0</i>
   <i type="int" name="IRESTART">     0</i>
   <i type="int" name="NREBOOT">     0</i>
   <i type="int" name="NMIN">     0</i>
   <i name="EREF">      0.00000000</i>
   <separator name="electronic smearing" >
    <i type="int" name="ISMEAR">     0</i>
    <i name="SIGMA">      0.01000000</i>
    <i name="KSPACING">      0.50000000</i>
    <i type="logical" name="KGAMMA"> T  </i>
    <i type="logical" name="KBLOWUP"> F  </i>
   </separator>
   <separator name="electronic projectors" >
    <i type="logical" name="LREAL"> T  </i>
    <v name="ROPT">     -0.00050000     -0.00050000</v>
    <i type="int" name="LMAXPAW">  -100</i>
    <i type="int" name="LMAXMIX">     6</i>
    <i type="logical" name="NLSPLINE"> F  </i>
   </separator>
   <separator name="electronic startup" >
    <i type="int" name="ISTART">     0</i>
    <i type="int" name="ICHARG">     2</i>
    <i type="int" name="INIWAV">     1</i>
   </separator>
   <separator name="electronic spin" >
    <i type="int" name="ISPIN">     2</i>
    <i type="logical" name="LNONCOLLINEAR"> F  </i>
    <v name="MAGMOM">      0.01282051      0.01282051      0.01282051      0.01282051      0.01282051      0.01282051      0.01282051      0.01282051      0.01282051      0.01282051      0.01282051      0.01282051      0.01282051      0.01282051      0.01282051      0.01282051      0.01282051      0.01282051      0.01282051      0.01282051
      0.01282051      0.01282051      0.01282051      0.01282051      0.01282051      0.01282051      0.01282051      0.01282051      0.01282051      0.01282051      0.01282051      0.01282051      0.01282051      0.01282051      0.01282051      0.01282051      0.01282051      0.01282051      0.01282051      0.01282051
      0.01282051      0.01282051      0.01282051      0.01282051      0.01282051      0.01282051      0.01282051      0.01282051      0.01282051      0.01282051      0.01282051      0.01282051      0.01282051      0.01282051      0.01282051      0.01282051      0.01282051      0.01282051      0.01282051      0.01282051
      0.01282051      0.01282051      0.01282051      0.01282051      0.01282051      0.01282051      0.01282051      0.01282051      0.01282051      0.01282051      0.01282051      0.01282051      0.01282051      0.01282051      0.01282051      0.01282051      0.01282051      0.01282051</v>
    <i name="NUPDOWN">      1.00000000</i>
    <i type="logical" name="LSORBIT"> F  </i>
    <v name="SAXIS">      0.00000000      0.00000000      1.00000000</v>
    <i type="logical" name="LSPIRAL"> F  </i>
    <v name="QSPIRAL">      0.00000000      0.00000000      0.00000000</v>
    <i type="logical" name="LZEROZ"> F  </i>
   </separator>
   <separator name="electronic exchange-correlation" >
    <i type="logical" name="LASPH"> T  </i>
   </separator>
   <separator name="electronic convergence" >
    <i type="int" name="NELM">   100</i>
    <i type="int" name="NELMDL">    -5</i>
    <i type="int" name="NELMIN">     2</i>
    <i name="ENINI">    700.00000000</i>
    <separator name="electronic convergence detail" >
     <i type="logical" name="LDIAG"> T  </i>
     <i type="logical" name="LSUBROT"> F  </i>
     <i name="WEIMIN">      0.00000000</i>
     <i name="EBREAK">      0.00000000</i>
     <i name="DEPER">      0.30000000</i>
     <i type="int" name="NRMM">     4</i>
     <i name="TIME">      0.40000000</i>
    </separator>
   </separator>
   <separator name="electronic mixer" >
    <i name="AMIX">      0.60000000</i>
    <i name="BMIX">      1.00000000</i>
    <i name="AMIN">      0.10000000</i>
    <i name="AMIX_MAG">      2.40000000</i>
    <i name="BMIX_MAG">      1.00000000</i>
    <separator name="electronic mixer details" >
     <i type="int" name="IMIX">     4</i>
     <i type="logical" name="MIXFIRST"> F  </i>
     <i type="int" name="MAXMIX">   -45</i>
     <i name="WC">    100.00000000</i>
     <i type="int" name="INIMIX">     1</i>
     <i type="int" name="MIXPRE">     1</i>
     <i type="int" name="MREMOVE">     5</i>
    </separator>
   </separator>
   <separator name="electronic dipolcorrection" >
    <i type="logical" name="LDIPOL"> F  </i>
    <i type="logical" name="LMONO"> F  </i>
    <i type="int" name="IDIPOL">     0</i>
    <i name="EPSILON">      1.00000000</i>
    <v name="DIPOL">   -100.00000000   -100.00000000   -100.00000000</v>
    <i name="EFIELD">      0.00000000</i>
    <i type="logical" name="LVACPOTAV"> F  </i>
   </separator>
  </separator>
  <separator name="grids" >
   <i type="int" name="NGX">    50</i>
   <i type="int" name="NGY">    80</i>
   <i type="int" name="NGZ">   126</i>
   <i type="int" name="NGXF">   100</i>
   <i type="int" name="NGYF">   160</i>
   <i type="int" name="NGZF">   252</i>
   <i type="logical" name="ADDGRID"> T  </i>
  </separator>
  <separator name="ionic" >
   <i type="int" name="NSW">     0</i>
   <i type="int" name="IBRION">    -1</i>
   <i type="int" name="MDALGO">     0</i>
   <i type="int" name="ISIF">     2</i>
   <i name="PSTRESS">      0.00000000</i>
   <i name="EDIFFG">      0.00000100</i>
   <i type="int" name="NFREE">     0</i>
   <i name="POTIM">      0.50000000</i>
   <i name="SMASS">     -3.00000000</i>
   <i name="SCALEE">      1.00000000</i>
  </separator>
  <separator name="ionic md" >
   <i name="TEBEG">      0.00010000</i>
   <i name="TEEND">      0.00010000</i>
   <i type="int" name="NBLOCK">     1</i>
   <i type="int" name="KBLOCK">     1</i>
   <i type="int" name="NPACO">   256</i>
   <i name="APACO">     10.00000000</i>
  </separator>
  <separator name="symmetry" >
   <i type="int" name="ISYM">     2</i>
   <i name="SYMPREC">      0.00001000</i>
  </separator>
  <separator name="dos" >
   <i type="int" name="LORBIT">     0</i>
   <v name="RWIGS">     -1.00000000     -1.00000000</v>
   <i type="int" name="NEDOS">   301</i>
   <i name="EMIN">     10.00000000</i>
   <i name="EMAX">    -10.00000000</i>
   <i name="EFERMI">      0.00000000</i>
  </separator>
  <separator name="writing" >
   <i type="int" name="NWRITE">     2</i>
   <i type="logical" name="LWAVE"> F  </i>
   <i type="logical" name="LDOWNSAMPLE"> F  </i>
   <i type="logical" name="LCHARG"> T  </i>
   <i type="logical" name="LPARD"> F  </i>
   <i type="logical" name="LVTOT"> F  </i>
   <i type="logical" name="LVHAR"> T  </i>
   <i type="logical" name="LELF"> F  </i>
   <i type="logical" name="LOPTICS"> F  </i>
   <v name="STM">      0.00000000      0.00000000      0.00000000      0.00000000      0.00000000      0.00000000      0.00000000</v>
  </separator>
  <separator name="performance" >
   <i type="int" name="NPAR">     1</i>
   <i type="int" name="NSIM">     4</i>
   <i type="int" name="NBLK">    -1</i>
   <i type="logical" name="LPLANE"> T  </i>
   <i type="logical" name="LSCALAPACK"> T  </i>
   <i type="logical" name="LSCAAWARE"> F  </i>
   <i type="logical" name="LSCALU"> F  </i>
   <i type="logical" name="LASYNC"> F  </i>
   <i type="logical" name="LORBITALREAL"> F  </i>
  </separator>
  <separator name="miscellaneous" >
   <i type="int" name="IDIOT">     3</i>
   <i type="int" name="PHON_NSTRUCT">    -1</i>
   <i type="logical" name="LMUSIC"> F  </i>
   <v name="POMASS">     28.08500000     72.61000000</v>
   <v name="DARWINR">      0.00000000      0.00000000</v>
   <v name="DARWINV">      1.00000000      1.00000000</v>
   <i type="logical" name="LCORR"> T  </i>
  </separator>
  <i type="logical" name="GGA_COMPAT"> T  </i>
  <i type="logical" name="LBERRY"> F  </i>
  <i type="int" name="ICORELEVEL">     0</i>
  <i type="logical" name="LDAU"> F  </i>
  <i type="int" name="I_CONSTRAINED_M">     0</i>
  <separator name="electronic exchange-correlation" >
   <i type="string" name="GGA    ">PE</i>
   <i type="string" name="XC_C">1</i>
   <i type="int" name="VOSKOWN">     0</i>
   <i type="logical" name="LHFCALC"> F  </i>
   <i type="string" name="PRECFOCK"></i>
   <i type="logical" name="LSYMGRAD"> F  </i>
   <i type="logical" name="LHFONE"> F  </i>
   <i type="logical" name="LRHFCALC"> F  </i>
   <i type="logical" name="LTHOMAS"> F  </i>
   <i type="logical" name="LMODELHF"> F  </i>
   <i type="logical" name="LFOCKACE"> F  </i>
   <i name="ENCUT4O">     -1.00000000</i>
   <i type="int" name="EXXOEP">     0</i>
   <i type="int" name="FOURORBIT">     0</i>
   <i name="AEXX">      0.00000000</i>
   <i name="HFALPHA">      0.00000000</i>
   <i name="MCALPHA">      0.00000000</i>
   <i name="ALDAX">      1.00000000</i>
   <i name="AGGAX">      1.00000000</i>
   <i name="AMGGAX">      1.00000000</i>
   <i name="ALDAC">      1.00000000</i>
   <i name="AGGAC">      1.00000000</i>
   <i name="AMGGAC">      1.00000000</i>
   <i type="int" name="NKREDX">     1</i>
   <i type="int" name="NKREDY">     1</i>
   <i type="int" name="NKREDZ">     1</i>
   <i type="logical" name="SHIFTRED"> F  </i>
   <i type="logical" name="ODDONLY"> F  </i>
   <i type="logical" name="EVENONLY"> F  </i>
   <i type="int" name="LMAXFOCK">     0</i>
   <i type="int" name="NMAXFOCKAE">     0</i>
   <i type="logical" name="LFOCKAEDFT"> F  </i>
   <i name="HFSCREEN">      0.00000000</i>
   <i name="HFSCREENC">      0.00000000</i>
   <i type="int" name="NBANDSGWLOW">     0</i>
  </separator>
  <separator name="vdW DFT" >
   <i type="logical" name="LUSE_VDW"> F  </i>
   <i type="int" name="IVDW_NL">    -1</i>
   <i type="logical" name="LSPIN_VDW"> F  </i>
   <i name="ZAB_VDW">     -0.84910000</i>
   <i name="GAMMA_VDW">      1.39626340</i>
   <i name="ALPHA_VDW">      0.00000000</i>
   <i name="PARAM1">      0.12340000</i>
   <i name="PARAM2">      1.00000000</i>
   <i name="BPARAM">      6.30000000</i>
   <i name="CPARAM">      0.00930000</i>
  </separator>
  <separator name="model GW" >
   <i type="int" name="MODEL_GW">     0</i>
   <i name="MODEL_EPS0">     12.91307200</i>
   <i name="MODEL_ALPHA">      1.00000000</i>
  </separator>
  <separator name="linear response parameters" >
   <i type="logical" name="LEPSILON"> F  </i>
   <i type="logical" name="LRPA"> F  </i>
   <i type="logical" name="LNABLA"> F  </i>
   <i type="logical" name="LVEL"> F  </i>
   <i name="CSHIFT">      0.10000000</i>
   <i name="OMEGAMAX">     -1.00000000</i>
   <i name="DEG_THRESHOLD">      0.00200000</i>
   <i name="RTIME">     -0.10000000</i>
   <i name="WPLASMAI">      0.00000000</i>
   <v name="DFIELD">      0.00000000      0.00000000      0.00000000</v>
   <v name="WPLASMA">      0.00000000      0.00000000      0.00000000      0.00000000      0.00000000      0.00000000      0.00000000      0.00000000      0.00000000</v>
  </separator>
  <separator name="orbital magnetization" >
   <i type="logical" name="NUCIND"> F  </i>
   <v name="MAGPOS">      0.00000000      0.00000000      0.00000000</v>
   <i type="logical" name="LNICSALL"> T  </i>
   <i type="logical" name="ORBITALMAG"> F  </i>
   <i type="logical" name="LMAGBLOCH"> F  </i>
   <i type="logical" name="LCHIMAG"> F  </i>
   <i type="logical" name="LGAUGE"> T  </i>
   <i type="int" name="MAGATOM">     0</i>
   <v name="MAGDIPOL">      0.00000000      0.00000000      0.00000000</v>
   <v name="AVECCONST">      0.00000000      0.00000000      0.00000000</v>
  </separator>
  <separator name="response functions" >
   <i type="logical" name="LALL_IN_ONE"> F  </i>
   <i type="int" name="IALL_IN_ONE">    -1</i>
   <i type="int" name="NBANDS_WAVE">    -1</i>
   <i type="logical" name="LFINITE_TEMPERATURE"> F  </i>
   <i type="logical" name="LADDER"> F  </i>
   <i type="logical" name="LRPAFORCE"> F  </i>
   <i type="logical" name="LFXC"> F  </i>
   <i type="logical" name="LHARTREE"> T  </i>
   <i type="int" name="IBSE">     0</i>
   <v type="int" name="KPOINT">    -1     0     0     0</v>
   <i type="logical" name="LTCTC"> F  </i>
   <i type="logical" name="LTCTE"> F  </i>
   <i type="logical" name="LTETE"> F  </i>
   <i type="logical" name="LTRIPLET"> F  </i>
   <i type="logical" name="LFXCEPS"> F  </i>
   <i type="logical" name="LFXHEG"> F  </i>
   <i type="int" name="NATURALO">     2</i>
   <i type="logical" name="LHOLEGF"> F  </i>
   <i type="logical" name="L2ORDER"> F  </i>
   <i type="logical" name="LDMP1"> F  </i>
   <i type="logical" name="LMP2LT"> F  </i>
   <i type="logical" name="LSMP2LT"> F  </i>
   <i type="logical" name="LGWLF"> F  </i>
   <i name="ENCUTGW">     -1.60000002</i>
   <i name="ENCUTGWSOFT">     -1.60000002</i>
   <i name="ENCUTLF">     -1.00000000</i>
   <i type="logical" name="ESF_SPLINES"> F  </i>
   <i name="ESF_CONV">      0.01000000</i>
   <i type="int" name="ESF_NINTER">    15</i>
   <i type="int" name="LMAXMP2">    -1</i>
   <i name="SCISSOR">      0.00000000</i>
   <i type="int" name="NOMEGA">     0</i>
   <i type="int" name="NOMEGAR">     0</i>
   <i type="int" name="NBANDSGW">    -1</i>
   <i type="int" name="NBANDSO">    -1</i>
   <i type="int" name="NBANDSV">    -1</i>
   <i type="int" name="NELMGW">     1</i>
   <i type="int" name="NELMHF">     1</i>
   <i type="int" name="DIM">     3</i>
   <i type="int" name="IESPILON">     4</i>
   <i type="int" name="ANTIRES">     0</i>
   <i name="OMEGAMAX">    -30.00000000</i>
   <i name="OMEGAMIN">    -30.00000000</i>
   <i name="OMEGATL">   -200.00000000</i>
   <i type="int" name="OMEGAGRID">     0</i>
   <i name="CSHIFT">     -0.10000000</i>
   <i type="logical" name="LSELFENERGY"> F  </i>
   <i type="logical" name="LSPECTRAL"> F  </i>
   <i type="logical" name="LSPECTRALGW"> F  </i>
   <i type="logical" name="LSINGLES"> F  </i>
   <i type="logical" name="LFERMIGW"> F  </i>
   <i type="logical" name="ODDONLYGW"> F  </i>
   <i type="logical" name="EVENONLYGW"> F  </i>
   <i type="int" name="NKREDLFX">     1</i>
   <i type="int" name="NKREDLFY">     1</i>
   <i type="int" name="NKREDLFZ">     1</i>
   <i type="int" name="MAXMEM">  2800</i>
   <i type="int" name="TELESCOPE">     0</i>
   <i type="int" name="NTAUPAR">    -1</i>
   <i type="int" name="NOMEGAPAR">    -1</i>
   <i name="DAMP_NEWTON">      0.80000001</i>
   <i name="LAMBDA">      1.00000000</i>
  </separator>
  <separator name="External order field" >
   <i name="OFIELD_KAPPA">      0.00000000</i>
   <v name="OFIELD_K">      0.00000000      0.00000000      0.00000000</v>
   <i name="OFIELD_Q6_NEAR">      0.00000000</i>
   <i name="OFIELD_Q6_FAR">      0.00000000</i>
   <i name="OFIELD_A">      0.00000000</i>
  </separator>
  <separator name="optional k-points parameters" >
   <i type="int" name="KPOINTS_OPT_MODE">     1</i>
   <i type="logical" name="LKPOINTS_OPT"> F  </i>
  </separator>
 </parameters>
 <atominfo>
  <atoms>      78 </atoms>
  <types>       2 </types>
  <array name="atoms" >
   <dimension dim="1">ion</dimension>
   <field type="string">element</field>
   <field type="int">atomtype</field>
   <set>
    <rc><c>Si</c><c>   1</c></rc>
    <rc><c>Si</c><c>   1</c></rc>
    <rc><c>Si</c><c>   1</c></rc>
    <rc><c>Si</c><c>   1</c></rc>
    <rc><c>Si</c><c>   1</c></rc>
    <rc><c>Si</c><c>   1</c></rc>
    <rc><c>Si</c><c>   1</c></rc>
    <rc><c>Si</c><c>   1</c></rc>
    <rc><c>Si</c><c>   1</c></rc>
    <rc><c>Si</c><c>   1</c></rc>
    <rc><c>Si</c><c>   1</c></rc>
    <rc><c>Si</c><c>   1</c></rc>
    <rc><c>Ge</c><c>   2</c></rc>
    <rc><c>Ge</c><c>   2</c></rc>
    <rc><c>Ge</c><c>   2</c></rc>
    <rc><c>Ge</c><c>   2</c></rc>
    <rc><c>Ge</c><c>   2</c></rc>
    <rc><c>Ge</c><c>   2</c></rc>
    <rc><c>Ge</c><c>   2</c></rc>
    <rc><c>Ge</c><c>   2</c></rc>
    <rc><c>Ge</c><c>   2</c></rc>
    <rc><c>Ge</c><c>   2</c></rc>
    <rc><c>Ge</c><c>   2</c></rc>
    <rc><c>Ge</c><c>   2</c></rc>
    <rc><c>Ge</c><c>   2</c></rc>
    <rc><c>Ge</c><c>   2</c></rc>
    <rc><c>Ge</c><c>   2</c></rc>
    <rc><c>Ge</c><c>   2</c></rc>
    <rc><c>Ge</c><c>   2</c></rc>
    <rc><c>Ge</c><c>   2</c></rc>
    <rc><c>Ge</c><c>   2</c></rc>
    <rc><c>Ge</c><c>   2</c></rc>
    <rc><c>Ge</c><c>   2</c></rc>
    <rc><c>Ge</c><c>   2</c></rc>
    <rc><c>Ge</c><c>   2</c></rc>
    <rc><c>Ge</c><c>   2</c></rc>
    <rc><c>Ge</c><c>   2</c></rc>
    <rc><c>Ge</c><c>   2</c></rc>
    <rc><c>Ge</c><c>   2</c></rc>
    <rc><c>Ge</c><c>   2</c></rc>
    <rc><c>Ge</c><c>   2</c></rc>
    <rc><c>Ge</c><c>   2</c></rc>
    <rc><c>Ge</c><c>   2</c></rc>
    <rc><c>Ge</c><c>   2</c></rc>
    <rc><c>Ge</c><c>   2</c></rc>
    <rc><c>Ge</c><c>   2</c></rc>
    <rc><c>Ge</c><c>   2</c></rc>
    <rc><c>Ge</c><c>   2</c></rc>
    <rc><c>Ge</c><c>   2</c></rc>
    <rc><c>Ge</c><c>   2</c></rc>
    <rc><c>Ge</c><c>   2</c></rc>
    <rc><c>Ge</c><c>   2</c></rc>
    <rc><c>Ge</c><c>   2</c></rc>
    <rc><c>Ge</c><c>   2</c></rc>
    <rc><c>Ge</c><c>   2</c></rc>
    <rc><c>Ge</c><c>   2</c></rc>
    <rc><c>Ge</c><c>   2</c></rc>
    <rc><c>Ge</c><c>   2</c></rc>
    <rc><c>Ge</c><c>   2</c></rc>
    <rc><c>Ge</c><c>   2</c></rc>
    <rc><c>Ge</c><c>   2</c></rc>
    <rc><c>Ge</c><c>   2</c></rc>
    <rc><c>Ge</c><c>   2</c></rc>
    <rc><c>Ge</c><c>   2</c></rc>
    <rc><c>Ge</c><c>   2</c></rc>
    <rc><c>Ge</c><c>   2</c></rc>
    <rc><c>Ge</c><c>   2</c></rc>
    <rc><c>Ge</c><c>   2</c></rc>
    <rc><c>Ge</c><c>   2</c></rc>
    <rc><c>Ge</c><c>   2</c></rc>
    <rc><c>Ge</c><c>   2</c></rc>
    <rc><c>Ge</c><c>   2</c></rc>
    <rc><c>Ge</c><c>   2</c></rc>
    <rc><c>Ge</c><c>   2</c></rc>
    <rc><c>Ge</c><c>   2</c></rc>
    <rc><c>Ge</c><c>   2</c></rc>
    <rc><c>Ge</c><c>   2</c></rc>
    <rc><c>Ge</c><c>   2</c></rc>
   </set>
  </array>
  <array name="atomtypes" >
   <dimension dim="1">type</dimension>
   <field type="int">atomspertype</field>
   <field type="string">element</field>
   <field>mass</field>
   <field>valence</field>
   <field type="string">pseudopotential</field>
   <set>
    <rc><c>  12</c><c>Si</c><c>     28.08500000</c><c>      4.00000000</c><c>  PAW_PBE Si 05Jan2001                  </c></rc>
    <rc><c>  66</c><c>Ge</c><c>     72.61000000</c><c>      4.00000000</c><c>  PAW_PBE Ge 05Jan2001                  </c></rc>
   </set>
  </array>
 </atominfo>
 <structure name="initialpos" >
  <crystal>
   <varray name="basis" >
    <v>       7.74989032       0.00000000       0.00000000 </v>
    <v>      -3.87494516      11.62483548       0.00000000 </v>
    <v>       0.00000000       0.00000000      18.63333333 </v>
   </varray>
   <i name="volume">   1678.69936005 </i>
   <varray name="rec_basis" >
    <v>       0.12903408       0.04301136       0.00000000 </v>
    <v>       0.00000000       0.08602272       0.00000000 </v>
    <v>       0.00000000       0.00000000       0.05366726 </v>
   </varray>
  </crystal>
  <varray name="positions" >
   <v>       0.00000000       0.00000000       0.00000000 </v>
   <v>       0.38888889       0.27777778       0.04901610 </v>
   <v>       0.77777778       0.55555556       0.09803220 </v>
   <v>       0.50000000       0.00000000       0.00000000 </v>
   <v>       0.88888889       0.27777778       0.04901610 </v>
   <v>       0.27777778       0.55555556       0.09803220 </v>
   <v>       0.69444444       0.88888889       0.02450805 </v>
   <v>       0.08333333       0.16666667       0.07352415 </v>
   <v>       0.47222222       0.44444444       0.12254025 </v>
   <v>       0.19444444       0.88888889       0.02450805 </v>
   <v>       0.58333333       0.16666667       0.07352415 </v>
   <v>       0.97222222       0.44444444       0.12254025 </v>
   <v>       0.15789474       0.38524590       0.18157424 </v>
   <v>       0.32456140       0.21857923       0.33345259 </v>
   <v>       0.49122807       0.05191257       0.48533095 </v>
   <v>       0.65789474       0.88524590       0.63720930 </v>
   <v>       0.82456140       0.71857923       0.78908766 </v>
   <v>       0.99122807       0.55191257       0.94096601 </v>
   <v>       0.82456140       0.71857923       0.18157424 </v>
   <v>       0.99122807       0.55191257       0.33345259 </v>
   <v>       0.15789474       0.38524590       0.48533095 </v>
   <v>       0.32456140       0.21857923       0.63720930 </v>
   <v>       0.49122807       0.05191257       0.78908766 </v>
   <v>       0.65789474       0.88524590       0.94096601 </v>
   <v>       0.49122807       0.05191257       0.18157424 </v>
   <v>       0.65789474       0.88524590       0.33345259 </v>
   <v>       0.82456140       0.71857923       0.48533095 </v>
   <v>       0.99122807       0.55191257       0.63720930 </v>
   <v>       0.15789474       0.38524590       0.78908766 </v>
   <v>       0.32456140       0.21857923       0.94096601 </v>
   <v>       0.65789474       0.38524590       0.18157424 </v>
   <v>       0.82456140       0.21857923       0.33345259 </v>
   <v>       0.99122807       0.05191257       0.48533095 </v>
   <v>       0.15789474       0.88524590       0.63720930 </v>
   <v>       0.32456140       0.71857923       0.78908766 </v>
   <v>       0.49122807       0.55191257       0.94096601 </v>
   <v>       0.32456140       0.71857923       0.18157424 </v>
   <v>       0.49122807       0.55191257       0.33345259 </v>
   <v>       0.65789474       0.38524590       0.48533095 </v>
   <v>       0.82456140       0.21857923       0.63720930 </v>
   <v>       0.99122807       0.05191257       0.78908766 </v>
   <v>       0.15789474       0.88524590       0.94096601 </v>
   <v>       0.99122807       0.05191257       0.18157424 </v>
   <v>       0.15789474       0.88524590       0.33345259 </v>
   <v>       0.32456140       0.71857923       0.48533095 </v>
   <v>       0.49122807       0.55191257       0.63720930 </v>
   <v>       0.65789474       0.38524590       0.78908766 </v>
   <v>       0.82456140       0.21857923       0.94096601 </v>
   <v>       0.24122807       0.55191257       0.25751342 </v>
   <v>       0.40789474       0.38524590       0.40939177 </v>
   <v>       0.57456140       0.21857923       0.56127013 </v>
   <v>       0.74122807       0.05191257       0.71314848 </v>
   <v>       0.90789474       0.88524590       0.86502683 </v>
   <v>       0.90789474       0.88524590       0.25751342 </v>
   <v>       0.07456140       0.71857923       0.40939177 </v>
   <v>       0.24122807       0.55191257       0.56127013 </v>
   <v>       0.40789474       0.38524590       0.71314848 </v>
   <v>       0.57456140       0.21857923       0.86502683 </v>
   <v>       0.57456140       0.21857923       0.25751342 </v>
   <v>       0.74122807       0.05191257       0.40939177 </v>
   <v>       0.90789474       0.88524590       0.56127013 </v>
   <v>       0.07456140       0.71857923       0.71314848 </v>
   <v>       0.24122807       0.55191257       0.86502683 </v>
   <v>       0.74122807       0.55191257       0.25751342 </v>
   <v>       0.90789474       0.38524590       0.40939177 </v>
   <v>       0.07456140       0.21857923       0.56127013 </v>
   <v>       0.24122807       0.05191257       0.71314848 </v>
   <v>       0.40789474       0.88524590       0.86502683 </v>
   <v>       0.40789474       0.88524590       0.25751342 </v>
   <v>       0.57456140       0.71857923       0.40939177 </v>
   <v>       0.74122807       0.55191257       0.56127013 </v>
   <v>       0.90789474       0.38524590       0.71314848 </v>
   <v>       0.07456140       0.21857923       0.86502683 </v>
   <v>       0.07456140       0.21857923       0.25751342 </v>
   <v>       0.24122807       0.05191257       0.40939177 </v>
   <v>       0.40789474       0.88524590       0.56127013 </v>
   <v>       0.57456140       0.71857923       0.71314848 </v>
   <v>       0.74122807       0.55191257       0.86502683 </v>
  </varray>
 </structure>
 <calculation>
  <scstep>
   <time name="dav">   52.45   52.91</time>
   <time name="total">   56.36   56.84</time>
   <energy>
    <i name="alphaZ">    604.90751195 </i>
    <i name="ewald">  -8386.68648378 </i>
    <i name="hartreedc">   -707.30495787 </i>
    <i name="XCdc">   -601.23874413 </i>
    <i name="pawpsdc">   6875.06741709 </i>
    <i name="pawaedc">  -5707.76819619 </i>
    <i name="eentropy">     -0.00077685 </i>
    <i name="bandstr">   1295.94905539 </i>
    <i name="atom">   8166.52953475 </i>
    <i name="e_fr_energy">   1539.45436036 </i>
    <i name="e_wo_entrp">   1539.45513721 </i>
    <i name="e_0_energy">   1539.45474878 </i>
   </energy>
  </scstep>
  <scstep>
   <time name="dav">   58.37   58.89</time>
   <time name="total">   58.38   58.89</time>
   <energy>
    <i name="e_fr_energy">   -151.32111285 </i>
    <i name="e_wo_entrp">   -151.31952792 </i>
    <i name="e_0_energy">   -151.32032038 </i>
   </energy>
  </scstep>
  <scstep>
   <time name="dav">   61.02   61.55</time>
   <time name="total">   61.02   61.55</time>
   <energy>
    <i name="e_fr_energy">   -319.55437105 </i>
    <i name="e_wo_entrp">   -319.55348464 </i>
    <i name="e_0_energy">   -319.55392784 </i>
   </energy>
  </scstep>
  <scstep>
   <time name="dav">   59.27   59.79</time>
   <time name="total">   59.28   59.79</time>
   <energy>
    <i name="e_fr_energy">   -325.61898872 </i>
    <i name="e_wo_entrp">   -325.61797074 </i>
    <i name="e_0_energy">   -325.61847973 </i>
   </energy>
  </scstep>
  <scstep>
   <time name="dav">   64.86   65.41</time>
   <time name="total">   67.99   68.56</time>
   <energy>
    <i name="e_fr_energy">   -325.84645447 </i>
    <i name="e_wo_entrp">   -325.84543319 </i>
    <i name="e_0_energy">   -325.84594383 </i>
   </energy>
  </scstep>
  <scstep>
   <time name="dav">   58.59   59.09</time>
   <time name="total">   65.69   66.23</time>
   <energy>
    <i name="e_fr_energy">   -318.82876910 </i>
    <i name="e_wo_entrp">   -318.82735092 </i>
    <i name="e_0_energy">   -318.82806001 </i>
   </energy>
  </scstep>
  <scstep>
   <time name="dav">   59.10   59.62</time>
   <time name="total">   66.23   66.78</time>
   <energy>
    <i name="e_fr_energy">   -319.27040185 </i>
    <i name="e_wo_entrp">   -319.26919471 </i>
    <i name="e_0_energy">   -319.26979828 </i>
   </energy>
  </scstep>
  <scstep>
   <time name="dav">   59.96   60.49</time>
   <time name="total">   67.02   67.59</time>
   <energy>
    <i name="e_fr_energy">   -318.07328010 </i>
    <i name="e_wo_entrp">   -318.07216082 </i>
    <i name="e_0_energy">   -318.07272046 </i>
   </energy>
  </scstep>
  <scstep>
   <time name="dav">   58.65   59.16</time>
   <time name="total">   65.72   66.27</time>
   <energy>
    <i name="e_fr_energy">   -318.05652948 </i>
    <i name="e_wo_entrp">   -318.05535480 </i>
    <i name="e_0_energy">   -318.05594214 </i>
   </energy>
  </scstep>
  <scstep>
   <time name="dav">   57.45   57.96</time>
   <time name="total">   64.56   65.10</time>
   <energy>
    <i name="e_fr_energy">   -318.05374531 </i>
    <i name="e_wo_entrp">   -318.05264186 </i>
    <i name="e_0_energy">   -318.05319359 </i>
   </energy>
  </scstep>
  <scstep>
   <time name="dav">   59.56   60.08</time>
   <time name="total">   66.66   67.21</time>
   <energy>
    <i name="e_fr_energy">   -318.05390816 </i>
    <i name="e_wo_entrp">   -318.05290958 </i>
    <i name="e_0_energy">   -318.05340887 </i>
   </energy>
  </scstep>
  <scstep>
   <time name="dav">   59.10   59.62</time>
   <time name="total">   66.21   66.76</time>
   <energy>
    <i name="e_fr_energy">   -318.05424518 </i>
    <i name="e_wo_entrp">   -318.05318420 </i>
    <i name="e_0_energy">   -318.05371469 </i>
   </energy>
  </scstep>
  <scstep>
   <time name="dav">   58.38   58.90</time>
   <time name="total">   65.47   66.02</time>
   <energy>
    <i name="e_fr_energy">   -318.05446583 </i>
    <i name="e_wo_entrp">   -318.05341549 </i>
    <i name="e_0_energy">   -318.05394066 </i>
   </energy>
  </scstep>
  <scstep>
   <time name="dav">   59.15   59.66</time>
   <time name="total">   66.25   66.80</time>
   <energy>
    <i name="e_fr_energy">   -318.05458531 </i>
    <i name="e_wo_entrp">   -318.05354209 </i>
    <i name="e_0_energy">   -318.05406370 </i>
   </energy>
  </scstep>
  <scstep>
   <time name="dav">   59.51   60.02</time>
   <time name="total">   66.62   67.17</time>
   <energy>
    <i name="e_fr_energy">   -318.05462880 </i>
    <i name="e_wo_entrp">   -318.05357503 </i>
    <i name="e_0_energy">   -318.05410192 </i>
   </energy>
  </scstep>
  <scstep>
   <time name="dav">   57.97   58.47</time>
   <time name="total">   65.09   65.63</time>
   <energy>
    <i name="e_fr_energy">   -318.05464719 </i>
    <i name="e_wo_entrp">   -318.05359289 </i>
    <i name="e_0_energy">   -318.05412004 </i>
   </energy>
  </scstep>
  <scstep>
   <time name="dav">   59.60   60.12</time>
   <time name="total">   66.67   67.23</time>
   <energy>
    <i name="e_fr_energy">   -318.05465260 </i>
    <i name="e_wo_entrp">   -318.05360028 </i>
    <i name="e_0_energy">   -318.05412644 </i>
   </energy>
  </scstep>
  <scstep>
   <time name="dav">   58.52   59.03</time>
   <time name="total">   65.63   66.17</time>
   <energy>
    <i name="e_fr_energy">   -318.05465698 </i>
    <i name="e_wo_entrp">   -318.05360390 </i>
    <i name="e_0_energy">   -318.05413044 </i>
   </energy>
  </scstep>
  <scstep>
   <time name="dav">   60.22   60.73</time>
   <time name="total">   67.33   67.88</time>
   <energy>
    <i name="e_fr_energy">   -318.05466032 </i>
    <i name="e_wo_entrp">   -318.05360620 </i>
    <i name="e_0_energy">   -318.05413326 </i>
   </energy>
  </scstep>
  <scstep>
   <time name="dav">   58.50   59.00</time>
   <time name="total">   65.65   66.18</time>
   <energy>
    <i name="e_fr_energy">   -318.05466098 </i>
    <i name="e_wo_entrp">   -318.05360698 </i>
    <i name="e_0_energy">   -318.05413398 </i>
   </energy>
  </scstep>
  <scstep>
   <time name="dav">   45.74   46.14</time>
   <time name="total">   52.83   53.27</time>
   <energy>
    <i name="e_fr_energy">   -318.05466109 </i>
    <i name="e_wo_entrp">   -318.05360703 </i>
    <i name="e_0_energy">   -318.05413406 </i>
   </energy>
  </scstep>
  <scstep>
   <time name="dav">   37.17   37.50</time>
   <time name="total">   41.10   41.45</time>
   <energy>
    <i name="alphaZ">    604.90751195 </i>
    <i name="ewald">  -8386.68648378 </i>
    <i name="hartreedc">   -831.62033018 </i>
    <i name="XCdc">   -579.24145212 </i>
    <i name="pawpsdc">  21999.46085314 </i>
    <i name="pawaedc"> -20847.09812589 </i>
    <i name="eentropy">     -0.00105419 </i>
    <i name="bandstr">   -444.30511472 </i>
    <i name="atom">   8166.52953475 </i>
    <i name="e_fr_energy">   -318.05466104 </i>
    <i name="e_wo_entrp">   -318.05360685 </i>
    <i name="e_0_energy">   -318.05413394 </i>
   </energy>
  </scstep>
  <structure>
   <crystal>
    <varray name="basis" >
     <v>       7.74989032       0.00000000       0.00000000 </v>
     <v>      -3.87494516      11.62483548       0.00000000 </v>
     <v>       0.00000000       0.00000000      18.63333333 </v>
    </varray>
    <i name="volume">   1678.69936005 </i>
    <varray name="rec_basis" >
     <v>       0.12903408       0.04301136       0.00000000 </v>
     <v>       0.00000000       0.08602272       0.00000000 </v>
     <v>       0.00000000       0.00000000       0.05366726 </v>
    </varray>
   </crystal>
   <varray name="positions" >
    <v>       0.00000000       0.00000000       0.00000000 </v>
    <v>       0.38888889       0.27777778       0.04901610 </v>
    <v>       0.77777778       0.55555556       0.09803220 </v>
    <v>       0.50000000       0.00000000       0.00000000 </v>
    <v>       0.88888889       0.27777778       0.04901610 </v>
    <v>       0.27777778       0.55555556       0.09803220 </v>
    <v>       0.69444444       0.88888889       0.02450805 </v>
    <v>       0.08333333       0.16666667       0.07352415 </v>
    <v>       0.47222222       0.44444444       0.12254025 </v>
    <v>       0.19444444       0.88888889       0.02450805 </v>
    <v>       0.58333333       0.16666667       0.07352415 </v>
    <v>       0.97222222       0.44444444       0.12254025 </v>
    <v>       0.15789474       0.38524590       0.18157424 </v>
    <v>       0.32456140       0.21857923       0.33345259 </v>
    <v>       0.49122807       0.05191257       0.48533095 </v>
    <v>       0.65789474       0.88524590       0.63720930 </v>
    <v>       0.82456140       0.71857923       0.78908766 </v>
    <v>       0.99122807       0.55191257       0.94096601 </v>
    <v>       0.82456140       0.71857923       0.18157424 </v>
    <v>       0.99122807       0.55191257       0.33345259 </v>
    <v>       0.15789474       0.38524590       0.48533095 </v>
    <v>       0.32456140       0.21857923       0.63720930 </v>
    <v>       0.49122807       0.05191257       0.78908766 </v>
    <v>       0.65789474       0.88524590       0.94096601 </v>
    <v>       0.49122807       0.05191257       0.18157424 </v>
    <v>       0.65789474       0.88524590       0.33345259 </v>
    <v>       0.82456140       0.71857923       0.48533095 </v>
    <v>       0.99122807       0.55191257       0.63720930 </v>
    <v>       0.15789474       0.38524590       0.78908766 </v>
    <v>       0.32456140       0.21857923       0.94096601 </v>
    <v>       0.65789474       0.38524590       0.18157424 </v>
    <v>       0.82456140       0.21857923       0.33345259 </v>
    <v>       0.99122807       0.05191257       0.48533095 </v>
    <v>       0.15789474       0.88524590       0.63720930 </v>
    <v>       0.32456140       0.71857923       0.78908766 </v>
    <v>       0.49122807       0.55191257       0.94096601 </v>
    <v>       0.32456140       0.71857923       0.18157424 </v>
    <v>       0.49122807       0.55191257       0.33345259 </v>
    <v>       0.65789474       0.38524590       0.48533095 </v>
    <v>       0.82456140       0.21857923       0.63720930 </v>
    <v>       0.99122807       0.05191257       0.78908766 </v>
    <v>       0.15789474       0.88524590       0.94096601 </v>
    <v>       0.99122807       0.05191257       0.18157424 </v>
    <v>       0.15789474       0.88524590       0.33345259 </v>
    <v>       0.32456140       0.71857923       0.48533095 </v>
    <v>       0.49122807       0.55191257       0.63720930 </v>
    <v>       0.65789474       0.38524590       0.78908766 </v>
    <v>       0.82456140       0.21857923       0.94096601 </v>
    <v>       0.24122807       0.55191257       0.25751342 </v>
    <v>       0.40789474       0.38524590       0.40939177 </v>
    <v>       0.57456140       0.21857923       0.56127013 </v>
    <v>       0.74122807       0.05191257       0.71314848 </v>
    <v>       0.90789474       0.88524590       0.86502683 </v>
    <v>       0.90789474       0.88524590       0.25751342 </v>
    <v>       0.07456140       0.71857923       0.40939177 </v>
    <v>       0.24122807       0.55191257       0.56127013 </v>
    <v>       0.40789474       0.38524590       0.71314848 </v>
    <v>       0.57456140       0.21857923       0.86502683 </v>
    <v>       0.57456140       0.21857923       0.25751342 </v>
    <v>       0.74122807       0.05191257       0.40939177 </v>
    <v>       0.90789474       0.88524590       0.56127013 </v>
    <v>       0.07456140       0.71857923       0.71314848 </v>
    <v>       0.24122807       0.55191257       0.86502683 </v>
    <v>       0.74122807       0.55191257       0.25751342 </v>
    <v>       0.90789474       0.38524590       0.40939177 </v>
    <v>       0.07456140       0.21857923       0.56127013 </v>
    <v>       0.24122807       0.05191257       0.71314848 </v>
    <v>       0.40789474       0.88524590       0.86502683 </v>
    <v>       0.40789474       0.88524590       0.25751342 </v>
    <v>       0.57456140       0.71857923       0.40939177 </v>
    <v>       0.74122807       0.55191257       0.56127013 </v>
    <v>       0.90789474       0.38524590       0.71314848 </v>
    <v>       0.07456140       0.21857923       0.86502683 </v>
    <v>       0.07456140       0.21857923       0.25751342 </v>
    <v>       0.24122807       0.05191257       0.40939177 </v>
    <v>       0.40789474       0.88524590       0.56127013 </v>
    <v>       0.57456140       0.71857923       0.71314848 </v>
    <v>       0.74122807       0.55191257       0.86502683 </v>
   </varray>
  </structure>
  <varray name="forces" >
   <v>      -0.11608564       1.44670452       1.17841014 </v>
   <v>       0.13301042       0.82225375       2.79978998 </v>
   <v>       0.74500895       1.56327117      -1.46355972 </v>
   <v>      -0.11608564       1.44670452       1.17841014 </v>
   <v>       0.13301042       0.82225375       2.79978998 </v>
   <v>       0.74500895       1.56327117      -1.46355972 </v>
   <v>       6.21396291       0.95723065      37.62969339 </v>
   <v>       0.12059371      -0.54511141       0.25880275 </v>
   <v>      -3.08007834       0.51414293      -2.58501214 </v>
   <v>       6.21396291       0.95723065      37.62969339 </v>
   <v>       0.12059371      -0.54511141       0.25880275 </v>
   <v>      -3.08007834       0.51414293      -2.58501214 </v>
   <v>       2.41858699      -2.13388939       2.62877283 </v>
   <v>      -0.00935444       0.27001607       0.10682325 </v>
   <v>      -0.00678434      -0.04982411       0.00235994 </v>
   <v>      -0.01775201       0.02164688       0.02045069 </v>
   <v>      -0.02043149      -0.04064797      -0.31601773 </v>
   <v>      -0.25186873      -0.36039661       1.34443980 </v>
   <v>      -0.13320456      -0.11408389      -1.16484669 </v>
   <v>      -0.01087038      -0.05684670       0.12870530 </v>
   <v>      -0.02038488       0.03144323      -0.02941109 </v>
   <v>      -0.02070283      -0.02779798      -0.02455660 </v>
   <v>       0.08157266      -0.00129730      -0.03319967 </v>
   <v>      -5.92593552      -2.07097389     -36.61383109 </v>
   <v>      -0.15161774       0.49955504      -0.55186359 </v>
   <v>      -0.02650993      -0.07473604       0.05214523 </v>
   <v>      -0.00521223       0.01593168      -0.01538453 </v>
   <v>      -0.00606482      -0.00188393      -0.05151692 </v>
   <v>      -0.05234726      -0.00819527      -0.23829639 </v>
   <v>      -0.35961131      -0.80790928      -2.99311616 </v>
   <v>       2.41858699      -2.13388939       2.62877283 </v>
   <v>      -0.00935444       0.27001607       0.10682325 </v>
   <v>      -0.00678434      -0.04982411       0.00235994 </v>
   <v>      -0.01775201       0.02164688       0.02045069 </v>
   <v>      -0.02043149      -0.04064797      -0.31601773 </v>
   <v>      -0.25186873      -0.36039661       1.34443980 </v>
   <v>      -0.13320456      -0.11408389      -1.16484669 </v>
   <v>      -0.01087038      -0.05684670       0.12870530 </v>
   <v>      -0.02038488       0.03144323      -0.02941109 </v>
   <v>      -0.02070283      -0.02779798      -0.02455660 </v>
   <v>       0.08157266      -0.00129730      -0.03319967 </v>
   <v>      -5.92593552      -2.07097389     -36.61383109 </v>
   <v>      -0.15161774       0.49955504      -0.55186359 </v>
   <v>      -0.02650993      -0.07473604       0.05214523 </v>
   <v>      -0.00521223       0.01593168      -0.01538453 </v>
   <v>      -0.00606482      -0.00188393      -0.05151692 </v>
   <v>      -0.05234726      -0.00819527      -0.23829639 </v>
   <v>      -0.35961131      -0.80790928      -2.99311616 </v>
   <v>       0.08057872       0.39397824       0.88493282 </v>
   <v>       0.00503443      -0.01727225       0.14210150 </v>
   <v>       0.00857838       0.06848410       0.01355262 </v>
   <v>       0.02662688      -0.00122667      -0.04814084 </v>
   <v>      -0.18187820      -0.13867729      -1.18794473 </v>
   <v>       0.21012994       0.04161015      -0.41933449 </v>
   <v>       0.03586120      -0.09718969      -0.01814900 </v>
   <v>       0.00964798      -0.03191251       0.02395491 </v>
   <v>       0.02680191       0.07041405      -0.03769125 </v>
   <v>      -0.00942959       0.21105499       0.28827099 </v>
   <v>       0.07782534      -0.39821269       0.30528255 </v>
   <v>       0.03243290       0.11529033      -0.03781514 </v>
   <v>       0.01450556      -0.01098950       0.00530870 </v>
   <v>       0.04091759      -0.06325825      -0.02719770 </v>
   <v>       0.12444778       0.00930483       0.04308809 </v>
   <v>       0.08057872       0.39397824       0.88493282 </v>
   <v>       0.00503443      -0.01727225       0.14210150 </v>
   <v>       0.00857838       0.06848410       0.01355262 </v>
   <v>       0.02662688      -0.00122667      -0.04814084 </v>
   <v>      -0.18187820      -0.13867729      -1.18794473 </v>
   <v>       0.21012994       0.04161015      -0.41933449 </v>
   <v>       0.03586120      -0.09718969      -0.01814900 </v>
   <v>       0.00964798      -0.03191251       0.02395491 </v>
   <v>       0.02680191       0.07041405      -0.03769125 </v>
   <v>      -0.00942959       0.21105499       0.28827099 </v>
   <v>       0.07782534      -0.39821269       0.30528255 </v>
   <v>       0.03243290       0.11529033      -0.03781514 </v>
   <v>       0.01450556      -0.01098950       0.00530870 </v>
   <v>       0.04091759      -0.06325825      -0.02719770 </v>
   <v>       0.12444778       0.00930483       0.04308809 </v>
  </varray>
  <varray name="stress" >
   <v>      96.96698427      -1.35632029      25.74668130 </v>
   <v>      -1.35632071      87.05216470       6.09835066 </v>
   <v>      25.74669586       6.09832895     218.39577894 </v>
  </varray>
  <energy>
   <i name="e_fr_energy">   -318.05466104 </i>
   <i name="e_wo_entrp">   -318.05360685 </i>
   <i name="e_0_energy">   -318.05413394 </i>
  </energy>
  <time name="totalsc"> 1470.69 1483.73</time>
  <eigenvalues>
   <array>
    <dimension dim="1">band</dimension>
    <dimension dim="2">kpoint</dimension>
    <dimension dim="3">spin</dimension>
    <field>eigene</field>
    <field>occ</field>
    <set>
     <set comment="spin 1">
      <set comment="kpoint 1">
       <r>   -9.7272    1.0000 </r>
       <r>   -9.0437    1.0000 </r>
       <r>   -8.7012    1.0000 </r>
       <r>   -8.3006    1.0000 </r>
       <r>   -8.2962    1.0000 </r>
       <r>   -7.9084    1.0000 </r>
       <r>   -7.8173    1.0000 </r>
       <r>   -7.7282    1.0000 </r>
       <r>   -7.6331    1.0000 </r>
       <r>   -7.5390    1.0000 </r>
       <r>   -7.4681    1.0000 </r>
       <r>   -7.3186    1.0000 </r>
       <r>   -7.0232    1.0000 </r>
       <r>   -6.8618    1.0000 </r>
       <r>   -6.7750    1.0000 </r>
       <r>   -6.6456    1.0000 </r>
       <r>   -6.6025    1.0000 </r>
       <r>   -6.5702    1.0000 </r>
       <r>   -6.5381    1.0000 </r>
       <r>   -6.5290    1.0000 </r>
       <r>   -6.5245    1.0000 </r>
       <r>   -6.4964    1.0000 </r>
       <r>   -6.4361    1.0000 </r>
       <r>   -6.4226    1.0000 </r>
       <r>   -6.3656    1.0000 </r>
       <r>   -6.1799    1.0000 </r>
       <r>   -6.1628    1.0000 </r>
       <r>   -5.7245    1.0000 </r>
       <r>   -5.5557    1.0000 </r>
       <r>   -5.5023    1.0000 </r>
       <r>   -5.3233    1.0000 </r>
       <r>   -5.2446    1.0000 </r>
       <r>   -5.0534    1.0000 </r>
       <r>   -4.9523    1.0000 </r>
       <r>   -4.8979    1.0000 </r>
       <r>   -4.7780    1.0000 </r>
       <r>   -4.7175    1.0000 </r>
       <r>   -4.6976    1.0000 </r>
       <r>   -4.6933    1.0000 </r>
       <r>   -4.6767    1.0000 </r>
       <r>   -4.6421    1.0000 </r>
       <r>   -4.6062    1.0000 </r>
       <r>   -4.5948    1.0000 </r>
       <r>   -4.5669    1.0000 </r>
       <r>   -4.0433    1.0000 </r>
       <r>   -3.9922    1.0000 </r>
       <r>   -3.9619    1.0000 </r>
       <r>   -3.6505    1.0000 </r>
       <r>   -3.6011    1.0000 </r>
       <r>   -3.5465    1.0000 </r>
       <r>   -3.4970    1.0000 </r>
       <r>   -3.3533    1.0000 </r>
       <r>   -3.2549    1.0000 </r>
       <r>   -3.2395    1.0000 </r>
       <r>   -3.1003    1.0000 </r>
       <r>   -3.0662    1.0000 </r>
       <r>   -2.9580    1.0000 </r>
       <r>   -2.8740    1.0000 </r>
       <r>   -2.7483    1.0000 </r>
       <r>   -2.7188    1.0000 </r>
       <r>   -2.7002    1.0000 </r>
       <r>   -2.5653    1.0000 </r>
       <r>   -2.5020    1.0000 </r>
       <r>   -2.4773    1.0000 </r>
       <r>   -2.3939    1.0000 </r>
       <r>   -2.2484    1.0000 </r>
       <r>   -2.1292    1.0000 </r>
       <r>   -1.9471    1.0000 </r>
       <r>   -1.7370    1.0000 </r>
       <r>   -1.4377    1.0000 </r>
       <r>   -1.3972    1.0000 </r>
       <r>   -1.0632    1.0000 </r>
       <r>   -0.8877    1.0000 </r>
       <r>   -0.7151    1.0000 </r>
       <r>   -0.4400    1.0000 </r>
       <r>   -0.3680    1.0000 </r>
       <r>   -0.2835    1.0000 </r>
       <r>   -0.1760    1.0000 </r>
       <r>   -0.1557    1.0000 </r>
       <r>   -0.0686    1.0000 </r>
       <r>   -0.0263    1.0000 </r>
       <r>    0.0162    1.0000 </r>
       <r>    0.2042    1.0000 </r>
       <r>    0.2146    1.0000 </r>
       <r>    0.2811    1.0000 </r>
       <r>    0.3250    1.0000 </r>
       <r>    0.3353    1.0000 </r>
       <r>    0.3488    1.0000 </r>
       <r>    0.3875    1.0000 </r>
       <r>    0.4791    1.0000 </r>
       <r>    0.5233    1.0000 </r>
       <r>    0.5426    1.0000 </r>
       <r>    0.6396    1.0000 </r>
       <r>    0.6659    1.0000 </r>
       <r>    0.6828    1.0000 </r>
       <r>    0.7251    1.0000 </r>
       <r>    0.7844    1.0000 </r>
       <r>    0.8074    1.0000 </r>
       <r>    0.8605    1.0000 </r>
       <r>    0.8853    1.0000 </r>
       <r>    0.9446    1.0000 </r>
       <r>    1.1580    1.0000 </r>
       <r>    1.1812    1.0000 </r>
       <r>    1.1878    1.0000 </r>
       <r>    1.2118    1.0000 </r>
       <r>    1.3090    1.0000 </r>
       <r>    1.3590    1.0000 </r>
       <r>    1.3591    1.0000 </r>
       <r>    1.3729    1.0000 </r>
       <r>    1.4891    1.0000 </r>
       <r>    1.5517    1.0000 </r>
       <r>    1.5927    1.0000 </r>
       <r>    1.6240    1.0000 </r>
       <r>    1.6639    1.0000 </r>
       <r>    1.7628    1.0000 </r>
       <r>    1.8335    1.0000 </r>
       <r>    1.9208    1.0000 </r>
       <r>    1.9487    1.0000 </r>
       <r>    1.9643    1.0000 </r>
       <r>    1.9970    1.0000 </r>
       <r>    2.0085    1.0000 </r>
       <r>    2.0309    1.0000 </r>
       <r>    2.0521    1.0000 </r>
       <r>    2.0773    1.0000 </r>
       <r>    2.1508    1.0000 </r>
       <r>    2.1607    1.0000 </r>
       <r>    2.1676    1.0000 </r>
       <r>    2.1828    1.0000 </r>
       <r>    2.2852    1.0000 </r>
       <r>    2.3624    1.0000 </r>
       <r>    2.3875    1.0000 </r>
       <r>    2.4498    1.0000 </r>
       <r>    2.4781    1.0000 </r>
       <r>    2.5115    1.0000 </r>
       <r>    2.5393    1.0000 </r>
       <r>    2.6349    1.0000 </r>
       <r>    2.6859    1.0000 </r>
       <r>    2.8968    1.0000 </r>
       <r>    2.9817    1.0000 </r>
       <r>    2.9921    1.0000 </r>
       <r>    3.0039    1.0000 </r>
       <r>    3.1724    1.0000 </r>
       <r>    3.2139    1.0000 </r>
       <r>    3.2950    1.0000 </r>
       <r>    3.2960    1.0000 </r>
       <r>    3.3627    1.0000 </r>
       <r>    3.3875    1.0000 </r>
       <r>    3.4421    1.0000 </r>
       <r>    3.4919    1.0000 </r>
       <r>    3.5579    1.0000 </r>
       <r>    3.6283    1.0000 </r>
       <r>    3.7412    1.0000 </r>
       <r>    3.7679    1.0000 </r>
       <r>    3.8803    1.0000 </r>
       <r>    3.9262    1.0000 </r>
       <r>    3.9892    1.0000 </r>
       <r>    4.0437    1.0000 </r>
       <r>    4.3877    0.0000 </r>
       <r>    4.4123    0.0000 </r>
       <r>    4.5262    0.0000 </r>
       <r>    4.5972    0.0000 </r>
       <r>    4.6591    0.0000 </r>
       <r>    4.8273    0.0000 </r>
       <r>    4.9208    0.0000 </r>
       <r>    5.1485    0.0000 </r>
       <r>    5.1798    0.0000 </r>
       <r>    5.1963    0.0000 </r>
       <r>    5.2830    0.0000 </r>
       <r>    5.3276    0.0000 </r>
       <r>    5.4415    0.0000 </r>
       <r>    5.4884    0.0000 </r>
       <r>    5.5209    0.0000 </r>
       <r>    5.6000    0.0000 </r>
       <r>    5.6112    0.0000 </r>
       <r>    5.6812    0.0000 </r>
       <r>    5.7152    0.0000 </r>
       <r>    5.7799    0.0000 </r>
       <r>    5.8182    0.0000 </r>
       <r>    5.8503    0.0000 </r>
       <r>    5.8821    0.0000 </r>
       <r>    5.9426    0.0000 </r>
       <r>    5.9702    0.0000 </r>
       <r>    5.9977    0.0000 </r>
       <r>    6.0138    0.0000 </r>
       <r>    6.0936    0.0000 </r>
       <r>    6.1040    0.0000 </r>
       <r>    6.1499    0.0000 </r>
       <r>    6.1656    0.0000 </r>
      </set>
      <set comment="kpoint 2">
       <r>   -9.5964    1.0000 </r>
       <r>   -8.9102    1.0000 </r>
       <r>   -8.6665    1.0000 </r>
       <r>   -8.5567    1.0000 </r>
       <r>   -8.1706    1.0000 </r>
       <r>   -7.9822    1.0000 </r>
       <r>   -7.9004    1.0000 </r>
       <r>   -7.7005    1.0000 </r>
       <r>   -7.5054    1.0000 </r>
       <r>   -7.4613    1.0000 </r>
       <r>   -7.4192    1.0000 </r>
       <r>   -7.3019    1.0000 </r>
       <r>   -7.2351    1.0000 </r>
       <r>   -7.1143    1.0000 </r>
       <r>   -7.1126    1.0000 </r>
       <r>   -6.9434    1.0000 </r>
       <r>   -6.9142    1.0000 </r>
       <r>   -6.7594    1.0000 </r>
       <r>   -6.6480    1.0000 </r>
       <r>   -6.4799    1.0000 </r>
       <r>   -6.4774    1.0000 </r>
       <r>   -6.2972    1.0000 </r>
       <r>   -6.2710    1.0000 </r>
       <r>   -6.2223    1.0000 </r>
       <r>   -6.0871    1.0000 </r>
       <r>   -5.9996    1.0000 </r>
       <r>   -5.8943    1.0000 </r>
       <r>   -5.7594    1.0000 </r>
       <r>   -5.7090    1.0000 </r>
       <r>   -5.6350    1.0000 </r>
       <r>   -5.5331    1.0000 </r>
       <r>   -5.4540    1.0000 </r>
       <r>   -5.3680    1.0000 </r>
       <r>   -5.3134    1.0000 </r>
       <r>   -5.2335    1.0000 </r>
       <r>   -5.2252    1.0000 </r>
       <r>   -4.9181    1.0000 </r>
       <r>   -4.7843    1.0000 </r>
       <r>   -4.6867    1.0000 </r>
       <r>   -4.3789    1.0000 </r>
       <r>   -4.3220    1.0000 </r>
       <r>   -4.0728    1.0000 </r>
       <r>   -4.0355    1.0000 </r>
       <r>   -3.9761    1.0000 </r>
       <r>   -3.8418    1.0000 </r>
       <r>   -3.7380    1.0000 </r>
       <r>   -3.6329    1.0000 </r>
       <r>   -3.5958    1.0000 </r>
       <r>   -3.5222    1.0000 </r>
       <r>   -3.4921    1.0000 </r>
       <r>   -3.4620    1.0000 </r>
       <r>   -3.4034    1.0000 </r>
       <r>   -3.3730    1.0000 </r>
       <r>   -3.2091    1.0000 </r>
       <r>   -3.1267    1.0000 </r>
       <r>   -2.9639    1.0000 </r>
       <r>   -2.9208    1.0000 </r>
       <r>   -2.8861    1.0000 </r>
       <r>   -2.7531    1.0000 </r>
       <r>   -2.5765    1.0000 </r>
       <r>   -2.5457    1.0000 </r>
       <r>   -2.3789    1.0000 </r>
       <r>   -2.3539    1.0000 </r>
       <r>   -2.1318    1.0000 </r>
       <r>   -1.9216    1.0000 </r>
       <r>   -1.8282    1.0000 </r>
       <r>   -1.7680    1.0000 </r>
       <r>   -1.5953    1.0000 </r>
       <r>   -1.5119    1.0000 </r>
       <r>   -1.3221    1.0000 </r>
       <r>   -1.3172    1.0000 </r>
       <r>   -1.1585    1.0000 </r>
       <r>   -1.0257    1.0000 </r>
       <r>   -0.9331    1.0000 </r>
       <r>   -0.7733    1.0000 </r>
       <r>   -0.5753    1.0000 </r>
       <r>   -0.3514    1.0000 </r>
       <r>   -0.3283    1.0000 </r>
       <r>   -0.2285    1.0000 </r>
       <r>   -0.2082    1.0000 </r>
       <r>   -0.0997    1.0000 </r>
       <r>   -0.0994    1.0000 </r>
       <r>   -0.0091    1.0000 </r>
       <r>    0.0208    1.0000 </r>
       <r>    0.0614    1.0000 </r>
       <r>    0.1385    1.0000 </r>
       <r>    0.1621    1.0000 </r>
       <r>    0.2445    1.0000 </r>
       <r>    0.3451    1.0000 </r>
       <r>    0.3796    1.0000 </r>
       <r>    0.4216    1.0000 </r>
       <r>    0.5102    1.0000 </r>
       <r>    0.5385    1.0000 </r>
       <r>    0.6042    1.0000 </r>
       <r>    0.6286    1.0000 </r>
       <r>    0.7450    1.0000 </r>
       <r>    0.7495    1.0000 </r>
       <r>    0.8773    1.0000 </r>
       <r>    0.9424    1.0000 </r>
       <r>    0.9753    1.0000 </r>
       <r>    0.9883    1.0000 </r>
       <r>    1.0406    1.0000 </r>
       <r>    1.0919    1.0000 </r>
       <r>    1.1395    1.0000 </r>
       <r>    1.1454    1.0000 </r>
       <r>    1.1978    1.0000 </r>
       <r>    1.2565    1.0000 </r>
       <r>    1.2959    1.0000 </r>
       <r>    1.3670    1.0000 </r>
       <r>    1.3788    1.0000 </r>
       <r>    1.4376    1.0000 </r>
       <r>    1.4489    1.0000 </r>
       <r>    1.4563    1.0000 </r>
       <r>    1.5611    1.0000 </r>
       <r>    1.5660    1.0000 </r>
       <r>    1.6158    1.0000 </r>
       <r>    1.6683    1.0000 </r>
       <r>    1.6983    1.0000 </r>
       <r>    1.7613    1.0000 </r>
       <r>    1.7642    1.0000 </r>
       <r>    1.7862    1.0000 </r>
       <r>    1.8115    1.0000 </r>
       <r>    1.8705    1.0000 </r>
       <r>    1.9196    1.0000 </r>
       <r>    1.9573    1.0000 </r>
       <r>    1.9599    1.0000 </r>
       <r>    2.0467    1.0000 </r>
       <r>    2.1184    1.0000 </r>
       <r>    2.1404    1.0000 </r>
       <r>    2.1801    1.0000 </r>
       <r>    2.2357    1.0000 </r>
       <r>    2.2790    1.0000 </r>
       <r>    2.3114    1.0000 </r>
       <r>    2.4104    1.0000 </r>
       <r>    2.4843    1.0000 </r>
       <r>    2.5389    1.0000 </r>
       <r>    2.5673    1.0000 </r>
       <r>    2.6360    1.0000 </r>
       <r>    2.6507    1.0000 </r>
       <r>    2.6775    1.0000 </r>
       <r>    2.7197    1.0000 </r>
       <r>    2.7824    1.0000 </r>
       <r>    2.8504    1.0000 </r>
       <r>    3.0721    1.0000 </r>
       <r>    3.1002    1.0000 </r>
       <r>    3.1317    1.0000 </r>
       <r>    3.3260    1.0000 </r>
       <r>    3.3428    1.0000 </r>
       <r>    3.5020    1.0000 </r>
       <r>    3.5295    1.0000 </r>
       <r>    3.6746    1.0000 </r>
       <r>    3.7792    1.0000 </r>
       <r>    3.7959    1.0000 </r>
       <r>    3.9372    1.0000 </r>
       <r>    4.0222    1.0000 </r>
       <r>    4.1141    1.0000 </r>
       <r>    4.2581    0.0000 </r>
       <r>    4.2688    0.0000 </r>
       <r>    4.4456    0.0000 </r>
       <r>    4.6358    0.0000 </r>
       <r>    4.7090    0.0000 </r>
       <r>    4.7311    0.0000 </r>
       <r>    4.8898    0.0000 </r>
       <r>    4.9916    0.0000 </r>
       <r>    5.1493    0.0000 </r>
       <r>    5.2525    0.0000 </r>
       <r>    5.2655    0.0000 </r>
       <r>    5.4022    0.0000 </r>
       <r>    5.4865    0.0000 </r>
       <r>    5.5583    0.0000 </r>
       <r>    5.6136    0.0000 </r>
       <r>    5.6520    0.0000 </r>
       <r>    5.8348    0.0000 </r>
       <r>    5.8623    0.0000 </r>
       <r>    5.9190    0.0000 </r>
       <r>    5.9712    0.0000 </r>
       <r>    5.9874    0.0000 </r>
       <r>    6.1478    0.0000 </r>
       <r>    6.1634    0.0000 </r>
       <r>    6.2238    0.0000 </r>
       <r>    6.2455    0.0000 </r>
       <r>    6.2758    0.0000 </r>
       <r>    6.3224    0.0000 </r>
       <r>    6.3670    0.0000 </r>
       <r>    6.4189    0.0000 </r>
       <r>    6.4356    0.0000 </r>
       <r>    6.5339    0.0000 </r>
       <r>    6.5885    0.0000 </r>
      </set>
      <set comment="kpoint 3">
       <r>   -9.2183    1.0000 </r>
       <r>   -9.2183    1.0000 </r>
       <r>   -8.5276    1.0000 </r>
       <r>   -8.5276    1.0000 </r>
       <r>   -8.1318    1.0000 </r>
       <r>   -8.1318    1.0000 </r>
       <r>   -7.7990    1.0000 </r>
       <r>   -7.7990    1.0000 </r>
       <r>   -7.6355    1.0000 </r>
       <r>   -7.6355    1.0000 </r>
       <r>   -7.4265    1.0000 </r>
       <r>   -7.4265    1.0000 </r>
       <r>   -7.1347    1.0000 </r>
       <r>   -7.1347    1.0000 </r>
       <r>   -6.9719    1.0000 </r>
       <r>   -6.9719    1.0000 </r>
       <r>   -6.7757    1.0000 </r>
       <r>   -6.7757    1.0000 </r>
       <r>   -6.6369    1.0000 </r>
       <r>   -6.6369    1.0000 </r>
       <r>   -6.5356    1.0000 </r>
       <r>   -6.5356    1.0000 </r>
       <r>   -6.3449    1.0000 </r>
       <r>   -6.3449    1.0000 </r>
       <r>   -6.1721    1.0000 </r>
       <r>   -6.1721    1.0000 </r>
       <r>   -5.9380    1.0000 </r>
       <r>   -5.9380    1.0000 </r>
       <r>   -5.8186    1.0000 </r>
       <r>   -5.8186    1.0000 </r>
       <r>   -5.4799    1.0000 </r>
       <r>   -5.4799    1.0000 </r>
       <r>   -5.3401    1.0000 </r>
       <r>   -5.3401    1.0000 </r>
       <r>   -5.0741    1.0000 </r>
       <r>   -5.0741    1.0000 </r>
       <r>   -4.7670    1.0000 </r>
       <r>   -4.7670    1.0000 </r>
       <r>   -4.4661    1.0000 </r>
       <r>   -4.4661    1.0000 </r>
       <r>   -4.1707    1.0000 </r>
       <r>   -4.1707    1.0000 </r>
       <r>   -4.0216    1.0000 </r>
       <r>   -4.0216    1.0000 </r>
       <r>   -3.6282    1.0000 </r>
       <r>   -3.6282    1.0000 </r>
       <r>   -3.4752    1.0000 </r>
       <r>   -3.4752    1.0000 </r>
       <r>   -3.3392    1.0000 </r>
       <r>   -3.3392    1.0000 </r>
       <r>   -3.2893    1.0000 </r>
       <r>   -3.2893    1.0000 </r>
       <r>   -3.1336    1.0000 </r>
       <r>   -3.1336    1.0000 </r>
       <r>   -2.9673    1.0000 </r>
       <r>   -2.9673    1.0000 </r>
       <r>   -2.6926    1.0000 </r>
       <r>   -2.6926    1.0000 </r>
       <r>   -2.4652    1.0000 </r>
       <r>   -2.4652    1.0000 </r>
       <r>   -2.2154    1.0000 </r>
       <r>   -2.2154    1.0000 </r>
       <r>   -2.0984    1.0000 </r>
       <r>   -2.0984    1.0000 </r>
       <r>   -1.8295    1.0000 </r>
       <r>   -1.8295    1.0000 </r>
       <r>   -1.5213    1.0000 </r>
       <r>   -1.5213    1.0000 </r>
       <r>   -1.4349    1.0000 </r>
       <r>   -1.4349    1.0000 </r>
       <r>   -1.1294    1.0000 </r>
       <r>   -1.1294    1.0000 </r>
       <r>   -0.8070    1.0000 </r>
       <r>   -0.8070    1.0000 </r>
       <r>   -0.5732    1.0000 </r>
       <r>   -0.5732    1.0000 </r>
       <r>   -0.3407    1.0000 </r>
       <r>   -0.3407    1.0000 </r>
       <r>   -0.2777    1.0000 </r>
       <r>   -0.2777    1.0000 </r>
       <r>   -0.1000    1.0000 </r>
       <r>   -0.1000    1.0000 </r>
       <r>   -0.0427    1.0000 </r>
       <r>   -0.0427    1.0000 </r>
       <r>    0.0544    1.0000 </r>
       <r>    0.0544    1.0000 </r>
       <r>    0.1141    1.0000 </r>
       <r>    0.1141    1.0000 </r>
       <r>    0.1859    1.0000 </r>
       <r>    0.1859    1.0000 </r>
       <r>    0.2696    1.0000 </r>
       <r>    0.2696    1.0000 </r>
       <r>    0.2943    1.0000 </r>
       <r>    0.2943    1.0000 </r>
       <r>    0.4335    1.0000 </r>
       <r>    0.4335    1.0000 </r>
       <r>    0.5127    1.0000 </r>
       <r>    0.5127    1.0000 </r>
       <r>    0.6575    1.0000 </r>
       <r>    0.6575    1.0000 </r>
       <r>    0.7867    1.0000 </r>
       <r>    0.7867    1.0000 </r>
       <r>    0.8752    1.0000 </r>
       <r>    0.8752    1.0000 </r>
       <r>    1.0379    1.0000 </r>
       <r>    1.0379    1.0000 </r>
       <r>    1.1225    1.0000 </r>
       <r>    1.1225    1.0000 </r>
       <r>    1.1810    1.0000 </r>
       <r>    1.1810    1.0000 </r>
       <r>    1.3345    1.0000 </r>
       <r>    1.3345    1.0000 </r>
       <r>    1.4163    1.0000 </r>
       <r>    1.4163    1.0000 </r>
       <r>    1.4398    1.0000 </r>
       <r>    1.4398    1.0000 </r>
       <r>    1.5631    1.0000 </r>
       <r>    1.5631    1.0000 </r>
       <r>    1.5932    1.0000 </r>
       <r>    1.5932    1.0000 </r>
       <r>    1.6447    1.0000 </r>
       <r>    1.6447    1.0000 </r>
       <r>    1.7209    1.0000 </r>
       <r>    1.7209    1.0000 </r>
       <r>    1.8767    1.0000 </r>
       <r>    1.8767    1.0000 </r>
       <r>    1.9163    1.0000 </r>
       <r>    1.9163    1.0000 </r>
       <r>    2.0575    1.0000 </r>
       <r>    2.0575    1.0000 </r>
       <r>    2.2376    1.0000 </r>
       <r>    2.2376    1.0000 </r>
       <r>    2.2913    1.0000 </r>
       <r>    2.2913    1.0000 </r>
       <r>    2.4967    1.0000 </r>
       <r>    2.4967    1.0000 </r>
       <r>    2.5426    1.0000 </r>
       <r>    2.5426    1.0000 </r>
       <r>    2.5537    1.0000 </r>
       <r>    2.5537    1.0000 </r>
       <r>    2.8427    1.0000 </r>
       <r>    2.8427    1.0000 </r>
       <r>    2.9240    1.0000 </r>
       <r>    2.9240    1.0000 </r>
       <r>    3.0922    1.0000 </r>
       <r>    3.0922    1.0000 </r>
       <r>    3.1786    1.0000 </r>
       <r>    3.1786    1.0000 </r>
       <r>    3.3297    1.0000 </r>
       <r>    3.3297    1.0000 </r>
       <r>    3.7450    1.0000 </r>
       <r>    3.7450    1.0000 </r>
       <r>    3.8641    1.0000 </r>
       <r>    3.8641    1.0000 </r>
       <r>    4.2035    0.9893 </r>
       <r>    4.2035    0.9893 </r>
       <r>    4.3590    0.0000 </r>
       <r>    4.3590    0.0000 </r>
       <r>    4.5350    0.0000 </r>
       <r>    4.5350    0.0000 </r>
       <r>    4.7079    0.0000 </r>
       <r>    4.7079    0.0000 </r>
       <r>    5.0481    0.0000 </r>
       <r>    5.0481    0.0000 </r>
       <r>    5.3171    0.0000 </r>
       <r>    5.3171    0.0000 </r>
       <r>    5.4741    0.0000 </r>
       <r>    5.4741    0.0000 </r>
       <r>    5.6753    0.0000 </r>
       <r>    5.6753    0.0000 </r>
       <r>    5.9061    0.0000 </r>
       <r>    5.9061    0.0000 </r>
       <r>    6.0370    0.0000 </r>
       <r>    6.0370    0.0000 </r>
       <r>    6.2093    0.0000 </r>
       <r>    6.2093    0.0000 </r>
       <r>    6.2881    0.0000 </r>
       <r>    6.2881    0.0000 </r>
       <r>    6.3442    0.0000 </r>
       <r>    6.3442    0.0000 </r>
       <r>    6.3770    0.0000 </r>
       <r>    6.3770    0.0000 </r>
       <r>    6.4698    0.0000 </r>
       <r>    6.4698    0.0000 </r>
       <r>    6.5481    0.0000 </r>
       <r>    6.5482    0.0000 </r>
       <r>    6.6358    0.0000 </r>
       <r>    6.6531    0.0000 </r>
      </set>
      <set comment="kpoint 4">
       <r>   -9.7252    1.0000 </r>
       <r>   -9.0198    1.0000 </r>
       <r>   -8.6301    1.0000 </r>
       <r>   -8.3634    1.0000 </r>
       <r>   -8.2964    1.0000 </r>
       <r>   -8.1863    1.0000 </r>
       <r>   -8.0098    1.0000 </r>
       <r>   -7.6510    1.0000 </r>
       <r>   -7.6205    1.0000 </r>
       <r>   -7.4115    1.0000 </r>
       <r>   -7.1774    1.0000 </r>
       <r>   -7.1213    1.0000 </r>
       <r>   -6.9458    1.0000 </r>
       <r>   -6.9206    1.0000 </r>
       <r>   -6.8167    1.0000 </r>
       <r>   -6.7605    1.0000 </r>
       <r>   -6.7483    1.0000 </r>
       <r>   -6.6889    1.0000 </r>
       <r>   -6.6565    1.0000 </r>
       <r>   -6.5128    1.0000 </r>
       <r>   -6.4253    1.0000 </r>
       <r>   -6.4029    1.0000 </r>
       <r>   -6.1835    1.0000 </r>
       <r>   -6.1551    1.0000 </r>
       <r>   -6.1193    1.0000 </r>
       <r>   -6.0793    1.0000 </r>
       <r>   -6.0222    1.0000 </r>
       <r>   -5.7869    1.0000 </r>
       <r>   -5.7692    1.0000 </r>
       <r>   -5.5797    1.0000 </r>
       <r>   -5.4994    1.0000 </r>
       <r>   -5.4977    1.0000 </r>
       <r>   -5.4587    1.0000 </r>
       <r>   -5.3932    1.0000 </r>
       <r>   -5.3494    1.0000 </r>
       <r>   -5.1454    1.0000 </r>
       <r>   -5.0368    1.0000 </r>
       <r>   -4.9503    1.0000 </r>
       <r>   -4.8451    1.0000 </r>
       <r>   -4.4459    1.0000 </r>
       <r>   -4.2863    1.0000 </r>
       <r>   -4.2292    1.0000 </r>
       <r>   -3.9665    1.0000 </r>
       <r>   -3.8995    1.0000 </r>
       <r>   -3.8793    1.0000 </r>
       <r>   -3.8219    1.0000 </r>
       <r>   -3.6671    1.0000 </r>
       <r>   -3.5506    1.0000 </r>
       <r>   -3.5110    1.0000 </r>
       <r>   -3.4310    1.0000 </r>
       <r>   -3.3197    1.0000 </r>
       <r>   -3.3032    1.0000 </r>
       <r>   -3.2999    1.0000 </r>
       <r>   -3.2293    1.0000 </r>
       <r>   -3.1915    1.0000 </r>
       <r>   -3.1679    1.0000 </r>
       <r>   -3.1603    1.0000 </r>
       <r>   -3.0775    1.0000 </r>
       <r>   -2.9670    1.0000 </r>
       <r>   -2.8961    1.0000 </r>
       <r>   -2.7354    1.0000 </r>
       <r>   -2.5933    1.0000 </r>
       <r>   -2.5198    1.0000 </r>
       <r>   -2.5197    1.0000 </r>
       <r>   -2.4080    1.0000 </r>
       <r>   -2.2529    1.0000 </r>
       <r>   -2.1493    1.0000 </r>
       <r>   -1.9651    1.0000 </r>
       <r>   -1.7552    1.0000 </r>
       <r>   -1.5098    1.0000 </r>
       <r>   -1.3761    1.0000 </r>
       <r>   -1.0880    1.0000 </r>
       <r>   -0.8415    1.0000 </r>
       <r>   -0.4261    1.0000 </r>
       <r>   -0.4196    1.0000 </r>
       <r>   -0.2751    1.0000 </r>
       <r>   -0.2670    1.0000 </r>
       <r>   -0.1881    1.0000 </r>
       <r>   -0.0591    1.0000 </r>
       <r>    0.0201    1.0000 </r>
       <r>    0.0397    1.0000 </r>
       <r>    0.1017    1.0000 </r>
       <r>    0.1237    1.0000 </r>
       <r>    0.1429    1.0000 </r>
       <r>    0.2540    1.0000 </r>
       <r>    0.2941    1.0000 </r>
       <r>    0.3094    1.0000 </r>
       <r>    0.3230    1.0000 </r>
       <r>    0.3877    1.0000 </r>
       <r>    0.4207    1.0000 </r>
       <r>    0.4293    1.0000 </r>
       <r>    0.4812    1.0000 </r>
       <r>    0.5793    1.0000 </r>
       <r>    0.5856    1.0000 </r>
       <r>    0.6703    1.0000 </r>
       <r>    0.7601    1.0000 </r>
       <r>    0.7960    1.0000 </r>
       <r>    0.8092    1.0000 </r>
       <r>    0.8397    1.0000 </r>
       <r>    0.9222    1.0000 </r>
       <r>    0.9269    1.0000 </r>
       <r>    0.9551    1.0000 </r>
       <r>    0.9811    1.0000 </r>
       <r>    1.0036    1.0000 </r>
       <r>    1.0533    1.0000 </r>
       <r>    1.1500    1.0000 </r>
       <r>    1.2523    1.0000 </r>
       <r>    1.3033    1.0000 </r>
       <r>    1.3766    1.0000 </r>
       <r>    1.4527    1.0000 </r>
       <r>    1.4973    1.0000 </r>
       <r>    1.5447    1.0000 </r>
       <r>    1.5596    1.0000 </r>
       <r>    1.6236    1.0000 </r>
       <r>    1.6914    1.0000 </r>
       <r>    1.7558    1.0000 </r>
       <r>    1.8006    1.0000 </r>
       <r>    1.8236    1.0000 </r>
       <r>    1.8618    1.0000 </r>
       <r>    1.8816    1.0000 </r>
       <r>    1.9401    1.0000 </r>
       <r>    2.0447    1.0000 </r>
       <r>    2.1084    1.0000 </r>
       <r>    2.1510    1.0000 </r>
       <r>    2.1805    1.0000 </r>
       <r>    2.2508    1.0000 </r>
       <r>    2.3379    1.0000 </r>
       <r>    2.4025    1.0000 </r>
       <r>    2.5360    1.0000 </r>
       <r>    2.6025    1.0000 </r>
       <r>    2.6661    1.0000 </r>
       <r>    2.6763    1.0000 </r>
       <r>    2.6845    1.0000 </r>
       <r>    2.7363    1.0000 </r>
       <r>    2.7469    1.0000 </r>
       <r>    2.7582    1.0000 </r>
       <r>    2.8013    1.0000 </r>
       <r>    2.8664    1.0000 </r>
       <r>    2.9170    1.0000 </r>
       <r>    2.9525    1.0000 </r>
       <r>    3.0552    1.0000 </r>
       <r>    3.0987    1.0000 </r>
       <r>    3.1525    1.0000 </r>
       <r>    3.1605    1.0000 </r>
       <r>    3.1812    1.0000 </r>
       <r>    3.3084    1.0000 </r>
       <r>    3.3266    1.0000 </r>
       <r>    3.3565    1.0000 </r>
       <r>    3.5310    1.0000 </r>
       <r>    3.5462    1.0000 </r>
       <r>    3.6302    1.0000 </r>
       <r>    3.7710    1.0000 </r>
       <r>    3.8392    1.0000 </r>
       <r>    3.9128    1.0000 </r>
       <r>    3.9839    1.0000 </r>
       <r>    4.0539    1.0000 </r>
       <r>    4.1052    1.0000 </r>
       <r>    4.4126    0.0000 </r>
       <r>    4.4805    0.0000 </r>
       <r>    4.5578    0.0000 </r>
       <r>    4.6083    0.0000 </r>
       <r>    4.6689    0.0000 </r>
       <r>    4.7698    0.0000 </r>
       <r>    4.9450    0.0000 </r>
       <r>    5.1412    0.0000 </r>
       <r>    5.2175    0.0000 </r>
       <r>    5.2455    0.0000 </r>
       <r>    5.2669    0.0000 </r>
       <r>    5.3319    0.0000 </r>
       <r>    5.4083    0.0000 </r>
       <r>    5.5145    0.0000 </r>
       <r>    5.5470    0.0000 </r>
       <r>    5.5564    0.0000 </r>
       <r>    5.6164    0.0000 </r>
       <r>    5.6847    0.0000 </r>
       <r>    5.6871    0.0000 </r>
       <r>    5.7373    0.0000 </r>
       <r>    5.7464    0.0000 </r>
       <r>    5.8083    0.0000 </r>
       <r>    5.8642    0.0000 </r>
       <r>    5.8647    0.0000 </r>
       <r>    5.9553    0.0000 </r>
       <r>    6.0168    0.0000 </r>
       <r>    6.0234    0.0000 </r>
       <r>    6.1151    0.0000 </r>
       <r>    6.1579    0.0000 </r>
       <r>    6.2078    0.0000 </r>
       <r>    6.2595    0.0000 </r>
      </set>
      <set comment="kpoint 5">
       <r>   -9.5942    1.0000 </r>
       <r>   -8.8827    1.0000 </r>
       <r>   -8.6677    1.0000 </r>
       <r>   -8.4496    1.0000 </r>
       <r>   -8.2987    1.0000 </r>
       <r>   -8.0445    1.0000 </r>
       <r>   -8.0059    1.0000 </r>
       <r>   -7.9518    1.0000 </r>
       <r>   -7.5640    1.0000 </r>
       <r>   -7.5118    1.0000 </r>
       <r>   -7.2404    1.0000 </r>
       <r>   -7.2352    1.0000 </r>
       <r>   -7.0532    1.0000 </r>
       <r>   -6.8517    1.0000 </r>
       <r>   -6.7844    1.0000 </r>
       <r>   -6.7127    1.0000 </r>
       <r>   -6.7068    1.0000 </r>
       <r>   -6.6163    1.0000 </r>
       <r>   -6.5922    1.0000 </r>
       <r>   -6.5889    1.0000 </r>
       <r>   -6.5335    1.0000 </r>
       <r>   -6.4926    1.0000 </r>
       <r>   -6.4509    1.0000 </r>
       <r>   -6.3532    1.0000 </r>
       <r>   -6.3352    1.0000 </r>
       <r>   -6.2179    1.0000 </r>
       <r>   -6.0988    1.0000 </r>
       <r>   -5.8626    1.0000 </r>
       <r>   -5.7741    1.0000 </r>
       <r>   -5.6661    1.0000 </r>
       <r>   -5.6058    1.0000 </r>
       <r>   -5.4278    1.0000 </r>
       <r>   -5.4074    1.0000 </r>
       <r>   -5.2883    1.0000 </r>
       <r>   -5.1465    1.0000 </r>
       <r>   -4.9802    1.0000 </r>
       <r>   -4.9564    1.0000 </r>
       <r>   -4.7684    1.0000 </r>
       <r>   -4.7334    1.0000 </r>
       <r>   -4.4178    1.0000 </r>
       <r>   -4.2474    1.0000 </r>
       <r>   -4.2383    1.0000 </r>
       <r>   -4.1678    1.0000 </r>
       <r>   -4.0979    1.0000 </r>
       <r>   -3.7497    1.0000 </r>
       <r>   -3.6864    1.0000 </r>
       <r>   -3.5639    1.0000 </r>
       <r>   -3.5032    1.0000 </r>
       <r>   -3.4216    1.0000 </r>
       <r>   -3.3998    1.0000 </r>
       <r>   -3.2928    1.0000 </r>
       <r>   -3.2833    1.0000 </r>
       <r>   -3.1263    1.0000 </r>
       <r>   -3.0298    1.0000 </r>
       <r>   -3.0057    1.0000 </r>
       <r>   -2.9443    1.0000 </r>
       <r>   -2.8984    1.0000 </r>
       <r>   -2.8981    1.0000 </r>
       <r>   -2.7497    1.0000 </r>
       <r>   -2.6857    1.0000 </r>
       <r>   -2.5066    1.0000 </r>
       <r>   -2.4450    1.0000 </r>
       <r>   -2.4277    1.0000 </r>
       <r>   -2.2720    1.0000 </r>
       <r>   -2.2015    1.0000 </r>
       <r>   -2.0084    1.0000 </r>
       <r>   -1.8511    1.0000 </r>
       <r>   -1.6881    1.0000 </r>
       <r>   -1.6492    1.0000 </r>
       <r>   -1.4499    1.0000 </r>
       <r>   -1.0888    1.0000 </r>
       <r>   -1.0036    1.0000 </r>
       <r>   -0.8921    1.0000 </r>
[...]
       <r>   -10.0683     0.0000     0.0000 </r>
       <r>   -10.0078     0.0000     0.0000 </r>
       <r>    -9.9472     0.0000     0.0000 </r>
       <r>    -9.8867     0.0000     0.0000 </r>
       <r>    -9.8262     0.0000     0.0000 </r>
       <r>    -9.7657     0.0000     0.0000 </r>
       <r>    -9.7052     3.8447     0.2326 </r>
       <r>    -9.6447     4.4182     0.5000 </r>
       <r>    -9.5842     1.4170     0.5857 </r>
       <r>    -9.5237    15.1086     1.5000 </r>
       <r>    -9.4632     0.0000     1.5000 </r>
       <r>    -9.4026     0.0000     1.5000 </r>
       <r>    -9.3421     0.0000     1.5000 </r>
       <r>    -9.2816     0.0000     1.5000 </r>
       <r>    -9.2211     0.0102     1.5006 </r>
       <r>    -9.1606    16.5154     2.5000 </r>
       <r>    -9.1001     0.0000     2.5000 </r>
       <r>    -9.0396     0.3138     2.5190 </r>
       <r>    -8.9791     7.9486     3.0000 </r>
       <r>    -8.9185     0.0077     3.0005 </r>
       <r>    -8.8580    16.1524     3.9779 </r>
       <r>    -8.7975     0.3656     4.0000 </r>
       <r>    -8.7370     0.0001     4.0000 </r>
       <r>    -8.6765     2.7512     4.1665 </r>
       <r>    -8.6160    21.7673     5.4839 </r>
       <r>    -8.5555     4.0493     5.7290 </r>
       <r>    -8.4950    22.4023     7.0846 </r>
       <r>    -8.4345     6.6244     7.4859 </r>
       <r>    -8.3739     0.4353     7.5122 </r>
       <r>    -8.3134     7.7099     7.9788 </r>
       <r>    -8.2529    12.9019     8.7595 </r>
       <r>    -8.1924     1.4068     8.8446 </r>
       <r>    -8.1319    21.6288    10.1534 </r>
       <r>    -8.0714     6.8718    10.5693 </r>
       <r>    -8.0109    10.1594    11.1841 </r>
       <r>    -7.9504    25.3578    12.7185 </r>
       <r>    -7.8898    11.6253    13.4220 </r>
       <r>    -7.8293    10.0693    14.0314 </r>
       <r>    -7.7688    11.6085    14.7338 </r>
       <r>    -7.7083    12.6274    15.4980 </r>
       <r>    -7.6478     9.0230    16.0440 </r>
       <r>    -7.5873    19.9311    17.2505 </r>
       <r>    -7.5268    10.1766    17.8664 </r>
       <r>    -7.4663    25.4213    19.4047 </r>
       <r>    -7.4057    26.4392    21.0046 </r>
       <r>    -7.3452    10.4214    21.6353 </r>
       <r>    -7.2847     9.6771    22.2209 </r>
       <r>    -7.2242    18.5271    23.3420 </r>
       <r>    -7.1637    18.4911    24.4610 </r>
       <r>    -7.1032    30.0455    26.2791 </r>
       <r>    -7.0427    18.8161    27.4179 </r>
       <r>    -6.9822    12.3794    28.1670 </r>
       <r>    -6.9217    11.1269    28.8408 </r>
       <r>    -6.8611    27.3944    30.4985 </r>
       <r>    -6.8006    22.9735    31.8889 </r>
       <r>    -6.7401    23.2914    33.2983 </r>
       <r>    -6.6796    35.0816    35.4214 </r>
       <r>    -6.6191    26.4688    37.0232 </r>
       <r>    -6.5586    19.8745    38.2264 </r>
       <r>    -6.4981    35.6313    40.3825 </r>
       <r>    -6.4376    23.2431    41.7891 </r>
       <r>    -6.3770    31.0478    43.6679 </r>
       <r>    -6.3165    17.5750    44.7314 </r>
       <r>    -6.2560    26.1449    46.3135 </r>
       <r>    -6.1955    11.6044    47.0157 </r>
       <r>    -6.1350    46.1196    49.8065 </r>
       <r>    -6.0745    27.2656    51.4564 </r>
       <r>    -6.0140    20.3036    52.6853 </r>
       <r>    -5.9535    22.1473    54.0255 </r>
       <r>    -5.8929    11.4041    54.7156 </r>
       <r>    -5.8324    15.7562    55.6692 </r>
       <r>    -5.7719    20.6668    56.9199 </r>
       <r>    -5.7114    24.7987    58.4209 </r>
       <r>    -5.6509    21.2540    59.7070 </r>
       <r>    -5.5904    16.0164    60.6762 </r>
       <r>    -5.5299     9.2628    61.2367 </r>
       <r>    -5.4694    25.8356    62.8001 </r>
       <r>    -5.4089    22.3084    64.1501 </r>
       <r>    -5.3483    27.4943    65.8139 </r>
       <r>    -5.2878    19.6720    67.0046 </r>
       <r>    -5.2273    14.1952    67.8637 </r>
       <r>    -5.1668    23.9149    69.3108 </r>
       <r>    -5.1063    18.0199    70.4012 </r>
       <r>    -5.0458     7.7217    70.8687 </r>
       <r>    -4.9853     5.4404    71.1979 </r>
       <r>    -4.9248    20.9545    72.4660 </r>
       <r>    -4.8642    10.1723    73.0815 </r>
       <r>    -4.8037     8.2925    73.5833 </r>
       <r>    -4.7432    17.9725    74.6709 </r>
       <r>    -4.6827    20.5637    75.9153 </r>
       <r>    -4.6222    12.9993    76.7019 </r>
       <r>    -4.5617    11.6757    77.4085 </r>
       <r>    -4.5012     9.9879    78.0129 </r>
       <r>    -4.4407     7.3010    78.4547 </r>
       <r>    -4.3802    11.5372    79.1529 </r>
       <r>    -4.3196    20.5092    80.3939 </r>
       <r>    -4.2591    17.4775    81.4516 </r>
       <r>    -4.1986     9.1117    82.0030 </r>
       <r>    -4.1381    15.6864    82.9522 </r>
       <r>    -4.0776    31.8477    84.8794 </r>
       <r>    -4.0171    19.3247    86.0488 </r>
       <r>    -3.9566    28.6599    87.7831 </r>
       <r>    -3.8961    11.7919    88.4967 </r>
       <r>    -3.8355    21.6509    89.8068 </r>
       <r>    -3.7750    14.2068    90.6667 </r>
       <r>    -3.7145    21.3382    91.9579 </r>
       <r>    -3.6540    14.8920    92.8596 </r>
       <r>    -3.5935    16.9427    93.8849 </r>
       <r>    -3.5330    21.5387    95.1882 </r>
       <r>    -3.4725    31.2492    97.0792 </r>
       <r>    -3.4120    41.2508    99.5753 </r>
       <r>    -3.3514    34.1384   101.6414 </r>
       <r>    -3.2909    28.2505   103.3509 </r>
       <r>    -3.2304    27.9488   105.0423 </r>
       <r>    -3.1699    28.0029   106.7368 </r>
       <r>    -3.1094    35.7028   108.8973 </r>
       <r>    -3.0489    24.2842   110.3668 </r>
       <r>    -2.9884    19.5517   111.5511 </r>
       <r>    -2.9279    27.5772   113.2199 </r>
       <r>    -2.8674    21.1348   114.4989 </r>
       <r>    -2.8068    21.1183   115.7774 </r>
       <r>    -2.7463     6.4400   116.1672 </r>
       <r>    -2.6858    26.5849   117.7759 </r>
       <r>    -2.6253    13.3648   118.5847 </r>
       <r>    -2.5648     9.2151   119.1423 </r>
       <r>    -2.5043    23.4662   120.5623 </r>
       <r>    -2.4438    22.4166   121.9188 </r>
       <r>    -2.3833    25.5984   123.4685 </r>
       <r>    -2.3227    22.3195   124.8191 </r>
       <r>    -2.2622    20.8812   126.0830 </r>
       <r>    -2.2017    13.0927   126.8754 </r>
       <r>    -2.1412    12.1928   127.6133 </r>
       <r>    -2.0807    15.7383   128.5658 </r>
       <r>    -2.0202    13.0241   129.3540 </r>
       <r>    -1.9597     9.1604   129.9087 </r>
       <r>    -1.8992    19.0485   131.0614 </r>
       <r>    -1.8386    10.8870   131.7202 </r>
       <r>    -1.7781    27.9450   133.4112 </r>
       <r>    -1.7176    19.0846   134.5661 </r>
       <r>    -1.6571     8.4529   135.0777 </r>
       <r>    -1.5966    14.2122   135.9377 </r>
       <r>    -1.5361     9.3109   136.5012 </r>
       <r>    -1.4756    19.3184   137.6702 </r>
       <r>    -1.4151    16.2989   138.6565 </r>
       <r>    -1.3546    18.4737   139.7745 </r>
       <r>    -1.2940    23.3992   141.1905 </r>
       <r>    -1.2335     6.5881   141.5893 </r>
       <r>    -1.1730     1.8952   141.7039 </r>
       <r>    -1.1125    17.9386   142.7894 </r>
       <r>    -1.0520    10.2471   143.4098 </r>
       <r>    -0.9915    16.5426   144.4108 </r>
       <r>    -0.9310    11.1460   145.0857 </r>
       <r>    -0.8705    10.6241   145.7285 </r>
       <r>    -0.8099    10.7998   146.3821 </r>
       <r>    -0.7494    19.5900   147.5676 </r>
       <r>    -0.6889    16.1989   148.5479 </r>
       <r>    -0.6284     4.7162   148.8333 </r>
       <r>    -0.5679     3.7064   149.0576 </r>
       <r>    -0.5074    18.1438   150.1556 </r>
       <r>    -0.4469    15.6796   151.1044 </r>
       <r>    -0.3864    19.1845   152.2653 </r>
       <r>    -0.3258    23.9288   153.7134 </r>
       <r>    -0.2653    25.6363   155.2649 </r>
       <r>    -0.2048    36.7825   157.4907 </r>
       <r>    -0.1443    27.7691   159.1710 </r>
       <r>    -0.0838    47.9043   162.0700 </r>
       <r>    -0.0233    27.5161   163.7356 </r>
       <r>     0.0372    38.1442   166.0442 </r>
       <r>     0.0977    50.6923   169.1120 </r>
       <r>     0.1582    34.9355   171.2262 </r>
       <r>     0.2188    31.0914   173.1077 </r>
       <r>     0.2793    35.7137   175.2689 </r>
       <r>     0.3398    37.3418   177.5289 </r>
       <r>     0.4003    38.4513   179.8563 </r>
       <r>     0.4608    46.0984   182.6458 </r>
       <r>     0.5213    33.7207   184.6865 </r>
       <r>     0.5818    43.4275   187.3152 </r>
       <r>     0.6423    22.9987   188.7071 </r>
       <r>     0.7029    57.3692   192.1787 </r>
       <r>     0.7634    38.6445   194.5176 </r>
       <r>     0.8239    48.9568   197.4802 </r>
       <r>     0.8844    20.7422   198.7358 </r>
       <r>     0.9449    43.8759   201.3910 </r>
       <r>     1.0054    60.0445   205.0246 </r>
       <r>     1.0659    44.0515   207.6906 </r>
       <r>     1.1264    31.9035   209.6214 </r>
       <r>     1.1869    47.5358   212.4979 </r>
       <r>     1.2475    47.6148   215.3799 </r>
       <r>     1.3080    34.8498   217.4888 </r>
       <r>     1.3685    48.6219   220.4313 </r>
       <r>     1.4290    49.0421   223.3991 </r>
       <r>     1.4895    54.3340   226.6870 </r>
       <r>     1.5500    24.8522   228.1912 </r>
       <r>     1.6105    44.6752   230.8946 </r>
       <r>     1.6710    44.7860   233.6047 </r>
       <r>     1.7316    45.1398   236.3364 </r>
       <r>     1.7921    37.4299   238.6017 </r>
       <r>     1.8526    57.9888   242.1112 </r>
       <r>     1.9131    47.9713   245.0140 </r>
       <r>     1.9736    49.9186   248.0352 </r>
       <r>     2.0341    34.8969   250.1475 </r>
       <r>     2.0946    41.2549   252.6440 </r>
       <r>     2.1551    41.9088   255.1801 </r>
       <r>     2.2157    50.2455   258.2211 </r>
       <r>     2.2762    32.4457   260.1850 </r>
       <r>     2.3367    34.8042   262.2912 </r>
       <r>     2.3972    34.3709   264.3715 </r>
       <r>     2.4577    31.9653   266.3064 </r>
       <r>     2.5182    32.5140   268.2739 </r>
       <r>     2.5787    45.4193   271.0223 </r>
       <r>     2.6392    28.3627   272.7388 </r>
       <r>     2.6997    42.5971   275.3166 </r>
       <r>     2.7603    37.8340   277.6066 </r>
       <r>     2.8208    41.5117   280.1187 </r>
       <r>     2.8813    26.7150   281.7361 </r>
       <r>     2.9418    29.6775   283.5321 </r>
       <r>     3.0023    18.1684   284.6315 </r>
       <r>     3.0628    24.1858   286.0951 </r>
       <r>     3.1233    27.8005   287.7774 </r>
       <r>     3.1838    27.0090   289.4125 </r>
       <r>     3.2444    34.2117   291.4827 </r>
       <r>     3.3049    18.8177   292.6217 </r>
       <r>     3.3654    24.1761   294.0849 </r>
       <r>     3.4259    28.3501   295.8011 </r>
       <r>     3.4864    19.7330   296.9952 </r>
       <r>     3.5469    15.6740   297.9437 </r>
       <r>     3.6074    31.6093   299.8565 </r>
       <r>     3.6679    22.8699   301.2404 </r>
       <r>     3.7285    17.6340   302.3079 </r>
       <r>     3.7890    25.8882   303.8745 </r>
       <r>     3.8495    22.3157   305.2251 </r>
       <r>     3.9100    15.0715   306.1372 </r>
       <r>     3.9705    27.9008   307.8257 </r>
       <r>     4.0310    17.7433   308.8994 </r>
       <r>     4.0915    22.3272   310.2505 </r>
       <r>     4.1520     6.9212   310.6695 </r>
       <r>     4.2125    19.6390   311.8578 </r>
       <r>     4.2731    13.9863   312.7044 </r>
       <r>     4.3336    16.5630   313.7067 </r>
       <r>     4.3941    10.5637   314.3459 </r>
       <r>     4.4546    21.5301   315.6488 </r>
       <r>     4.5151    22.0100   316.9807 </r>
       <r>     4.5756    24.5256   318.4649 </r>
       <r>     4.6361    29.2979   320.2380 </r>
       <r>     4.6966    22.0648   321.5732 </r>
       <r>     4.7572    28.9654   323.3260 </r>
       <r>     4.8177    19.2396   324.4907 </r>
       <r>     4.8782     2.8964   324.6664 </r>
       <r>     4.9387    13.2934   325.4708 </r>
       <r>     4.9992     8.8044   326.0038 </r>
       <r>     5.0597    16.9455   327.0292 </r>
       <r>     5.1202    12.4760   327.7841 </r>
       <r>     5.1807    18.4226   328.8994 </r>
       <r>     5.2412    25.3985   330.4367 </r>
       <r>     5.3018    26.0999   332.0162 </r>
       <r>     5.3623    34.9164   334.1294 </r>
       <r>     5.4228    21.6066   335.4376 </r>
       <r>     5.4833    13.2276   336.2380 </r>
       <r>     5.5438    32.1934   338.1862 </r>
       <r>     5.6043    35.3251   340.3239 </r>
       <r>     5.6648    20.3094   341.5530 </r>
       <r>     5.7253    32.6595   343.5294 </r>
       <r>     5.7859    27.9553   345.2210 </r>
       <r>     5.8464    31.0512   347.1001 </r>
       <r>     5.9069    38.0158   349.4008 </r>
       <r>     5.9674    47.0197   352.2470 </r>
       <r>     6.0279    31.8165   354.1723 </r>
       <r>     6.0884    35.2684   356.3065 </r>
       <r>     6.1489    36.0691   358.4893 </r>
       <r>     6.2094    36.3226   360.6876 </r>
       <r>     6.2700    45.0753   363.4157 </r>
       <r>     6.3305    33.5942   365.4489 </r>
       <r>     6.3910    39.7125   367.8520 </r>
       <r>     6.4515    26.1825   369.4364 </r>
       <r>     6.5120    36.7710   371.6615 </r>
       <r>     6.5725    24.8598   373.1658 </r>
       <r>     6.6330    27.6017   374.8368 </r>
       <r>     6.6935     7.1854   375.2716 </r>
       <r>     6.7540     6.5260   375.6667 </r>
       <r>     6.8146     5.5078   376.0000 </r>
       <r>     6.8751     0.0000   376.0000 </r>
       <r>     6.9356     0.0000   376.0000 </r>
       <r>     6.9961     0.0000   376.0000 </r>
       <r>     7.0566     0.0000   376.0000 </r>
       <r>     7.1171     0.0000   376.0000 </r>
       <r>     7.1776     0.0000   376.0000 </r>
       <r>     7.2381     0.0000   376.0000 </r>
       <r>     7.2987     0.0000   376.0000 </r>
       <r>     7.3592     0.0000   376.0000 </r>
       <r>     7.4197     0.0000   376.0000 </r>
       <r>     7.4802     0.0000   376.0000 </r>
       <r>     7.5407     0.0000   376.0000 </r>
       <r>     7.6012     0.0000   376.0000 </r>
      </set>
     </set>
    </array>
   </total>
  </dos>
 </calculation>
 <structure name="finalpos" >
  <crystal>
   <varray name="basis" >
    <v>       7.74989032       0.00000000       0.00000000 </v>
    <v>      -3.87494516      11.62483548       0.00000000 </v>
    <v>       0.00000000       0.00000000      18.63333333 </v>
   </varray>
   <i name="volume">   1678.69936005 </i>
   <varray name="rec_basis" >
    <v>       0.12903408       0.04301136       0.00000000 </v>
    <v>       0.00000000       0.08602272       0.00000000 </v>
    <v>       0.00000000       0.00000000       0.05366726 </v>
   </varray>
  </crystal>
  <varray name="positions" >
   <v>       0.00000000       0.00000000       0.00000000 </v>
   <v>       0.38888889       0.27777778       0.04901610 </v>
   <v>       0.77777778       0.55555556       0.09803220 </v>
   <v>       0.50000000       0.00000000       0.00000000 </v>
   <v>       0.88888889       0.27777778       0.04901610 </v>
   <v>       0.27777778       0.55555556       0.09803220 </v>
   <v>       0.69444444       0.88888889       0.02450805 </v>
   <v>       0.08333333       0.16666667       0.07352415 </v>
   <v>       0.47222222       0.44444444       0.12254025 </v>
   <v>       0.19444444       0.88888889       0.02450805 </v>
   <v>       0.58333333       0.16666667       0.07352415 </v>
   <v>       0.97222222       0.44444444       0.12254025 </v>
   <v>       0.15789474       0.38524590       0.18157424 </v>
   <v>       0.32456140       0.21857923       0.33345259 </v>
   <v>       0.49122807       0.05191257       0.48533095 </v>
   <v>       0.65789474       0.88524590       0.63720930 </v>
   <v>       0.82456140       0.71857923       0.78908766 </v>
   <v>       0.99122807       0.55191257       0.94096601 </v>
   <v>       0.82456140       0.71857923       0.18157424 </v>
   <v>       0.99122807       0.55191257       0.33345259 </v>
   <v>       0.15789474       0.38524590       0.48533095 </v>
   <v>       0.32456140       0.21857923       0.63720930 </v>
   <v>       0.49122807       0.05191257       0.78908766 </v>
   <v>       0.65789474       0.88524590       0.94096601 </v>
   <v>       0.49122807       0.05191257       0.18157424 </v>
   <v>       0.65789474       0.88524590       0.33345259 </v>
   <v>       0.82456140       0.71857923       0.48533095 </v>
   <v>       0.99122807       0.55191257       0.63720930 </v>
   <v>       0.15789474       0.38524590       0.78908766 </v>
   <v>       0.32456140       0.21857923       0.94096601 </v>
   <v>       0.65789474       0.38524590       0.18157424 </v>
   <v>       0.82456140       0.21857923       0.33345259 </v>
   <v>       0.99122807       0.05191257       0.48533095 </v>
   <v>       0.15789474       0.88524590       0.63720930 </v>
   <v>       0.32456140       0.71857923       0.78908766 </v>
   <v>       0.49122807       0.55191257       0.94096601 </v>
   <v>       0.32456140       0.71857923       0.18157424 </v>
   <v>       0.49122807       0.55191257       0.33345259 </v>
   <v>       0.65789474       0.38524590       0.48533095 </v>
   <v>       0.82456140       0.21857923       0.63720930 </v>
   <v>       0.99122807       0.05191257       0.78908766 </v>
   <v>       0.15789474       0.88524590       0.94096601 </v>
   <v>       0.99122807       0.05191257       0.18157424 </v>
   <v>       0.15789474       0.88524590       0.33345259 </v>
   <v>       0.32456140       0.71857923       0.48533095 </v>
   <v>       0.49122807       0.55191257       0.63720930 </v>
   <v>       0.65789474       0.38524590       0.78908766 </v>
   <v>       0.82456140       0.21857923       0.94096601 </v>
   <v>       0.24122807       0.55191257       0.25751342 </v>
   <v>       0.40789474       0.38524590       0.40939177 </v>
   <v>       0.57456140       0.21857923       0.56127013 </v>
   <v>       0.74122807       0.05191257       0.71314848 </v>
   <v>       0.90789474       0.88524590       0.86502683 </v>
   <v>       0.90789474       0.88524590       0.25751342 </v>
   <v>       0.07456140       0.71857923       0.40939177 </v>
   <v>       0.24122807       0.55191257       0.56127013 </v>
   <v>       0.40789474       0.38524590       0.71314848 </v>
   <v>       0.57456140       0.21857923       0.86502683 </v>
   <v>       0.57456140       0.21857923       0.25751342 </v>
   <v>       0.74122807       0.05191257       0.40939177 </v>
   <v>       0.90789474       0.88524590       0.56127013 </v>
   <v>       0.07456140       0.71857923       0.71314848 </v>
   <v>       0.24122807       0.55191257       0.86502683 </v>
   <v>       0.74122807       0.55191257       0.25751342 </v>
   <v>       0.90789474       0.38524590       0.40939177 </v>
   <v>       0.07456140       0.21857923       0.56127013 </v>
   <v>       0.24122807       0.05191257       0.71314848 </v>
   <v>       0.40789474       0.88524590       0.86502683 </v>
   <v>       0.40789474       0.88524590       0.25751342 </v>
   <v>       0.57456140       0.71857923       0.40939177 </v>
   <v>       0.74122807       0.55191257       0.56127013 </v>
   <v>       0.90789474       0.38524590       0.71314848 </v>
   <v>       0.07456140       0.21857923       0.86502683 </v>
   <v>       0.07456140       0.21857923       0.25751342 </v>
   <v>       0.24122807       0.05191257       0.40939177 </v>
   <v>       0.40789474       0.88524590       0.56127013 </v>
   <v>       0.57456140       0.71857923       0.71314848 </v>
   <v>       0.74122807       0.55191257       0.86502683 </v>
  </varray>
 </structure>
</modeling>
