<?xml version="1.0" encoding="ISO-8859-1"?>
<modeling>
 <generator>
  <i name="program" type="string">vasp </i>
  <i name="version" type="string">6.4.3  </i>
  <i name="subversion" type="string">19Mar24 (build Oct 22 2024 11:23:12) complex                          parallel </i>
  <i name="platform" type="string">LinuxIFC </i>
  <i name="date" type="string">2025 06 04 </i>
  <i name="time" type="string">15:57:59 </i>
 </generator>
 <incar>
  <i type="string" name="SYSTEM">Si and Ge interface calculation</i>
  <i type="int" name="ISTART">     0</i>
  <i type="logical" name="ADDGRID"> T  </i>
  <i type="int" name="ISPIN">     2</i>
  <i name="AMIX">      0.60000000</i>
  <i type="int" name="ICHARG">     2</i>
  <i type="int" name="NELM">   100</i>
  <i name="EDIFF">      0.00000010</i>
  <i name="ENCUT">    700.00000000</i>
  <i name="ENAUG">    900.00000000</i>
  <i type="int" name="NBANDS">   231</i>
  <i name="NUPDOWN">      1.00000000</i>
  <i name="NELECT">    384.00000000</i>
  <i type="string" name="LREAL">AUTO</i>
  <i type="int" name="ISMEAR">     0</i>
  <i name="SIGMA">      0.01000000</i>
  <i type="int" name="LMAXMIX">     6</i>
  <i type="logical" name="LWAVE"> F  </i>
  <i type="logical" name="LVTOT"> F  </i>
  <i type="logical" name="LVHAR"> T  </i>
  <i type="logical" name="LASPH"> T  </i>
  <i type="logical" name="LMIXTAU"> T  </i>
 </incar>
 <primitive_cell>
  <structure name="primitive_cell" >
   <crystal>
    <varray name="basis" >
     <v>      17.89153480       0.00000000       0.00000000 </v>
     <v>     -16.10238075       7.79873943       0.00000000 </v>
     <v>       0.00000032      -0.00000007      15.42839623 </v>
    </varray>
    <i name="volume">   2152.74600275 </i>
    <varray name="rec_basis" >
     <v>       0.05589235       0.11540326      -0.00000000 </v>
     <v>       0.00000000       0.12822585       0.00000000 </v>
     <v>       0.00000000       0.00000000       0.06481555 </v>
    </varray>
   </crystal>
   <varray name="positions" >
    <v>       0.15054882       0.50113666       0.68929231 </v>
    <v>       0.02281332       0.97718668       0.00000001 </v>
    <v>       0.18070815       0.81929183       0.08412989 </v>
    <v>       0.33860299       0.66139698       0.16825977 </v>
    <v>       0.49649781       0.50350219       0.25238964 </v>
    <v>       0.65439260       0.34560740       0.33651954 </v>
    <v>       0.54528517       0.60640013       0.49999991 </v>
    <v>       0.31228706       0.68771291       0.02103250 </v>
    <v>       0.47018188       0.52981806       0.10516236 </v>
    <v>       0.62807673       0.37192327       0.18929227 </v>
    <v>       0.78597158       0.21402840       0.27342215 </v>
    <v>       0.83475923       0.81692636       0.52103269 </v>
    <v>       0.31228733       0.68771261       0.42064938 </v>
    <v>       0.52281326       0.47718665       0.00000000 </v>
    <v>       0.68070811       0.31929183       0.08412988 </v>
    <v>       0.83860296       0.16139701       0.16825974 </v>
    <v>       0.99649781       0.00350215       0.25238961 </v>
    <v>       0.15439260       0.84560740       0.33651954 </v>
    <v>       0.86107475       0.29061043       0.66825974 </v>
    <v>       0.81228709       0.18771291       0.02103265 </v>
    <v>       0.97018182       0.02981813       0.10516248 </v>
    <v>       0.12807667       0.87192327       0.18929242 </v>
    <v>       0.54528517       0.60640013       0.49999991 </v>
    <v>       0.44386637       0.55613363       0.35755214 </v>
    <v>       0.20318002       0.94850528       0.58412981 </v>
    <v>       0.52281326       0.97718668       0.00000001 </v>
    <v>       0.68070811       0.81929189       0.08412988 </v>
    <v>       0.83860296       0.66139704       0.16825974 </v>
    <v>       0.33475897       0.81692636       0.52103245 </v>
    <v>       0.15439260       0.34560740       0.33651954 </v>
    <v>       0.54528517       0.10640013       0.49999991 </v>
    <v>       0.81228727       0.68771285       0.02103262 </v>
    <v>       0.97018212       0.52981806       0.10516250 </v>
    <v>       0.12807691       0.37192324       0.18929234 </v>
    <v>       0.28597176       0.21402839       0.27342227 </v>
    <v>       0.44386673       0.05613352       0.35755211 </v>
    <v>       0.65054852       0.00113666       0.68929243 </v>
    <v>       0.02281339       0.47718665       0.00000001 </v>
    <v>       0.18070820       0.31929183       0.08412987 </v>
    <v>       0.33860305       0.16139698       0.16825977 </v>
    <v>       0.33475897       0.31692636       0.52103269 </v>
    <v>       0.65439266       0.84560734       0.33651954 </v>
    <v>       0.33475897       0.31692636       0.52103269 </v>
    <v>       0.31228706       0.18771288       0.02103263 </v>
    <v>       0.47018188       0.02981809       0.10516250 </v>
    <v>       0.62807673       0.87192327       0.18929240 </v>
    <v>       0.78597152       0.71402842       0.27342227 </v>
    <v>       0.94386637       0.55613351       0.35755214 </v>
    <v>       0.83475912       0.31692603       0.92064941 </v>
    <v>       0.60176122       0.39823884       0.44168201 </v>
    <v>       0.31228745       0.18771249       0.42064944 </v>
    <v>       0.36107481       0.79061043       0.66825974 </v>
    <v>       0.51896960       0.63271558       0.75238955 </v>
    <v>       0.67686439       0.47482076       0.83651948 </v>
    <v>       0.12423290       0.02745223       0.94168186 </v>
    <v>       0.99649775       0.50350225       0.25238961 </v>
    <v>       0.49265373       0.65903163       0.60516226 </v>
    <v>       0.65054852       0.50113666       0.68929219 </v>
    <v>       0.80844337       0.34324187       0.77342212 </v>
    <v>       0.96633816       0.18534698       0.85755205 </v>
    <v>       0.33475900       0.81692600       0.92064941 </v>
    <v>       0.28597152       0.71402836       0.27342227 </v>
    <v>       0.70317996       0.44850531       0.58412981 </v>
    <v>       0.60176122       0.39823884       0.44168201 </v>
    <v>       0.01896954       0.13271561       0.75238955 </v>
    <v>       0.17686427       0.97482073       0.83651948 </v>
    <v>       0.62423289       0.52745223       0.94168198 </v>
    <v>       0.83475894       0.31692642       0.52103269 </v>
    <v>       0.99265367       0.15903155       0.60516250 </v>
    <v>       0.15054858       0.00113678       0.68929231 </v>
    <v>       0.30844331       0.84324193       0.77342236 </v>
    <v>       0.46633816       0.68534696       0.85755205 </v>
    <v>       0.83475918       0.81692588       0.92064929 </v>
    <v>       0.81228751       0.68771249       0.42064941 </v>
    <v>       0.20318006       0.44850528       0.58412981 </v>
    <v>       0.36107486       0.29061043       0.66825974 </v>
    <v>       0.51896965       0.13271561       0.75238955 </v>
    <v>       0.67686444       0.97482073       0.83651948 </v>
    <v>       0.12423290       0.52745211       0.94168198 </v>
    <v>       0.49649784       0.00350219       0.25238961 </v>
    <v>       0.49265376       0.15903155       0.60516250 </v>
    <v>       0.81228751       0.68771249       0.42064941 </v>
    <v>       0.80844331       0.84324193       0.77342212 </v>
    <v>       0.96633810       0.68534696       0.85755205 </v>
    <v>       0.33475912       0.31692597       0.92064929 </v>
    <v>       0.60176146       0.89823872       0.44168198 </v>
    <v>       0.70317996       0.94850528       0.58412981 </v>
    <v>       0.86107475       0.79061043       0.66825974 </v>
    <v>       0.01896954       0.63271570       0.75238955 </v>
    <v>       0.17686427       0.47482082       0.83651948 </v>
    <v>       0.62423313       0.02745211       0.94168198 </v>
    <v>       0.94386643       0.05613355       0.35755202 </v>
    <v>       0.99265397       0.65903151       0.60516250 </v>
    <v>       0.81228745       0.18771255       0.42064941 </v>
    <v>       0.30844355       0.34324184       0.77342212 </v>
    <v>       0.46633840       0.18534695       0.85755205 </v>
   </varray>
  </structure>
  <varray name="primitive_index" >
   <v type="int" >        1 </v>
   <v type="int" >        2 </v>
   <v type="int" >        3 </v>
   <v type="int" >        4 </v>
   <v type="int" >        5 </v>
   <v type="int" >        6 </v>
   <v type="int" >        7 </v>
   <v type="int" >        8 </v>
   <v type="int" >        9 </v>
   <v type="int" >       10 </v>
   <v type="int" >       11 </v>
   <v type="int" >       12 </v>
   <v type="int" >       13 </v>
   <v type="int" >       14 </v>
   <v type="int" >       15 </v>
   <v type="int" >       16 </v>
   <v type="int" >       17 </v>
   <v type="int" >       18 </v>
   <v type="int" >       19 </v>
   <v type="int" >       20 </v>
   <v type="int" >       21 </v>
   <v type="int" >       22 </v>
   <v type="int" >       23 </v>
   <v type="int" >       24 </v>
   <v type="int" >       25 </v>
   <v type="int" >       26 </v>
   <v type="int" >       27 </v>
   <v type="int" >       28 </v>
   <v type="int" >       29 </v>
   <v type="int" >       30 </v>
   <v type="int" >       31 </v>
   <v type="int" >       32 </v>
   <v type="int" >       33 </v>
   <v type="int" >       34 </v>
   <v type="int" >       35 </v>
   <v type="int" >       36 </v>
   <v type="int" >       37 </v>
   <v type="int" >       38 </v>
   <v type="int" >       39 </v>
   <v type="int" >       40 </v>
   <v type="int" >       41 </v>
   <v type="int" >       42 </v>
   <v type="int" >       43 </v>
   <v type="int" >       44 </v>
   <v type="int" >       45 </v>
   <v type="int" >       46 </v>
   <v type="int" >       47 </v>
   <v type="int" >       48 </v>
   <v type="int" >       49 </v>
   <v type="int" >       50 </v>
   <v type="int" >       51 </v>
   <v type="int" >       52 </v>
   <v type="int" >       53 </v>
   <v type="int" >       54 </v>
   <v type="int" >       55 </v>
   <v type="int" >       56 </v>
   <v type="int" >       57 </v>
   <v type="int" >       58 </v>
   <v type="int" >       59 </v>
   <v type="int" >       60 </v>
   <v type="int" >       61 </v>
   <v type="int" >       62 </v>
   <v type="int" >       63 </v>
   <v type="int" >       64 </v>
   <v type="int" >       65 </v>
   <v type="int" >       66 </v>
   <v type="int" >       67 </v>
   <v type="int" >       68 </v>
   <v type="int" >       69 </v>
   <v type="int" >       70 </v>
   <v type="int" >       71 </v>
   <v type="int" >       72 </v>
   <v type="int" >       73 </v>
   <v type="int" >       74 </v>
   <v type="int" >       75 </v>
   <v type="int" >       76 </v>
   <v type="int" >       77 </v>
   <v type="int" >       78 </v>
   <v type="int" >       79 </v>
   <v type="int" >       80 </v>
   <v type="int" >       81 </v>
   <v type="int" >       82 </v>
   <v type="int" >       83 </v>
   <v type="int" >       84 </v>
   <v type="int" >       85 </v>
   <v type="int" >       86 </v>
   <v type="int" >       87 </v>
   <v type="int" >       88 </v>
   <v type="int" >       89 </v>
   <v type="int" >       90 </v>
   <v type="int" >       91 </v>
   <v type="int" >       92 </v>
   <v type="int" >       93 </v>
   <v type="int" >       94 </v>
   <v type="int" >       95 </v>
   <v type="int" >       96 </v>
  </varray>
 </primitive_cell>
 <kpoints>
  <generation param="Gamma">
   <v type="int" name="divisions">       4        4        2 </v>
   <v name="usershift">      0.00000000       0.00000000       0.00000000 </v>
   <v name="genvec1">      0.25000000      -0.00000000       0.00000000 </v>
   <v name="genvec2">      0.00000000       0.25000000      -0.00000000 </v>
   <v name="genvec3">      0.00000000       0.00000000       0.50000000 </v>
   <v name="shift">      0.00000000       0.00000000       0.00000000 </v>
  </generation>
  <varray name="kpointlist" >
   <v>       0.00000000       0.00000000       0.00000000 </v>
   <v>       0.25000000       0.00000000       0.00000000 </v>
   <v>       0.00000000       0.25000000      -0.00000000 </v>
   <v>       0.50000000       0.00000000       0.00000000 </v>
   <v>       0.00000000       0.50000000      -0.00000000 </v>
   <v>       0.25000000       0.25000000       0.00000000 </v>
   <v>       0.50000000       0.25000000       0.00000000 </v>
   <v>       0.25000000       0.50000000      -0.00000000 </v>
   <v>      -0.25000000       0.25000000      -0.00000000 </v>
   <v>       0.50000000       0.50000000       0.00000000 </v>
   <v>       0.00000000       0.00000000       0.50000000 </v>
   <v>       0.25000000       0.00000000       0.50000000 </v>
   <v>       0.00000000       0.25000000       0.50000000 </v>
   <v>       0.50000000       0.00000000       0.50000000 </v>
   <v>       0.00000000       0.50000000       0.50000000 </v>
   <v>       0.25000000       0.25000000       0.50000000 </v>
   <v>       0.50000000       0.25000000       0.50000000 </v>
   <v>       0.25000000       0.50000000       0.50000000 </v>
   <v>      -0.25000000       0.25000000       0.50000000 </v>
   <v>       0.50000000       0.50000000       0.50000000 </v>
  </varray>
  <varray name="weights" >
   <v>       0.03125000 </v>
   <v>       0.06250000 </v>
   <v>       0.06250000 </v>
   <v>       0.03125000 </v>
   <v>       0.03125000 </v>
   <v>       0.06250000 </v>
   <v>       0.06250000 </v>
   <v>       0.06250000 </v>
   <v>       0.06250000 </v>
   <v>       0.03125000 </v>
   <v>       0.03125000 </v>
   <v>       0.06250000 </v>
   <v>       0.06250000 </v>
   <v>       0.03125000 </v>
   <v>       0.03125000 </v>
   <v>       0.06250000 </v>
   <v>       0.06250000 </v>
   <v>       0.06250000 </v>
   <v>       0.06250000 </v>
   <v>       0.03125000 </v>
  </varray>
 </kpoints>
 <parameters>
  <separator name="general" >
   <i type="string" name="SYSTEM">Si and Ge interface calculation</i>
   <i type="logical" name="LCOMPAT"> F  </i>
  </separator>
  <separator name="electronic" >
   <i type="string" name="PREC">normal</i>
   <i name="ENMAX">    700.00000000</i>
   <i name="ENAUG">    900.00000000</i>
   <i name="EDIFF">      0.00000010</i>
   <i type="int" name="IALGO">    38</i>
   <i type="int" name="IWAVPR">    10</i>
   <i type="int" name="NBANDS">   232</i>
   <i type="int" name="NBANDSLOW">    -1</i>
   <i type="int" name="NBANDSHIGH">    -1</i>
   <i name="NELECT">    384.00000000</i>
   <i type="int" name="TURBO">     0</i>
   <i type="int" name="IRESTART">     0</i>
   <i type="int" name="NREBOOT">     0</i>
   <i type="int" name="NMIN">     0</i>
   <i name="EREF">      0.00000000</i>
   <separator name="electronic smearing" >
    <i type="int" name="ISMEAR">     0</i>
    <i name="SIGMA">      0.01000000</i>
    <i name="KSPACING">      0.50000000</i>
    <i type="logical" name="KGAMMA"> T  </i>
    <i type="logical" name="KBLOWUP"> T  </i>
   </separator>
   <separator name="electronic projectors" >
    <i type="logical" name="LREAL"> T  </i>
    <v name="ROPT">     -0.00050000</v>
    <i type="int" name="LMAXPAW">  -100</i>
    <i type="int" name="LMAXMIX">     6</i>
    <i type="logical" name="NLSPLINE"> F  </i>
   </separator>
   <separator name="electronic startup" >
    <i type="int" name="ISTART">     0</i>
    <i type="int" name="ICHARG">     2</i>
    <i type="int" name="INIWAV">     1</i>
   </separator>
   <separator name="electronic spin" >
    <i type="int" name="ISPIN">     2</i>
    <i type="logical" name="LNONCOLLINEAR"> F  </i>
    <v name="MAGMOM">      0.01041667      0.01041667      0.01041667      0.01041667      0.01041667      0.01041667      0.01041667      0.01041667      0.01041667      0.01041667      0.01041667      0.01041667      0.01041667      0.01041667      0.01041667      0.01041667      0.01041667      0.01041667      0.01041667      0.01041667
      0.01041667      0.01041667      0.01041667      0.01041667      0.01041667      0.01041667      0.01041667      0.01041667      0.01041667      0.01041667      0.01041667      0.01041667      0.01041667      0.01041667      0.01041667      0.01041667      0.01041667      0.01041667      0.01041667      0.01041667
      0.01041667      0.01041667      0.01041667      0.01041667      0.01041667      0.01041667      0.01041667      0.01041667      0.01041667      0.01041667      0.01041667      0.01041667      0.01041667      0.01041667      0.01041667      0.01041667      0.01041667      0.01041667      0.01041667      0.01041667
      0.01041667      0.01041667      0.01041667      0.01041667      0.01041667      0.01041667      0.01041667      0.01041667      0.01041667      0.01041667      0.01041667      0.01041667      0.01041667      0.01041667      0.01041667      0.01041667      0.01041667      0.01041667      0.01041667      0.01041667
      0.01041667      0.01041667      0.01041667      0.01041667      0.01041667      0.01041667      0.01041667      0.01041667      0.01041667      0.01041667      0.01041667      0.01041667      0.01041667      0.01041667      0.01041667      0.01041667</v>
    <i name="NUPDOWN">      1.00000000</i>
    <i type="logical" name="LSORBIT"> F  </i>
    <v name="SAXIS">      0.00000000      0.00000000      1.00000000</v>
    <i type="logical" name="LSPIRAL"> F  </i>
    <v name="QSPIRAL">      0.00000000      0.00000000      0.00000000</v>
    <i type="logical" name="LZEROZ"> F  </i>
   </separator>
   <separator name="electronic exchange-correlation" >
    <i type="logical" name="LASPH"> T  </i>
   </separator>
   <separator name="electronic convergence" >
    <i type="int" name="NELM">   100</i>
    <i type="int" name="NELMDL">    -5</i>
    <i type="int" name="NELMIN">     2</i>
    <i name="ENINI">    700.00000000</i>
    <separator name="electronic convergence detail" >
     <i type="logical" name="LDIAG"> T  </i>
     <i type="logical" name="LSUBROT"> F  </i>
     <i name="WEIMIN">      0.00000000</i>
     <i name="EBREAK">      0.00000000</i>
     <i name="DEPER">      0.30000000</i>
     <i type="int" name="NRMM">     4</i>
     <i name="TIME">      0.40000000</i>
    </separator>
   </separator>
   <separator name="electronic mixer" >
    <i name="AMIX">      0.60000000</i>
    <i name="BMIX">      1.00000000</i>
    <i name="AMIN">      0.10000000</i>
    <i name="AMIX_MAG">      2.40000000</i>
    <i name="BMIX_MAG">      1.00000000</i>
    <separator name="electronic mixer details" >
     <i type="int" name="IMIX">     4</i>
     <i type="logical" name="MIXFIRST"> F  </i>
     <i type="int" name="MAXMIX">   -45</i>
     <i name="WC">    100.00000000</i>
     <i type="int" name="INIMIX">     1</i>
     <i type="int" name="MIXPRE">     1</i>
     <i type="int" name="MREMOVE">     5</i>
    </separator>
   </separator>
   <separator name="electronic dipolcorrection" >
    <i type="logical" name="LDIPOL"> F  </i>
    <i type="logical" name="LMONO"> F  </i>
    <i type="int" name="IDIPOL">     0</i>
    <i name="EPSILON">      1.00000000</i>
    <v name="DIPOL">   -100.00000000   -100.00000000   -100.00000000</v>
    <i name="EFIELD">      0.00000000</i>
    <i type="logical" name="LVACPOTAV"> F  </i>
   </separator>
  </separator>
  <separator name="grids" >
   <i type="int" name="NGX">   120</i>
   <i type="int" name="NGY">   120</i>
   <i type="int" name="NGZ">   100</i>
   <i type="int" name="NGXF">   240</i>
   <i type="int" name="NGYF">   240</i>
   <i type="int" name="NGZF">   200</i>
   <i type="logical" name="ADDGRID"> T  </i>
  </separator>
  <separator name="ionic" >
   <i type="int" name="NSW">     0</i>
   <i type="int" name="IBRION">    -1</i>
   <i type="int" name="MDALGO">     0</i>
   <i type="int" name="ISIF">     2</i>
   <i name="PSTRESS">      0.00000000</i>
   <i name="EDIFFG">      0.00000100</i>
   <i type="int" name="NFREE">     0</i>
   <i name="POTIM">      0.50000000</i>
   <i name="SMASS">     -3.00000000</i>
   <i name="SCALEE">      1.00000000</i>
  </separator>
  <separator name="ionic md" >
   <i name="TEBEG">      0.00010000</i>
   <i name="TEEND">      0.00010000</i>
   <i type="int" name="NBLOCK">     1</i>
   <i type="int" name="KBLOCK">     1</i>
   <i type="int" name="NPACO">   256</i>
   <i name="APACO">     10.00000000</i>
  </separator>
  <separator name="symmetry" >
   <i type="int" name="ISYM">     2</i>
   <i name="SYMPREC">      0.00001000</i>
  </separator>
  <separator name="dos" >
   <i type="int" name="LORBIT">     0</i>
   <v name="RWIGS">     -1.00000000</v>
   <i type="int" name="NEDOS">   301</i>
   <i name="EMIN">     10.00000000</i>
   <i name="EMAX">    -10.00000000</i>
   <i name="EFERMI">      0.00000000</i>
  </separator>
  <separator name="writing" >
   <i type="int" name="NWRITE">     2</i>
   <i type="logical" name="LWAVE"> F  </i>
   <i type="logical" name="LDOWNSAMPLE"> F  </i>
   <i type="logical" name="LCHARG"> T  </i>
   <i type="logical" name="LPARD"> F  </i>
   <i type="logical" name="LVTOT"> F  </i>
   <i type="logical" name="LVHAR"> T  </i>
   <i type="logical" name="LELF"> F  </i>
   <i type="logical" name="LOPTICS"> F  </i>
   <v name="STM">      0.00000000      0.00000000      0.00000000      0.00000000      0.00000000      0.00000000      0.00000000</v>
  </separator>
  <separator name="performance" >
   <i type="int" name="NPAR">     4</i>
   <i type="int" name="NSIM">     4</i>
   <i type="int" name="NBLK">    -1</i>
   <i type="logical" name="LPLANE"> T  </i>
   <i type="logical" name="LSCALAPACK"> T  </i>
   <i type="logical" name="LSCAAWARE"> F  </i>
   <i type="logical" name="LSCALU"> F  </i>
   <i type="logical" name="LASYNC"> F  </i>
   <i type="logical" name="LORBITALREAL"> F  </i>
  </separator>
  <separator name="miscellaneous" >
   <i type="int" name="IDIOT">     3</i>
   <i type="int" name="PHON_NSTRUCT">    -1</i>
   <i type="logical" name="LMUSIC"> F  </i>
   <v name="POMASS">     72.61000000</v>
   <v name="DARWINR">      0.00000000</v>
   <v name="DARWINV">      1.00000000</v>
   <i type="logical" name="LCORR"> T  </i>
  </separator>
  <i type="logical" name="GGA_COMPAT"> T  </i>
  <i type="logical" name="LBERRY"> F  </i>
  <i type="int" name="ICORELEVEL">     0</i>
  <i type="logical" name="LDAU"> F  </i>
  <i type="int" name="I_CONSTRAINED_M">     0</i>
  <separator name="electronic exchange-correlation" >
   <i type="string" name="GGA    ">PE</i>
   <i type="string" name="XC_C">1</i>
   <i type="int" name="VOSKOWN">     0</i>
   <i type="logical" name="LHFCALC"> F  </i>
   <i type="string" name="PRECFOCK"></i>
   <i type="logical" name="LSYMGRAD"> F  </i>
   <i type="logical" name="LHFONE"> F  </i>
   <i type="logical" name="LRHFCALC"> F  </i>
   <i type="logical" name="LTHOMAS"> F  </i>
   <i type="logical" name="LMODELHF"> F  </i>
   <i type="logical" name="LFOCKACE"> F  </i>
   <i name="ENCUT4O">     -1.00000000</i>
   <i type="int" name="EXXOEP">     0</i>
   <i type="int" name="FOURORBIT">     0</i>
   <i name="AEXX">      0.00000000</i>
   <i name="HFALPHA">      0.00000000</i>
   <i name="MCALPHA">      0.00000000</i>
   <i name="ALDAX">      1.00000000</i>
   <i name="AGGAX">      1.00000000</i>
   <i name="AMGGAX">      1.00000000</i>
   <i name="ALDAC">      1.00000000</i>
   <i name="AGGAC">      1.00000000</i>
   <i name="AMGGAC">      1.00000000</i>
   <i type="int" name="NKREDX">     1</i>
   <i type="int" name="NKREDY">     1</i>
   <i type="int" name="NKREDZ">     1</i>
   <i type="logical" name="SHIFTRED"> F  </i>
   <i type="logical" name="ODDONLY"> F  </i>
   <i type="logical" name="EVENONLY"> F  </i>
   <i type="int" name="LMAXFOCK">     0</i>
   <i type="int" name="NMAXFOCKAE">     0</i>
   <i type="logical" name="LFOCKAEDFT"> F  </i>
   <i name="HFSCREEN">      0.00000000</i>
   <i name="HFSCREENC">      0.00000000</i>
   <i type="int" name="NBANDSGWLOW">     0</i>
  </separator>
  <separator name="vdW DFT" >
   <i type="logical" name="LUSE_VDW"> F  </i>
   <i type="int" name="IVDW_NL">    -1</i>
   <i type="logical" name="LSPIN_VDW"> F  </i>
   <i name="ZAB_VDW">     -0.84910000</i>
   <i name="GAMMA_VDW">      1.39626340</i>
   <i name="ALPHA_VDW">      0.00000000</i>
   <i name="PARAM1">      0.12340000</i>
   <i name="PARAM2">      1.00000000</i>
   <i name="BPARAM">      6.30000000</i>
   <i name="CPARAM">      0.00930000</i>
  </separator>
  <separator name="model GW" >
   <i type="int" name="MODEL_GW">     0</i>
   <i name="MODEL_EPS0">     13.45466252</i>
   <i name="MODEL_ALPHA">      1.00000000</i>
  </separator>
  <separator name="linear response parameters" >
   <i type="logical" name="LEPSILON"> F  </i>
   <i type="logical" name="LRPA"> F  </i>
   <i type="logical" name="LNABLA"> F  </i>
   <i type="logical" name="LVEL"> F  </i>
   <i name="CSHIFT">      0.10000000</i>
   <i name="OMEGAMAX">     -1.00000000</i>
   <i name="DEG_THRESHOLD">      0.00200000</i>
   <i name="RTIME">     -0.10000000</i>
   <i name="WPLASMAI">      0.00000000</i>
   <v name="DFIELD">      0.00000000      0.00000000      0.00000000</v>
   <v name="WPLASMA">      0.00000000      0.00000000      0.00000000      0.00000000      0.00000000      0.00000000      0.00000000      0.00000000      0.00000000</v>
  </separator>
  <separator name="orbital magnetization" >
   <i type="logical" name="NUCIND"> F  </i>
   <v name="MAGPOS">      0.00000000      0.00000000      0.00000000</v>
   <i type="logical" name="LNICSALL"> T  </i>
   <i type="logical" name="ORBITALMAG"> F  </i>
   <i type="logical" name="LMAGBLOCH"> F  </i>
   <i type="logical" name="LCHIMAG"> F  </i>
   <i type="logical" name="LGAUGE"> T  </i>
   <i type="int" name="MAGATOM">     0</i>
   <v name="MAGDIPOL">      0.00000000      0.00000000      0.00000000</v>
   <v name="AVECCONST">      0.00000000      0.00000000      0.00000000</v>
  </separator>
  <separator name="response functions" >
   <i type="logical" name="LALL_IN_ONE"> F  </i>
   <i type="int" name="IALL_IN_ONE">    -1</i>
   <i type="int" name="NBANDS_WAVE">    -1</i>
   <i type="logical" name="LFINITE_TEMPERATURE"> F  </i>
   <i type="logical" name="LADDER"> F  </i>
   <i type="logical" name="LRPAFORCE"> F  </i>
   <i type="logical" name="LFXC"> F  </i>
   <i type="logical" name="LHARTREE"> T  </i>
   <i type="int" name="IBSE">     0</i>
   <v type="int" name="KPOINT">    -1     0     0     0</v>
   <i type="logical" name="LTCTC"> F  </i>
   <i type="logical" name="LTCTE"> F  </i>
   <i type="logical" name="LTETE"> F  </i>
   <i type="logical" name="LTRIPLET"> F  </i>
   <i type="logical" name="LFXCEPS"> F  </i>
   <i type="logical" name="LFXHEG"> F  </i>
   <i type="int" name="NATURALO">     2</i>
   <i type="logical" name="LHOLEGF"> F  </i>
   <i type="logical" name="L2ORDER"> F  </i>
   <i type="logical" name="LDMP1"> F  </i>
   <i type="logical" name="LMP2LT"> F  </i>
   <i type="logical" name="LSMP2LT"> F  </i>
   <i type="logical" name="LGWLF"> F  </i>
   <i name="ENCUTGW">     -1.60000002</i>
   <i name="ENCUTGWSOFT">     -1.60000002</i>
   <i name="ENCUTLF">     -1.00000000</i>
   <i type="logical" name="ESF_SPLINES"> F  </i>
   <i name="ESF_CONV">      0.01000000</i>
   <i type="int" name="ESF_NINTER">    15</i>
   <i type="int" name="LMAXMP2">    -1</i>
   <i name="SCISSOR">      0.00000000</i>
   <i type="int" name="NOMEGA">     0</i>
   <i type="int" name="NOMEGAR">     0</i>
   <i type="int" name="NBANDSGW">    -1</i>
   <i type="int" name="NBANDSO">    -1</i>
   <i type="int" name="NBANDSV">    -1</i>
   <i type="int" name="NELMGW">     1</i>
   <i type="int" name="NELMHF">     1</i>
   <i type="int" name="DIM">     3</i>
   <i type="int" name="IESPILON">     4</i>
   <i type="int" name="ANTIRES">     0</i>
   <i name="OMEGAMAX">    -30.00000000</i>
   <i name="OMEGAMIN">    -30.00000000</i>
   <i name="OMEGATL">   -200.00000000</i>
   <i type="int" name="OMEGAGRID">     0</i>
   <i name="CSHIFT">     -0.10000000</i>
   <i type="logical" name="LSELFENERGY"> F  </i>
   <i type="logical" name="LSPECTRAL"> F  </i>
   <i type="logical" name="LSPECTRALGW"> F  </i>
   <i type="logical" name="LSINGLES"> F  </i>
   <i type="logical" name="LFERMIGW"> F  </i>
   <i type="logical" name="ODDONLYGW"> F  </i>
   <i type="logical" name="EVENONLYGW"> F  </i>
   <i type="int" name="NKREDLFX">     1</i>
   <i type="int" name="NKREDLFY">     1</i>
   <i type="int" name="NKREDLFZ">     1</i>
   <i type="int" name="MAXMEM">  2800</i>
   <i type="int" name="TELESCOPE">     0</i>
   <i type="int" name="NTAUPAR">    -1</i>
   <i type="int" name="NOMEGAPAR">    -1</i>
   <i name="DAMP_NEWTON">      0.80000001</i>
   <i name="LAMBDA">      1.00000000</i>
  </separator>
  <separator name="External order field" >
   <i name="OFIELD_KAPPA">      0.00000000</i>
   <v name="OFIELD_K">      0.00000000      0.00000000      0.00000000</v>
   <i name="OFIELD_Q6_NEAR">      0.00000000</i>
   <i name="OFIELD_Q6_FAR">      0.00000000</i>
   <i name="OFIELD_A">      0.00000000</i>
  </separator>
  <separator name="optional k-points parameters" >
   <i type="int" name="KPOINTS_OPT_MODE">     1</i>
   <i type="logical" name="LKPOINTS_OPT"> F  </i>
  </separator>
 </parameters>
 <atominfo>
  <atoms>      96 </atoms>
  <types>       1 </types>
  <array name="atoms" >
   <dimension dim="1">ion</dimension>
   <field type="string">element</field>
   <field type="int">atomtype</field>
   <set>
    <rc><c>Ge</c><c>   1</c></rc>
    <rc><c>Ge</c><c>   1</c></rc>
    <rc><c>Ge</c><c>   1</c></rc>
    <rc><c>Ge</c><c>   1</c></rc>
    <rc><c>Ge</c><c>   1</c></rc>
    <rc><c>Ge</c><c>   1</c></rc>
    <rc><c>Ge</c><c>   1</c></rc>
    <rc><c>Ge</c><c>   1</c></rc>
    <rc><c>Ge</c><c>   1</c></rc>
    <rc><c>Ge</c><c>   1</c></rc>
    <rc><c>Ge</c><c>   1</c></rc>
    <rc><c>Ge</c><c>   1</c></rc>
    <rc><c>Ge</c><c>   1</c></rc>
    <rc><c>Ge</c><c>   1</c></rc>
    <rc><c>Ge</c><c>   1</c></rc>
    <rc><c>Ge</c><c>   1</c></rc>
    <rc><c>Ge</c><c>   1</c></rc>
    <rc><c>Ge</c><c>   1</c></rc>
    <rc><c>Ge</c><c>   1</c></rc>
    <rc><c>Ge</c><c>   1</c></rc>
    <rc><c>Ge</c><c>   1</c></rc>
    <rc><c>Ge</c><c>   1</c></rc>
    <rc><c>Ge</c><c>   1</c></rc>
    <rc><c>Ge</c><c>   1</c></rc>
    <rc><c>Ge</c><c>   1</c></rc>
    <rc><c>Ge</c><c>   1</c></rc>
    <rc><c>Ge</c><c>   1</c></rc>
    <rc><c>Ge</c><c>   1</c></rc>
    <rc><c>Ge</c><c>   1</c></rc>
    <rc><c>Ge</c><c>   1</c></rc>
    <rc><c>Ge</c><c>   1</c></rc>
    <rc><c>Ge</c><c>   1</c></rc>
    <rc><c>Ge</c><c>   1</c></rc>
    <rc><c>Ge</c><c>   1</c></rc>
    <rc><c>Ge</c><c>   1</c></rc>
    <rc><c>Ge</c><c>   1</c></rc>
    <rc><c>Ge</c><c>   1</c></rc>
    <rc><c>Ge</c><c>   1</c></rc>
    <rc><c>Ge</c><c>   1</c></rc>
    <rc><c>Ge</c><c>   1</c></rc>
    <rc><c>Ge</c><c>   1</c></rc>
    <rc><c>Ge</c><c>   1</c></rc>
    <rc><c>Ge</c><c>   1</c></rc>
    <rc><c>Ge</c><c>   1</c></rc>
    <rc><c>Ge</c><c>   1</c></rc>
    <rc><c>Ge</c><c>   1</c></rc>
    <rc><c>Ge</c><c>   1</c></rc>
    <rc><c>Ge</c><c>   1</c></rc>
    <rc><c>Ge</c><c>   1</c></rc>
    <rc><c>Ge</c><c>   1</c></rc>
    <rc><c>Ge</c><c>   1</c></rc>
    <rc><c>Ge</c><c>   1</c></rc>
    <rc><c>Ge</c><c>   1</c></rc>
    <rc><c>Ge</c><c>   1</c></rc>
    <rc><c>Ge</c><c>   1</c></rc>
    <rc><c>Ge</c><c>   1</c></rc>
    <rc><c>Ge</c><c>   1</c></rc>
    <rc><c>Ge</c><c>   1</c></rc>
    <rc><c>Ge</c><c>   1</c></rc>
    <rc><c>Ge</c><c>   1</c></rc>
    <rc><c>Ge</c><c>   1</c></rc>
    <rc><c>Ge</c><c>   1</c></rc>
    <rc><c>Ge</c><c>   1</c></rc>
    <rc><c>Ge</c><c>   1</c></rc>
    <rc><c>Ge</c><c>   1</c></rc>
    <rc><c>Ge</c><c>   1</c></rc>
    <rc><c>Ge</c><c>   1</c></rc>
    <rc><c>Ge</c><c>   1</c></rc>
    <rc><c>Ge</c><c>   1</c></rc>
    <rc><c>Ge</c><c>   1</c></rc>
    <rc><c>Ge</c><c>   1</c></rc>
    <rc><c>Ge</c><c>   1</c></rc>
    <rc><c>Ge</c><c>   1</c></rc>
    <rc><c>Ge</c><c>   1</c></rc>
    <rc><c>Ge</c><c>   1</c></rc>
    <rc><c>Ge</c><c>   1</c></rc>
    <rc><c>Ge</c><c>   1</c></rc>
    <rc><c>Ge</c><c>   1</c></rc>
    <rc><c>Ge</c><c>   1</c></rc>
    <rc><c>Ge</c><c>   1</c></rc>
    <rc><c>Ge</c><c>   1</c></rc>
    <rc><c>Ge</c><c>   1</c></rc>
    <rc><c>Ge</c><c>   1</c></rc>
    <rc><c>Ge</c><c>   1</c></rc>
    <rc><c>Ge</c><c>   1</c></rc>
    <rc><c>Ge</c><c>   1</c></rc>
    <rc><c>Ge</c><c>   1</c></rc>
    <rc><c>Ge</c><c>   1</c></rc>
    <rc><c>Ge</c><c>   1</c></rc>
    <rc><c>Ge</c><c>   1</c></rc>
    <rc><c>Ge</c><c>   1</c></rc>
    <rc><c>Ge</c><c>   1</c></rc>
    <rc><c>Ge</c><c>   1</c></rc>
    <rc><c>Ge</c><c>   1</c></rc>
    <rc><c>Ge</c><c>   1</c></rc>
    <rc><c>Ge</c><c>   1</c></rc>
   </set>
  </array>
  <array name="atomtypes" >
   <dimension dim="1">type</dimension>
   <field type="int">atomspertype</field>
   <field type="string">element</field>
   <field>mass</field>
   <field>valence</field>
   <field type="string">pseudopotential</field>
   <set>
    <rc><c>  96</c><c>Ge</c><c>     72.61000000</c><c>      4.00000000</c><c>  PAW_PBE Ge 05Jan2001                  </c></rc>
   </set>
  </array>
 </atominfo>
 <structure name="initialpos" >
  <crystal>
   <varray name="basis" >
    <v>      17.89153480       0.00000000       0.00000000 </v>
    <v>     -16.10238075       7.79873943       0.00000000 </v>
    <v>       0.00000032      -0.00000007      15.42839623 </v>
   </varray>
   <i name="volume">   2152.74600275 </i>
   <varray name="rec_basis" >
    <v>       0.05589235       0.11540326      -0.00000000 </v>
    <v>       0.00000000       0.12822585       0.00000000 </v>
    <v>       0.00000000       0.00000000       0.06481555 </v>
   </varray>
  </crystal>
  <varray name="positions" >
   <v>       0.15054882       0.50113666       0.68929231 </v>
   <v>       0.02281332       0.97718668       0.00000001 </v>
   <v>       0.18070815       0.81929183       0.08412989 </v>
   <v>       0.33860299       0.66139698       0.16825977 </v>
   <v>       0.49649781       0.50350219       0.25238964 </v>
   <v>       0.65439260       0.34560740       0.33651954 </v>
   <v>       0.54528517       0.60640013       0.49999991 </v>
   <v>       0.31228706       0.68771291       0.02103250 </v>
   <v>       0.47018188       0.52981806       0.10516236 </v>
   <v>       0.62807673       0.37192327       0.18929227 </v>
   <v>       0.78597158       0.21402840       0.27342215 </v>
   <v>       0.83475923       0.81692636       0.52103269 </v>
   <v>       0.31228733       0.68771261       0.42064938 </v>
   <v>       0.52281326       0.47718665       0.00000000 </v>
   <v>       0.68070811       0.31929183       0.08412988 </v>
   <v>       0.83860296       0.16139701       0.16825974 </v>
   <v>       0.99649781       0.00350215       0.25238961 </v>
   <v>       0.15439260       0.84560740       0.33651954 </v>
   <v>       0.86107475       0.29061043       0.66825974 </v>
   <v>       0.81228709       0.18771291       0.02103265 </v>
   <v>       0.97018182       0.02981813       0.10516248 </v>
   <v>       0.12807667       0.87192327       0.18929242 </v>
   <v>       0.54528517       0.60640013       0.49999991 </v>
   <v>       0.44386637       0.55613363       0.35755214 </v>
   <v>       0.20318002       0.94850528       0.58412981 </v>
   <v>       0.52281326       0.97718668       0.00000001 </v>
   <v>       0.68070811       0.81929189       0.08412988 </v>
   <v>       0.83860296       0.66139704       0.16825974 </v>
   <v>       0.33475897       0.81692636       0.52103245 </v>
   <v>       0.15439260       0.34560740       0.33651954 </v>
   <v>       0.54528517       0.10640013       0.49999991 </v>
   <v>       0.81228727       0.68771285       0.02103262 </v>
   <v>       0.97018212       0.52981806       0.10516250 </v>
   <v>       0.12807691       0.37192324       0.18929234 </v>
   <v>       0.28597176       0.21402839       0.27342227 </v>
   <v>       0.44386673       0.05613352       0.35755211 </v>
   <v>       0.65054852       0.00113666       0.68929243 </v>
   <v>       0.02281339       0.47718665       0.00000001 </v>
   <v>       0.18070820       0.31929183       0.08412987 </v>
   <v>       0.33860305       0.16139698       0.16825977 </v>
   <v>       0.33475897       0.31692636       0.52103269 </v>
   <v>       0.65439266       0.84560734       0.33651954 </v>
   <v>       0.33475897       0.31692636       0.52103269 </v>
   <v>       0.31228706       0.18771288       0.02103263 </v>
   <v>       0.47018188       0.02981809       0.10516250 </v>
   <v>       0.62807673       0.87192327       0.18929240 </v>
   <v>       0.78597152       0.71402842       0.27342227 </v>
   <v>       0.94386637       0.55613351       0.35755214 </v>
   <v>       0.83475912       0.31692603       0.92064941 </v>
   <v>       0.60176122       0.39823884       0.44168201 </v>
   <v>       0.31228745       0.18771249       0.42064944 </v>
   <v>       0.36107481       0.79061043       0.66825974 </v>
   <v>       0.51896960       0.63271558       0.75238955 </v>
   <v>       0.67686439       0.47482076       0.83651948 </v>
   <v>       0.12423290       0.02745223       0.94168186 </v>
   <v>       0.99649775       0.50350225       0.25238961 </v>
   <v>       0.49265373       0.65903163       0.60516226 </v>
   <v>       0.65054852       0.50113666       0.68929219 </v>
   <v>       0.80844337       0.34324187       0.77342212 </v>
   <v>       0.96633816       0.18534698       0.85755205 </v>
   <v>       0.33475900       0.81692600       0.92064941 </v>
   <v>       0.28597152       0.71402836       0.27342227 </v>
   <v>       0.70317996       0.44850531       0.58412981 </v>
   <v>       0.60176122       0.39823884       0.44168201 </v>
   <v>       0.01896954       0.13271561       0.75238955 </v>
   <v>       0.17686427       0.97482073       0.83651948 </v>
   <v>       0.62423289       0.52745223       0.94168198 </v>
   <v>       0.83475894       0.31692642       0.52103269 </v>
   <v>       0.99265367       0.15903155       0.60516250 </v>
   <v>       0.15054858       0.00113678       0.68929231 </v>
   <v>       0.30844331       0.84324193       0.77342236 </v>
   <v>       0.46633816       0.68534696       0.85755205 </v>
   <v>       0.83475918       0.81692588       0.92064929 </v>
   <v>       0.81228751       0.68771249       0.42064941 </v>
   <v>       0.20318006       0.44850528       0.58412981 </v>
   <v>       0.36107486       0.29061043       0.66825974 </v>
   <v>       0.51896965       0.13271561       0.75238955 </v>
   <v>       0.67686444       0.97482073       0.83651948 </v>
   <v>       0.12423290       0.52745211       0.94168198 </v>
   <v>       0.49649784       0.00350219       0.25238961 </v>
   <v>       0.49265376       0.15903155       0.60516250 </v>
   <v>       0.81228751       0.68771249       0.42064941 </v>
   <v>       0.80844331       0.84324193       0.77342212 </v>
   <v>       0.96633810       0.68534696       0.85755205 </v>
   <v>       0.33475912       0.31692597       0.92064929 </v>
   <v>       0.60176146       0.89823872       0.44168198 </v>
   <v>       0.70317996       0.94850528       0.58412981 </v>
   <v>       0.86107475       0.79061043       0.66825974 </v>
   <v>       0.01896954       0.63271570       0.75238955 </v>
   <v>       0.17686427       0.47482082       0.83651948 </v>
   <v>       0.62423313       0.02745211       0.94168198 </v>
   <v>       0.94386643       0.05613355       0.35755202 </v>
   <v>       0.99265397       0.65903151       0.60516250 </v>
   <v>       0.81228745       0.18771255       0.42064941 </v>
   <v>       0.30844355       0.34324184       0.77342212 </v>
   <v>       0.46633840       0.18534695       0.85755205 </v>
  </varray>
 </structure>
 <calculation>
  <scstep>
   <time name="dav">   72.30   73.34</time>
   <time name="total">   74.58   75.63</time>
   <energy>
    <i name="alphaZ">    818.24582278 </i>
    <i name="ewald">  -9952.92343339 </i>
    <i name="hartreedc">  -1484.93019088 </i>
    <i name="XCdc">   -737.62511219 </i>
    <i name="pawpsdc">   8461.93788731 </i>
    <i name="pawaedc">  -7071.13096423 </i>
    <i name="eentropy">     -0.00113007 </i>
    <i name="bandstr">   1440.15827876 </i>
    <i name="atom">  10079.60734648 </i>
    <i name="e_fr_energy">   1553.33850457 </i>
    <i name="e_wo_entrp">   1553.33963464 </i>
    <i name="e_0_energy">   1553.33906960 </i>
   </energy>
  </scstep>
  <scstep>
   <time name="dav">   81.18   81.89</time>
   <time name="total">   81.19   81.90</time>
   <energy>
    <i name="e_fr_energy">   -618.08480476 </i>
    <i name="e_wo_entrp">   -618.08293611 </i>
    <i name="e_0_energy">   -618.08387044 </i>
   </energy>
  </scstep>
  <scstep>
   <time name="dav">   84.70   85.49</time>
   <time name="total">   84.70   85.50</time>
   <energy>
    <i name="e_fr_energy">   -852.61513439 </i>
    <i name="e_wo_entrp">   -852.61353341 </i>
    <i name="e_0_energy">   -852.61433390 </i>
   </energy>
  </scstep>
  <scstep>
   <time name="dav">   82.91   83.65</time>
   <time name="total">   82.92   83.65</time>
   <energy>
    <i name="e_fr_energy">   -862.99460139 </i>
    <i name="e_wo_entrp">   -862.99252034 </i>
    <i name="e_0_energy">   -862.99356087 </i>
   </energy>
  </scstep>
  <scstep>
   <time name="dav">   89.54   90.32</time>
   <time name="total">   94.64   95.53</time>
   <energy>
    <i name="e_fr_energy">   -863.46420840 </i>
    <i name="e_wo_entrp">   -863.46219297 </i>
    <i name="e_0_energy">   -863.46320069 </i>
   </energy>
  </scstep>
  <scstep>
   <time name="dav">   86.16   86.93</time>
   <time name="total">   93.42   94.31</time>
   <energy>
    <i name="e_fr_energy">   -888.95756126 </i>
    <i name="e_wo_entrp">   -888.95593081 </i>
    <i name="e_0_energy">   -888.95674603 </i>
   </energy>
  </scstep>
  <scstep>
   <time name="dav">  103.99  104.91</time>
   <time name="total">  111.22  112.26</time>
   <energy>
    <i name="e_fr_energy">   -837.00432157 </i>
    <i name="e_wo_entrp">   -837.00238830 </i>
    <i name="e_0_energy">   -837.00335493 </i>
   </energy>
  </scstep>
  <scstep>
   <time name="dav">   89.71   90.50</time>
   <time name="total">   96.95   97.82</time>
   <energy>
    <i name="e_fr_energy">   -837.68375935 </i>
    <i name="e_wo_entrp">   -837.68215713 </i>
    <i name="e_0_energy">   -837.68295824 </i>
   </energy>
  </scstep>
  <scstep>
   <time name="dav">   78.37   79.15</time>
   <time name="total">   85.65   86.49</time>
   <energy>
    <i name="e_fr_energy">   -826.23760622 </i>
    <i name="e_wo_entrp">   -826.23501177 </i>
    <i name="e_0_energy">   -826.23630900 </i>
   </energy>
  </scstep>
  <scstep>
   <time name="dav">   76.09   76.76</time>
   <time name="total">   83.32   84.04</time>
   <energy>
    <i name="e_fr_energy">   -826.02283611 </i>
    <i name="e_wo_entrp">   -826.01969725 </i>
    <i name="e_0_energy">   -826.02126668 </i>
   </energy>
  </scstep>
  <scstep>
   <time name="dav">   80.54   81.24</time>
   <time name="total">   87.88   88.64</time>
   <energy>
    <i name="e_fr_energy">   -825.68247760 </i>
    <i name="e_wo_entrp">   -825.67987777 </i>
    <i name="e_0_energy">   -825.68117768 </i>
   </energy>
  </scstep>
  <scstep>
   <time name="dav">   82.83   83.56</time>
   <time name="total">   90.16   90.95</time>
   <energy>
    <i name="e_fr_energy">   -825.61949140 </i>
    <i name="e_wo_entrp">   -825.61675546 </i>
    <i name="e_0_energy">   -825.61812343 </i>
   </energy>
  </scstep>
  <scstep>
   <time name="dav">   84.54   85.27</time>
   <time name="total">   91.87   92.67</time>
   <energy>
    <i name="e_fr_energy">   -825.60553389 </i>
    <i name="e_wo_entrp">   -825.60292551 </i>
    <i name="e_0_energy">   -825.60422970 </i>
   </energy>
  </scstep>
  <scstep>
   <time name="dav">   82.02   82.73</time>
   <time name="total">   89.36   90.13</time>
   <energy>
    <i name="e_fr_energy">   -825.59302386 </i>
    <i name="e_wo_entrp">   -825.59023913 </i>
    <i name="e_0_energy">   -825.59163149 </i>
   </energy>
  </scstep>
  <scstep>
   <time name="dav">   81.59   82.31</time>
   <time name="total">   88.86   89.64</time>
   <energy>
    <i name="e_fr_energy">   -825.59323463 </i>
    <i name="e_wo_entrp">   -825.59038708 </i>
    <i name="e_0_energy">   -825.59181086 </i>
   </energy>
  </scstep>
  <scstep>
   <time name="dav">   82.54   83.26</time>
   <time name="total">   89.80   90.59</time>
   <energy>
    <i name="e_fr_energy">   -825.59249991 </i>
    <i name="e_wo_entrp">   -825.58972944 </i>
    <i name="e_0_energy">   -825.59111468 </i>
   </energy>
  </scstep>
  <scstep>
   <time name="dav">   80.80   81.52</time>
   <time name="total">   88.04   88.81</time>
   <energy>
    <i name="e_fr_energy">   -825.59259954 </i>
    <i name="e_wo_entrp">   -825.58982558 </i>
    <i name="e_0_energy">   -825.59121256 </i>
   </energy>
  </scstep>
  <scstep>
   <time name="dav">   83.22   83.94</time>
   <time name="total">   90.45   91.23</time>
   <energy>
    <i name="e_fr_energy">   -825.59252617 </i>
    <i name="e_wo_entrp">   -825.58975928 </i>
    <i name="e_0_energy">   -825.59114273 </i>
   </energy>
  </scstep>
  <scstep>
   <time name="dav">   78.70   79.38</time>
   <time name="total">   85.94   86.69</time>
   <energy>
    <i name="e_fr_energy">   -825.59253537 </i>
    <i name="e_wo_entrp">   -825.58976578 </i>
    <i name="e_0_energy">   -825.59115058 </i>
   </energy>
  </scstep>
  <scstep>
   <time name="dav">   79.85   80.54</time>
   <time name="total">   87.16   87.91</time>
   <energy>
    <i name="e_fr_energy">   -825.59254138 </i>
    <i name="e_wo_entrp">   -825.58977166 </i>
    <i name="e_0_energy">   -825.59115652 </i>
   </energy>
  </scstep>
  <scstep>
   <time name="dav">   80.01   80.72</time>
   <time name="total">   87.31   88.08</time>
   <energy>
    <i name="e_fr_energy">   -825.59254053 </i>
    <i name="e_wo_entrp">   -825.58977227 </i>
    <i name="e_0_energy">   -825.59115640 </i>
   </energy>
  </scstep>
  <scstep>
   <time name="dav">   80.22   80.92</time>
   <time name="total">   87.51   88.27</time>
   <energy>
    <i name="e_fr_energy">   -825.59254082 </i>
    <i name="e_wo_entrp">   -825.58977236 </i>
    <i name="e_0_energy">   -825.59115659 </i>
   </energy>
  </scstep>
  <scstep>
   <time name="dav">   70.12   70.73</time>
   <time name="total">   77.43   78.10</time>
   <energy>
    <i name="e_fr_energy">   -825.59254140 </i>
    <i name="e_wo_entrp">   -825.58977263 </i>
    <i name="e_0_energy">   -825.59115701 </i>
   </energy>
  </scstep>
  <scstep>
   <time name="dav">   53.08   53.54</time>
   <time name="total">   55.37   55.85</time>
   <energy>
    <i name="alphaZ">    818.24582278 </i>
    <i name="ewald">  -9952.92343339 </i>
    <i name="hartreedc">  -1612.36478105 </i>
    <i name="XCdc">   -707.10961496 </i>
    <i name="pawpsdc">  36706.56704424 </i>
    <i name="pawaedc"> -35366.92351493 </i>
    <i name="eentropy">     -0.00276870 </i>
    <i name="bandstr">   -790.68864182 </i>
    <i name="atom">  10079.60734648 </i>
    <i name="e_fr_energy">   -825.59254135 </i>
    <i name="e_wo_entrp">   -825.58977265 </i>
    <i name="e_0_energy">   -825.59115700 </i>
   </energy>
  </scstep>
  <structure>
   <crystal>
    <varray name="basis" >
     <v>      17.89153480       0.00000000       0.00000000 </v>
     <v>     -16.10238075       7.79873943       0.00000000 </v>
     <v>       0.00000032      -0.00000007      15.42839623 </v>
    </varray>
    <i name="volume">   2152.74600275 </i>
    <varray name="rec_basis" >
     <v>       0.05589235       0.11540326      -0.00000000 </v>
     <v>       0.00000000       0.12822585       0.00000000 </v>
     <v>       0.00000000       0.00000000       0.06481555 </v>
    </varray>
   </crystal>
   <varray name="positions" >
    <v>       0.15054882       0.50113666       0.68929231 </v>
    <v>       0.02281332       0.97718668       0.00000001 </v>
    <v>       0.18070815       0.81929183       0.08412989 </v>
    <v>       0.33860299       0.66139698       0.16825977 </v>
    <v>       0.49649781       0.50350219       0.25238964 </v>
    <v>       0.65439260       0.34560740       0.33651954 </v>
    <v>       0.54528517       0.60640013       0.49999991 </v>
    <v>       0.31228706       0.68771291       0.02103250 </v>
    <v>       0.47018188       0.52981806       0.10516236 </v>
    <v>       0.62807673       0.37192327       0.18929227 </v>
    <v>       0.78597158       0.21402840       0.27342215 </v>
    <v>       0.83475923       0.81692636       0.52103269 </v>
    <v>       0.31228733       0.68771261       0.42064938 </v>
    <v>       0.52281326       0.47718665       0.00000000 </v>
    <v>       0.68070811       0.31929183       0.08412988 </v>
    <v>       0.83860296       0.16139701       0.16825974 </v>
    <v>       0.99649781       0.00350215       0.25238961 </v>
    <v>       0.15439260       0.84560740       0.33651954 </v>
    <v>       0.86107475       0.29061043       0.66825974 </v>
    <v>       0.81228709       0.18771291       0.02103265 </v>
    <v>       0.97018182       0.02981813       0.10516248 </v>
    <v>       0.12807667       0.87192327       0.18929242 </v>
    <v>       0.54528517       0.60640013       0.49999991 </v>
    <v>       0.44386637       0.55613363       0.35755214 </v>
    <v>       0.20318002       0.94850528       0.58412981 </v>
    <v>       0.52281326       0.97718668       0.00000001 </v>
    <v>       0.68070811       0.81929189       0.08412988 </v>
    <v>       0.83860296       0.66139704       0.16825974 </v>
    <v>       0.33475897       0.81692636       0.52103245 </v>
    <v>       0.15439260       0.34560740       0.33651954 </v>
    <v>       0.54528517       0.10640013       0.49999991 </v>
    <v>       0.81228727       0.68771285       0.02103262 </v>
    <v>       0.97018212       0.52981806       0.10516250 </v>
    <v>       0.12807691       0.37192324       0.18929234 </v>
    <v>       0.28597176       0.21402839       0.27342227 </v>
    <v>       0.44386673       0.05613352       0.35755211 </v>
    <v>       0.65054852       0.00113666       0.68929243 </v>
    <v>       0.02281339       0.47718665       0.00000001 </v>
    <v>       0.18070820       0.31929183       0.08412987 </v>
    <v>       0.33860305       0.16139698       0.16825977 </v>
    <v>       0.33475897       0.31692636       0.52103269 </v>
    <v>       0.65439266       0.84560734       0.33651954 </v>
    <v>       0.33475897       0.31692636       0.52103269 </v>
    <v>       0.31228706       0.18771288       0.02103263 </v>
    <v>       0.47018188       0.02981809       0.10516250 </v>
    <v>       0.62807673       0.87192327       0.18929240 </v>
    <v>       0.78597152       0.71402842       0.27342227 </v>
    <v>       0.94386637       0.55613351       0.35755214 </v>
    <v>       0.83475912       0.31692603       0.92064941 </v>
    <v>       0.60176122       0.39823884       0.44168201 </v>
    <v>       0.31228745       0.18771249       0.42064944 </v>
    <v>       0.36107481       0.79061043       0.66825974 </v>
    <v>       0.51896960       0.63271558       0.75238955 </v>
    <v>       0.67686439       0.47482076       0.83651948 </v>
    <v>       0.12423290       0.02745223       0.94168186 </v>
    <v>       0.99649775       0.50350225       0.25238961 </v>
    <v>       0.49265373       0.65903163       0.60516226 </v>
    <v>       0.65054852       0.50113666       0.68929219 </v>
    <v>       0.80844337       0.34324187       0.77342212 </v>
    <v>       0.96633816       0.18534698       0.85755205 </v>
    <v>       0.33475900       0.81692600       0.92064941 </v>
    <v>       0.28597152       0.71402836       0.27342227 </v>
    <v>       0.70317996       0.44850531       0.58412981 </v>
    <v>       0.60176122       0.39823884       0.44168201 </v>
    <v>       0.01896954       0.13271561       0.75238955 </v>
    <v>       0.17686427       0.97482073       0.83651948 </v>
    <v>       0.62423289       0.52745223       0.94168198 </v>
    <v>       0.83475894       0.31692642       0.52103269 </v>
    <v>       0.99265367       0.15903155       0.60516250 </v>
    <v>       0.15054858       0.00113678       0.68929231 </v>
    <v>       0.30844331       0.84324193       0.77342236 </v>
    <v>       0.46633816       0.68534696       0.85755205 </v>
    <v>       0.83475918       0.81692588       0.92064929 </v>
    <v>       0.81228751       0.68771249       0.42064941 </v>
    <v>       0.20318006       0.44850528       0.58412981 </v>
    <v>       0.36107486       0.29061043       0.66825974 </v>
    <v>       0.51896965       0.13271561       0.75238955 </v>
    <v>       0.67686444       0.97482073       0.83651948 </v>
    <v>       0.12423290       0.52745211       0.94168198 </v>
    <v>       0.49649784       0.00350219       0.25238961 </v>
    <v>       0.49265376       0.15903155       0.60516250 </v>
    <v>       0.81228751       0.68771249       0.42064941 </v>
    <v>       0.80844331       0.84324193       0.77342212 </v>
    <v>       0.96633810       0.68534696       0.85755205 </v>
    <v>       0.33475912       0.31692597       0.92064929 </v>
    <v>       0.60176146       0.89823872       0.44168198 </v>
    <v>       0.70317996       0.94850528       0.58412981 </v>
    <v>       0.86107475       0.79061043       0.66825974 </v>
    <v>       0.01896954       0.63271570       0.75238955 </v>
    <v>       0.17686427       0.47482082       0.83651948 </v>
    <v>       0.62423313       0.02745211       0.94168198 </v>
    <v>       0.94386643       0.05613355       0.35755202 </v>
    <v>       0.99265397       0.65903151       0.60516250 </v>
    <v>       0.81228745       0.18771255       0.42064941 </v>
    <v>       0.30844355       0.34324184       0.77342212 </v>
    <v>       0.46633840       0.18534695       0.85755205 </v>
   </varray>
  </structure>
  <varray name="forces" >
   <v>      -0.00083623       0.09564903      -0.08922732 </v>
   <v>     -55.34301570     -16.26446003      59.44597687 </v>
   <v>      -0.15614667      -0.11012551      -0.80693197 </v>
   <v>      -0.05765809      -0.16362738       0.07084976 </v>
   <v>       0.13406057      -0.12570715       0.09631428 </v>
   <v>       1.21524457      -0.52697743      -1.12590671 </v>
   <v>      -0.46229271       1.27766912      -0.36696910 </v>
   <v>       8.25246439       7.53863672       9.50488127 </v>
   <v>      -0.24801938       0.39576632       0.30639045 </v>
   <v>       0.06920747       0.06800656      -0.33644753 </v>
   <v>       0.25566997       0.12679804       0.24571880 </v>
   <v>      -0.00866000       2.46126138       0.64710504 </v>
   <v>      -0.00617734      -0.61262374       0.64844893 </v>
   <v>     -55.33017284     -16.24921578      59.48235095 </v>
   <v>      -0.23136735      -0.14237597      -0.89183896 </v>
   <v>      -0.01894243      -0.23636441       0.24206651 </v>
   <v>      -0.08237593       0.27123829       0.24603877 </v>
   <v>      -0.55126063      -0.00555278       0.64859021 </v>
   <v>      -0.04246150      -0.02194707      -0.00967106 </v>
   <v>       8.30097350       7.57644384       9.46006227 </v>
   <v>      -0.34999032       0.24861505       0.38390413 </v>
   <v>       0.11557134       0.10595803      -0.11126662 </v>
   <v>      -0.46229271       1.27766912      -0.36696910 </v>
   <v>      -0.80947633      -0.08612146      -1.49646298 </v>
   <v>      -0.25429787       0.12426791      -0.74113888 </v>
   <v>     -55.39430722     -16.19809141      59.58421623 </v>
   <v>      -0.22151148      -0.09276684      -0.97007425 </v>
   <v>       0.11931350      -0.28250723       0.20979179 </v>
   <v>      -0.09637065      -0.34406461       0.20924067 </v>
   <v>      -0.68682676      -0.26167367       0.52975544 </v>
   <v>      -0.05364816      -0.44758846       0.05963142 </v>
   <v>       8.45739867       7.67280256       9.47643672 </v>
   <v>      -0.25909423       0.36565515       0.41280564 </v>
   <v>       0.04600133       0.06517939      -0.12922314 </v>
   <v>      -0.27055139      -0.10489217      -0.23822802 </v>
   <v>       0.05364663       0.07661700      -0.13555351 </v>
   <v>      -0.11921651      -0.09078421      -0.08804266 </v>
   <v>     -55.35489079     -16.19658715      59.50296722 </v>
   <v>      -0.18712256      -0.15776665      -0.80084776 </v>
   <v>      -0.05269737      -0.18264776       0.17840386 </v>
   <v>       0.01984309      -1.81804828      -0.00898445 </v>
   <v>       0.16318803       0.19554579      -0.08133067 </v>
   <v>       0.01984309      -1.81804828      -0.00898445 </v>
   <v>       8.34741795       7.59367300       9.51689412 </v>
   <v>      -0.27017353       0.31090554       0.34347526 </v>
   <v>       0.06906379       0.02203283      -0.22605744 </v>
   <v>      -0.62318586       0.30456181      -1.32115763 </v>
   <v>       0.45197989       0.14520054       0.92966673 </v>
   <v>      -8.25246439      -7.53863672      -9.50488127 </v>
   <v>       0.46229271      -1.27766912       0.36696910 </v>
   <v>       0.00866000      -2.46126138      -0.64710504 </v>
   <v>      -0.25566997      -0.12679804      -0.24571880 </v>
   <v>      -0.06920747      -0.06800656       0.33644753 </v>
   <v>       0.24801938      -0.39576632      -0.30639045 </v>
   <v>      55.34301570      16.26446003     -59.44597687 </v>
   <v>       0.00083623      -0.09564903       0.08922732 </v>
   <v>      -1.21524457       0.52697743       1.12590671 </v>
   <v>      -0.13406057       0.12570715      -0.09631428 </v>
   <v>       0.05765809       0.16362738      -0.07084976 </v>
   <v>       0.15614667       0.11012551       0.80693197 </v>
   <v>      -8.30097350      -7.57644384      -9.46006227 </v>
   <v>       0.04246150       0.02194707       0.00967106 </v>
   <v>       0.80947633       0.08612146       1.49646298 </v>
   <v>       0.46229271      -1.27766912       0.36696910 </v>
   <v>      -0.11557134      -0.10595803       0.11126662 </v>
   <v>       0.34999032      -0.24861505      -0.38390413 </v>
   <v>      55.33017284      16.24921578     -59.48235095 </v>
   <v>       0.00617734       0.61262374      -0.64844893 </v>
   <v>       0.55126063       0.00555278      -0.64859021 </v>
   <v>       0.08237593      -0.27123829      -0.24603877 </v>
   <v>       0.01894243       0.23636441      -0.24206651 </v>
   <v>       0.23136735       0.14237597       0.89183896 </v>
   <v>      -8.34741795      -7.59367300      -9.51689412 </v>
   <v>      -0.01984309       1.81804828       0.00898445 </v>
   <v>      -0.45197989      -0.14520054      -0.92966673 </v>
   <v>       0.62318586      -0.30456181       1.32115763 </v>
   <v>      -0.06906379      -0.02203283       0.22605744 </v>
   <v>       0.27017353      -0.31090554      -0.34347526 </v>
   <v>      55.35489079      16.19658715     -59.50296722 </v>
   <v>       0.11921651       0.09078421       0.08804266 </v>
   <v>      -0.16318803      -0.19554579       0.08133067 </v>
   <v>      -0.01984309       1.81804828       0.00898445 </v>
   <v>       0.05269737       0.18264776      -0.17840386 </v>
   <v>       0.18712256       0.15776665       0.80084776 </v>
   <v>      -8.45739867      -7.67280256      -9.47643672 </v>
   <v>       0.05364816       0.44758846      -0.05963142 </v>
   <v>      -0.05364663      -0.07661700       0.13555351 </v>
   <v>       0.27055139       0.10489217       0.23822802 </v>
   <v>      -0.04600133      -0.06517939       0.12922314 </v>
   <v>       0.25909423      -0.36565515      -0.41280564 </v>
   <v>      55.39430722      16.19809141     -59.58421623 </v>
   <v>       0.25429787      -0.12426791       0.74113888 </v>
   <v>       0.68682676       0.26167367      -0.52975544 </v>
   <v>       0.09637065       0.34406461      -0.20924067 </v>
   <v>      -0.11931350       0.28250723      -0.20979179 </v>
   <v>       0.22151148       0.09276684       0.97007425 </v>
  </varray>
  <varray name="stress" >
   <v>     268.68547230     103.56219333    -105.56484674 </v>
   <v>     103.56210988     183.41641458     -11.37017480 </v>
   <v>    -105.56494984     -11.37029189     264.97247764 </v>
  </varray>
  <energy>
   <i name="e_fr_energy">   -825.59254135 </i>
   <i name="e_wo_entrp">   -825.58977265 </i>
   <i name="e_0_energy">   -825.59115700 </i>
  </energy>
  <time name="totalsc"> 2212.94 2233.52</time>
  <eigenvalues>
   <array>
    <dimension dim="1">band</dimension>
    <dimension dim="2">kpoint</dimension>
    <dimension dim="3">spin</dimension>
    <field>eigene</field>
    <field>occ</field>
    <set>
     <set comment="spin 1">
      <set comment="kpoint 1">
       <r>  -13.4507    1.0000 </r>
       <r>  -13.3881    1.0000 </r>
       <r>  -11.8275    1.0000 </r>
       <r>  -11.7613    1.0000 </r>
       <r>  -10.1110    1.0000 </r>
       <r>  -10.0543    1.0000 </r>
       <r>   -9.3600    1.0000 </r>
       <r>   -8.8331    1.0000 </r>
       <r>   -8.5590    1.0000 </r>
       <r>   -8.4296    1.0000 </r>
       <r>   -8.1760    1.0000 </r>
       <r>   -8.1274    1.0000 </r>
       <r>   -8.0909    1.0000 </r>
       <r>   -8.0289    1.0000 </r>
       <r>   -7.7573    1.0000 </r>
       <r>   -7.6718    1.0000 </r>
       <r>   -7.6524    1.0000 </r>
       <r>   -7.5378    1.0000 </r>
       <r>   -7.4481    1.0000 </r>
       <r>   -7.2983    1.0000 </r>
       <r>   -7.2460    1.0000 </r>
       <r>   -7.1710    1.0000 </r>
       <r>   -7.1209    1.0000 </r>
       <r>   -6.9627    1.0000 </r>
       <r>   -6.8161    1.0000 </r>
       <r>   -6.7645    1.0000 </r>
       <r>   -6.7126    1.0000 </r>
       <r>   -6.6475    1.0000 </r>
       <r>   -6.6238    1.0000 </r>
       <r>   -6.5907    1.0000 </r>
       <r>   -6.5268    1.0000 </r>
       <r>   -6.4857    1.0000 </r>
       <r>   -6.4765    1.0000 </r>
       <r>   -6.4658    1.0000 </r>
       <r>   -6.4042    1.0000 </r>
       <r>   -6.3765    1.0000 </r>
       <r>   -6.3484    1.0000 </r>
       <r>   -6.2742    1.0000 </r>
       <r>   -6.2548    1.0000 </r>
       <r>   -6.0690    1.0000 </r>
       <r>   -5.9308    1.0000 </r>
       <r>   -5.9247    1.0000 </r>
       <r>   -5.6575    1.0000 </r>
       <r>   -5.5925    1.0000 </r>
       <r>   -5.3952    1.0000 </r>
       <r>   -5.3524    1.0000 </r>
       <r>   -5.3356    1.0000 </r>
       <r>   -5.3326    1.0000 </r>
       <r>   -5.1565    1.0000 </r>
       <r>   -5.1361    1.0000 </r>
       <r>   -4.9849    1.0000 </r>
       <r>   -4.9613    1.0000 </r>
       <r>   -4.8104    1.0000 </r>
       <r>   -4.7579    1.0000 </r>
       <r>   -4.6471    1.0000 </r>
       <r>   -4.5974    1.0000 </r>
       <r>   -4.4910    1.0000 </r>
       <r>   -4.3979    1.0000 </r>
       <r>   -4.2832    1.0000 </r>
       <r>   -4.2758    1.0000 </r>
       <r>   -4.1237    1.0000 </r>
       <r>   -4.0312    1.0000 </r>
       <r>   -3.9952    1.0000 </r>
       <r>   -3.9267    1.0000 </r>
       <r>   -3.8353    1.0000 </r>
       <r>   -3.7853    1.0000 </r>
       <r>   -3.7600    1.0000 </r>
       <r>   -3.6642    1.0000 </r>
       <r>   -3.6203    1.0000 </r>
       <r>   -3.5856    1.0000 </r>
       <r>   -3.5781    1.0000 </r>
       <r>   -3.4673    1.0000 </r>
       <r>   -3.4157    1.0000 </r>
       <r>   -3.4136    1.0000 </r>
       <r>   -3.3015    1.0000 </r>
       <r>   -3.2583    1.0000 </r>
       <r>   -3.1824    1.0000 </r>
       <r>   -3.1775    1.0000 </r>
       <r>   -3.0745    1.0000 </r>
       <r>   -3.0314    1.0000 </r>
       <r>   -3.0025    1.0000 </r>
       <r>   -2.9695    1.0000 </r>
       <r>   -2.8661    1.0000 </r>
       <r>   -2.7524    1.0000 </r>
       <r>   -2.6214    1.0000 </r>
       <r>   -2.5558    1.0000 </r>
       <r>   -2.4798    1.0000 </r>
       <r>   -2.3960    1.0000 </r>
       <r>   -2.2250    1.0000 </r>
       <r>   -2.2233    1.0000 </r>
       <r>   -2.1138    1.0000 </r>
       <r>   -1.9916    1.0000 </r>
       <r>   -1.9673    1.0000 </r>
       <r>   -1.9083    1.0000 </r>
       <r>   -1.8313    1.0000 </r>
       <r>   -1.7625    1.0000 </r>
       <r>   -1.5865    1.0000 </r>
       <r>   -1.4923    1.0000 </r>
       <r>   -1.3487    1.0000 </r>
       <r>   -1.0176    1.0000 </r>
       <r>   -0.9771    1.0000 </r>
       <r>   -0.9217    1.0000 </r>
       <r>   -0.6658    1.0000 </r>
       <r>   -0.6126    1.0000 </r>
       <r>   -0.4927    1.0000 </r>
       <r>   -0.4092    1.0000 </r>
       <r>   -0.3787    1.0000 </r>
       <r>   -0.2537    1.0000 </r>
       <r>   -0.1043    1.0000 </r>
       <r>   -0.0948    1.0000 </r>
       <r>   -0.0188    1.0000 </r>
       <r>    0.1357    1.0000 </r>
       <r>    0.2114    1.0000 </r>
       <r>    0.2556    1.0000 </r>
       <r>    0.2580    1.0000 </r>
       <r>    0.3522    1.0000 </r>
       <r>    0.4022    1.0000 </r>
       <r>    0.4167    1.0000 </r>
       <r>    0.4577    1.0000 </r>
       <r>    0.4638    1.0000 </r>
       <r>    0.4941    1.0000 </r>
       <r>    0.5550    1.0000 </r>
       <r>    0.5895    1.0000 </r>
       <r>    0.6020    1.0000 </r>
       <r>    0.6283    1.0000 </r>
       <r>    0.6624    1.0000 </r>
       <r>    0.7563    1.0000 </r>
       <r>    0.7686    1.0000 </r>
       <r>    0.8160    1.0000 </r>
       <r>    0.8516    1.0000 </r>
       <r>    0.8658    1.0000 </r>
       <r>    0.8687    1.0000 </r>
       <r>    0.9637    1.0000 </r>
       <r>    0.9876    1.0000 </r>
       <r>    0.9954    1.0000 </r>
       <r>    1.0869    1.0000 </r>
       <r>    1.1413    1.0000 </r>
       <r>    1.1536    1.0000 </r>
       <r>    1.2013    1.0000 </r>
       <r>    1.2489    1.0000 </r>
       <r>    1.2744    1.0000 </r>
       <r>    1.2974    1.0000 </r>
       <r>    1.3602    1.0000 </r>
       <r>    1.3984    1.0000 </r>
       <r>    1.4266    1.0000 </r>
       <r>    1.4665    1.0000 </r>
       <r>    1.4933    1.0000 </r>
       <r>    1.5297    1.0000 </r>
       <r>    1.5548    1.0000 </r>
       <r>    1.5975    1.0000 </r>
       <r>    1.6083    1.0000 </r>
       <r>    1.6408    1.0000 </r>
       <r>    1.7074    1.0000 </r>
       <r>    1.7323    1.0000 </r>
       <r>    1.8336    1.0000 </r>
       <r>    1.8469    1.0000 </r>
       <r>    1.9625    1.0000 </r>
       <r>    1.9975    1.0000 </r>
       <r>    2.1457    1.0000 </r>
       <r>    2.1596    1.0000 </r>
       <r>    2.1945    1.0000 </r>
       <r>    2.2339    1.0000 </r>
       <r>    2.2703    1.0000 </r>
       <r>    2.2904    1.0000 </r>
       <r>    2.3786    1.0000 </r>
       <r>    2.3866    1.0000 </r>
       <r>    2.4203    1.0000 </r>
       <r>    2.4484    1.0000 </r>
       <r>    2.4893    1.0000 </r>
       <r>    2.5062    1.0000 </r>
       <r>    2.5654    1.0000 </r>
       <r>    2.5778    1.0000 </r>
       <r>    2.7750    1.0000 </r>
       <r>    2.7906    1.0000 </r>
       <r>    2.8453    1.0000 </r>
       <r>    2.8581    1.0000 </r>
       <r>    2.8830    1.0000 </r>
       <r>    2.9873    1.0000 </r>
       <r>    3.0115    1.0000 </r>
       <r>    3.0469    1.0000 </r>
       <r>    3.1102    1.0000 </r>
       <r>    3.1645    1.0000 </r>
       <r>    3.2166    1.0000 </r>
       <r>    3.2345    1.0000 </r>
       <r>    3.3376    1.0000 </r>
       <r>    3.3419    1.0000 </r>
       <r>    3.3806    1.0000 </r>
       <r>    3.4130    1.0000 </r>
       <r>    3.4908    1.0000 </r>
       <r>    3.5083    1.0000 </r>
       <r>    3.5956    1.0000 </r>
       <r>    3.6072    1.0000 </r>
       <r>    3.7036    0.5454 </r>
       <r>    3.7811    0.0000 </r>
       <r>    3.8260    0.0000 </r>
       <r>    3.9109    0.0000 </r>
       <r>    3.9624    0.0000 </r>
       <r>    3.9878    0.0000 </r>
       <r>    4.0668    0.0000 </r>
       <r>    4.0822    0.0000 </r>
       <r>    4.1681    0.0000 </r>
       <r>    4.2402    0.0000 </r>
       <r>    4.2639    0.0000 </r>
       <r>    4.3688    0.0000 </r>
       <r>    4.3785    0.0000 </r>
       <r>    4.4163    0.0000 </r>
       <r>    4.4980    0.0000 </r>
       <r>    4.5408    0.0000 </r>
       <r>    4.5552    0.0000 </r>
       <r>    4.6611    0.0000 </r>
       <r>    4.7297    0.0000 </r>
       <r>    4.8381    0.0000 </r>
       <r>    4.8431    0.0000 </r>
       <r>    4.8926    0.0000 </r>
       <r>    4.9448    0.0000 </r>
       <r>    4.9523    0.0000 </r>
       <r>    4.9899    0.0000 </r>
       <r>    5.0041    0.0000 </r>
       <r>    5.0183    0.0000 </r>
       <r>    5.1165    0.0000 </r>
       <r>    5.1234    0.0000 </r>
       <r>    5.1639    0.0000 </r>
       <r>    5.2197    0.0000 </r>
       <r>    5.2241    0.0000 </r>
       <r>    5.2790    0.0000 </r>
       <r>    5.3214    0.0000 </r>
       <r>    5.3376    0.0000 </r>
       <r>    5.4202    0.0000 </r>
       <r>    5.4226    0.0000 </r>
       <r>    5.4696    0.0000 </r>
       <r>    5.4935    0.0000 </r>
       <r>    5.5646    0.0000 </r>
      </set>
      <set comment="kpoint 2">
       <r>  -13.3104    1.0000 </r>
       <r>  -13.2477    1.0000 </r>
       <r>  -12.2790    1.0000 </r>
       <r>  -12.2148    1.0000 </r>
       <r>   -9.4357    1.0000 </r>
       <r>   -9.3765    1.0000 </r>
       <r>   -9.3319    1.0000 </r>
       <r>   -8.8080    1.0000 </r>
       <r>   -8.4495    1.0000 </r>
       <r>   -8.3334    1.0000 </r>
       <r>   -8.1351    1.0000 </r>
       <r>   -8.0876    1.0000 </r>
       <r>   -8.0338    1.0000 </r>
       <r>   -7.9043    1.0000 </r>
       <r>   -7.7527    1.0000 </r>
       <r>   -7.6919    1.0000 </r>
       <r>   -7.6367    1.0000 </r>
       <r>   -7.5518    1.0000 </r>
       <r>   -7.5314    1.0000 </r>
       <r>   -7.4352    1.0000 </r>
       <r>   -7.2724    1.0000 </r>
       <r>   -7.1824    1.0000 </r>
       <r>   -7.1481    1.0000 </r>
       <r>   -7.0697    1.0000 </r>
       <r>   -7.0281    1.0000 </r>
       <r>   -6.9989    1.0000 </r>
       <r>   -6.9822    1.0000 </r>
       <r>   -6.9014    1.0000 </r>
       <r>   -6.7888    1.0000 </r>
       <r>   -6.7673    1.0000 </r>
       <r>   -6.6874    1.0000 </r>
       <r>   -6.6144    1.0000 </r>
       <r>   -6.5190    1.0000 </r>
       <r>   -6.5070    1.0000 </r>
       <r>   -6.4305    1.0000 </r>
       <r>   -6.3353    1.0000 </r>
       <r>   -6.2534    1.0000 </r>
       <r>   -6.1341    1.0000 </r>
       <r>   -6.0799    1.0000 </r>
       <r>   -6.0618    1.0000 </r>
       <r>   -5.9897    1.0000 </r>
       <r>   -5.8884    1.0000 </r>
       <r>   -5.8417    1.0000 </r>
       <r>   -5.7808    1.0000 </r>
       <r>   -5.7100    1.0000 </r>
       <r>   -5.5820    1.0000 </r>
       <r>   -5.4003    1.0000 </r>
       <r>   -5.2868    1.0000 </r>
       <r>   -5.2022    1.0000 </r>
       <r>   -5.0782    1.0000 </r>
       <r>   -5.0069    1.0000 </r>
       <r>   -4.9379    1.0000 </r>
       <r>   -4.8853    1.0000 </r>
       <r>   -4.7581    1.0000 </r>
       <r>   -4.6262    1.0000 </r>
       <r>   -4.5183    1.0000 </r>
       <r>   -4.4155    1.0000 </r>
       <r>   -4.4129    1.0000 </r>
       <r>   -4.3262    1.0000 </r>
       <r>   -4.2478    1.0000 </r>
       <r>   -4.1443    1.0000 </r>
       <r>   -4.1292    1.0000 </r>
       <r>   -4.0377    1.0000 </r>
       <r>   -3.9983    1.0000 </r>
       <r>   -3.9382    1.0000 </r>
       <r>   -3.8769    1.0000 </r>
       <r>   -3.8106    1.0000 </r>
       <r>   -3.7274    1.0000 </r>
       <r>   -3.6125    1.0000 </r>
       <r>   -3.6013    1.0000 </r>
       <r>   -3.5206    1.0000 </r>
       <r>   -3.4589    1.0000 </r>
       <r>   -3.4142    1.0000 </r>
       <r>   -3.3856    1.0000 </r>
       <r>   -3.2269    1.0000 </r>
       <r>   -3.1769    1.0000 </r>
       <r>   -3.0336    1.0000 </r>
       <r>   -2.9997    1.0000 </r>
       <r>   -2.8400    1.0000 </r>
       <r>   -2.7836    1.0000 </r>
       <r>   -2.6743    1.0000 </r>
       <r>   -2.6216    1.0000 </r>
       <r>   -2.5514    1.0000 </r>
       <r>   -2.5213    1.0000 </r>
       <r>   -2.3754    1.0000 </r>
       <r>   -2.3316    1.0000 </r>
       <r>   -2.2071    1.0000 </r>
       <r>   -2.1875    1.0000 </r>
       <r>   -2.1155    1.0000 </r>
       <r>   -2.0744    1.0000 </r>
       <r>   -1.9529    1.0000 </r>
       <r>   -1.9103    1.0000 </r>
       <r>   -1.7997    1.0000 </r>
       <r>   -1.7113    1.0000 </r>
       <r>   -1.6631    1.0000 </r>
       <r>   -1.5689    1.0000 </r>
       <r>   -1.3648    1.0000 </r>
       <r>   -1.1493    1.0000 </r>
       <r>   -0.9773    1.0000 </r>
       <r>   -0.9499    1.0000 </r>
       <r>   -0.8357    1.0000 </r>
       <r>   -0.6508    1.0000 </r>
       <r>   -0.6291    1.0000 </r>
       <r>   -0.5304    1.0000 </r>
       <r>   -0.5088    1.0000 </r>
       <r>   -0.4626    1.0000 </r>
       <r>   -0.3062    1.0000 </r>
       <r>   -0.2883    1.0000 </r>
       <r>   -0.2559    1.0000 </r>
       <r>   -0.1229    1.0000 </r>
       <r>   -0.0819    1.0000 </r>
       <r>   -0.0640    1.0000 </r>
       <r>   -0.0169    1.0000 </r>
       <r>    0.0463    1.0000 </r>
       <r>    0.0667    1.0000 </r>
       <r>    0.1117    1.0000 </r>
       <r>    0.1915    1.0000 </r>
       <r>    0.2751    1.0000 </r>
       <r>    0.3309    1.0000 </r>
       <r>    0.3506    1.0000 </r>
       <r>    0.3752    1.0000 </r>
       <r>    0.3811    1.0000 </r>
       <r>    0.4946    1.0000 </r>
       <r>    0.5105    1.0000 </r>
       <r>    0.6236    1.0000 </r>
       <r>    0.6457    1.0000 </r>
       <r>    0.6853    1.0000 </r>
       <r>    0.7227    1.0000 </r>
       <r>    0.7552    1.0000 </r>
       <r>    0.7614    1.0000 </r>
       <r>    0.8226    1.0000 </r>
       <r>    0.8334    1.0000 </r>
       <r>    0.9146    1.0000 </r>
       <r>    0.9243    1.0000 </r>
       <r>    0.9467    1.0000 </r>
       <r>    0.9727    1.0000 </r>
       <r>    0.9776    1.0000 </r>
       <r>    1.0274    1.0000 </r>
       <r>    1.0370    1.0000 </r>
       <r>    1.1175    1.0000 </r>
       <r>    1.1297    1.0000 </r>
       <r>    1.1563    1.0000 </r>
       <r>    1.1742    1.0000 </r>
       <r>    1.1926    1.0000 </r>
       <r>    1.2263    1.0000 </r>
       <r>    1.2758    1.0000 </r>
       <r>    1.3102    1.0000 </r>
       <r>    1.4071    1.0000 </r>
       <r>    1.4182    1.0000 </r>
       <r>    1.4516    1.0000 </r>
       <r>    1.4917    1.0000 </r>
       <r>    1.5239    1.0000 </r>
       <r>    1.5495    1.0000 </r>
       <r>    1.5665    1.0000 </r>
       <r>    1.5946    1.0000 </r>
       <r>    1.6238    1.0000 </r>
       <r>    1.6855    1.0000 </r>
       <r>    1.7647    1.0000 </r>
       <r>    1.7892    1.0000 </r>
       <r>    1.8347    1.0000 </r>
       <r>    1.8764    1.0000 </r>
       <r>    1.9060    1.0000 </r>
       <r>    1.9581    1.0000 </r>
       <r>    1.9942    1.0000 </r>
       <r>    2.1686    1.0000 </r>
       <r>    2.1777    1.0000 </r>
       <r>    2.2512    1.0000 </r>
       <r>    2.2866    1.0000 </r>
       <r>    2.3475    1.0000 </r>
       <r>    2.3847    1.0000 </r>
       <r>    2.4120    1.0000 </r>
       <r>    2.5524    1.0000 </r>
       <r>    2.5699    1.0000 </r>
       <r>    2.6608    1.0000 </r>
       <r>    2.6993    1.0000 </r>
       <r>    2.8149    1.0000 </r>
       <r>    2.8458    1.0000 </r>
       <r>    2.9045    1.0000 </r>
       <r>    2.9773    1.0000 </r>
       <r>    3.0369    1.0000 </r>
       <r>    3.1007    1.0000 </r>
       <r>    3.1399    1.0000 </r>
       <r>    3.1665    1.0000 </r>
       <r>    3.2281    1.0000 </r>
       <r>    3.2736    1.0000 </r>
       <r>    3.3738    1.0000 </r>
       <r>    3.4039    1.0000 </r>
       <r>    3.4781    1.0000 </r>
       <r>    3.5088    1.0000 </r>
       <r>    3.5324    1.0000 </r>
       <r>    3.6392    1.0000 </r>
       <r>    3.6896    0.9814 </r>
       <r>    3.7175    0.0318 </r>
       <r>    3.7315    0.0001 </r>
       <r>    3.7852    0.0000 </r>
       <r>    3.8659    0.0000 </r>
       <r>    3.9610    0.0000 </r>
       <r>    4.0462    0.0000 </r>
       <r>    4.0658    0.0000 </r>
       <r>    4.1148    0.0000 </r>
       <r>    4.1392    0.0000 </r>
       <r>    4.1720    0.0000 </r>
       <r>    4.2579    0.0000 </r>
       <r>    4.3410    0.0000 </r>
       <r>    4.3797    0.0000 </r>
       <r>    4.4483    0.0000 </r>
       <r>    4.5077    0.0000 </r>
       <r>    4.5638    0.0000 </r>
       <r>    4.6790    0.0000 </r>
       <r>    4.7306    0.0000 </r>
       <r>    4.8055    0.0000 </r>
       <r>    4.8834    0.0000 </r>
       <r>    5.0050    0.0000 </r>
       <r>    5.1126    0.0000 </r>
       <r>    5.1940    0.0000 </r>
       <r>    5.2181    0.0000 </r>
       <r>    5.2719    0.0000 </r>
       <r>    5.2917    0.0000 </r>
       <r>    5.3589    0.0000 </r>
       <r>    5.4374    0.0000 </r>
       <r>    5.4790    0.0000 </r>
       <r>    5.4974    0.0000 </r>
       <r>    5.5471    0.0000 </r>
       <r>    5.5782    0.0000 </r>
       <r>    5.6180    0.0000 </r>
       <r>    5.6857    0.0000 </r>
       <r>    5.7202    0.0000 </r>
       <r>    5.7689    0.0000 </r>
       <r>    5.7954    0.0000 </r>
       <r>    5.8471    0.0000 </r>
       <r>    5.8923    0.0000 </r>
       <r>    5.9494    0.0000 </r>
      </set>
      <set comment="kpoint 3">
       <r>  -13.3104    1.0000 </r>
       <r>  -13.2477    1.0000 </r>
       <r>  -12.2790    1.0000 </r>
       <r>  -12.2148    1.0000 </r>
       <r>   -9.4357    1.0000 </r>
       <r>   -9.3764    1.0000 </r>
       <r>   -9.3318    1.0000 </r>
       <r>   -8.8100    1.0000 </r>
       <r>   -8.4533    1.0000 </r>
       <r>   -8.3236    1.0000 </r>
       <r>   -8.1204    1.0000 </r>
       <r>   -8.0888    1.0000 </r>
       <r>   -8.0360    1.0000 </r>
       <r>   -7.9208    1.0000 </r>
       <r>   -7.7566    1.0000 </r>
       <r>   -7.7127    1.0000 </r>
       <r>   -7.6305    1.0000 </r>
       <r>   -7.5697    1.0000 </r>
       <r>   -7.4809    1.0000 </r>
       <r>   -7.4490    1.0000 </r>
       <r>   -7.2811    1.0000 </r>
       <r>   -7.1750    1.0000 </r>
       <r>   -7.1489    1.0000 </r>
       <r>   -7.0921    1.0000 </r>
       <r>   -7.0487    1.0000 </r>
       <r>   -6.9926    1.0000 </r>
       <r>   -6.9170    1.0000 </r>
       <r>   -6.8778    1.0000 </r>
       <r>   -6.8207    1.0000 </r>
       <r>   -6.7430    1.0000 </r>
       <r>   -6.6804    1.0000 </r>
       <r>   -6.6032    1.0000 </r>
       <r>   -6.5773    1.0000 </r>
       <r>   -6.5376    1.0000 </r>
       <r>   -6.4426    1.0000 </r>
       <r>   -6.2881    1.0000 </r>
       <r>   -6.2778    1.0000 </r>
       <r>   -6.1434    1.0000 </r>
       <r>   -6.0575    1.0000 </r>
       <r>   -6.0403    1.0000 </r>
       <r>   -5.9886    1.0000 </r>
       <r>   -5.9299    1.0000 </r>
       <r>   -5.8106    1.0000 </r>
       <r>   -5.7962    1.0000 </r>
       <r>   -5.6635    1.0000 </r>
       <r>   -5.5878    1.0000 </r>
       <r>   -5.4088    1.0000 </r>
       <r>   -5.3276    1.0000 </r>
       <r>   -5.2479    1.0000 </r>
       <r>   -5.0650    1.0000 </r>
       <r>   -5.0014    1.0000 </r>
       <r>   -4.9356    1.0000 </r>
       <r>   -4.8800    1.0000 </r>
       <r>   -4.6434    1.0000 </r>
       <r>   -4.6285    1.0000 </r>
       <r>   -4.5897    1.0000 </r>
       <r>   -4.4332    1.0000 </r>
       <r>   -4.3844    1.0000 </r>
       <r>   -4.2819    1.0000 </r>
       <r>   -4.2452    1.0000 </r>
       <r>   -4.1626    1.0000 </r>
       <r>   -4.1229    1.0000 </r>
       <r>   -4.0697    1.0000 </r>
       <r>   -3.9917    1.0000 </r>
       <r>   -3.9658    1.0000 </r>
[...]
       <r>   -12.2073    18.9720     6.5324 </r>
       <r>   -12.1357     6.5295     7.0000 </r>
       <r>   -12.0640     0.0000     7.0000 </r>
       <r>   -11.9924     0.0000     7.0000 </r>
       <r>   -11.9208     0.0000     7.0000 </r>
       <r>   -11.8492     0.0004     7.0000 </r>
       <r>   -11.7776     6.9885     7.5005 </r>
       <r>   -11.7060     6.9758     8.0000 </r>
       <r>   -11.6344     0.0000     8.0000 </r>
       <r>   -11.5628     0.0000     8.0000 </r>
       <r>   -11.4912     0.0000     8.0000 </r>
       <r>   -11.4196     0.0000     8.0000 </r>
       <r>   -11.3479     0.0000     8.0000 </r>
       <r>   -11.2763     0.0000     8.0000 </r>
       <r>   -11.2047     0.0000     8.0000 </r>
       <r>   -11.1331     0.0000     8.0000 </r>
       <r>   -11.0615     0.0000     8.0000 </r>
       <r>   -10.9899     0.0000     8.0000 </r>
       <r>   -10.9183     0.0000     8.0000 </r>
       <r>   -10.8467     0.0000     8.0000 </r>
       <r>   -10.7751     0.0000     8.0000 </r>
       <r>   -10.7035     0.0000     8.0000 </r>
       <r>   -10.6319     0.0000     8.0000 </r>
       <r>   -10.5602     0.0000     8.0000 </r>
       <r>   -10.4886     0.0000     8.0000 </r>
       <r>   -10.4170     0.0000     8.0000 </r>
       <r>   -10.3454     0.0000     8.0000 </r>
       <r>   -10.2738     0.0000     8.0000 </r>
       <r>   -10.2022     0.0000     8.0000 </r>
       <r>   -10.1306     0.0001     8.0000 </r>
       <r>   -10.0590     7.0561     8.5053 </r>
       <r>    -9.9874     6.9084     9.0000 </r>
       <r>    -9.9158     0.0000     9.0000 </r>
       <r>    -9.8441     0.0000     9.0000 </r>
       <r>    -9.7725     0.0000     9.0000 </r>
       <r>    -9.7009     0.0000     9.0000 </r>
       <r>    -9.6293     0.0000     9.0000 </r>
       <r>    -9.5577     0.0000     9.0000 </r>
       <r>    -9.4861     0.0000     9.0000 </r>
       <r>    -9.4145    13.3285     9.9544 </r>
       <r>    -9.3429    18.0197    11.2904 </r>
       <r>    -9.2713    23.6805    12.9866 </r>
       <r>    -9.1997     0.0000    13.0000 </r>
       <r>    -9.1281     0.0000    13.0000 </r>
       <r>    -9.0564     0.0000    13.0000 </r>
       <r>    -8.9848     0.0000    13.0000 </r>
       <r>    -8.9132     0.0000    13.0000 </r>
       <r>    -8.8416     0.1606    13.0115 </r>
       <r>    -8.7700    23.2076    14.6734 </r>
       <r>    -8.6984     4.5305    15.0000 </r>
       <r>    -8.6268     0.0000    15.0000 </r>
       <r>    -8.5552     0.3840    15.0275 </r>
       <r>    -8.4836     6.5755    15.4984 </r>
       <r>    -8.4120     9.6739    16.1930 </r>
       <r>    -8.3403    14.2357    17.2181 </r>
       <r>    -8.2687    28.5682    19.2771 </r>
       <r>    -8.1971    26.7688    21.1949 </r>
       <r>    -8.1255    25.0943    22.9978 </r>
       <r>    -8.0539    20.6416    24.4870 </r>
       <r>    -7.9823    17.0924    25.7110 </r>
       <r>    -7.9107    15.0365    26.7899 </r>
       <r>    -7.8391    17.1210    28.0161 </r>
       <r>    -7.7675    21.3530    29.5555 </r>
       <r>    -7.6959    27.8259    31.5590 </r>
       <r>    -7.6243    32.7960    33.9138 </r>
       <r>    -7.5526    23.7018    35.6204 </r>
       <r>    -7.4810    29.0097    37.7006 </r>
       <r>    -7.4094    28.1200    39.7392 </r>
       <r>    -7.3378    13.9201    40.7410 </r>
       <r>    -7.2662    20.7796    42.2355 </r>
       <r>    -7.1946    27.1706    44.1812 </r>
       <r>    -7.1230    30.1386    46.3498 </r>
       <r>    -7.0514    35.8849    48.9380 </r>
       <r>    -6.9798    29.3522    51.0598 </r>
       <r>    -6.9082    20.8039    52.5684 </r>
       <r>    -6.8365    31.9198    54.8627 </r>
       <r>    -6.7649    32.9890    57.2272 </r>
       <r>    -6.6933    24.9294    59.0217 </r>
       <r>    -6.6217    29.5800    61.1449 </r>
       <r>    -6.5501    34.8029    63.6499 </r>
       <r>    -6.4785    33.9184    66.0818 </r>
       <r>    -6.4069    39.1961    68.8956 </r>
       <r>    -6.3353    31.2359    71.1429 </r>
       <r>    -6.2637    37.9408    73.8723 </r>
       <r>    -6.1921    26.0051    75.7599 </r>
       <r>    -6.1205    28.8358    77.8322 </r>
       <r>    -6.0488    24.1842    79.5790 </r>
       <r>    -5.9772    27.1864    81.5282 </r>
       <r>    -5.9056    31.3342    83.7891 </r>
       <r>    -5.8340    18.6661    85.1394 </r>
       <r>    -5.7624    22.2151    86.7371 </r>
       <r>    -5.6908    16.1669    87.9083 </r>
       <r>    -5.6192    23.9142    89.6275 </r>
       <r>    -5.5476    17.2087    90.8764 </r>
       <r>    -5.4760    16.1816    92.0405 </r>
       <r>    -5.4044    13.9480    93.0533 </r>
       <r>    -5.3327    22.3930    94.6574 </r>
       <r>    -5.2611    19.1414    96.0316 </r>
       <r>    -5.1895    11.7808    96.8780 </r>
       <r>    -5.1179    23.0478    98.5284 </r>
       <r>    -5.0463    16.4081    99.7189 </r>
       <r>    -4.9747    26.6406   101.6432 </r>
       <r>    -4.9031    26.7592   103.5613 </r>
       <r>    -4.8315    15.4803   104.6844 </r>
       <r>    -4.7599    19.8404   106.1083 </r>
       <r>    -4.6883    23.9862   107.8319 </r>
       <r>    -4.6167    25.0067   109.6301 </r>
       <r>    -4.5450    18.8767   111.0078 </r>
       <r>    -4.4734    22.9568   112.6652 </r>
       <r>    -4.4018    23.2989   114.3401 </r>
       <r>    -4.3302    28.1938   116.3679 </r>
       <r>    -4.2586    24.5294   118.1294 </r>
       <r>    -4.1870    24.3758   119.8907 </r>
       <r>    -4.1154    30.4306   122.0698 </r>
       <r>    -4.0438    30.2608   124.2486 </r>
       <r>    -3.9722    29.6213   126.3796 </r>
       <r>    -3.9006    32.3879   128.7221 </r>
       <r>    -3.8289    32.2200   131.0504 </r>
       <r>    -3.7573    30.9119   133.2791 </r>
       <r>    -3.6857    32.5504   135.6181 </r>
       <r>    -3.6141    26.4941   137.5311 </r>
       <r>    -3.5425    24.7502   139.3115 </r>
       <r>    -3.4709    30.3728   141.5079 </r>
       <r>    -3.3993    32.4502   143.8349 </r>
       <r>    -3.3277    27.4818   145.8255 </r>
       <r>    -3.2561    27.0506   147.7776 </r>
       <r>    -3.1845    26.3756   149.6905 </r>
       <r>    -3.1129    35.1095   152.2093 </r>
       <r>    -3.0412    24.1117   153.9383 </r>
       <r>    -2.9696    29.5920   156.0622 </r>
       <r>    -2.8980    22.1439   157.6549 </r>
       <r>    -2.8264    19.5668   159.0581 </r>
       <r>    -2.7548    22.4574   160.6729 </r>
       <r>    -2.6832    23.6083   162.3638 </r>
       <r>    -2.6116    29.0208   164.4666 </r>
       <r>    -2.5400    13.6270   165.4667 </r>
       <r>    -2.4684    21.8177   167.0291 </r>
       <r>    -2.3968    24.1195   168.7586 </r>
       <r>    -2.3251    29.4372   170.8789 </r>
       <r>    -2.2535    19.3741   172.2830 </r>
       <r>    -2.1819    26.9832   174.2156 </r>
       <r>    -2.1103    25.2486   176.0440 </r>
       <r>    -2.0387    31.0279   178.2659 </r>
       <r>    -1.9671    25.2544   180.0806 </r>
       <r>    -1.8955    32.2789   182.3929 </r>
       <r>    -1.8239    20.4718   183.8677 </r>
       <r>    -1.7523    19.1272   185.2487 </r>
       <r>    -1.6807    17.2313   186.4846 </r>
       <r>    -1.6090    24.3953   188.2359 </r>
       <r>    -1.5374    19.8150   189.6638 </r>
       <r>    -1.4658    22.2311   191.2564 </r>
       <r>    -1.3942     7.8385   191.8193 </r>
       <r>    -1.3226    22.3605   193.4353 </r>
       <r>    -1.2510    15.8889   194.5738 </r>
       <r>    -1.1794    14.9206   195.6445 </r>
       <r>    -1.1078    16.2412   196.8123 </r>
       <r>    -1.0362    12.8054   197.7341 </r>
       <r>    -0.9646    21.1133   199.2565 </r>
       <r>    -0.8930    25.1878   201.0623 </r>
       <r>    -0.8213    11.2717   201.8793 </r>
       <r>    -0.7497    16.6007   203.0687 </r>
       <r>    -0.6781    12.2565   203.9473 </r>
       <r>    -0.6065    20.6190   205.4326 </r>
       <r>    -0.5349    27.1067   207.3795 </r>
       <r>    -0.4633    29.7400   209.5157 </r>
       <r>    -0.3917    32.9958   211.8857 </r>
       <r>    -0.3201    33.6406   214.2995 </r>
       <r>    -0.2485    29.3820   216.4344 </r>
       <r>    -0.1769    28.1657   218.4541 </r>
       <r>    -0.1052    30.7606   220.6836 </r>
       <r>    -0.0336    41.8259   223.6900 </r>
       <r>     0.0380    33.0008   226.0644 </r>
       <r>     0.1096    34.6937   228.5590 </r>
       <r>     0.1812    45.4257   231.8136 </r>
       <r>     0.2528    36.4304   234.4392 </r>
       <r>     0.3244    51.9288   238.1964 </r>
       <r>     0.3960    49.9670   241.7862 </r>
       <r>     0.4676    49.3620   245.3390 </r>
       <r>     0.5392    40.3448   248.2732 </r>
       <r>     0.6108    49.5761   251.8356 </r>
       <r>     0.6825    54.5244   255.7563 </r>
       <r>     0.7541    47.4337   259.1676 </r>
       <r>     0.8257    61.6260   263.5928 </r>
       <r>     0.8973    61.9136   268.0333 </r>
       <r>     0.9689    58.5098   272.2612 </r>
       <r>     1.0405    48.3502   275.7659 </r>
       <r>     1.1121    65.1563   280.4467 </r>
       <r>     1.1837    52.8344   284.2598 </r>
       <r>     1.2553    53.8575   288.1507 </r>
       <r>     1.3269    48.9318   291.6648 </r>
       <r>     1.3986    45.3202   294.9302 </r>
       <r>     1.4702    51.0239   298.6107 </r>
       <r>     1.5418    49.8352   302.2100 </r>
       <r>     1.6134    51.9449   305.9575 </r>
       <r>     1.6850    37.4146   308.6624 </r>
       <r>     1.7566    44.9867   311.8956 </r>
       <r>     1.8282    46.2486   315.2281 </r>
       <r>     1.8998    44.8651   318.4503 </r>
       <r>     1.9714    41.0192   321.4168 </r>
       <r>     2.0430    36.1030   324.0144 </r>
       <r>     2.1146    38.1610   326.7566 </r>
       <r>     2.1863    40.9101   329.7122 </r>
       <r>     2.2579    33.4213   332.1107 </r>
       <r>     2.3295    39.2529   334.9295 </r>
       <r>     2.4011    29.9495   337.0802 </r>
       <r>     2.4727    34.7185   339.5882 </r>
       <r>     2.5443    33.2653   341.9762 </r>
       <r>     2.6159    37.2265   344.6441 </r>
       <r>     2.6875    27.3404   346.6030 </r>
       <r>     2.7591    28.5002   348.6515 </r>
       <r>     2.8307    26.7645   350.5774 </r>
       <r>     2.9024    44.1409   353.7448 </r>
       <r>     2.9740    36.8788   356.4022 </r>
       <r>     3.0456    39.4451   359.2578 </r>
       <r>     3.1172    38.2590   362.0106 </r>
       <r>     3.1888    34.6275   364.5097 </r>
       <r>     3.2604    42.3935   367.5701 </r>
       <r>     3.3320    31.9596   369.8837 </r>
       <r>     3.4036    35.1704   372.4093 </r>
       <r>     3.4752    39.6428   375.2684 </r>
       <r>     3.5468    46.5605   378.6063 </r>
       <r>     3.6184    24.5841   380.3680 </r>
       <r>     3.6901    43.4970   383.4877 </r>
       <r>     3.7617    47.0262   386.8784 </r>
       <r>     3.8333    40.1134   389.7805 </r>
       <r>     3.9049    40.7418   392.7040 </r>
       <r>     3.9765    33.4888   395.1069 </r>
       <r>     4.0481    27.8830   397.1147 </r>
       <r>     4.1197    41.6229   400.0984 </r>
       <r>     4.1913    36.7109   402.7572 </r>
       <r>     4.2629    29.4167   404.8779 </r>
       <r>     4.3345    21.2272   406.4220 </r>
       <r>     4.4062    47.3400   409.8274 </r>
       <r>     4.4778    24.8057   411.6313 </r>
       <r>     4.5494    36.2520   414.2412 </r>
       <r>     4.6210    35.1762   416.7701 </r>
       <r>     4.6926    22.1894   418.3649 </r>
       <r>     4.7642    34.4660   420.8417 </r>
       <r>     4.8358    27.3195   422.8153 </r>
       <r>     4.9074    26.8531   424.7416 </r>
       <r>     4.9790    22.0128   426.3337 </r>
       <r>     5.0506    26.2128   428.2316 </r>
       <r>     5.1222    38.6596   431.0001 </r>
       <r>     5.1939    38.8153   433.7844 </r>
       <r>     5.2655    44.5183   436.9846 </r>
       <r>     5.3371    43.0876   440.0797 </r>
       <r>     5.4087    35.1970   442.6134 </r>
       <r>     5.4803    40.7484   445.5478 </r>
       <r>     5.5519    44.6642   448.7930 </r>
       <r>     5.6235    28.4604   450.8397 </r>
       <r>     5.6951    37.6478   453.5465 </r>
       <r>     5.7667    25.3504   455.3690 </r>
       <r>     5.8383    41.1609   458.3188 </r>
       <r>     5.9100    32.2981   460.6605 </r>
       <r>     5.9816    32.5914   463.0087 </r>
       <r>     6.0532     9.6427   463.6994 </r>
       <r>     6.1248     4.1978   464.0000 </r>
       <r>     6.1964     0.0000   464.0000 </r>
       <r>     6.2680     0.0000   464.0000 </r>
       <r>     6.3396     0.0000   464.0000 </r>
       <r>     6.4112     0.0000   464.0000 </r>
       <r>     6.4828     0.0000   464.0000 </r>
       <r>     6.5544     0.0000   464.0000 </r>
       <r>     6.6261     0.0000   464.0000 </r>
       <r>     6.6977     0.0000   464.0000 </r>
       <r>     6.7693     0.0000   464.0000 </r>
       <r>     6.8409     0.0000   464.0000 </r>
       <r>     6.9125     0.0000   464.0000 </r>
       <r>     6.9841     0.0000   464.0000 </r>
       <r>     7.0557     0.0000   464.0000 </r>
      </set>
     </set>
    </array>
   </total>
  </dos>
 </calculation>
 <structure name="finalpos" >
  <crystal>
   <varray name="basis" >
    <v>      17.89153480       0.00000000       0.00000000 </v>
    <v>     -16.10238075       7.79873943       0.00000000 </v>
    <v>       0.00000032      -0.00000007      15.42839623 </v>
   </varray>
   <i name="volume">   2152.74600275 </i>
   <varray name="rec_basis" >
    <v>       0.05589235       0.11540326      -0.00000000 </v>
    <v>       0.00000000       0.12822585       0.00000000 </v>
    <v>       0.00000000       0.00000000       0.06481555 </v>
   </varray>
  </crystal>
  <varray name="positions" >
   <v>       0.15054882       0.50113666       0.68929231 </v>
   <v>       0.02281332       0.97718668       0.00000001 </v>
   <v>       0.18070815       0.81929183       0.08412989 </v>
   <v>       0.33860299       0.66139698       0.16825977 </v>
   <v>       0.49649781       0.50350219       0.25238964 </v>
   <v>       0.65439260       0.34560740       0.33651954 </v>
   <v>       0.54528517       0.60640013       0.49999991 </v>
   <v>       0.31228706       0.68771291       0.02103250 </v>
   <v>       0.47018188       0.52981806       0.10516236 </v>
   <v>       0.62807673       0.37192327       0.18929227 </v>
   <v>       0.78597158       0.21402840       0.27342215 </v>
   <v>       0.83475923       0.81692636       0.52103269 </v>
   <v>       0.31228733       0.68771261       0.42064938 </v>
   <v>       0.52281326       0.47718665       0.00000000 </v>
   <v>       0.68070811       0.31929183       0.08412988 </v>
   <v>       0.83860296       0.16139701       0.16825974 </v>
   <v>       0.99649781       0.00350215       0.25238961 </v>
   <v>       0.15439260       0.84560740       0.33651954 </v>
   <v>       0.86107475       0.29061043       0.66825974 </v>
   <v>       0.81228709       0.18771291       0.02103265 </v>
   <v>       0.97018182       0.02981813       0.10516248 </v>
   <v>       0.12807667       0.87192327       0.18929242 </v>
   <v>       0.54528517       0.60640013       0.49999991 </v>
   <v>       0.44386637       0.55613363       0.35755214 </v>
   <v>       0.20318002       0.94850528       0.58412981 </v>
   <v>       0.52281326       0.97718668       0.00000001 </v>
   <v>       0.68070811       0.81929189       0.08412988 </v>
   <v>       0.83860296       0.66139704       0.16825974 </v>
   <v>       0.33475897       0.81692636       0.52103245 </v>
   <v>       0.15439260       0.34560740       0.33651954 </v>
   <v>       0.54528517       0.10640013       0.49999991 </v>
   <v>       0.81228727       0.68771285       0.02103262 </v>
   <v>       0.97018212       0.52981806       0.10516250 </v>
   <v>       0.12807691       0.37192324       0.18929234 </v>
   <v>       0.28597176       0.21402839       0.27342227 </v>
   <v>       0.44386673       0.05613352       0.35755211 </v>
   <v>       0.65054852       0.00113666       0.68929243 </v>
   <v>       0.02281339       0.47718665       0.00000001 </v>
   <v>       0.18070820       0.31929183       0.08412987 </v>
   <v>       0.33860305       0.16139698       0.16825977 </v>
   <v>       0.33475897       0.31692636       0.52103269 </v>
   <v>       0.65439266       0.84560734       0.33651954 </v>
   <v>       0.33475897       0.31692636       0.52103269 </v>
   <v>       0.31228706       0.18771288       0.02103263 </v>
   <v>       0.47018188       0.02981809       0.10516250 </v>
   <v>       0.62807673       0.87192327       0.18929240 </v>
   <v>       0.78597152       0.71402842       0.27342227 </v>
   <v>       0.94386637       0.55613351       0.35755214 </v>
   <v>       0.83475912       0.31692603       0.92064941 </v>
   <v>       0.60176122       0.39823884       0.44168201 </v>
   <v>       0.31228745       0.18771249       0.42064944 </v>
   <v>       0.36107481       0.79061043       0.66825974 </v>
   <v>       0.51896960       0.63271558       0.75238955 </v>
   <v>       0.67686439       0.47482076       0.83651948 </v>
   <v>       0.12423290       0.02745223       0.94168186 </v>
   <v>       0.99649775       0.50350225       0.25238961 </v>
   <v>       0.49265373       0.65903163       0.60516226 </v>
   <v>       0.65054852       0.50113666       0.68929219 </v>
   <v>       0.80844337       0.34324187       0.77342212 </v>
   <v>       0.96633816       0.18534698       0.85755205 </v>
   <v>       0.33475900       0.81692600       0.92064941 </v>
   <v>       0.28597152       0.71402836       0.27342227 </v>
   <v>       0.70317996       0.44850531       0.58412981 </v>
   <v>       0.60176122       0.39823884       0.44168201 </v>
   <v>       0.01896954       0.13271561       0.75238955 </v>
   <v>       0.17686427       0.97482073       0.83651948 </v>
   <v>       0.62423289       0.52745223       0.94168198 </v>
   <v>       0.83475894       0.31692642       0.52103269 </v>
   <v>       0.99265367       0.15903155       0.60516250 </v>
   <v>       0.15054858       0.00113678       0.68929231 </v>
   <v>       0.30844331       0.84324193       0.77342236 </v>
   <v>       0.46633816       0.68534696       0.85755205 </v>
   <v>       0.83475918       0.81692588       0.92064929 </v>
   <v>       0.81228751       0.68771249       0.42064941 </v>
   <v>       0.20318006       0.44850528       0.58412981 </v>
   <v>       0.36107486       0.29061043       0.66825974 </v>
   <v>       0.51896965       0.13271561       0.75238955 </v>
   <v>       0.67686444       0.97482073       0.83651948 </v>
   <v>       0.12423290       0.52745211       0.94168198 </v>
   <v>       0.49649784       0.00350219       0.25238961 </v>
   <v>       0.49265376       0.15903155       0.60516250 </v>
   <v>       0.81228751       0.68771249       0.42064941 </v>
   <v>       0.80844331       0.84324193       0.77342212 </v>
   <v>       0.96633810       0.68534696       0.85755205 </v>
   <v>       0.33475912       0.31692597       0.92064929 </v>
   <v>       0.60176146       0.89823872       0.44168198 </v>
   <v>       0.70317996       0.94850528       0.58412981 </v>
   <v>       0.86107475       0.79061043       0.66825974 </v>
   <v>       0.01896954       0.63271570       0.75238955 </v>
   <v>       0.17686427       0.47482082       0.83651948 </v>
   <v>       0.62423313       0.02745211       0.94168198 </v>
   <v>       0.94386643       0.05613355       0.35755202 </v>
   <v>       0.99265397       0.65903151       0.60516250 </v>
   <v>       0.81228745       0.18771255       0.42064941 </v>
   <v>       0.30844355       0.34324184       0.77342212 </v>
   <v>       0.46633840       0.18534695       0.85755205 </v>
  </varray>
 </structure>
</modeling>
