 120 120   0   0
  0.2197472E+02  0.1330318E-08  0.1629300E-08  0.2107214E-08  0.5000000E-15
  1.000000000000000E-004
  CAR 
 Si and Ge interface calculation         
      9.01191226    -10.29024676  301      6.28437032      1.00000000
    -10.290  0.0000E+00  0.0000E+00  0.0000E+00  0.0000E+00
    -10.226  0.0000E+00  0.0000E+00  0.0000E+00  0.0000E+00
    -10.162  0.0000E+00  0.0000E+00  0.0000E+00  0.0000E+00
    -10.097  0.0000E+00  0.0000E+00  0.0000E+00  0.0000E+00
    -10.033  0.0000E+00  0.0000E+00  0.0000E+00  0.0000E+00
     -9.969  0.0000E+00  0.0000E+00  0.0000E+00  0.0000E+00
     -9.904  0.0000E+00  0.0000E+00  0.0000E+00  0.0000E+00
     -9.840  0.0000E+00  0.0000E+00  0.0000E+00  0.0000E+00
     -9.776  0.0000E+00  0.0000E+00  0.0000E+00  0.0000E+00
     -9.711  0.0000E+00  0.0000E+00  0.0000E+00  0.0000E+00
     -9.647  0.0000E+00  0.0000E+00  0.0000E+00  0.0000E+00
     -9.583  0.0000E+00  0.0000E+00  0.0000E+00  0.0000E+00
     -9.518  0.0000E+00  0.0000E+00  0.0000E+00  0.0000E+00
     -9.454  0.9105E-08  0.7190E-15  0.5858E-09  0.4626E-16
     -9.389  0.2210E+02  0.7131E+01  0.1422E+01  0.4588E+00
     -9.325  0.4005E+02  0.5241E+02  0.3999E+01  0.3831E+01
     -9.261  0.0000E+00  0.2602E+01  0.4000E+01  0.4000E+01
     -9.196  0.0000E+00  0.0000E+00  0.4000E+01  0.4000E+01
     -9.132  0.0000E+00  0.0000E+00  0.4000E+01  0.4000E+01
     -9.068  0.0000E+00  0.0000E+00  0.4000E+01  0.4000E+01
     -9.003  0.0000E+00  0.0000E+00  0.4000E+01  0.4000E+01
     -8.939  0.0000E+00  0.0000E+00  0.4000E+01  0.4000E+01
     -8.875  0.0000E+00  0.0000E+00  0.4000E+01  0.4000E+01
     -8.810  0.0000E+00  0.0000E+00  0.4000E+01  0.4000E+01
     -8.746  0.0000E+00  0.0000E+00  0.4000E+01  0.4000E+01
     -8.682  0.0000E+00  0.0000E+00  0.4000E+01  0.4000E+01
     -8.617  0.0000E+00  0.0000E+00  0.4000E+01  0.4000E+01
     -8.553  0.1790E+01  0.6662E+00  0.4115E+01  0.4043E+01
     -8.489  0.2141E+02  0.2130E+02  0.5493E+01  0.5413E+01
     -8.424  0.1626E+02  0.1676E+02  0.6539E+01  0.6492E+01
     -8.360  0.2189E+02  0.2054E+02  0.7948E+01  0.7813E+01
     -8.296  0.8079E+00  0.2888E+01  0.8000E+01  0.8000E+01
     -8.231  0.0000E+00  0.0000E+00  0.8000E+01  0.8000E+01
     -8.167  0.0000E+00  0.0000E+00  0.8000E+01  0.8000E+01
     -8.103  0.0000E+00  0.0000E+00  0.8000E+01  0.8000E+01
     -8.038  0.0000E+00  0.0000E+00  0.8000E+01  0.8000E+01
     -7.974  0.0000E+00  0.0000E+00  0.8000E+01  0.8000E+01
     -7.910  0.0000E+00  0.0000E+00  0.8000E+01  0.8000E+01
     -7.845  0.0000E+00  0.0000E+00  0.8000E+01  0.8000E+01
     -7.781  0.0000E+00  0.0000E+00  0.8000E+01  0.8000E+01
     -7.717  0.0000E+00  0.0000E+00  0.8000E+01  0.8000E+01
     -7.652  0.0000E+00  0.0000E+00  0.8000E+01  0.8000E+01
     -7.588  0.1473E-05  0.1809E-08  0.8000E+01  0.8000E+01
     -7.524  0.1036E+02  0.1031E+02  0.8667E+01  0.8664E+01
     -7.459  0.1036E+02  0.1036E+02  0.9334E+01  0.9333E+01
     -7.395  0.1995E+02  0.1567E+02  0.1062E+02  0.1034E+02
     -7.331  0.1371E+02  0.1798E+02  0.1150E+02  0.1150E+02
     -7.266  0.5689E+01  0.5251E+01  0.1187E+02  0.1184E+02
     -7.202  0.2082E+01  0.2520E+01  0.1200E+02  0.1200E+02
     -7.138  0.4603E-02  0.3916E-04  0.1200E+02  0.1200E+02
     -7.073  0.1036E+02  0.1034E+02  0.1267E+02  0.1267E+02
     -7.009  0.6763E+01  0.5403E+01  0.1310E+02  0.1301E+02
     -6.945  0.4434E+01  0.5031E+01  0.1339E+02  0.1334E+02
     -6.880  0.8654E+01  0.6510E+01  0.1394E+02  0.1376E+02
     -6.816  0.2418E+02  0.2709E+02  0.1550E+02  0.1550E+02
     -6.752  0.1307E-10  0.1150E-14  0.1550E+02  0.1550E+02
     -6.687  0.5108E+01  0.4316E+01  0.1583E+02  0.1578E+02
     -6.623  0.2663E+01  0.3455E+01  0.1600E+02  0.1600E+02
     -6.558  0.1122E-01  0.3441E-03  0.1600E+02  0.1600E+02
     -6.494  0.6415E+01  0.4476E+01  0.1641E+02  0.1629E+02
     -6.430  0.2159E+01  0.3405E+01  0.1655E+02  0.1651E+02
     -6.365  0.2261E+02  0.2177E+02  0.1801E+02  0.1791E+02
     -6.301  0.1171E+02  0.1023E+02  0.1876E+02  0.1857E+02
     -6.237  0.1667E+02  0.1962E+02  0.1983E+02  0.1983E+02
     -6.172  0.4717E+01  0.2254E+01  0.2014E+02  0.1998E+02
     -6.108  0.2512E+02  0.2462E+02  0.2175E+02  0.2156E+02
     -6.044  0.7051E+01  0.7655E+01  0.2221E+02  0.2206E+02
     -5.979  0.1352E+02  0.1032E+02  0.2308E+02  0.2272E+02
     -5.915  0.1826E+02  0.1946E+02  0.2425E+02  0.2397E+02
     -5.851  0.6431E+01  0.1081E+02  0.2467E+02  0.2467E+02
     -5.786  0.1174E+02  0.6753E+01  0.2542E+02  0.2510E+02
     -5.722  0.3640E+02  0.3591E+02  0.2776E+02  0.2741E+02
     -5.658  0.2432E+02  0.2391E+02  0.2933E+02  0.2895E+02
     -5.593  0.1853E+02  0.2348E+02  0.3052E+02  0.3046E+02
     -5.529  0.1892E+02  0.1880E+02  0.3175E+02  0.3167E+02
     -5.465  0.8939E+01  0.8245E+01  0.3232E+02  0.3220E+02
     -5.400  0.1326E+02  0.1460E+02  0.3318E+02  0.3314E+02
     -5.336  0.1235E+02  0.1107E+02  0.3397E+02  0.3386E+02
     -5.272  0.1292E+02  0.1275E+02  0.3480E+02  0.3468E+02
     -5.207  0.8219E+01  0.1015E+02  0.3533E+02  0.3533E+02
     -5.143  0.1403E+02  0.1272E+02  0.3624E+02  0.3615E+02
     -5.079  0.1981E+02  0.2095E+02  0.3751E+02  0.3750E+02
     -5.014  0.2563E+02  0.2515E+02  0.3916E+02  0.3912E+02
     -4.950  0.1060E+02  0.6562E+01  0.3984E+02  0.3954E+02
     -4.886  0.7614E+01  0.1224E+02  0.4033E+02  0.4033E+02
     -4.821  0.1721E+02  0.1071E+02  0.4144E+02  0.4102E+02
     -4.757  0.3674E+02  0.3763E+02  0.4381E+02  0.4344E+02
     -4.693  0.2375E+02  0.2934E+02  0.4534E+02  0.4533E+02
     -4.628  0.2465E+02  0.1833E+02  0.4692E+02  0.4651E+02
     -4.564  0.2721E+02  0.3284E+02  0.4868E+02  0.4862E+02
     -4.500  0.2730E+02  0.2583E+02  0.5043E+02  0.5028E+02
     -4.435  0.1333E+02  0.1416E+02  0.5129E+02  0.5120E+02
     -4.371  0.1619E+02  0.1757E+02  0.5233E+02  0.5233E+02
     -4.307  0.5180E+01  0.5154E+01  0.5267E+02  0.5266E+02
     -4.242  0.1735E+02  0.1152E+02  0.5378E+02  0.5341E+02
     -4.178  0.4980E+02  0.5202E+02  0.5699E+02  0.5676E+02
     -4.114  0.2941E+02  0.2654E+02  0.5888E+02  0.5847E+02
     -4.049  0.1853E+02  0.2149E+02  0.6007E+02  0.5985E+02
     -3.985  0.2752E+02  0.3069E+02  0.6184E+02  0.6183E+02
     -3.921  0.3410E+02  0.3299E+02  0.6404E+02  0.6395E+02
     -3.856  0.2657E+02  0.2519E+02  0.6575E+02  0.6557E+02
     -3.792  0.2511E+02  0.2292E+02  0.6737E+02  0.6705E+02
     -3.728  0.2076E+02  0.2481E+02  0.6871E+02  0.6864E+02
     -3.663  0.3038E+02  0.2321E+02  0.7066E+02  0.7014E+02
     -3.599  0.3642E+02  0.4219E+02  0.7301E+02  0.7285E+02
     -3.534  0.2937E+02  0.2959E+02  0.7490E+02  0.7475E+02
     -3.470  0.3194E+02  0.3151E+02  0.7695E+02  0.7678E+02
     -3.406  0.3219E+02  0.3300E+02  0.7902E+02  0.7891E+02
     -3.341  0.2426E+02  0.2124E+02  0.8059E+02  0.8027E+02
     -3.277  0.4397E+02  0.4390E+02  0.8342E+02  0.8310E+02
     -3.213  0.2817E+02  0.2876E+02  0.8523E+02  0.8495E+02
     -3.148  0.3312E+02  0.3286E+02  0.8736E+02  0.8707E+02
     -3.084  0.1878E+02  0.1911E+02  0.8857E+02  0.8830E+02
     -3.020  0.5328E+02  0.5589E+02  0.9200E+02  0.9189E+02
     -2.955  0.3985E+02  0.3591E+02  0.9456E+02  0.9421E+02
     -2.891  0.2508E+02  0.3001E+02  0.9618E+02  0.9614E+02
     -2.827  0.4312E+02  0.4021E+02  0.9896E+02  0.9872E+02
     -2.762  0.1735E+02  0.1774E+02  0.1001E+03  0.9987E+02
     -2.698  0.2392E+02  0.2221E+02  0.1016E+03  0.1013E+03
     -2.634  0.4006E+02  0.4197E+02  0.1042E+03  0.1040E+03
     -2.569  0.2148E+02  0.2155E+02  0.1056E+03  0.1054E+03
     -2.505  0.4717E+02  0.4610E+02  0.1086E+03  0.1083E+03
     -2.441  0.2770E+02  0.2949E+02  0.1104E+03  0.1102E+03
     -2.376  0.3670E+02  0.3571E+02  0.1128E+03  0.1125E+03
     -2.312  0.3919E+02  0.4098E+02  0.1153E+03  0.1152E+03
     -2.248  0.5546E+02  0.5182E+02  0.1188E+03  0.1185E+03
     -2.183  0.4024E+02  0.4184E+02  0.1214E+03  0.1212E+03
     -2.119  0.1892E+02  0.1946E+02  0.1227E+03  0.1225E+03
     -2.055  0.1943E+02  0.2136E+02  0.1239E+03  0.1238E+03
     -1.990  0.3124E+02  0.3015E+02  0.1259E+03  0.1258E+03
     -1.926  0.2418E+02  0.2290E+02  0.1275E+03  0.1273E+03
     -1.862  0.3078E+02  0.2550E+02  0.1295E+03  0.1289E+03
     -1.797  0.3760E+02  0.4345E+02  0.1319E+03  0.1317E+03
     -1.733  0.4738E+02  0.4226E+02  0.1349E+03  0.1344E+03
     -1.669  0.4731E+02  0.4938E+02  0.1380E+03  0.1376E+03
     -1.604  0.2965E+02  0.3008E+02  0.1399E+03  0.1395E+03
     -1.540  0.3102E+02  0.3084E+02  0.1419E+03  0.1415E+03
     -1.476  0.3514E+02  0.3640E+02  0.1441E+03  0.1439E+03
     -1.411  0.4006E+02  0.4034E+02  0.1467E+03  0.1464E+03
     -1.347  0.3777E+02  0.3985E+02  0.1491E+03  0.1490E+03
     -1.283  0.2639E+02  0.2252E+02  0.1508E+03  0.1505E+03
     -1.218  0.2340E+02  0.2549E+02  0.1523E+03  0.1521E+03
     -1.154  0.2245E+02  0.2167E+02  0.1538E+03  0.1535E+03
     -1.090  0.3932E+02  0.3619E+02  0.1563E+03  0.1558E+03
     -1.025  0.3714E+02  0.4384E+02  0.1587E+03  0.1587E+03
     -0.961  0.1815E+02  0.1318E+02  0.1599E+03  0.1595E+03
     -0.897  0.4495E+02  0.4469E+02  0.1628E+03  0.1624E+03
     -0.832  0.3020E+02  0.3160E+02  0.1647E+03  0.1644E+03
     -0.768  0.3600E+02  0.3730E+02  0.1670E+03  0.1668E+03
     -0.704  0.4253E+02  0.4008E+02  0.1698E+03  0.1694E+03
     -0.639  0.2638E+02  0.2590E+02  0.1715E+03  0.1711E+03
     -0.575  0.3632E+02  0.3813E+02  0.1738E+03  0.1735E+03
     -0.510  0.3785E+02  0.3887E+02  0.1762E+03  0.1760E+03
     -0.446  0.2526E+02  0.2613E+02  0.1779E+03  0.1777E+03
     -0.382  0.3451E+02  0.3484E+02  0.1801E+03  0.1799E+03
     -0.317  0.2731E+02  0.2652E+02  0.1818E+03  0.1816E+03
     -0.253  0.3510E+02  0.3406E+02  0.1841E+03  0.1838E+03
     -0.189  0.4417E+02  0.4650E+02  0.1869E+03  0.1868E+03
     -0.124  0.2798E+02  0.2549E+02  0.1887E+03  0.1885E+03
     -0.060  0.3979E+02  0.4010E+02  0.1913E+03  0.1911E+03
      0.004  0.4471E+02  0.4466E+02  0.1942E+03  0.1939E+03
      0.069  0.3187E+02  0.2683E+02  0.1962E+03  0.1957E+03
      0.133  0.3596E+02  0.4242E+02  0.1986E+03  0.1984E+03
      0.197  0.4067E+02  0.3635E+02  0.2012E+03  0.2007E+03
      0.262  0.3604E+02  0.3796E+02  0.2035E+03  0.2032E+03
      0.326  0.4794E+02  0.4809E+02  0.2066E+03  0.2063E+03
      0.390  0.2551E+02  0.2246E+02  0.2082E+03  0.2077E+03
      0.455  0.4553E+02  0.4663E+02  0.2112E+03  0.2107E+03
      0.519  0.2605E+02  0.3070E+02  0.2128E+03  0.2127E+03
      0.583  0.4404E+02  0.4373E+02  0.2157E+03  0.2155E+03
      0.648  0.4230E+02  0.3952E+02  0.2184E+03  0.2180E+03
      0.712  0.3964E+02  0.3742E+02  0.2209E+03  0.2205E+03
      0.776  0.4128E+02  0.4256E+02  0.2236E+03  0.2232E+03
      0.841  0.3265E+02  0.3586E+02  0.2257E+03  0.2255E+03
      0.905  0.3111E+02  0.2979E+02  0.2277E+03  0.2274E+03
      0.969  0.3980E+02  0.4058E+02  0.2303E+03  0.2300E+03
      1.034  0.5468E+02  0.5074E+02  0.2338E+03  0.2333E+03
      1.098  0.3662E+02  0.3549E+02  0.2361E+03  0.2356E+03
      1.162  0.3815E+02  0.4210E+02  0.2386E+03  0.2383E+03
      1.227  0.3219E+02  0.2911E+02  0.2407E+03  0.2402E+03
      1.291  0.2657E+02  0.3089E+02  0.2424E+03  0.2422E+03
      1.355  0.4642E+02  0.4529E+02  0.2454E+03  0.2451E+03
      1.420  0.2408E+02  0.2606E+02  0.2469E+03  0.2467E+03
      1.484  0.3624E+02  0.3458E+02  0.2493E+03  0.2490E+03
      1.548  0.4449E+02  0.4120E+02  0.2521E+03  0.2516E+03
      1.613  0.4039E+02  0.3509E+02  0.2547E+03  0.2539E+03
      1.677  0.4940E+02  0.5383E+02  0.2579E+03  0.2574E+03
      1.741  0.4417E+02  0.4704E+02  0.2607E+03  0.2604E+03
      1.806  0.3146E+02  0.2962E+02  0.2628E+03  0.2623E+03
      1.870  0.4822E+02  0.4485E+02  0.2659E+03  0.2652E+03
      1.934  0.4458E+02  0.4929E+02  0.2687E+03  0.2684E+03
      1.999  0.3898E+02  0.3527E+02  0.2712E+03  0.2706E+03
      2.063  0.5267E+02  0.5471E+02  0.2746E+03  0.2741E+03
      2.127  0.4723E+02  0.5049E+02  0.2777E+03  0.2774E+03
      2.192  0.4437E+02  0.4752E+02  0.2805E+03  0.2805E+03
      2.256  0.3481E+02  0.3363E+02  0.2828E+03  0.2826E+03
      2.320  0.5855E+02  0.5608E+02  0.2865E+03  0.2862E+03
      2.385  0.4166E+02  0.3842E+02  0.2892E+03  0.2887E+03
      2.449  0.4913E+02  0.5360E+02  0.2924E+03  0.2921E+03
      2.514  0.2746E+02  0.2605E+02  0.2942E+03  0.2938E+03
      2.578  0.5531E+02  0.5712E+02  0.2977E+03  0.2975E+03
      2.642  0.5044E+02  0.4946E+02  0.3010E+03  0.3007E+03
      2.707  0.5034E+02  0.5308E+02  0.3042E+03  0.3041E+03
      2.771  0.3585E+02  0.2769E+02  0.3065E+03  0.3059E+03
      2.835  0.6391E+02  0.6929E+02  0.3106E+03  0.3103E+03
      2.900  0.5471E+02  0.5727E+02  0.3141E+03  0.3140E+03
      2.964  0.4852E+02  0.4640E+02  0.3173E+03  0.3170E+03
      3.028  0.4195E+02  0.3575E+02  0.3200E+03  0.3193E+03
      3.093  0.5968E+02  0.6226E+02  0.3238E+03  0.3233E+03
      3.157  0.5375E+02  0.5410E+02  0.3273E+03  0.3268E+03
      3.221  0.5205E+02  0.5344E+02  0.3306E+03  0.3303E+03
      3.286  0.5070E+02  0.5000E+02  0.3339E+03  0.3335E+03
      3.350  0.5490E+02  0.5534E+02  0.3374E+03  0.3370E+03
      3.414  0.6142E+02  0.6175E+02  0.3414E+03  0.3410E+03
      3.479  0.5979E+02  0.6271E+02  0.3452E+03  0.3450E+03
      3.543  0.6827E+02  0.6561E+02  0.3496E+03  0.3493E+03
      3.607  0.5250E+02  0.5301E+02  0.3530E+03  0.3527E+03
      3.672  0.5980E+02  0.5669E+02  0.3568E+03  0.3563E+03
      3.736  0.6741E+02  0.6788E+02  0.3612E+03  0.3607E+03
      3.800  0.7394E+02  0.7339E+02  0.3659E+03  0.3654E+03
      3.865  0.7698E+02  0.7511E+02  0.3709E+03  0.3703E+03
      3.929  0.5948E+02  0.6417E+02  0.3747E+03  0.3744E+03
      3.993  0.5762E+02  0.6006E+02  0.3784E+03  0.3783E+03
      4.058  0.6235E+02  0.6008E+02  0.3825E+03  0.3821E+03
      4.122  0.5878E+02  0.6013E+02  0.3862E+03  0.3860E+03
      4.186  0.5928E+02  0.5662E+02  0.3901E+03  0.3896E+03
      4.251  0.5000E+02  0.5166E+02  0.3933E+03  0.3930E+03
      4.315  0.4963E+02  0.4953E+02  0.3965E+03  0.3961E+03
      4.379  0.4592E+02  0.4768E+02  0.3994E+03  0.3992E+03
      4.444  0.5284E+02  0.4880E+02  0.4028E+03  0.4024E+03
      4.508  0.5418E+02  0.5558E+02  0.4063E+03  0.4059E+03
      4.572  0.4722E+02  0.4955E+02  0.4093E+03  0.4091E+03
      4.637  0.3380E+02  0.3471E+02  0.4115E+03  0.4114E+03
      4.701  0.5438E+02  0.5489E+02  0.4150E+03  0.4149E+03
      4.765  0.4603E+02  0.4039E+02  0.4180E+03  0.4175E+03
      4.830  0.3760E+02  0.4279E+02  0.4204E+03  0.4202E+03
      4.894  0.4034E+02  0.4144E+02  0.4230E+03  0.4229E+03
      4.958  0.4597E+02  0.4349E+02  0.4260E+03  0.4257E+03
      5.023  0.5025E+02  0.4461E+02  0.4292E+03  0.4286E+03
      5.087  0.5227E+02  0.5879E+02  0.4326E+03  0.4324E+03
      5.151  0.4632E+02  0.4038E+02  0.4356E+03  0.4350E+03
      5.216  0.3884E+02  0.4055E+02  0.4381E+03  0.4376E+03
      5.280  0.3517E+02  0.3324E+02  0.4403E+03  0.4397E+03
      5.345  0.2645E+02  0.3387E+02  0.4420E+03  0.4419E+03
      5.409  0.2496E+02  0.2483E+02  0.4436E+03  0.4435E+03
      5.473  0.3586E+02  0.3436E+02  0.4459E+03  0.4457E+03
      5.538  0.2603E+02  0.2602E+02  0.4476E+03  0.4474E+03
      5.602  0.4571E+02  0.4094E+02  0.4505E+03  0.4500E+03
      5.666  0.4702E+02  0.4392E+02  0.4536E+03  0.4528E+03
      5.731  0.3372E+02  0.3682E+02  0.4557E+03  0.4552E+03
      5.795  0.4665E+02  0.4702E+02  0.4588E+03  0.4582E+03
      5.859  0.3731E+02  0.3545E+02  0.4612E+03  0.4605E+03
      5.924  0.5014E+02  0.5352E+02  0.4644E+03  0.4640E+03
      5.988  0.4063E+02  0.3807E+02  0.4670E+03  0.4664E+03
      6.052  0.4402E+02  0.5144E+02  0.4698E+03  0.4697E+03
      6.117  0.4984E+02  0.3543E+02  0.4730E+03  0.4720E+03
      6.181  0.2841E+02  0.3611E+02  0.4749E+03  0.4743E+03
      6.245  0.5060E+02  0.4760E+02  0.4781E+03  0.4774E+03
      6.310  0.4220E+02  0.4068E+02  0.4808E+03  0.4800E+03
      6.374  0.4030E+02  0.3507E+02  0.4834E+03  0.4823E+03
      6.438  0.3780E+02  0.4432E+02  0.4859E+03  0.4851E+03
      6.503  0.5474E+02  0.5533E+02  0.4894E+03  0.4887E+03
      6.567  0.4150E+02  0.4250E+02  0.4921E+03  0.4914E+03
      6.631  0.4130E+02  0.4676E+02  0.4947E+03  0.4944E+03
      6.696  0.3898E+02  0.3429E+02  0.4972E+03  0.4966E+03
      6.760  0.5304E+02  0.4925E+02  0.5006E+03  0.4998E+03
      6.824  0.4646E+02  0.5321E+02  0.5036E+03  0.5032E+03
      6.889  0.5048E+02  0.4722E+02  0.5069E+03  0.5063E+03
      6.953  0.5124E+02  0.5163E+02  0.5102E+03  0.5096E+03
      7.017  0.5228E+02  0.5076E+02  0.5135E+03  0.5129E+03
      7.082  0.4283E+02  0.4774E+02  0.5163E+03  0.5159E+03
      7.146  0.5597E+02  0.4992E+02  0.5199E+03  0.5191E+03
      7.210  0.5524E+02  0.5210E+02  0.5235E+03  0.5225E+03
      7.275  0.3897E+02  0.4221E+02  0.5260E+03  0.5252E+03
      7.339  0.5821E+02  0.5812E+02  0.5297E+03  0.5290E+03
      7.403  0.5951E+02  0.6099E+02  0.5336E+03  0.5329E+03
      7.468  0.4685E+02  0.4839E+02  0.5366E+03  0.5360E+03
      7.532  0.6410E+02  0.6220E+02  0.5407E+03  0.5400E+03
      7.596  0.6803E+02  0.6945E+02  0.5451E+03  0.5445E+03
      7.661  0.6368E+02  0.6595E+02  0.5492E+03  0.5487E+03
      7.725  0.5858E+02  0.5192E+02  0.5529E+03  0.5521E+03
      7.789  0.7600E+02  0.8140E+02  0.5578E+03  0.5573E+03
      7.854  0.6294E+02  0.6049E+02  0.5619E+03  0.5612E+03
      7.918  0.4895E+02  0.5315E+02  0.5650E+03  0.5646E+03
      7.982  0.6890E+02  0.6709E+02  0.5695E+03  0.5689E+03
      8.047  0.5840E+02  0.5799E+02  0.5732E+03  0.5727E+03
      8.111  0.3468E+02  0.4165E+02  0.5755E+03  0.5753E+03
      8.175  0.8475E+01  0.1017E+02  0.5760E+03  0.5760E+03
      8.240  0.0000E+00  0.0000E+00  0.5760E+03  0.5760E+03
      8.304  0.0000E+00  0.0000E+00  0.5760E+03  0.5760E+03
      8.369  0.0000E+00  0.0000E+00  0.5760E+03  0.5760E+03
      8.433  0.0000E+00  0.0000E+00  0.5760E+03  0.5760E+03
      8.497  0.0000E+00  0.0000E+00  0.5760E+03  0.5760E+03
      8.562  0.0000E+00  0.0000E+00  0.5760E+03  0.5760E+03
      8.626  0.0000E+00  0.0000E+00  0.5760E+03  0.5760E+03
      8.690  0.0000E+00  0.0000E+00  0.5760E+03  0.5760E+03
      8.755  0.0000E+00  0.0000E+00  0.5760E+03  0.5760E+03
      8.819  0.0000E+00  0.0000E+00  0.5760E+03  0.5760E+03
      8.883  0.0000E+00  0.0000E+00  0.5760E+03  0.5760E+03
      8.948  0.0000E+00  0.0000E+00  0.5760E+03  0.5760E+03
      9.012  0.0000E+00  0.0000E+00  0.5760E+03  0.5760E+03
