Si Bulk DFT energetics calculations using VASP\n
This script is running on comp120.cluster.local in /lustre/home/ah1365/projects/127870/upgrade_report/case_studies/common/structures/interfaces/120_Si72Ge48_011_001_a0.368421_b0.222222_c2.163935_interface6shift5swap5\n
Job started on: Sun  8 Jun 11:26:44 UTC 2025\n
 running   64 mpi-ranks, on    4 nodes
 distrk:  each k-point on   64 cores,    1 groups
 distr:  one band on   16 cores,    4 groups
 vasp.6.4.3 19Mar24 (build Oct 22 2024 11:23:12) complex                        
  
 POSCAR found type information on POSCAR SiGe
 POSCAR found :  2 types and     120 ions
 -----------------------------------------------------------------------------
|                                                                             |
|           W    W    AA    RRRRR   N    N  II  N    N   GGGG   !!!           |
|           W    W   A  A   R    R  NN   N  II  NN   N  G    G  !!!           |
|           W    W  A    A  R    R  N N  N  II  N N  N  G       !!!           |
|           W WW W  AAAAAA  RRRRR   N  N N  II  N  N N  G  GGG   !            |
|           WW  WW  A    A  R   R   N   NN  II  N   NN  G    G                |
|           W    W  A    A  R    R  N    N  II  N    N   GGGG   !!!           |
|                                                                             |
|     You use a magnetic or noncollinear calculation, but did not specify     |
|     the initial magnetic moment with the MAGMOM tag. Note that a            |
|     default of 8.333e-3 will be used for all atoms. This ferromagnetic      |
|     setup may break the symmetry of the crystal, in particular it may       |
|     rule out finding an antiferromagnetic solution. Thence, we              |
|     recommend setting the initial magnetic moment manually or verifying     |
|     carefully that this magnetic setup is desired.                          |
|                                                                             |
 -----------------------------------------------------------------------------

 scaLAPACK will be used
 LDA part: xc-table for (Slater+PW92), standard interpolation
 POSCAR, INCAR and KPOINTS ok, starting setup
 FFT: planning ... GRIDC
 FFT: planning ... GRID_SOFT
 FFT: planning ... GRID
 WAVECAR not read
 entering main loop
       N       E                     dE             d eps       ncg     rms          rms(c)
DAV:   1     0.196587574410E+04    0.19659E+04   -0.21466E+05 13824   0.173E+03
DAV:   2    -0.360556991078E+03   -0.23264E+04   -0.22434E+04 16160   0.215E+02
DAV:   3    -0.577526761931E+03   -0.21697E+03   -0.21077E+03 16976   0.573E+01
DAV:   4    -0.585353069238E+03   -0.78263E+01   -0.77007E+01 16336   0.117E+01
DAV:   5    -0.585646560441E+03   -0.29349E+00   -0.29178E+00 18232   0.222E+00    0.319E+01
DAV:   6    -0.576474016727E+03    0.91725E+01   -0.14500E+01 16624   0.791E+00    0.145E+01
DAV:   7    -0.576383965330E+03    0.90051E-01   -0.13997E+01 16728   0.825E+00    0.608E+00
DAV:   8    -0.575713625576E+03    0.67034E+00   -0.37040E+00 16768   0.463E+00    0.160E+00
DAV:   9    -0.575742967138E+03   -0.29342E-01   -0.10271E+00 16400   0.151E+00    0.112E+00
DAV:  10    -0.575735441626E+03    0.75255E-02   -0.16415E-01 16584   0.735E-01    0.733E-01
DAV:  11    -0.575735007732E+03    0.43389E-03   -0.60757E-02 16752   0.478E-01    0.464E-01
DAV:  12    -0.575732105660E+03    0.29021E-02   -0.23048E-02 16840   0.315E-01    0.249E-01
DAV:  13    -0.575732088672E+03    0.16988E-04   -0.58926E-03 16152   0.136E-01    0.150E-01
DAV:  14    -0.575732168673E+03   -0.80001E-04   -0.13122E-03 15592   0.604E-02    0.750E-02
DAV:  15    -0.575732173530E+03   -0.48562E-05   -0.39228E-04 15984   0.342E-02    0.477E-02
DAV:  16    -0.575732179932E+03   -0.64018E-05   -0.14305E-04 16056   0.209E-02    0.313E-02
DAV:  17    -0.575732189354E+03   -0.94223E-05   -0.36936E-05 15760   0.103E-02    0.168E-02
DAV:  18    -0.575732194524E+03   -0.51701E-05   -0.92419E-06 16200   0.507E-03    0.123E-02
DAV:  19    -0.575732197398E+03   -0.28738E-05   -0.33264E-06 15976   0.356E-03    0.798E-03
DAV:  20    -0.575732199630E+03   -0.22325E-05   -0.20979E-06 16456   0.229E-03    0.483E-03
DAV:  21    -0.575732200512E+03   -0.88213E-06   -0.83110E-07 15872   0.145E-03    0.345E-03
DAV:  22    -0.575732201425E+03   -0.91262E-06   -0.41256E-07 12840   0.107E-03    0.250E-03
DAV:  23    -0.575732201793E+03   -0.36839E-06   -0.33063E-07 11792   0.899E-04    0.199E-03
DAV:  24    -0.575732201486E+03    0.30773E-06   -0.92720E-08  8592   0.569E-04    0.135E-03
DAV:  25    -0.575732201273E+03    0.21217E-06   -0.49541E-08  7968   0.368E-04    0.810E-04
DAV:  26    -0.575732201233E+03    0.40449E-07   -0.19425E-08  7960   0.246E-04
   1 F= -.57573220E+03 E0= -.57573166E+03  d E =-.107815E-02  mag=     1.0000
Job ended on: Sun  8 Jun 11:46:46 UTC 2025\n
