       N       E                     dE             d eps       ncg     rms          rms(c)
DAV:   1     0.199660060032E+04    0.19966E+04   -0.20823E+05  9216   0.170E+03
DAV:   2    -0.303087272015E+03   -0.22997E+04   -0.22256E+04 10736   0.211E+02
DAV:   3    -0.523736033120E+03   -0.22065E+03   -0.21112E+03 11624   0.579E+01
DAV:   4    -0.533220287197E+03   -0.94843E+01   -0.91971E+01 11096   0.124E+01
DAV:   5    -0.533620511494E+03   -0.40022E+00   -0.39612E+00 12728   0.253E+00    0.302E+01
DAV:   6    -0.521940784179E+03    0.11680E+02   -0.50306E+01 11072   0.118E+01    0.137E+01
DAV:   7    -0.523100474359E+03   -0.11597E+01   -0.34789E+01 12112   0.114E+01    0.106E+01
DAV:   8    -0.520360849550E+03    0.27396E+01   -0.12671E+01 12376   0.730E+00    0.463E+00
DAV:   9    -0.519866036282E+03    0.49481E+00   -0.32816E+00 11520   0.343E+00    0.186E+00
DAV:  10    -0.519861696798E+03    0.43395E-02   -0.84864E-01 10824   0.156E+00    0.124E+00
DAV:  11    -0.519838692527E+03    0.23004E-01   -0.22578E-01 11040   0.886E-01    0.726E-01
DAV:  12    -0.519835288083E+03    0.34044E-02   -0.51325E-02 10696   0.403E-01    0.392E-01
DAV:  13    -0.519835291365E+03   -0.32827E-05   -0.15594E-02 10576   0.220E-01    0.224E-01
DAV:  14    -0.519834952904E+03    0.33846E-03   -0.43091E-03 10880   0.126E-01    0.121E-01
DAV:  15    -0.519834947677E+03    0.52276E-05   -0.12982E-03 11152   0.717E-02    0.641E-02
DAV:  16    -0.519834923246E+03    0.24430E-04   -0.44401E-04 11088   0.423E-02    0.302E-02
DAV:  17    -0.519834923120E+03    0.12608E-06   -0.13982E-04 10896   0.219E-02    0.173E-02
DAV:  18    -0.519834925013E+03   -0.18929E-05   -0.44339E-05 10992   0.123E-02    0.115E-02
DAV:  19    -0.519834926525E+03   -0.15115E-05   -0.12909E-05 10984   0.693E-03    0.657E-03
DAV:  20    -0.519834927269E+03   -0.74455E-06   -0.42915E-06 10888   0.395E-03    0.298E-03
DAV:  21    -0.519834927496E+03   -0.22673E-06   -0.13551E-06 10600   0.191E-03    0.181E-03
DAV:  22    -0.519834927619E+03   -0.12311E-06   -0.30767E-07  6768   0.908E-04    0.122E-03
DAV:  23    -0.519834927812E+03   -0.19307E-06   -0.12359E-07  5416   0.549E-04    0.785E-04
DAV:  24    -0.519834927937E+03   -0.12502E-06   -0.58665E-08  5400   0.367E-04    0.573E-04
DAV:  25    -0.519834927999E+03   -0.62153E-07   -0.36486E-08  5232   0.278E-04
   1 F= -.51983493E+03 E0= -.51983326E+03  d E =-.334455E-02  mag=     1.0000
