 264 264   0   0
  0.2770664E+02  0.1946760E-08  0.1946760E-08  0.1930025E-08  0.5000000E-15
  1.000000000000000E-004
  CAR 
 Si and Ge interface calculation         
      6.64750973     -8.88739957  301      4.05193575      1.00000000
     -8.887  0.0000E+00  0.0000E+00  0.0000E+00  0.0000E+00
     -8.836  0.0000E+00  0.0000E+00  0.0000E+00  0.0000E+00
     -8.784  0.0000E+00  0.0000E+00  0.0000E+00  0.0000E+00
     -8.732  0.0000E+00  0.0000E+00  0.0000E+00  0.0000E+00
     -8.680  0.0000E+00  0.0000E+00  0.0000E+00  0.0000E+00
     -8.628  0.0000E+00  0.0000E+00  0.0000E+00  0.0000E+00
     -8.577  0.0000E+00  0.0000E+00  0.0000E+00  0.0000E+00
     -8.525  0.0000E+00  0.0000E+00  0.0000E+00  0.0000E+00
     -8.473  0.0000E+00  0.0000E+00  0.0000E+00  0.0000E+00
     -8.421  0.0000E+00  0.0000E+00  0.0000E+00  0.0000E+00
     -8.370  0.0000E+00  0.0000E+00  0.0000E+00  0.0000E+00
     -8.318  0.0000E+00  0.0000E+00  0.0000E+00  0.0000E+00
     -8.266  0.0000E+00  0.0000E+00  0.0000E+00  0.0000E+00
     -8.214  0.1494E-04  0.3949E-05  0.7734E-06  0.2045E-06
     -8.162  0.9622E+01  0.9576E+01  0.4982E+00  0.4959E+00
     -8.111  0.1946E+02  0.1941E+02  0.1506E+01  0.1501E+01
     -8.059  0.1237E+02  0.1149E+02  0.2147E+01  0.2096E+01
     -8.007  0.2223E+02  0.2217E+02  0.3298E+01  0.3244E+01
     -7.955  0.1356E+02  0.1460E+02  0.4000E+01  0.4000E+01
     -7.904  0.1280E+02  0.1136E+02  0.4663E+01  0.4588E+01
     -7.852  0.1618E+02  0.1762E+02  0.5500E+01  0.5500E+01
     -7.800  0.2520E+02  0.2336E+02  0.6806E+01  0.6710E+01
     -7.748  0.3277E+02  0.3459E+02  0.8503E+01  0.8501E+01
     -7.696  0.1039E+02  0.1009E+02  0.9040E+01  0.9024E+01
     -7.645  0.2818E+02  0.2849E+02  0.1050E+02  0.1050E+02
     -7.593  0.1663E+01  0.1087E+01  0.1059E+02  0.1056E+02
     -7.541  0.1054E+02  0.1035E+02  0.1113E+02  0.1109E+02
     -7.489  0.2634E+02  0.2703E+02  0.1250E+02  0.1249E+02
     -7.437  0.1927E+02  0.1804E+02  0.1349E+02  0.1342E+02
     -7.386  0.2911E+02  0.3037E+02  0.1500E+02  0.1500E+02
     -7.334  0.2447E+02  0.2350E+02  0.1627E+02  0.1621E+02
     -7.282  0.3417E+02  0.3222E+02  0.1804E+02  0.1788E+02
     -7.230  0.3088E+02  0.3273E+02  0.1964E+02  0.1958E+02
     -7.179  0.3580E+02  0.3675E+02  0.2149E+02  0.2148E+02
     -7.127  0.4798E+00  0.5058E+00  0.2151E+02  0.2151E+02
     -7.075  0.5633E+02  0.5283E+02  0.2443E+02  0.2424E+02
     -7.023  0.5774E+02  0.5912E+02  0.2742E+02  0.2730E+02
     -6.971  0.2077E+02  0.2077E+02  0.2850E+02  0.2838E+02
     -6.920  0.4528E+02  0.4567E+02  0.3084E+02  0.3074E+02
     -6.868  0.2409E+02  0.2537E+02  0.3209E+02  0.3206E+02
     -6.816  0.3503E+02  0.3433E+02  0.3390E+02  0.3384E+02
     -6.764  0.3139E+02  0.3174E+02  0.3553E+02  0.3548E+02
     -6.713  0.6667E+02  0.6654E+02  0.3898E+02  0.3892E+02
     -6.661  0.4520E+02  0.4471E+02  0.4132E+02  0.4124E+02
     -6.609  0.5013E+02  0.4944E+02  0.4392E+02  0.4380E+02
     -6.557  0.4494E+02  0.4591E+02  0.4625E+02  0.4618E+02
     -6.505  0.2486E+02  0.2281E+02  0.4753E+02  0.4736E+02
     -6.454  0.4841E+02  0.5058E+02  0.5004E+02  0.4998E+02
     -6.402  0.5427E+02  0.5412E+02  0.5285E+02  0.5278E+02
     -6.350  0.3173E+02  0.3183E+02  0.5449E+02  0.5443E+02
     -6.298  0.3609E+02  0.3586E+02  0.5636E+02  0.5629E+02
     -6.246  0.4632E+02  0.4513E+02  0.5876E+02  0.5862E+02
     -6.195  0.4552E+02  0.4595E+02  0.6112E+02  0.6100E+02
     -6.143  0.7863E+02  0.7945E+02  0.6519E+02  0.6512E+02
     -6.091  0.7444E+02  0.7289E+02  0.6904E+02  0.6889E+02
     -6.039  0.7897E+02  0.7894E+02  0.7313E+02  0.7298E+02
     -5.988  0.7258E+02  0.7339E+02  0.7689E+02  0.7678E+02
     -5.936  0.5457E+02  0.5306E+02  0.7972E+02  0.7953E+02
     -5.884  0.5412E+02  0.5549E+02  0.8252E+02  0.8240E+02
     -5.832  0.6797E+02  0.6779E+02  0.8604E+02  0.8591E+02
     -5.780  0.8613E+02  0.8473E+02  0.9050E+02  0.9030E+02
     -5.729  0.6344E+02  0.6481E+02  0.9378E+02  0.9365E+02
     -5.677  0.8193E+02  0.8086E+02  0.9803E+02  0.9784E+02
     -5.625  0.9090E+02  0.9164E+02  0.1027E+03  0.1026E+03
     -5.573  0.7321E+02  0.7194E+02  0.1065E+03  0.1063E+03
     -5.522  0.7254E+02  0.7418E+02  0.1103E+03  0.1102E+03
     -5.470  0.6652E+02  0.6498E+02  0.1137E+03  0.1135E+03
     -5.418  0.7743E+02  0.7876E+02  0.1177E+03  0.1176E+03
     -5.366  0.6747E+02  0.6824E+02  0.1212E+03  0.1211E+03
     -5.314  0.7232E+02  0.6927E+02  0.1250E+03  0.1247E+03
     -5.263  0.1038E+03  0.1035E+03  0.1303E+03  0.1301E+03
     -5.211  0.7420E+02  0.7777E+02  0.1342E+03  0.1341E+03
     -5.159  0.4902E+02  0.4770E+02  0.1367E+03  0.1366E+03
     -5.107  0.6812E+02  0.6687E+02  0.1403E+03  0.1400E+03
     -5.055  0.8439E+02  0.8505E+02  0.1446E+03  0.1444E+03
     -5.004  0.7767E+02  0.7690E+02  0.1486E+03  0.1484E+03
     -4.952  0.5952E+02  0.6089E+02  0.1517E+03  0.1516E+03
     -4.900  0.5815E+02  0.5702E+02  0.1547E+03  0.1545E+03
     -4.848  0.8852E+02  0.8852E+02  0.1593E+03  0.1591E+03
     -4.797  0.8761E+02  0.8613E+02  0.1639E+03  0.1636E+03
     -4.745  0.1105E+03  0.1100E+03  0.1696E+03  0.1693E+03
     -4.693  0.1224E+03  0.1231E+03  0.1759E+03  0.1756E+03
     -4.641  0.9999E+02  0.9885E+02  0.1811E+03  0.1808E+03
     -4.589  0.9905E+02  0.9695E+02  0.1862E+03  0.1858E+03
     -4.538  0.1184E+03  0.1215E+03  0.1924E+03  0.1921E+03
     -4.486  0.9858E+02  0.9681E+02  0.1975E+03  0.1971E+03
     -4.434  0.9746E+02  0.9842E+02  0.2025E+03  0.2022E+03
     -4.382  0.7652E+02  0.7828E+02  0.2065E+03  0.2062E+03
     -4.330  0.8429E+02  0.8420E+02  0.2108E+03  0.2106E+03
     -4.279  0.8902E+02  0.8903E+02  0.2155E+03  0.2152E+03
     -4.227  0.7652E+02  0.7593E+02  0.2194E+03  0.2191E+03
     -4.175  0.9124E+02  0.9006E+02  0.2241E+03  0.2238E+03
     -4.123  0.6982E+02  0.7423E+02  0.2278E+03  0.2276E+03
     -4.072  0.5596E+02  0.5455E+02  0.2307E+03  0.2305E+03
     -4.020  0.5504E+02  0.5432E+02  0.2335E+03  0.2333E+03
     -3.968  0.7857E+02  0.7831E+02  0.2376E+03  0.2373E+03
     -3.916  0.7326E+02  0.7374E+02  0.2414E+03  0.2412E+03
     -3.864  0.6633E+02  0.6519E+02  0.2448E+03  0.2445E+03
     -3.813  0.7404E+02  0.7616E+02  0.2486E+03  0.2485E+03
     -3.761  0.5827E+02  0.5865E+02  0.2517E+03  0.2515E+03
     -3.709  0.6694E+02  0.6562E+02  0.2551E+03  0.2549E+03
     -3.657  0.7455E+02  0.7185E+02  0.2590E+03  0.2586E+03
     -3.606  0.7522E+02  0.7645E+02  0.2629E+03  0.2626E+03
     -3.554  0.3671E+02  0.3958E+02  0.2648E+03  0.2646E+03
     -3.502  0.5063E+02  0.4502E+02  0.2674E+03  0.2670E+03
     -3.450  0.9352E+02  0.9802E+02  0.2722E+03  0.2720E+03
     -3.398  0.6876E+02  0.6484E+02  0.2758E+03  0.2754E+03
     -3.347  0.8667E+02  0.8918E+02  0.2803E+03  0.2800E+03
     -3.295  0.5725E+02  0.5692E+02  0.2833E+03  0.2830E+03
     -3.243  0.9037E+02  0.8914E+02  0.2879E+03  0.2876E+03
     -3.191  0.7072E+02  0.7133E+02  0.2916E+03  0.2913E+03
     -3.139  0.8797E+02  0.8966E+02  0.2961E+03  0.2959E+03
     -3.088  0.7465E+02  0.7643E+02  0.3000E+03  0.2999E+03
     -3.036  0.6875E+02  0.6631E+02  0.3036E+03  0.3033E+03
     -2.984  0.6338E+02  0.6453E+02  0.3069E+03  0.3067E+03
     -2.932  0.9012E+02  0.8361E+02  0.3115E+03  0.3110E+03
     -2.881  0.9987E+02  0.1058E+03  0.3167E+03  0.3165E+03
     -2.829  0.8459E+02  0.8657E+02  0.3211E+03  0.3210E+03
     -2.777  0.7564E+02  0.7377E+02  0.3250E+03  0.3248E+03
     -2.725  0.1098E+03  0.1097E+03  0.3307E+03  0.3304E+03
     -2.673  0.9834E+02  0.9675E+02  0.3358E+03  0.3355E+03
     -2.622  0.9701E+02  0.9676E+02  0.3408E+03  0.3405E+03
     -2.570  0.1028E+03  0.1021E+03  0.3461E+03  0.3458E+03
     -2.518  0.1350E+03  0.1343E+03  0.3531E+03  0.3527E+03
     -2.466  0.1062E+03  0.1091E+03  0.3586E+03  0.3584E+03
     -2.415  0.8812E+02  0.8871E+02  0.3632E+03  0.3630E+03
     -2.363  0.8738E+02  0.8675E+02  0.3677E+03  0.3674E+03
     -2.311  0.9367E+02  0.9153E+02  0.3725E+03  0.3722E+03
     -2.259  0.1051E+03  0.1079E+03  0.3780E+03  0.3778E+03
     -2.207  0.6790E+02  0.6813E+02  0.3815E+03  0.3813E+03
     -2.156  0.4920E+02  0.5170E+02  0.3840E+03  0.3840E+03
     -2.104  0.6306E+02  0.6095E+02  0.3873E+03  0.3871E+03
     -2.052  0.4477E+02  0.4332E+02  0.3896E+03  0.3894E+03
     -2.000  0.9739E+02  0.9595E+02  0.3947E+03  0.3943E+03
     -1.948  0.9238E+02  0.9192E+02  0.3995E+03  0.3991E+03
     -1.897  0.9902E+02  0.1022E+03  0.4046E+03  0.4044E+03
     -1.845  0.7995E+02  0.7995E+02  0.4087E+03  0.4085E+03
     -1.793  0.6983E+02  0.6925E+02  0.4123E+03  0.4121E+03
     -1.741  0.1028E+03  0.1011E+03  0.4177E+03  0.4174E+03
     -1.690  0.9606E+02  0.9670E+02  0.4226E+03  0.4224E+03
     -1.638  0.8209E+02  0.8214E+02  0.4269E+03  0.4266E+03
     -1.586  0.7165E+02  0.7201E+02  0.4306E+03  0.4303E+03
     -1.534  0.8308E+02  0.8422E+02  0.4349E+03  0.4347E+03
     -1.482  0.7713E+02  0.7657E+02  0.4389E+03  0.4387E+03
     -1.431  0.5360E+02  0.5637E+02  0.4417E+03  0.4416E+03
     -1.379  0.5247E+02  0.4860E+02  0.4444E+03  0.4441E+03
     -1.327  0.6640E+02  0.6833E+02  0.4478E+03  0.4476E+03
     -1.275  0.5238E+02  0.5349E+02  0.4505E+03  0.4504E+03
     -1.224  0.5382E+02  0.5391E+02  0.4533E+03  0.4532E+03
     -1.172  0.5593E+02  0.5674E+02  0.4562E+03  0.4561E+03
     -1.120  0.4805E+02  0.4624E+02  0.4587E+03  0.4585E+03
     -1.068  0.5900E+02  0.6144E+02  0.4618E+03  0.4617E+03
     -1.016  0.6688E+02  0.6368E+02  0.4652E+03  0.4650E+03
     -0.965  0.2935E+02  0.3269E+02  0.4667E+03  0.4667E+03
     -0.913  0.3645E+02  0.3328E+02  0.4686E+03  0.4684E+03
     -0.861  0.6662E+02  0.6775E+02  0.4721E+03  0.4719E+03
     -0.809  0.6538E+02  0.6556E+02  0.4755E+03  0.4753E+03
     -0.757  0.6405E+02  0.6470E+02  0.4788E+03  0.4787E+03
     -0.706  0.5486E+02  0.5189E+02  0.4816E+03  0.4814E+03
     -0.654  0.6475E+02  0.6547E+02  0.4850E+03  0.4848E+03
     -0.602  0.3607E+02  0.3911E+02  0.4868E+03  0.4868E+03
     -0.550  0.3433E+02  0.3263E+02  0.4886E+03  0.4885E+03
     -0.499  0.1372E+02  0.1565E+02  0.4893E+03  0.4893E+03
     -0.447  0.4189E+02  0.4074E+02  0.4915E+03  0.4914E+03
     -0.395  0.4372E+02  0.4328E+02  0.4938E+03  0.4936E+03
     -0.343  0.6163E+02  0.5990E+02  0.4970E+03  0.4967E+03
     -0.291  0.7566E+02  0.7659E+02  0.5009E+03  0.5007E+03
     -0.240  0.7478E+02  0.7432E+02  0.5048E+03  0.5046E+03
     -0.188  0.6738E+02  0.6727E+02  0.5082E+03  0.5080E+03
     -0.136  0.1059E+03  0.1056E+03  0.5137E+03  0.5135E+03
     -0.084  0.1132E+03  0.1112E+03  0.5196E+03  0.5193E+03
     -0.033  0.1125E+03  0.1118E+03  0.5254E+03  0.5251E+03
      0.019  0.1236E+03  0.1248E+03  0.5318E+03  0.5315E+03
      0.071  0.1672E+03  0.1634E+03  0.5405E+03  0.5400E+03
      0.123  0.1259E+03  0.1307E+03  0.5470E+03  0.5468E+03
      0.175  0.8468E+02  0.8613E+02  0.5514E+03  0.5512E+03
      0.226  0.8684E+02  0.8317E+02  0.5559E+03  0.5555E+03
      0.278  0.8664E+02  0.8897E+02  0.5604E+03  0.5601E+03
      0.330  0.7661E+02  0.7827E+02  0.5643E+03  0.5642E+03
      0.382  0.9034E+02  0.8674E+02  0.5690E+03  0.5687E+03
      0.434  0.1042E+03  0.1064E+03  0.5744E+03  0.5742E+03
      0.485  0.6631E+02  0.6829E+02  0.5778E+03  0.5777E+03
      0.537  0.1158E+03  0.1128E+03  0.5838E+03  0.5836E+03
      0.589  0.1525E+03  0.1498E+03  0.5917E+03  0.5913E+03
      0.641  0.1315E+03  0.1312E+03  0.5985E+03  0.5981E+03
      0.692  0.1353E+03  0.1372E+03  0.6055E+03  0.6052E+03
      0.744  0.1194E+03  0.1199E+03  0.6117E+03  0.6114E+03
      0.796  0.1240E+03  0.1251E+03  0.6181E+03  0.6179E+03
      0.848  0.1024E+03  0.1029E+03  0.6234E+03  0.6232E+03
      0.900  0.9027E+02  0.8929E+02  0.6281E+03  0.6279E+03
      0.951  0.9932E+02  0.9808E+02  0.6333E+03  0.6329E+03
      1.003  0.1112E+03  0.1120E+03  0.6390E+03  0.6387E+03
      1.055  0.1659E+03  0.1618E+03  0.6476E+03  0.6471E+03
      1.107  0.1352E+03  0.1387E+03  0.6546E+03  0.6543E+03
      1.159  0.1363E+03  0.1323E+03  0.6617E+03  0.6611E+03
      1.210  0.1535E+03  0.1538E+03  0.6696E+03  0.6691E+03
      1.262  0.1901E+03  0.1906E+03  0.6795E+03  0.6790E+03
      1.314  0.1761E+03  0.1772E+03  0.6886E+03  0.6882E+03
      1.366  0.1994E+03  0.1973E+03  0.6989E+03  0.6984E+03
      1.417  0.1784E+03  0.1829E+03  0.7082E+03  0.7078E+03
      1.469  0.1284E+03  0.1262E+03  0.7148E+03  0.7144E+03
      1.521  0.2054E+03  0.1992E+03  0.7254E+03  0.7247E+03
      1.573  0.2078E+03  0.2092E+03  0.7362E+03  0.7355E+03
      1.625  0.1906E+03  0.1948E+03  0.7461E+03  0.7456E+03
      1.676  0.1726E+03  0.1699E+03  0.7550E+03  0.7544E+03
      1.728  0.1914E+03  0.1917E+03  0.7649E+03  0.7643E+03
      1.780  0.1789E+03  0.1828E+03  0.7742E+03  0.7738E+03
      1.832  0.1743E+03  0.1702E+03  0.7832E+03  0.7826E+03
      1.883  0.1593E+03  0.1629E+03  0.7915E+03  0.7911E+03
      1.935  0.1972E+03  0.1924E+03  0.8017E+03  0.8010E+03
      1.987  0.1968E+03  0.1973E+03  0.8119E+03  0.8112E+03
      2.039  0.1542E+03  0.1551E+03  0.8198E+03  0.8193E+03
      2.091  0.1842E+03  0.1834E+03  0.8294E+03  0.8288E+03
      2.142  0.1871E+03  0.1878E+03  0.8391E+03  0.8385E+03
      2.194  0.1894E+03  0.1911E+03  0.8489E+03  0.8484E+03
      2.246  0.1564E+03  0.1545E+03  0.8570E+03  0.8564E+03
      2.298  0.1684E+03  0.1682E+03  0.8657E+03  0.8651E+03
      2.350  0.1712E+03  0.1692E+03  0.8746E+03  0.8739E+03
      2.401  0.1850E+03  0.1871E+03  0.8841E+03  0.8836E+03
      2.453  0.1672E+03  0.1684E+03  0.8928E+03  0.8923E+03
      2.505  0.1521E+03  0.1526E+03  0.9007E+03  0.9002E+03
      2.557  0.1600E+03  0.1614E+03  0.9090E+03  0.9085E+03
      2.608  0.1345E+03  0.1331E+03  0.9159E+03  0.9154E+03
      2.660  0.1118E+03  0.1188E+03  0.9217E+03  0.9216E+03
      2.712  0.1452E+03  0.1348E+03  0.9292E+03  0.9286E+03
      2.764  0.1415E+03  0.1483E+03  0.9366E+03  0.9362E+03
      2.816  0.1398E+03  0.1338E+03  0.9438E+03  0.9432E+03
      2.867  0.1508E+03  0.1501E+03  0.9516E+03  0.9509E+03
      2.919  0.1406E+03  0.1432E+03  0.9589E+03  0.9584E+03
      2.971  0.9147E+02  0.9282E+02  0.9636E+03  0.9632E+03
      3.023  0.1461E+03  0.1432E+03  0.9712E+03  0.9706E+03
      3.074  0.1312E+03  0.1344E+03  0.9780E+03  0.9775E+03
      3.126  0.1246E+03  0.1204E+03  0.9844E+03  0.9838E+03
      3.178  0.1035E+03  0.1083E+03  0.9898E+03  0.9894E+03
      3.230  0.1020E+03  0.9987E+02  0.9951E+03  0.9946E+03
      3.282  0.1139E+03  0.1134E+03  0.1001E+04  0.1000E+04
      3.333  0.1148E+03  0.1151E+03  0.1007E+04  0.1006E+04
      3.385  0.8765E+02  0.8616E+02  0.1011E+04  0.1011E+04
      3.437  0.8383E+02  0.8357E+02  0.1016E+04  0.1015E+04
      3.489  0.7965E+02  0.8199E+02  0.1020E+04  0.1019E+04
      3.541  0.8952E+02  0.9123E+02  0.1025E+04  0.1024E+04
      3.592  0.8511E+02  0.8590E+02  0.1029E+04  0.1029E+04
      3.644  0.6616E+02  0.6929E+02  0.1032E+04  0.1032E+04
      3.696  0.3060E+02  0.2588E+02  0.1034E+04  0.1034E+04
      3.748  0.7969E+02  0.8064E+02  0.1038E+04  0.1038E+04
      3.799  0.3875E+02  0.3970E+02  0.1040E+04  0.1040E+04
      3.851  0.5483E+02  0.5727E+02  0.1043E+04  0.1043E+04
      3.903  0.3642E+02  0.3479E+02  0.1045E+04  0.1045E+04
      3.955  0.5179E+02  0.5153E+02  0.1048E+04  0.1047E+04
      4.007  0.7882E+02  0.7772E+02  0.1052E+04  0.1051E+04
      4.058  0.8448E+02  0.8051E+02  0.1056E+04  0.1055E+04
      4.110  0.9950E+02  0.9671E+02  0.1061E+04  0.1060E+04
      4.162  0.9690E+02  0.8692E+02  0.1066E+04  0.1065E+04
      4.214  0.1115E+03  0.1270E+03  0.1072E+04  0.1071E+04
      4.265  0.8978E+02  0.7866E+02  0.1077E+04  0.1076E+04
      4.317  0.7996E+02  0.8248E+02  0.1081E+04  0.1080E+04
      4.369  0.1209E+03  0.1246E+03  0.1087E+04  0.1086E+04
      4.421  0.1124E+03  0.1084E+03  0.1093E+04  0.1092E+04
      4.473  0.1153E+03  0.1180E+03  0.1099E+04  0.1098E+04
      4.524  0.1146E+03  0.1116E+03  0.1105E+04  0.1104E+04
      4.576  0.9231E+02  0.9914E+02  0.1109E+04  0.1109E+04
      4.628  0.1057E+03  0.1055E+03  0.1115E+04  0.1114E+04
      4.680  0.1173E+03  0.1143E+03  0.1121E+04  0.1120E+04
      4.732  0.1254E+03  0.1250E+03  0.1128E+04  0.1127E+04
      4.783  0.1208E+03  0.1235E+03  0.1134E+04  0.1133E+04
      4.835  0.1169E+03  0.1153E+03  0.1140E+04  0.1139E+04
      4.887  0.1065E+03  0.1141E+03  0.1145E+04  0.1145E+04
      4.939  0.1168E+03  0.1117E+03  0.1151E+04  0.1151E+04
      4.990  0.1133E+03  0.1134E+03  0.1157E+04  0.1157E+04
      5.042  0.1130E+03  0.1136E+03  0.1163E+04  0.1163E+04
      5.094  0.1348E+03  0.1326E+03  0.1170E+04  0.1169E+04
      5.146  0.9915E+02  0.1041E+03  0.1175E+04  0.1175E+04
      5.198  0.1136E+03  0.1108E+03  0.1181E+04  0.1181E+04
      5.249  0.1135E+03  0.1142E+03  0.1187E+04  0.1186E+04
      5.301  0.1075E+03  0.1057E+03  0.1193E+04  0.1192E+04
      5.353  0.1190E+03  0.1184E+03  0.1199E+04  0.1198E+04
      5.405  0.1286E+03  0.1308E+03  0.1205E+04  0.1205E+04
      5.457  0.1494E+03  0.1491E+03  0.1213E+04  0.1213E+04
      5.508  0.1427E+03  0.1428E+03  0.1220E+04  0.1220E+04
      5.560  0.1462E+03  0.1460E+03  0.1228E+04  0.1228E+04
      5.612  0.1446E+03  0.1409E+03  0.1236E+04  0.1235E+04
      5.664  0.1119E+03  0.1185E+03  0.1241E+04  0.1241E+04
      5.715  0.1166E+03  0.1160E+03  0.1247E+04  0.1247E+04
      5.767  0.1315E+03  0.1304E+03  0.1254E+04  0.1254E+04
      5.819  0.1458E+03  0.1449E+03  0.1262E+04  0.1261E+04
      5.871  0.1303E+03  0.1338E+03  0.1268E+04  0.1268E+04
      5.923  0.5381E+02  0.5878E+02  0.1271E+04  0.1271E+04
      5.974  0.1408E+02  0.1568E+02  0.1272E+04  0.1272E+04
      6.026  0.0000E+00  0.0000E+00  0.1272E+04  0.1272E+04
      6.078  0.0000E+00  0.0000E+00  0.1272E+04  0.1272E+04
      6.130  0.0000E+00  0.0000E+00  0.1272E+04  0.1272E+04
      6.181  0.0000E+00  0.0000E+00  0.1272E+04  0.1272E+04
      6.233  0.0000E+00  0.0000E+00  0.1272E+04  0.1272E+04
      6.285  0.0000E+00  0.0000E+00  0.1272E+04  0.1272E+04
      6.337  0.0000E+00  0.0000E+00  0.1272E+04  0.1272E+04
      6.389  0.0000E+00  0.0000E+00  0.1272E+04  0.1272E+04
      6.440  0.0000E+00  0.0000E+00  0.1272E+04  0.1272E+04
      6.492  0.0000E+00  0.0000E+00  0.1272E+04  0.1272E+04
      6.544  0.0000E+00  0.0000E+00  0.1272E+04  0.1272E+04
      6.596  0.0000E+00  0.0000E+00  0.1272E+04  0.1272E+04
      6.648  0.0000E+00  0.0000E+00  0.1272E+04  0.1272E+04
