 vasp.6.4.3 19Mar24 (build Oct 22 2024 11:23:12) complex                        
  
 executed on             LinuxIFC date 2025.06.12  19:15:31
 running   64 mpi-ranks, on    4 nodes
 distrk:  each k-point on   64 cores,    1 groups
 distr:  one band on NCORE=  16 cores,    4 groups


--------------------------------------------------------------------------------------------------------


 INCAR:
   SYSTEM = Si and Ge interface calculation
   ISTART = 0
   ICHARG = 2
   LWAVE = .FALSE.
   LREAL = AUTO
   ENCUT = 700
   ENAUG = 900
   ADDGRID = .TRUE.
   LMAXMIX = 6
   LASPH = .TRUE.
   LMIXTAU = .TRUE.
   NCORE = 16
   NELM = 100
   NBANDS = 634
   EDIFF = 1d-7
   AMIX = 0.6
   ISMEAR = 0
   SIGMA = 0.01
   NELECT = 1056
   ISPIN = 2
   NUPDOWN = 1
   LVTOT = .FALSE.
   LVHAR = .TRUE.

 POTCAR:    PAW_PBE Sn 08Apr2002                  
 POTCAR:    PAW_PBE Si 05Jan2001                  
 -----------------------------------------------------------------------------
|                                                                             |
|           W    W    AA    RRRRR   N    N  II  N    N   GGGG   !!!           |
|           W    W   A  A   R    R  NN   N  II  NN   N  G    G  !!!           |
|           W    W  A    A  R    R  N N  N  II  N N  N  G       !!!           |
|           W WW W  AAAAAA  RRRRR   N  N N  II  N  N N  G  GGG   !            |
|           WW  WW  A    A  R   R   N   NN  II  N   NN  G    G                |
|           W    W  A    A  R    R  N    N  II  N    N   GGGG   !!!           |
|                                                                             |
|     You use a magnetic or noncollinear calculation, but did not specify     |
|     the initial magnetic moment with the MAGMOM tag. Note that a            |
|     default of 3.788e-3 will be used for all atoms. This ferromagnetic      |
|     setup may break the symmetry of the crystal, in particular it may       |
|     rule out finding an antiferromagnetic solution. Thence, we              |
|     recommend setting the initial magnetic moment manually or verifying     |
|     carefully that this magnetic setup is desired.                          |
|                                                                             |
 -----------------------------------------------------------------------------

 POTCAR:    PAW_PBE Sn 08Apr2002                  
   VRHFIN =Sn: s2p2                                                                                 
   LEXCH  = PE                                                                                      
   EATOM  =    94.0860 eV,    6.9151 Ry                                                             
                                                                                                    
   TITEL  = PAW_PBE Sn 08Apr2002                                                                    
   LULTRA =        F    use ultrasoft PP ?                                                          
   IUNSCR =        1    unscreen: 0-lin 1-nonlin 2-no                                               
   RPACOR =    2.000    partial core radius                                                         
   POMASS =  118.710; ZVAL   =    4.000    mass and valenz                                          
   RCORE  =    3.000    outmost cutoff radius                                                       
   RWIGS  =    2.960; RWIGS  =    1.566    wigner-seitz radius (au A)                               
   ENMAX  =  103.236; ENMIN  =   77.427 eV                                                          
   ICORE  =        3    local potential                                                             
   LCOR   =        T    correct aug charges                                                         
   LPAW   =        T    paw PP                                                                      
   EAUG   =  263.585                                                                                
   DEXC   =    0.000                                                                                
   RMAX   =    3.078    core radius for proj-oper                                                   
   RAUG   =    1.300    factor for augmentation sphere                                              
   RDEP   =    3.022    radius for radial grids                                                     
   RDEPT  =    2.655    core radius for aug-charge                                                  
                                                                                                    
   Atomic configuration                                                                             
   13 entries                                                                                       
     n  l   j            E        occ.                                                              
     1  0  0.50    -29007.2859   2.0000                                                             
     2  0  0.50     -4378.8056   2.0000                                                             
     2  1  1.50     -3930.4293   6.0000                                                             
     3  0  0.50      -845.0264   2.0000                                                             
     3  1  1.50      -698.5725   6.0000                                                             
     3  2  2.50      -473.2839  10.0000                                                             
     4  0  0.50      -133.9036   2.0000                                                             
     4  1  1.50       -89.6752   6.0000                                                             
     4  2  2.50       -25.8375  10.0000                                                             
     5  0  0.50       -10.5484   2.0000                                                             
     5  1  0.50        -3.6940   2.0000                                                             
     5  2  1.50        -1.3606   0.0000                                                             
     4  3  2.50        -4.0817   0.0000                                                             
   Description                                                                                      
     l       E           TYP  RCUT    TYP  RCUT                                                     
     0    -10.5483727     23  3.000                                                                 
     0     27.2116520     23  3.000                                                                 
     1     -3.6939829     23  3.000                                                                 
     1      1.9821976     23  3.000                                                                 
     2     -1.3605826     23  3.000                                                                 
     3     -2.7211652     23  3.000                                                                 
  local pseudopotential read in
  partial core-charges read in
  partial kinetic energy density read in
  atomic valenz-charges read in
  non local Contribution for L=           0  read in
    real space projection operators read in
  non local Contribution for L=           0  read in
    real space projection operators read in
  non local Contribution for L=           1  read in
    real space projection operators read in
  non local Contribution for L=           1  read in
    real space projection operators read in
  non local Contribution for L=           2  read in
    real space projection operators read in
    PAW grid and wavefunctions read in
 
   number of l-projection  operators is LMAX  =           5
   number of lm-projection operators is LMMAX =          13
 
 POTCAR:    PAW_PBE Si 05Jan2001                  
   VRHFIN =Si: s2p2                                                                                 
   LEXCH  = PE                                                                                      
   EATOM  =   103.0669 eV,    7.5752 Ry                                                             
                                                                                                    
   TITEL  = PAW_PBE Si 05Jan2001                                                                    
   LULTRA =        F    use ultrasoft PP ?                                                          
   IUNSCR =        1    unscreen: 0-lin 1-nonlin 2-no                                               
   RPACOR =    1.500    partial core radius                                                         
   POMASS =   28.085; ZVAL   =    4.000    mass and valenz                                          
   RCORE  =    1.900    outmost cutoff radius                                                       
   RWIGS  =    2.480; RWIGS  =    1.312    wigner-seitz radius (au A)                               
   ENMAX  =  245.345; ENMIN  =  184.009 eV                                                          
   ICORE  =        2    local potential                                                             
   LCOR   =        T    correct aug charges                                                         
   LPAW   =        T    paw PP                                                                      
   EAUG   =  322.069                                                                                
   DEXC   =    0.000                                                                                
   RMAX   =    1.950    core radius for proj-oper                                                   
   RAUG   =    1.300    factor for augmentation sphere                                              
   RDEP   =    1.993    radius for radial grids                                                     
   RDEPT  =    1.837    core radius for aug-charge                                                  
                                                                                                    
   Atomic configuration                                                                             
    6 entries                                                                                       
     n  l   j            E        occ.                                                              
     1  0  0.50     -1785.8828   2.0000                                                             
     2  0  0.50      -139.4969   2.0000                                                             
     2  1  1.50       -95.5546   6.0000                                                             
     3  0  0.50       -10.8127   2.0000                                                             
     3  1  0.50        -4.0811   2.0000                                                             
     3  2  1.50        -4.0817   0.0000                                                             
   Description                                                                                      
     l       E           TYP  RCUT    TYP  RCUT                                                     
     0    -10.8127223     23  1.900                                                                 
     0     -7.6451159     23  1.900                                                                 
     1     -4.0811372     23  1.900                                                                 
     1      2.4879257     23  1.900                                                                 
     2     -4.0817478      7  1.900                                                                 
  local pseudopotential read in
  partial core-charges read in
  partial kinetic energy density read in
  atomic valenz-charges read in
  non local Contribution for L=           0  read in
    real space projection operators read in
  non local Contribution for L=           0  read in
    real space projection operators read in
  non local Contribution for L=           1  read in
    real space projection operators read in
  non local Contribution for L=           1  read in
    real space projection operators read in
    PAW grid and wavefunctions read in
 
   number of l-projection  operators is LMAX  =           4
   number of lm-projection operators is LMMAX =           8
 
 Optimization of the real space projectors (new method)

 maximal supplied QI-value         = 12.47
 optimisation between [QCUT,QGAM] = [ 12.47, 27.06] = [ 43.56,205.12] Ry 
 Optimized for a Real-space Cutoff    1.58 Angstroem

   l    n(q)    QCUT    max X(q) W(low)/X(q) W(high)/X(q)  e(spline) 
   0     13    12.472    14.688    0.45E-04    0.45E-04    0.25E-05
   0     13    12.472     7.308    0.94E-04    0.11E-03    0.61E-05
   1     12    12.472    45.102    0.34E-03    0.14E-03    0.21E-05
   1     12    12.472    30.691    0.31E-03    0.13E-03    0.20E-05
   2     12    12.472     7.156    0.86E-04    0.11E-03    0.17E-05
 WARNING: PSMAXN for non-local potential too small
          PSMAXN should be >   13.5545592237991       NTYP=           1
 Optimization of the real space projectors (new method)

 maximal supplied QI-value         = 19.84
 optimisation between [QCUT,QGAM] = [ 13.49, 26.99] = [ 50.98,203.92] Ry 
 Optimized for a Real-space Cutoff    1.07 Angstroem

   l    n(q)    QCUT    max X(q) W(low)/X(q) W(high)/X(q)  e(spline) 
   0      9    13.493   159.560    0.22E-03    0.15E-03    0.72E-07
   0      9    13.493   115.863    0.21E-03    0.15E-03    0.71E-07
   1      8    13.493    88.339    0.15E-03    0.11E-03    0.13E-06
   1      8    13.493    48.592    0.15E-03    0.10E-03    0.13E-06
  PAW_PBE Sn 08Apr2002                  :
 energy of atom  1       EATOM=  -94.0860
 kinetic energy error for atom=    0.0000 (will be added to EATOM!!)
  PAW_PBE Si 05Jan2001                  :
 energy of atom  2       EATOM= -103.0669
 kinetic energy error for atom=    0.0003 (will be added to EATOM!!)
 
 
 POSCAR: Sn+Si
  positions in direct lattice
  No initial velocities read in


 exchange-correlation table for PE
   RHO(1)=    0.500       N(1)  =     2000
   RHO(2)=  100.500       N(2)  =     4000
 


--------------------------------------------------------------------------------------------------------


 ion  position               nearest neighbor table
   1  0.995  0.667  0.000- 261 2.81 168 2.81  61 2.96  19 3.00
   2  0.828  0.667  0.168-  49 2.81  32 2.81 130 2.81 168 2.81
   3  0.925  0.854  0.534- 169 2.34 238 2.34  84 3.01
   4  0.995  0.333  0.000-  26 2.39  34 2.81 246 2.81
   5  0.675  0.104  0.886- 126 2.34 213 2.34  25 3.01
   6  0.155  0.701  0.534- 253 2.34 181 2.34  93 2.97  42 3.51
   7  0.598  0.489  0.886- 111 2.34 195 2.34  67 2.98
   8  0.828  0.000  0.168-  46 2.81  29 2.81 172 2.81 234 2.81
   9  0.271  0.124  0.534- 241 2.34 184 2.34  99 2.39
  10  0.328  0.667  0.000- 165 2.37  40 2.81  82 2.81
  11  0.162  0.667  0.168- 211 2.81 261 2.81  83 2.81  82 2.81
  12  0.867  0.143  0.605- 128 2.34  41 2.34  45 2.34 212 2.34
  13  0.328  0.333  0.000-  43 2.81 219 2.81  31 3.46 106 3.51
  14  0.162  0.333  0.168-  86 2.81 121 2.81  34 2.81 219 2.81
  15  0.995  0.333  0.336- 109 2.81  35 2.81  86 2.81 208 2.81
  16  0.098  0.989  0.886- 147 2.34  85 2.34 156 2.98
  17  0.162  0.000  0.168-  38 2.81  28 2.81  89 2.81  88 2.81
  18  0.995  0.000  0.336-  39 2.81  29 2.81  89 2.81  90 2.81
  19  0.944  0.758  0.886- 216 2.34 144 2.34   1 3.00  73 3.47
  20  0.495  0.667  0.168- 118 2.81  40 2.81 202 2.81  91 2.81
  21  0.328  0.667  0.336- 193 2.81 211 2.81  93 2.81 118 2.81
  22  0.059  0.181  0.886- 201 2.34 147 2.34 174 2.98
  23  0.136  0.797  0.886-  85 2.34 135 2.34  55 2.37
  24  0.328  0.333  0.336-  54 2.81 205 2.81 121 2.81  95 2.81
  25  0.662  0.000  0.000-  46 2.81  97 2.81 240 2.96   5 3.01
  26  0.021  0.374  0.886- 201 2.34 132 2.34   4 2.39
  27  0.328  0.000  0.336- 139 2.81  38 2.81  99 2.81 190 2.81
  28  0.078  0.917  0.084-  17 2.81 156 2.81  55 2.81 141 2.81
  29  0.912  0.917  0.252-   8 2.81  18 2.81 141 2.81 112 2.81
  30  0.745  0.917  0.420- 199 2.81 112 2.81  87 2.96  48 3.00
  31  0.251  0.220  0.886- 117 2.34 222 2.34 174 2.99  13 3.46
  32  0.912  0.583  0.252-   2 2.81 226 2.81 252 2.81  60 2.81
  33  0.745  0.583  0.420-  44 2.39 124 2.81  60 2.81
  34  0.078  0.250  0.084-  14 2.81 174 2.81   4 2.81 231 2.81
  35  0.912  0.250  0.252- 231 2.81 171 2.81  15 2.81  63 2.81
  36  0.348  0.739  0.534- 256 2.34 175 2.34  93 2.98
  37  0.412  0.917  0.084- 258 2.81 243 2.81  64 2.81  65 2.81
  38  0.245  0.917  0.252-  17 2.81  27 2.81  65 2.81  66 2.81
  39  0.078  0.917  0.420- 223 2.37  18 2.81  66 2.81
  40  0.412  0.583  0.084-  10 2.81  20 2.81  67 2.81  68 2.81
  41  0.886  0.047  0.534-  12 2.34 169 2.34  90 2.37
  42  0.078  0.583  0.420- 226 2.81  69 2.81  57 3.46   6 3.51
  43  0.412  0.250  0.084-  13 2.81 150 2.81  71 2.81 177 2.81
  44  0.771  0.624  0.534- 166 2.34 235 2.34  33 2.39
  45  0.848  0.239  0.534-  12 2.34 154 2.34 217 2.98
  46  0.745  0.917  0.084-   8 2.81  25 2.81 183 2.81  73 2.81
  47  0.578  0.917  0.252- 199 2.81 243 2.81 183 2.81  75 2.81
  48  0.694  0.008  0.534- 250 2.34 151 2.34  30 3.00 108 3.47
  49  0.745  0.583  0.084-   2 2.81 255 2.81 264 2.81  76 2.81
  50  0.425  0.354  0.534- 244 2.34 160 2.34  54 3.01
  51  0.809  0.431  0.534- 235 2.34 154 2.34 208 2.98
  52  0.745  0.250  0.084- 171 2.81  80 2.81  79 2.81 186 2.81
  53  0.578  0.250  0.252-  80 2.81 142 2.81 177 2.81  81 2.81
  54  0.412  0.250  0.420-  24 2.81  81 2.81 115 2.96  50 3.01
  55  0.162  0.833  0.000-  23 2.37  82 2.81  28 2.81
  56  0.463  0.162  0.816- 260 2.34  59 2.34 153 2.34 152 2.34
  57  0.001  0.470  0.534- 229 2.34 157 2.34 208 2.99  42 3.46
  58  0.162  0.500  0.000- 219 2.81 261 2.81 162 2.96 103 3.01
  59  0.482  0.066  0.886- 210 2.34  56 2.34 150 2.96
  60  0.828  0.500  0.336- 208 2.81 136 2.81  33 2.81  32 2.81
  61  0.982  0.566  0.886- 132 2.34 216 2.34   1 2.96
  62  0.790  0.528  0.886- 114 2.34 189 2.34  76 2.38
  63  0.828  0.167  0.336-  90 2.81 217 2.81  35 2.81 172 2.81
  64  0.495  0.833  0.000- 100 2.39  91 2.81  37 2.81
  65  0.328  0.833  0.168-  82 2.81 118 2.81  38 2.81  37 2.81
  66  0.162  0.833  0.336-  83 2.81  93 2.81  39 2.81  38 2.81
  67  0.495  0.500  0.000-  94 2.81  40 2.81 106 2.97   7 2.98
  68  0.328  0.500  0.168- 219 2.81  95 2.81 211 2.81  40 2.81
  69  0.162  0.500  0.336-  86 2.81 205 2.81  42 2.81 211 2.81
  70  0.828  0.335  0.886- 189 2.34 129 2.34
  71  0.328  0.167  0.168- 121 2.81  88 2.81  43 2.81 190 2.81
  72  0.162  0.167  0.336-  89 2.81 109 2.81 121 2.81  99 2.81
  73  0.828  0.833  0.000- 168 2.81  46 2.81  19 3.47  74 3.51
  74  0.905  0.951  0.886- 225 2.34 144 2.34 156 2.97  73 3.51
  75  0.495  0.833  0.336- 102 2.81 118 2.81  47 2.81 139 2.81
  76  0.828  0.500  0.000-  62 2.38 246 2.81  49 2.81
  77  0.867  0.143  0.886- 129 2.34 225 2.34  79 2.37
  78  0.495  0.500  0.336- 105 2.81  95 2.81 202 2.81 193 2.81
  79  0.828  0.167  0.000-  77 2.37 234 2.81  52 2.81
  80  0.662  0.167  0.168- 172 2.81  53 2.81  52 2.81  97 2.81
  81  0.495  0.167  0.336- 108 2.81 190 2.81  53 2.81  54 2.81
  82  0.245  0.750  0.084-  55 2.81  65 2.81  11 2.81  10 2.81
  83  0.078  0.750  0.252- 141 2.81  66 2.81  11 2.81 226 2.81
  84  0.912  0.750  0.420- 112 2.81 226 2.81 196 2.96   3 3.01
  85  0.117  0.893  0.816-  16 2.34 182 2.34  23 2.34 257 2.34
  86  0.078  0.417  0.252- 252 2.81  14 2.81  69 2.81  15 2.81
  87  0.732  0.816  0.534- 166 2.34 250 2.34  30 2.96
  88  0.245  0.083  0.084-  71 2.81 174 2.81  17 2.81 258 2.81
  89  0.078  0.083  0.252-  17 2.81 231 2.81  72 2.81  18 2.81
  90  0.912  0.083  0.420-  41 2.37  63 2.81  18 2.81
  91  0.578  0.750  0.084-  64 2.81 183 2.81 255 2.81  20 2.81
  92  0.617  0.393  0.534- 232 2.34 163 2.34 105 2.37
  93  0.245  0.750  0.420-  66 2.81  21 2.81   6 2.97  36 2.98
  94  0.578  0.417  0.084-  67 2.81 264 2.81 186 2.81 177 2.81
  95  0.412  0.417  0.252- 177 2.81  68 2.81  78 2.81  24 2.81
  96  0.578  0.585  0.534- 247 2.34 163 2.34
  97  0.578  0.083  0.084-  25 2.81  80 2.81 150 2.81 243 2.81
  98  0.655  0.201  0.534- 232 2.34 151 2.34 217 2.97 108 3.51
  99  0.245  0.083  0.420-   9 2.39  27 2.81  72 2.81
 100  0.521  0.874  0.886- 210 2.34 123 2.34  64 2.39
 101  0.232  0.316  0.534- 107 2.34 241 2.34 205 2.96
 102  0.578  0.750  0.420- 104 2.38  75 2.81 124 2.81
 103  0.175  0.604  0.886- 204 2.34 135 2.34  58 3.01
 104  0.540  0.778  0.534- 247 2.34 178 2.34 102 2.38
 105  0.578  0.417  0.420-  92 2.37  78 2.81 142 2.81
 106  0.405  0.451  0.886- 192 2.34 120 2.34  67 2.97  13 3.51
 107  0.213  0.412  0.605- 203 2.34 101 2.34 131 2.34 214 2.34
 108  0.578  0.083  0.420-  81 2.81 199 2.81  48 3.47  98 3.51
 109  0.078  0.250  0.420- 187 2.38  15 2.81  72 2.81
 110  0.732  0.316  0.675- 232 2.34 227 2.34 154 2.34 155 2.34
 111  0.617  0.393  0.816- 233 2.34 228 2.34   7 2.34 155 2.34
 112  0.828  0.833  0.336-  84 2.81 130 2.81  30 2.81  29 2.81
 113  0.886  0.547  0.675- 235 2.34 230 2.34 157 2.34 158 2.34
 114  0.771  0.624  0.816- 236 2.34  62 2.34 158 2.34 159 2.34
 115  0.463  0.162  0.534- 259 2.34 160 2.34  54 2.96
 116  0.348  0.239  0.675- 260 2.34 241 2.34 161 2.34 160 2.34
 117  0.232  0.316  0.816-  31 2.34 242 2.34 162 2.34 161 2.34
 118  0.412  0.750  0.252-  20 2.81  65 2.81  75 2.81  21 2.81
 119  0.501  0.470  0.675- 244 2.34 164 2.34 163 2.34 233 2.34
 120  0.386  0.547  0.816- 245 2.34 106 2.34 164 2.34 165 2.34
 121  0.245  0.250  0.252-  71 2.81  14 2.81  72 2.81  24 2.81
 122  0.655  0.701  0.675- 247 2.34 167 2.34 166 2.34 236 2.34
 123  0.540  0.778  0.816- 248 2.34 100 2.34 237 2.34 167 2.34
 124  0.662  0.667  0.336- 202 2.81  33 2.81 130 2.81 102 2.81
 125  0.809  0.931  0.675- 250 2.34 170 2.34 169 2.34 239 2.34
 126  0.694  0.008  0.816- 251 2.34   5 2.34 240 2.34 170 2.34
 127  0.078  0.085  0.534- 262 2.34 148 2.34
 128  0.963  0.162  0.675-  12 2.34 148 2.34 263 2.34 149 2.34
 129  0.848  0.239  0.816- 227 2.34  77 2.34 149 2.34  70 2.34
 130  0.745  0.750  0.252- 183 2.81 112 2.81   2 2.81 124 2.81
 131  0.117  0.393  0.675- 173 2.34 229 2.34 107 2.34 242 2.34
 132  0.001  0.470  0.816- 230 2.34  61 2.34  26 2.34 173 2.34
 133  0.386  0.547  0.534- 244 2.34 175 2.34 193 2.37
 134  0.271  0.624  0.675- 253 2.34 176 2.34 245 2.34 175 2.34
 135  0.155  0.701  0.816- 254 2.34 103 2.34 176 2.34  23 2.34
 136  0.745  0.417  0.252- 264 2.81 171 2.81  60 2.81 142 2.81
 137  0.425  0.854  0.675- 178 2.34 256 2.34 248 2.34 179 2.34
 138  0.309  0.931  0.816- 249 2.34 257 2.34 179 2.34 180 2.34
 139  0.412  0.917  0.420-  27 2.81  75 2.81 145 2.98 220 2.99
 140  0.578  0.085  0.675- 259 2.34 251 2.34 151 2.34 152 2.34
 141  0.995  0.833  0.168- 168 2.81  83 2.81  29 2.81  28 2.81
 142  0.662  0.333  0.336-  53 2.81 217 2.81 136 2.81 105 2.81
 143  0.040  0.778  0.675- 238 2.34 254 2.34 182 2.34 181 2.34
 144  0.925  0.854  0.816- 239 2.34  74 2.34  19 2.34 182 2.34
 145  0.309  0.931  0.534- 256 2.34 184 2.34 139 2.98
 146  0.194  0.008  0.675- 257 2.34 262 2.34 184 2.34 185 2.34
 147  0.078  0.085  0.816- 263 2.34  16 2.34  22 2.34 185 2.34
 148  0.059  0.181  0.605- 128 2.34 200 2.34 187 2.34 127 2.34
 149  0.944  0.258  0.745- 201 2.34 188 2.34 128 2.34 129 2.34
 150  0.495  0.167  0.000-  43 2.81  97 2.81  59 2.96 153 3.00
 151  0.675  0.104  0.605- 212 2.34  98 2.34  48 2.34 140 2.34
 152  0.559  0.181  0.745- 191 2.34 213 2.34 140 2.34  56 2.34
 153  0.444  0.258  0.886- 192 2.34  56 2.34 150 3.00
 154  0.828  0.335  0.605- 188 2.34  45 2.34 110 2.34  51 2.34
 155  0.713  0.412  0.745- 189 2.34 110 2.34 194 2.34 111 2.34
 156  0.995  0.000  0.000-  28 2.81 234 2.81  74 2.97  16 2.98
 157  0.982  0.566  0.605- 215 2.34 113 2.34  57 2.34 196 2.34
 158  0.867  0.643  0.745- 216 2.34 114 2.34 197 2.34 113 2.34
 159  0.751  0.720  0.886- 198 2.34 114 2.34 255 2.99
 160  0.444  0.258  0.605- 191 2.34 115 2.34 116 2.34  50 2.34
 161  0.328  0.335  0.745- 192 2.34 116 2.34 203 2.34 117 2.34
 162  0.213  0.412  0.886- 204 2.34 117 2.34  58 2.96
 163  0.598  0.489  0.605- 194 2.34 119 2.34  96 2.34  92 2.34
 164  0.482  0.566  0.745- 195 2.34 119 2.34 120 2.34 206 2.34
 165  0.367  0.643  0.886- 207 2.34 120 2.34  10 2.37
 166  0.751  0.720  0.605- 197 2.34  44 2.34  87 2.34 122 2.34
 167  0.636  0.797  0.745- 198 2.34 122 2.34 209 2.34 123 2.34
 168  0.912  0.750  0.084-  73 2.81 141 2.81   2 2.81   1 2.81
 169  0.905  0.951  0.605- 224 2.34   3 2.34  41 2.34 125 2.34
 170  0.790  0.028  0.745- 225 2.34 125 2.34 212 2.34 126 2.34
 171  0.828  0.333  0.168-  52 2.81  35 2.81 136 2.81 246 2.81
 172  0.745  0.083  0.252-  80 2.81   8 2.81 199 2.81  63 2.81
 173  0.098  0.489  0.745- 204 2.34 131 2.34 215 2.34 132 2.34
 174  0.162  0.167  0.000-  88 2.81  34 2.81  22 2.98  31 2.99
 175  0.367  0.643  0.605- 206 2.34  36 2.34 134 2.34 133 2.34
 176  0.251  0.720  0.745- 207 2.34 134 2.34 135 2.34 218 2.34
 177  0.495  0.333  0.168-  95 2.81  43 2.81  53 2.81  94 2.81
 178  0.521  0.874  0.605- 209 2.34 137 2.34 220 2.34 104 2.34
 179  0.405  0.951  0.745- 210 2.34 221 2.34 138 2.34 137 2.34
 180  0.290  0.028  0.886- 222 2.34 138 2.34 258 2.38
 181  0.136  0.797  0.605- 218 2.34   6 2.34 223 2.34 143 2.34
 182  0.021  0.874  0.745- 224 2.34  85 2.34 144 2.34 143 2.34
 183  0.662  0.833  0.168- 130 2.81  91 2.81  47 2.81  46 2.81
 184  0.290  0.028  0.605- 221 2.34   9 2.34 146 2.34 145 2.34
 185  0.175  0.104  0.745- 200 2.34 222 2.34 147 2.34 146 2.34
 186  0.662  0.333  0.000- 228 2.37  94 2.81  52 2.81
 187  0.040  0.278  0.534- 229 2.34 148 2.34 109 2.38
 188  0.925  0.354  0.675- 154 2.34 229 2.34 230 2.34 149 2.34
 189  0.809  0.431  0.816- 155 2.34  62 2.34 230 2.34  70 2.34
 190  0.412  0.083  0.252- 243 2.81  71 2.81  81 2.81  27 2.81
 191  0.540  0.278  0.675- 160 2.34 152 2.34 233 2.34 232 2.34
 192  0.425  0.354  0.816- 161 2.34 153 2.34 106 2.34 233 2.34
 193  0.412  0.583  0.420- 133 2.37  21 2.81  78 2.81
 194  0.694  0.508  0.675- 163 2.34 236 2.34 155 2.34 235 2.34
 195  0.578  0.585  0.816- 237 2.34 164 2.34   7 2.34 236 2.34
 196  0.963  0.662  0.534- 238 2.34 157 2.34  84 2.96
 197  0.848  0.739  0.675- 239 2.34 166 2.34 158 2.34 238 2.34
 198  0.732  0.816  0.816- 240 2.34 167 2.34 159 2.34 239 2.34
 199  0.662  0.000  0.336-  47 2.81  30 2.81 172 2.81 108 2.81
 200  0.155  0.201  0.675- 242 2.34 185 2.34 148 2.34 241 2.34
 201  0.040  0.278  0.816- 149 2.34  22 2.34  26 2.34 242 2.34
 202  0.578  0.583  0.252- 124 2.81  20 2.81 264 2.81  78 2.81
 203  0.309  0.431  0.675- 107 2.34 245 2.34 244 2.34 161 2.34
 204  0.194  0.508  0.816- 173 2.34 162 2.34 103 2.34 245 2.34
 205  0.245  0.417  0.420-  69 2.81  24 2.81 101 2.96 214 3.00
 206  0.463  0.662  0.675- 248 2.34 175 2.34 247 2.34 164 2.34
 207  0.348  0.739  0.816- 249 2.34 176 2.34 165 2.34 248 2.34
 208  0.912  0.417  0.420-  60 2.81  15 2.81  51 2.98  57 2.99
 209  0.617  0.893  0.675- 178 2.34 167 2.34 251 2.34 250 2.34
 210  0.501  0.970  0.816- 179 2.34 100 2.34  59 2.34 251 2.34
 211  0.245  0.583  0.252-  11 2.81  21 2.81  68 2.81  69 2.81
 212  0.771  0.124  0.675- 227 2.34 151 2.34 170 2.34  12 2.34
 213  0.655  0.201  0.816- 228 2.34 152 2.34   5 2.34 227 2.34
 214  0.194  0.508  0.534- 253 2.34 107 2.34 205 3.00
 215  0.078  0.585  0.675- 157 2.34 254 2.34 253 2.34 173 2.34
 216  0.963  0.662  0.816- 158 2.34  19 2.34 254 2.34  61 2.34
 217  0.745  0.250  0.420- 142 2.81  63 2.81  98 2.97  45 2.98
 218  0.232  0.816  0.675- 257 2.34 181 2.34 256 2.34 176 2.34
 219  0.245  0.417  0.084-  58 2.81  68 2.81  14 2.81  13 2.81
 220  0.501  0.970  0.534- 259 2.34 178 2.34 139 2.99
 221  0.386  0.047  0.675- 184 2.34 179 2.34 259 2.34 260 2.34
 222  0.271  0.124  0.816- 180 2.34 185 2.34  31 2.34 260 2.34
 223  0.117  0.893  0.534- 262 2.34 181 2.34  39 2.37
 224  0.001  0.970  0.675- 169 2.34 182 2.34 263 2.34 262 2.34
 225  0.886  0.047  0.816- 170 2.34  74 2.34  77 2.34 263 2.34
 226  0.995  0.667  0.336-  42 2.81  32 2.81  83 2.81  84 2.81
 227  0.751  0.220  0.745- 129 2.34 212 2.34 110 2.34 213 2.34
 228  0.636  0.297  0.886- 213 2.34 111 2.34 186 2.37
 229  0.021  0.374  0.605- 188 2.34  57 2.34 187 2.34 131 2.34
 230  0.905  0.451  0.745- 113 2.34 132 2.34 189 2.34 188 2.34
 231  0.995  0.167  0.168-  35 2.81 234 2.81  89 2.81  34 2.81
 232  0.636  0.297  0.605- 110 2.34  98 2.34  92 2.34 191 2.34
 233  0.521  0.374  0.745- 191 2.34 111 2.34 119 2.34 192 2.34
 234  0.912  0.083  0.084-  79 2.81 231 2.81   8 2.81 156 2.81
 235  0.790  0.528  0.605- 113 2.34  51 2.34  44 2.34 194 2.34
 236  0.675  0.604  0.745- 114 2.34 194 2.34 122 2.34 195 2.34
 237  0.559  0.681  0.886- 195 2.34 123 2.34 255 2.98
 238  0.944  0.758  0.605- 143 2.34 196 2.34   3 2.34 197 2.34
 239  0.828  0.835  0.745- 144 2.34 197 2.34 125 2.34 198 2.34
 240  0.713  0.912  0.886- 198 2.34 126 2.34  25 2.96
 241  0.251  0.220  0.605- 116 2.34   9 2.34 200 2.34 101 2.34
 242  0.136  0.297  0.745- 200 2.34 117 2.34 201 2.34 131 2.34
 243  0.495  0.000  0.168- 190 2.81  37 2.81  47 2.81  97 2.81
 244  0.405  0.451  0.605- 119 2.34  50 2.34 203 2.34 133 2.34
 245  0.290  0.528  0.745- 120 2.34 203 2.34 134 2.34 204 2.34
 246  0.912  0.417  0.084-  76 2.81 252 2.81 171 2.81   4 2.81
 247  0.559  0.681  0.605- 122 2.34  96 2.34 104 2.34 206 2.34
 248  0.444  0.758  0.745- 206 2.34 123 2.34 137 2.34 207 2.34
 249  0.328  0.835  0.886- 207 2.34 138 2.34
 250  0.713  0.912  0.605- 125 2.34  48 2.34  87 2.34 209 2.34
 251  0.598  0.989  0.745- 126 2.34 140 2.34 209 2.34 210 2.34
 252  0.995  0.500  0.168- 246 2.81  86 2.81  32 2.81 261 2.81
 253  0.175  0.604  0.605- 134 2.34 214 2.34   6 2.34 215 2.34
 254  0.059  0.681  0.745- 135 2.34 215 2.34 143 2.34 216 2.34
 255  0.662  0.667  0.000-  49 2.81  91 2.81 237 2.98 159 2.99
 256  0.328  0.835  0.605-  36 2.34 137 2.34 218 2.34 145 2.34
 257  0.213  0.912  0.745- 146 2.34 218 2.34 138 2.34  85 2.34
 258  0.328  0.000  0.000- 180 2.38  37 2.81  88 2.81
 259  0.482  0.066  0.605- 140 2.34 220 2.34 115 2.34 221 2.34
 260  0.367  0.143  0.745- 116 2.34  56 2.34 221 2.34 222 2.34
 261  0.078  0.583  0.084-  11 2.81   1 2.81  58 2.81 252 2.81
 262  0.098  0.989  0.605- 146 2.34 223 2.34 127 2.34 224 2.34
 263  0.982  0.066  0.745- 147 2.34 224 2.34 128 2.34 225 2.34
 264  0.662  0.500  0.168- 136 2.81  94 2.81 202 2.81  49 2.81
 
  LATTYP: Found a simple tetragonal cell.
 ALAT       =    19.4675998690
 C/A-ratio  =     0.9914038219
  
  Lattice vectors:
  
 A1 = (  19.4675998690,   0.0000000000,   0.0000000000)
 A2 = (   0.0000000000,  19.4675998690,   0.0000000000)
 A3 = (   0.0000000000,   0.0000000000,  19.3002529140)


Analysis of symmetry for initial positions (statically):
=====================================================================
 Subroutine PRICEL returns:
 Original cell was already a primitive cell.
 

 Routine SETGRP: Setting up the symmetry group for a 
 simple tetragonal supercell.


 Subroutine GETGRP returns: Found  1 space group operations
 (whereof  1 operations were pure point group operations)
 out of a pool of 16 trial point group operations.


The static configuration has the point symmetry C_1 .


Analysis of symmetry for dynamics (positions and initial velocities):
=====================================================================
 Subroutine PRICEL returns:
 Original cell was already a primitive cell.
 

 Routine SETGRP: Setting up the symmetry group for a 
 simple tetragonal supercell.


 Subroutine GETGRP returns: Found  1 space group operations
 (whereof  1 operations were pure point group operations)
 out of a pool of 16 trial point group operations.


The dynamic configuration has the point symmetry C_1 .


Analysis of structural, dynamic, and magnetic symmetry:
=====================================================================
 Subroutine PRICEL returns:
 Original cell was already a primitive cell.
 

 Routine SETGRP: Setting up the symmetry group for a 
 simple tetragonal supercell.


 Subroutine GETGRP returns: Found  1 space group operations
 (whereof  1 operations were pure point group operations)
 out of a pool of 16 trial point group operations.


The overall configuration has the point symmetry C_1 .


 Subroutine INISYM returns: Found  1 space group operations
 (whereof  1 operations are pure point group operations),
 and found     1 'primitive' translations


----------------------------------------------------------------------------------------

                                     Primitive cell                                     

  volume of cell :    7314.5535

  direct lattice vectors                    reciprocal lattice vectors
    19.467599869  0.000000000  0.000000000     0.051367401  0.000000000  0.000000000
     0.000000000 19.467599869  0.000000000     0.000000000  0.051367401  0.000000000
     0.000000000  0.000000000 19.300252914     0.000000000  0.000000000  0.051812793

  length of vectors
    19.467599869 19.467599869 19.300252914     0.051367401  0.051367401  0.051812793

  position of ions in fractional coordinates (direct lattice)
     0.995035112  0.666666687  0.000000000
     0.828368425  0.666666687  0.168111786
     0.924521089  0.854443133  0.534267545
     0.995035112  0.333333343  0.000000000
     0.674520910  0.104443185  0.886011779
     0.155290306  0.700596869  0.534267545
     0.597597957  0.489058524  0.886011779
     0.828368425  0.000000000  0.168111786
     0.270674974  0.123673767  0.534267545
     0.328368455  0.666666687  0.000000000
     0.161701739  0.666666687  0.168111786
     0.866828918  0.142904535  0.604616404
     0.328368455  0.333333343  0.000000000
     0.161701739  0.333333343  0.168111786
     0.995035112  0.333333343  0.336223543
     0.097597800  0.989058554  0.886011779
     0.161701739  0.000000000  0.168111786
     0.995035112  0.000000000  0.336223543
     0.943751633  0.758289278  0.886011779
     0.495035112  0.666666687  0.168111786
     0.328368455  0.666666687  0.336223543
     0.059136271  0.181366205  0.886011779
     0.136059344  0.796750903  0.886011779
     0.328368455  0.333333343  0.336223543
     0.661701798  0.000000000  0.000000000
     0.020674706  0.373673856  0.886011779
     0.328368455  0.000000000  0.336223543
     0.078368433  0.916666746  0.084055893
     0.911701798  0.916666746  0.252167612
     0.745035052  0.916666746  0.420279443
     0.251444042  0.219827890  0.886011779
     0.911701798  0.583333433  0.252167612
     0.745035052  0.583333433  0.420279443
     0.078368433  0.250000000  0.084055893
     0.911701798  0.250000000  0.252167612
     0.347598046  0.739058495  0.534267545
     0.411701769  0.916666746  0.084055893
     0.245035097  0.916666746  0.252167612
     0.078368381  0.916666746  0.420279443
     0.411701769  0.583333433  0.084055893
     0.886059582  0.046750784  0.534267545
     0.078368381  0.583333433  0.420279443
     0.411701769  0.250000000  0.084055893
     0.770674944  0.623673797  0.534267545
     0.847598135  0.239058375  0.534267545
     0.745035172  0.916666746  0.084055893
     0.578368545  0.916666746  0.252167612
     0.693751872  0.008289218  0.534267545
     0.745035172  0.583333433  0.084055893
     0.424521148  0.354443043  0.534267545
     0.809136569  0.431366175  0.534267545
     0.745035172  0.250000000  0.084055893
     0.578368545  0.250000000  0.252167612
     0.411701798  0.250000000  0.420279443
     0.161701769  0.833333313  0.000000000
     0.462982476  0.162135482  0.815662920
     0.001444221  0.469827592  0.534267545
     0.161701769  0.500000000  0.000000000
     0.482213259  0.065981627  0.886011779
     0.828368425  0.500000000  0.336223543
     0.982213199  0.565981567  0.886011779
     0.789905429  0.527520061  0.886011779
     0.828368425  0.166666672  0.336223543
     0.495035112  0.833333313  0.000000000
     0.328368425  0.833333313  0.168111786
     0.161701754  0.833333313  0.336223543
     0.495035112  0.500000000  0.000000000
     0.328368425  0.500000000  0.168111786
     0.161701754  0.500000000  0.336223543
     0.828366995  0.335212380  0.886011779
     0.328368425  0.166666672  0.168111786
     0.161701754  0.166666672  0.336223543
     0.828368545  0.833333313  0.000000000
     0.905290127  0.950596988  0.886011779
     0.495035201  0.833333313  0.336223543
     0.828368545  0.500000000  0.000000000
     0.866828561  0.142904639  0.886011779
     0.495035201  0.500000000  0.336223543
     0.828368545  0.166666672  0.000000000
     0.661701858  0.166666672  0.168111786
     0.495035201  0.166666672  0.336223543
     0.245035097  0.750000060  0.084055893
     0.078368433  0.750000060  0.252167612
     0.911701739  0.750000060  0.420279443
     0.116828643  0.892904758  0.815662920
     0.078368433  0.416666716  0.252167612
     0.732213378  0.815981507  0.534267545
     0.245035097  0.083333343  0.084055893
     0.078368433  0.083333343  0.252167612
     0.911701739  0.083333343  0.420279443
     0.578368485  0.750000060  0.084055893
     0.616828859  0.392904580  0.534267545
     0.245035127  0.750000060  0.420279443
     0.578368485  0.416666716  0.084055893
     0.411701858  0.416666716  0.252167612
     0.578367293  0.585212350  0.534267545
     0.578368485  0.083333343  0.084055893
     0.655290306  0.200596869  0.534267545
     0.245035127  0.083333343  0.420279443
     0.520674706  0.873673916  0.886011779
     0.232213408  0.315981477  0.534267545
     0.578368366  0.750000060  0.420279443
     0.174520940  0.604443133  0.886011779
     0.539905727  0.777519882  0.534267545
     0.578368366  0.416666716  0.420279443
     0.405290216  0.450596988  0.886011779
     0.212982625  0.412135333  0.604616404
     0.578368366  0.083333343  0.420279443
     0.078368381  0.250000000  0.420279443
     0.732213438  0.315981507  0.674965203
     0.616828740  0.392904669  0.815662920
     0.828368425  0.833333313  0.336223543
     0.886059582  0.546750665  0.674965203
     0.770674884  0.623673856  0.815662920
     0.462982684  0.162135303  0.534267545
     0.347597986  0.239058435  0.674965203
     0.232213289  0.315981567  0.815662920
     0.411701858  0.750000060  0.252167612
     0.501444101  0.469827712  0.674965203
     0.386059433  0.546750844  0.815662920
     0.245035097  0.250000000  0.252167612
     0.655290246  0.700596929  0.674965203
     0.539905548  0.777520061  0.815662920
     0.661701739  0.666666687  0.336223543
     0.809136391  0.931366265  0.674965203
     0.693751693  0.008289337  0.815662920
     0.078367233  0.085212208  0.534267545
     0.962982535  0.162135333  0.674965203
     0.847597837  0.239058465  0.815662920
     0.745035052  0.750000060  0.252167612
     0.116828710  0.392904609  0.674965203
     0.001443982  0.469827741  0.815662920
     0.386059582  0.546750724  0.534267545
     0.270674855  0.623673856  0.674965203
     0.155290157  0.700596988  0.815662920
     0.745035052  0.416666716  0.252167612
     0.424521059  0.854443014  0.674965203
     0.309136331  0.931366146  0.815662920
     0.411701798  0.916666746  0.420279443
     0.578367174  0.085212342  0.674965203
     0.995035052  0.833333313  0.168111786
     0.661701739  0.333333343  0.336223543
     0.039905548  0.777520001  0.674965203
     0.924520910  0.854443192  0.815662920
     0.309136510  0.931366086  0.534267545
     0.193751812  0.008289099  0.674965203
     0.078366995  0.085212342  0.815662920
     0.059136391  0.181366086  0.604616404
     0.943751752  0.258289218  0.745314062
     0.495035112  0.166666672  0.000000000
     0.674521089  0.104443066  0.604616404
     0.559136391  0.181366205  0.745314062
     0.443751663  0.258289337  0.886011779
     0.828367352  0.335212231  0.604616404
     0.712982655  0.412135392  0.745314062
     0.995035112  0.000000000  0.000000000
     0.982213438  0.565981448  0.604616404
     0.866828740  0.642904639  0.745314062
     0.751443982  0.719827771  0.886011779
     0.443751901  0.258289158  0.604616404
     0.328367203  0.335212290  0.745314062
     0.212982476  0.412135422  0.886011779
     0.597598016  0.489058465  0.604616404
     0.482213318  0.565981567  0.745314062
     0.366828591  0.642904758  0.886011779
     0.751444161  0.719827652  0.604616404
     0.636059463  0.796750784  0.745314062
     0.911701739  0.750000060  0.084055893
     0.905290306  0.950596929  0.604616404
     0.789905608  0.027520061  0.745314062
     0.828368425  0.333333343  0.168111786
     0.745035052  0.083333343  0.252167612
     0.097597934  0.489058435  0.745314062
     0.161701769  0.166666672  0.000000000
     0.366828769  0.642904639  0.604616404
     0.251444072  0.719827712  0.745314062
     0.495035112  0.333333343  0.168111786
     0.520674884  0.873673797  0.604616404
     0.405290216  0.950596929  0.745314062
     0.289905488  0.027520061  0.886011779
     0.136059538  0.796750724  0.604616404
     0.020674825  0.873673916  0.745314062
     0.661701858  0.833333313  0.168111786
     0.289905697  0.027519941  0.604616404
     0.174520969  0.104443066  0.745314062
     0.661701798  0.333333343  0.000000000
     0.039905667  0.277519971  0.534267545
     0.924521029  0.354443103  0.674965203
     0.809136331  0.431366265  0.815662920
     0.411701858  0.083333343  0.252167612
     0.539905608  0.277520001  0.674965203
     0.424520910  0.354443133  0.815662920
     0.411701798  0.583333433  0.420279443
     0.693751812  0.508289278  0.674965203
     0.578367114  0.585212469  0.815662920
     0.962982714  0.662135422  0.534267545
     0.847597957  0.739058554  0.674965203
     0.732213259  0.815981686  0.815662920
     0.661701739  0.000000000  0.336223543
     0.155290276  0.200596899  0.674965203
     0.039905548  0.277520031  0.815662920
     0.578368545  0.583333433  0.252167612
     0.309136450  0.431366175  0.674965203
     0.193751723  0.508289278  0.815662920
     0.245035127  0.416666716  0.420279443
     0.462982565  0.662135482  0.674965203
     0.347597867  0.739058614  0.815662920
     0.911701739  0.416666716  0.420279443
     0.616828680  0.892904639  0.674965203
     0.501443982  0.969827771  0.815662920
     0.245035097  0.583333433  0.252167612
     0.770674884  0.123673908  0.674965203
     0.655290186  0.200597048  0.815662920
     0.193751872  0.508289218  0.534267545
     0.078367114  0.585212350  0.674965203
     0.962982476  0.662135482  0.815662920
     0.745035052  0.250000000  0.420279443
     0.232213348  0.815981627  0.674965203
     0.245035097  0.416666716  0.084055893
     0.501444221  0.969827712  0.534267545
     0.386059493  0.046750784  0.674965203
     0.270674795  0.123673908  0.815662920
     0.116828769  0.892904580  0.534267545
     0.001444101  0.969827712  0.674965203
     0.886059344  0.046750784  0.815662920
     0.995035112  0.666666687  0.336223543
     0.751444161  0.219827682  0.745314062
     0.636059463  0.296750814  0.886011779
     0.020674825  0.373673767  0.604616404
     0.905290186  0.450596929  0.745314062
     0.995035052  0.166666672  0.168111786
     0.636059642  0.296750695  0.604616404
     0.520674944  0.373673826  0.745314062
     0.911701739  0.083333343  0.084055893
     0.789905846  0.527519941  0.604616404
     0.674521148  0.604443073  0.745314062
     0.559136391  0.681366205  0.886011779
     0.943752050  0.758289218  0.604616404
     0.828367352  0.835212350  0.745314062
     0.712982595  0.912135482  0.886011779
     0.251444191  0.219827563  0.604616404
     0.136059478  0.296750695  0.745314062
     0.495035112  0.000000000  0.168111786
     0.405290365  0.450596869  0.604616404
     0.289905667  0.527520001  0.745314062
     0.911701739  0.416666716  0.084055893
     0.559136510  0.681366086  0.604616404
     0.443751812  0.758289218  0.745314062
     0.328367054  0.835212350  0.886011779
     0.712982714  0.912135422  0.604616404
     0.597598016  0.989058554  0.745314062
     0.995035052  0.500000000  0.168111786
     0.174521059  0.604443014  0.604616404
     0.059136391  0.681366146  0.745314062
     0.661701798  0.666666687  0.000000000
     0.328367233  0.835212231  0.604616404
     0.212982535  0.912135363  0.745314062
     0.328368455  0.000000000  0.000000000
     0.482213467  0.065981507  0.604616404
     0.366828769  0.142904758  0.745314062
     0.078368433  0.583333433  0.084055893
     0.097598001  0.989058375  0.604616404
     0.982213259  0.065981507  0.745314062
     0.661701858  0.500000000  0.168111786

  ion indices of the primitive-cell ions
   primitive index   ion index
                 1           1
                 2           2
                 3           3
                 4           4
                 5           5
                 6           6
                 7           7
                 8           8
                 9           9
                10          10
                11          11
                12          12
                13          13
                14          14
                15          15
                16          16
                17          17
                18          18
                19          19
                20          20
                21          21
                22          22
                23          23
                24          24
                25          25
                26          26
                27          27
                28          28
                29          29
                30          30
                31          31
                32          32
                33          33
                34          34
                35          35
                36          36
                37          37
                38          38
                39          39
                40          40
                41          41
                42          42
                43          43
                44          44
                45          45
                46          46
                47          47
                48          48
                49          49
                50          50
                51          51
                52          52
                53          53
                54          54
                55          55
                56          56
                57          57
                58          58
                59          59
                60          60
                61          61
                62          62
                63          63
                64          64
                65          65
                66          66
                67          67
                68          68
                69          69
                70          70
                71          71
                72          72
                73          73
                74          74
                75          75
                76          76
                77          77
                78          78
                79          79
                80          80
                81          81
                82          82
                83          83
                84          84
                85          85
                86          86
                87          87
                88          88
                89          89
                90          90
                91          91
                92          92
                93          93
                94          94
                95          95
                96          96
                97          97
                98          98
                99          99
               100         100
               101         101
               102         102
               103         103
               104         104
               105         105
               106         106
               107         107
               108         108
               109         109
               110         110
               111         111
               112         112
               113         113
               114         114
               115         115
               116         116
               117         117
               118         118
               119         119
               120         120
               121         121
               122         122
               123         123
               124         124
               125         125
               126         126
               127         127
               128         128
               129         129
               130         130
               131         131
               132         132
               133         133
               134         134
               135         135
               136         136
               137         137
               138         138
               139         139
               140         140
               141         141
               142         142
               143         143
               144         144
               145         145
               146         146
               147         147
               148         148
               149         149
               150         150
               151         151
               152         152
               153         153
               154         154
               155         155
               156         156
               157         157
               158         158
               159         159
               160         160
               161         161
               162         162
               163         163
               164         164
               165         165
               166         166
               167         167
               168         168
               169         169
               170         170
               171         171
               172         172
               173         173
               174         174
               175         175
               176         176
               177         177
               178         178
               179         179
               180         180
               181         181
               182         182
               183         183
               184         184
               185         185
               186         186
               187         187
               188         188
               189         189
               190         190
               191         191
               192         192
               193         193
               194         194
               195         195
               196         196
               197         197
               198         198
               199         199
               200         200
               201         201
               202         202
               203         203
               204         204
               205         205
               206         206
               207         207
               208         208
               209         209
               210         210
               211         211
               212         212
               213         213
               214         214
               215         215
               216         216
               217         217
               218         218
               219         219
               220         220
               221         221
               222         222
               223         223
               224         224
               225         225
               226         226
               227         227
               228         228
               229         229
               230         230
               231         231
               232         232
               233         233
               234         234
               235         235
               236         236
               237         237
               238         238
               239         239
               240         240
               241         241
               242         242
               243         243
               244         244
               245         245
               246         246
               247         247
               248         248
               249         249
               250         250
               251         251
               252         252
               253         253
               254         254
               255         255
               256         256
               257         257
               258         258
               259         259
               260         260
               261         261
               262         262
               263         263
               264         264

----------------------------------------------------------------------------------------

 
 
 KPOINTS: Automatic KPOINTS generated             

Automatic generation of k-mesh.
 Grid dimensions read from file:
 generate k-points for:    2    2    2

 Generating k-lattice:

  Cartesian coordinates                     Fractional coordinates (reciprocal lattice)
     0.025683700  0.000000000  0.000000000     0.500000000  0.000000000  0.000000000
     0.000000000  0.025683700  0.000000000     0.000000000  0.500000000  0.000000000
     0.000000000  0.000000000  0.025906396     0.000000000  0.000000000  0.500000000

  Length of vectors
     0.025683700  0.025683700  0.025906396

  Shift w.r.t. Gamma in fractional coordinates (k-lattice)
     0.000000000  0.000000000  0.000000000

 
 Subroutine IBZKPT returns following result:
 ===========================================
 
 Found      8 irreducible k-points:
 
 Following reciprocal coordinates:
            Coordinates               Weight
  0.000000  0.000000  0.000000      1.000000
  0.500000  0.000000  0.000000      1.000000
  0.000000  0.500000  0.000000      1.000000
  0.500000  0.500000  0.000000      1.000000
  0.000000  0.000000  0.500000      1.000000
  0.500000  0.000000  0.500000      1.000000
  0.000000  0.500000  0.500000      1.000000
  0.500000  0.500000  0.500000      1.000000
 
 Following cartesian coordinates:
            Coordinates               Weight
  0.000000  0.000000  0.000000      1.000000
  0.025684  0.000000  0.000000      1.000000
  0.000000  0.025684  0.000000      1.000000
  0.025684  0.025684  0.000000      1.000000
  0.000000  0.000000  0.025906      1.000000
  0.025684  0.000000  0.025906      1.000000
  0.000000  0.025684  0.025906      1.000000
  0.025684  0.025684  0.025906      1.000000
 
 -----------------------------------------------------------------------------
|                                                                             |
|           W    W    AA    RRRRR   N    N  II  N    N   GGGG   !!!           |
|           W    W   A  A   R    R  NN   N  II  NN   N  G    G  !!!           |
|           W    W  A    A  R    R  N N  N  II  N N  N  G       !!!           |
|           W WW W  AAAAAA  RRRRR   N  N N  II  N  N N  G  GGG   !            |
|           WW  WW  A    A  R   R   N   NN  II  N   NN  G    G                |
|           W    W  A    A  R    R  N    N  II  N    N   GGGG   !!!           |
|                                                                             |
|     The number of bands has been changed from the values supplied in        |
|     the INCAR file. This is a result of running the parallel version.       |
|     The orbitals not found in the WAVECAR file will be initialized with     |
|     random numbers, which is usually adequate. For correlated               |
|     calculations, however, you should redo the groundstate calculation.     |
|     I found NBANDS = 634. Now, NBANDS = 636.                                |
|                                                                             |
 -----------------------------------------------------------------------------



--------------------------------------------------------------------------------------------------------




 Dimension of arrays:
   k-points           NKPTS =      8   k-points in BZ     NKDIM =      8   number of bands    NBANDS=    636
   number of dos      NEDOS =    301   number of ions     NIONS =    264
   non local maximal  LDIM  =      5   non local SUM 2l+1 LMDIM =     13
   total plane-waves  NPLWV = ******
   max r-space proj   IRMAX =   4555   max aug-charges    IRDMAX= 210771
   dimension x,y,z NGX =   126 NGY =  126 NGZ =  126
   dimension x,y,z NGXF=   252 NGYF=  252 NGZF=  252
   support grid    NGXF=   504 NGYF=  504 NGZF=  504
   ions per type =             108 156
   NGX,Y,Z   is equivalent  to a cutoff of  10.76, 10.76, 10.85 a.u.
   NGXF,Y,Z  is equivalent  to a cutoff of  21.52, 21.52, 21.71 a.u.

 SYSTEM =  Si and Ge interface calculation         
 POSCAR =  Sn+Si                                   

 Startparameter for this run:
   NWRITE =      2    write-flag & timer
   PREC   = normal    normal or accurate (medium, high low for compatibility)
   ISTART =      0    job   : 0-new  1-cont  2-samecut
   ICHARG =      2    charge: 1-file 2-atom 10-const
   ISPIN  =      2    spin polarized calculation?
   LNONCOLLINEAR =      F non collinear calculations
   LSORBIT =      F    spin-orbit coupling
   INIWAV =      1    electr: 0-lowe 1-rand  2-diag
   LASPH  =      T    aspherical Exc in radial PAW
 Electronic Relaxation 1
   ENCUT  =  700.0 eV  51.45 Ry    7.17 a.u.  42.00 42.00 41.64*2*pi/ulx,y,z
   ENINI  =  700.0     initial cutoff
   ENAUG  =  900.0 eV  augmentation charge cutoff
   NELM   =    100;   NELMIN=  2; NELMDL= -5     # of ELM steps 
   EDIFF  = 0.1E-06   stopping-criterion for ELM
   LREAL  =      T    real-space projection
   NLSPLINE    = F    spline interpolate recip. space projectors
   LCOMPAT=      F    compatible to vasp.4.4
   GGA_COMPAT  = T    GGA compatible to vasp.4.4-vasp.4.6
   LMAXPAW     = -100 max onsite density
   LMAXMIX     =    6 max onsite mixed and CHGCAR
   VOSKOWN=      0    Vosko Wilk Nusair interpolation
   ROPT   =   -0.00050  -0.00050
 Ionic relaxation
   EDIFFG = 0.1E-05   stopping-criterion for IOM
   NSW    =      0    number of steps for IOM
   NBLOCK =      1;   KBLOCK =      1    inner block; outer block 
   IBRION =     -1    ionic relax: 0-MD 1-quasi-New 2-CG
   NFREE  =      0    steps in history (QN), initial steepest desc. (CG)
   ISIF   =      2    stress and relaxation
   IWAVPR =     10    prediction:  0-non 1-charg 2-wave 3-comb
   ISYM   =      2    0-nonsym 1-usesym 2-fastsym
   LCORR  =      T    Harris-Foulkes like correction to forces

   POTIM  = 0.5000    time-step for ionic-motion
   TEIN   =    0.0    initial temperature
   TEBEG  =    0.0;   TEEND  =   0.0 temperature during run
   SMASS  =  -3.00    Nose mass-parameter (am)
   estimated Nose-frequenzy (Omega)   =  0.10E-29 period in steps = 0.13E+47 mass=  -0.866E-26a.u.
   SCALEE = 1.0000    scale energy and forces
   NPACO  =    256;   APACO  = 10.0  distance and # of slots for P.C.
   PSTRESS=    0.0 pullay stress

  Mass of Ions in am
   POMASS = 118.71 28.09
  Ionic Valenz
   ZVAL   =   4.00  4.00
  Atomic Wigner-Seitz radii
   RWIGS  =  -1.00 -1.00
  virtual crystal weights 
   VCA    =   1.00  1.00
   NELECT =    1056.0000    total number of electrons
   NUPDOWN=       1.0000    fix difference up-down

 DOS related values:
   EMIN   =  10.00;   EMAX   =-10.00  energy-range for DOS
   EFERMI =   0.00;   METHOD = LEGACY      
   ISMEAR =     0;   SIGMA  =   0.01  broadening in eV -4-tet -1-fermi 0-gaus

 Electronic relaxation 2 (details)
   IALGO  =     38    algorithm
   LDIAG  =      T    sub-space diagonalisation (order eigenvalues)
   LSUBROT=      F    optimize rotation matrix (better conditioning)
   TURBO    =      0    0=normal 1=particle mesh
   IRESTART =      0    0=no restart 2=restart with 2 vectors
   NREBOOT  =      0    no. of reboots
   NMIN     =      0    reboot dimension
   EREF     =   0.00    reference energy to select bands
   IMIX   =      4    mixing-type and parameters
     AMIX     =   0.60;   BMIX     =  1.00
     AMIX_MAG =   2.40;   BMIX_MAG =  1.00
     AMIN     =   0.10
     WC   =   100.;   INIMIX=   1;  MIXPRE=   1;  MAXMIX= -45

 Intra band minimization:
   WEIMIN = 0.0000     energy-eigenvalue tresh-hold
   EBREAK =  0.39E-10  absolut break condition
   DEPER  =   0.30     relativ break condition  

   TIME   =   0.40     timestep for ELM

  volume/ion in A,a.u.               =      27.71       186.97
  Fermi-wavevector in a.u.,A,eV,Ry     =   0.858816  1.622927 10.035183  0.737565
  Thomas-Fermi vector in A             =   1.976078
 
 Write flags
   LWAVE        =      F    write WAVECAR
   LDOWNSAMPLE  =      F    k-point downsampling of WAVECAR
   LCHARG       =      T    write CHGCAR
   LVTOT        =      F    write LOCPOT, total local potential
   LVHAR        =      T    write LOCPOT, Hartree potential only
   WRT_POTENTIAL=  hartree ionic  ! write potential to hdf5 file
   LELF         =      F    write electronic localiz. function (ELF)
   LORBIT       =      0    0 simple, 1 ext, 2 COOP (PROOUT), +10 PAW based schemes


 Dipole corrections
   LMONO      =      F    monopole corrections only (constant potential shift)
   LDIPOL     =      F    correct potential (dipole corrections)
   IDIPOL     =      0    1-x, 2-y, 3-z, 4-all directions 
   EPSILON    =  1.0000000 bulk dielectric constant
   LVACPOTAV  =      F  vacuum potentials using an averaging scheme for the charge density
   VACPOTFLAT =  0.1000000 required flatness to determine vacuum potential
 Exchange correlation treatment:
   GGA     = PE    functional components
   XC_C    = 1    coefficients multiplying the functional components
   LIBXC   =     F    Libxc                    
   VOSKOWN =     0    Vosko Wilk Nusair interpolation
   LHFCALC =     F    Hartree Fock is set to
   LHFONE  =     F    Hartree Fock one center treatment
   AEXX    =    0.0000 exact exchange contribution

 Parameters of functionals:
   PE:
     No parameter
 
 Van der Waals corrections
   IVDW    =     0    specifies the selected vdW correction

 Linear response parameters
   LEPSILON=     F    determine dielectric tensor
   LRPA    =     F    only Hartree local field effects (RPA)
   LNABLA  =     F    use nabla operator in PAW spheres
   LVEL    =     F    velocity operator in full k-point grid
   CSHIFT  =0.1000    complex shift for real part using Kramers Kronig
   OMEGAMAX=  -1.0    maximum frequency
   DEG_THRESHOLD= 0.2000000E-02 threshold for treating states as degnerate
   RTIME   =   -0.100 relaxation time in fs
  (WPLASMAI=    0.000 imaginary part of plasma frequency in eV, 0.658/RTIME)
   DFIELD  = 0.0000000 0.0000000 0.0000000 field for delta impulse in time
 
  Optional k-point grid parameters
   LKPOINTS_OPT  =     F    use optional k-point grid
   KPOINTS_OPT_MODE=     1    mode for optional k-point grid
 
 Orbital magnetization related:
   ORBITALMAG=     F  switch on orbital magnetization
   LCHIMAG   =     F  perturbation theory with respect to B field
   DQ        =  0.001000  dq finite difference perturbation B field
   LLRAUG    =     F  two centre corrections for induced B field
   LBONE     =     F  B-component reconstruction in AE one-centre
   LVGVCALC  =     T  calculate vGv susceptibility
   LVGVAPPL  =     F  apply vGv susceptibility instead of pGv for G=0

 Random number generation:
   RANDOM_GENERATOR = DEFAULT
   PCG_SEED         = not used


--------------------------------------------------------------------------------------------------------


 Static calculation
 charge density and potential will be updated during run
 spin polarized calculation
 Variant of blocked Davidson
 Davidson routine will perform the subspace rotation
 perform sub-space diagonalisation
    after iterative eigenvector-optimisation
 modified Broyden-mixing scheme, WC =      100.0
 initial mixing is a Kerker type mixing with AMIX =  0.6000 and BMIX =      1.0000
 Hartree-type preconditioning will be used
 using additional bands          108
 real space projection scheme for non local part
 use partial core corrections
 calculate Harris-corrections to forces 
   (improved forces if not selfconsistent)
 use gradient corrections 
 use of overlap-Matrix (Vanderbilt PP)
 Gauss-broadening in eV      SIGMA  =   0.01


--------------------------------------------------------------------------------------------------------


  energy-cutoff  :      700.00
  volume of cell :     7314.55
      direct lattice vectors                 reciprocal lattice vectors
    19.467599869  0.000000000  0.000000000     0.051367401  0.000000000  0.000000000
     0.000000000 19.467599869  0.000000000     0.000000000  0.051367401  0.000000000
     0.000000000  0.000000000 19.300252914     0.000000000  0.000000000  0.051812793

  length of vectors
    19.467599869 19.467599869 19.300252914     0.051367401  0.051367401  0.051812793


 
 k-points in units of 2pi/SCALE and weight: Automatic KPOINTS generated             
   0.00000000  0.00000000  0.00000000       0.125
   0.02568370  0.00000000  0.00000000       0.125
   0.00000000  0.02568370  0.00000000       0.125
   0.02568370  0.02568370  0.00000000       0.125
   0.00000000  0.00000000  0.02590640       0.125
   0.02568370  0.00000000  0.02590640       0.125
   0.00000000  0.02568370  0.02590640       0.125
   0.02568370  0.02568370  0.02590640       0.125
 
 k-points in reciprocal lattice and weights: Automatic KPOINTS generated             
   0.00000000  0.00000000  0.00000000       0.125
   0.50000000  0.00000000  0.00000000       0.125
   0.00000000  0.50000000  0.00000000       0.125
   0.50000000  0.50000000  0.00000000       0.125
   0.00000000  0.00000000  0.50000000       0.125
   0.50000000  0.00000000  0.50000000       0.125
   0.00000000  0.50000000  0.50000000       0.125
   0.50000000  0.50000000  0.50000000       0.125
 
 position of ions in fractional coordinates (direct lattice) 
   0.99503511  0.66666669  0.00000000
   0.82836843  0.66666669  0.16811179
   0.92452109  0.85444313  0.53426754
   0.99503511  0.33333334  0.00000000
   0.67452091  0.10444319  0.88601178
   0.15529031  0.70059687  0.53426754
   0.59759796  0.48905852  0.88601178
   0.82836843  0.00000000  0.16811179
   0.27067497  0.12367377  0.53426754
   0.32836846  0.66666669  0.00000000
   0.16170174  0.66666669  0.16811179
   0.86682892  0.14290453  0.60461640
   0.32836846  0.33333334  0.00000000
   0.16170174  0.33333334  0.16811179
   0.99503511  0.33333334  0.33622354
   0.09759780  0.98905855  0.88601178
   0.16170174  0.00000000  0.16811179
   0.99503511  0.00000000  0.33622354
   0.94375163  0.75828928  0.88601178
   0.49503511  0.66666669  0.16811179
   0.32836846  0.66666669  0.33622354
   0.05913627  0.18136621  0.88601178
   0.13605934  0.79675090  0.88601178
   0.32836846  0.33333334  0.33622354
   0.66170180  0.00000000  0.00000000
   0.02067471  0.37367386  0.88601178
   0.32836846  0.00000000  0.33622354
   0.07836843  0.91666675  0.08405589
   0.91170180  0.91666675  0.25216761
   0.74503505  0.91666675  0.42027944
   0.25144404  0.21982789  0.88601178
   0.91170180  0.58333343  0.25216761
   0.74503505  0.58333343  0.42027944
   0.07836843  0.25000000  0.08405589
   0.91170180  0.25000000  0.25216761
   0.34759805  0.73905850  0.53426754
   0.41170177  0.91666675  0.08405589
   0.24503510  0.91666675  0.25216761
   0.07836838  0.91666675  0.42027944
   0.41170177  0.58333343  0.08405589
   0.88605958  0.04675078  0.53426754
   0.07836838  0.58333343  0.42027944
   0.41170177  0.25000000  0.08405589
   0.77067494  0.62367380  0.53426754
   0.84759813  0.23905837  0.53426754
   0.74503517  0.91666675  0.08405589
   0.57836855  0.91666675  0.25216761
   0.69375187  0.00828922  0.53426754
   0.74503517  0.58333343  0.08405589
   0.42452115  0.35444304  0.53426754
   0.80913657  0.43136618  0.53426754
   0.74503517  0.25000000  0.08405589
   0.57836855  0.25000000  0.25216761
   0.41170180  0.25000000  0.42027944
   0.16170177  0.83333331  0.00000000
   0.46298248  0.16213548  0.81566292
   0.00144422  0.46982759  0.53426754
   0.16170177  0.50000000  0.00000000
   0.48221326  0.06598163  0.88601178
   0.82836843  0.50000000  0.33622354
   0.98221320  0.56598157  0.88601178
   0.78990543  0.52752006  0.88601178
   0.82836843  0.16666667  0.33622354
   0.49503511  0.83333331  0.00000000
   0.32836843  0.83333331  0.16811179
   0.16170175  0.83333331  0.33622354
   0.49503511  0.50000000  0.00000000
   0.32836843  0.50000000  0.16811179
   0.16170175  0.50000000  0.33622354
   0.82836700  0.33521238  0.88601178
   0.32836843  0.16666667  0.16811179
   0.16170175  0.16666667  0.33622354
   0.82836855  0.83333331  0.00000000
   0.90529013  0.95059699  0.88601178
   0.49503520  0.83333331  0.33622354
   0.82836855  0.50000000  0.00000000
   0.86682856  0.14290464  0.88601178
   0.49503520  0.50000000  0.33622354
   0.82836855  0.16666667  0.00000000
   0.66170186  0.16666667  0.16811179
   0.49503520  0.16666667  0.33622354
   0.24503510  0.75000006  0.08405589
   0.07836843  0.75000006  0.25216761
   0.91170174  0.75000006  0.42027944
   0.11682864  0.89290476  0.81566292
   0.07836843  0.41666672  0.25216761
   0.73221338  0.81598151  0.53426754
   0.24503510  0.08333334  0.08405589
   0.07836843  0.08333334  0.25216761
   0.91170174  0.08333334  0.42027944
   0.57836848  0.75000006  0.08405589
   0.61682886  0.39290458  0.53426754
   0.24503513  0.75000006  0.42027944
   0.57836848  0.41666672  0.08405589
   0.41170186  0.41666672  0.25216761
   0.57836729  0.58521235  0.53426754
   0.57836848  0.08333334  0.08405589
   0.65529031  0.20059687  0.53426754
   0.24503513  0.08333334  0.42027944
   0.52067471  0.87367392  0.88601178
   0.23221341  0.31598148  0.53426754
   0.57836837  0.75000006  0.42027944
   0.17452094  0.60444313  0.88601178
   0.53990573  0.77751988  0.53426754
   0.57836837  0.41666672  0.42027944
   0.40529022  0.45059699  0.88601178
   0.21298263  0.41213533  0.60461640
   0.57836837  0.08333334  0.42027944
   0.07836838  0.25000000  0.42027944
   0.73221344  0.31598151  0.67496520
   0.61682874  0.39290467  0.81566292
   0.82836843  0.83333331  0.33622354
   0.88605958  0.54675066  0.67496520
   0.77067488  0.62367386  0.81566292
   0.46298268  0.16213530  0.53426754
   0.34759799  0.23905843  0.67496520
   0.23221329  0.31598157  0.81566292
   0.41170186  0.75000006  0.25216761
   0.50144410  0.46982771  0.67496520
   0.38605943  0.54675084  0.81566292
   0.24503510  0.25000000  0.25216761
   0.65529025  0.70059693  0.67496520
   0.53990555  0.77752006  0.81566292
   0.66170174  0.66666669  0.33622354
   0.80913639  0.93136627  0.67496520
   0.69375169  0.00828934  0.81566292
   0.07836723  0.08521221  0.53426754
   0.96298254  0.16213533  0.67496520
   0.84759784  0.23905846  0.81566292
   0.74503505  0.75000006  0.25216761
   0.11682871  0.39290461  0.67496520
   0.00144398  0.46982774  0.81566292
   0.38605958  0.54675072  0.53426754
   0.27067486  0.62367386  0.67496520
   0.15529016  0.70059699  0.81566292
   0.74503505  0.41666672  0.25216761
   0.42452106  0.85444301  0.67496520
   0.30913633  0.93136615  0.81566292
   0.41170180  0.91666675  0.42027944
   0.57836717  0.08521234  0.67496520
   0.99503505  0.83333331  0.16811179
   0.66170174  0.33333334  0.33622354
   0.03990555  0.77752000  0.67496520
   0.92452091  0.85444319  0.81566292
   0.30913651  0.93136609  0.53426754
   0.19375181  0.00828910  0.67496520
   0.07836700  0.08521234  0.81566292
   0.05913639  0.18136609  0.60461640
   0.94375175  0.25828922  0.74531406
   0.49503511  0.16666667  0.00000000
   0.67452109  0.10444307  0.60461640
   0.55913639  0.18136621  0.74531406
   0.44375166  0.25828934  0.88601178
   0.82836735  0.33521223  0.60461640
   0.71298265  0.41213539  0.74531406
   0.99503511  0.00000000  0.00000000
   0.98221344  0.56598145  0.60461640
   0.86682874  0.64290464  0.74531406
   0.75144398  0.71982777  0.88601178
   0.44375190  0.25828916  0.60461640
   0.32836720  0.33521229  0.74531406
   0.21298248  0.41213542  0.88601178
   0.59759802  0.48905846  0.60461640
   0.48221332  0.56598157  0.74531406
   0.36682859  0.64290476  0.88601178
   0.75144416  0.71982765  0.60461640
   0.63605946  0.79675078  0.74531406
   0.91170174  0.75000006  0.08405589
   0.90529031  0.95059693  0.60461640
   0.78990561  0.02752006  0.74531406
   0.82836843  0.33333334  0.16811179
   0.74503505  0.08333334  0.25216761
   0.09759793  0.48905843  0.74531406
   0.16170177  0.16666667  0.00000000
   0.36682877  0.64290464  0.60461640
   0.25144407  0.71982771  0.74531406
   0.49503511  0.33333334  0.16811179
   0.52067488  0.87367380  0.60461640
   0.40529022  0.95059693  0.74531406
   0.28990549  0.02752006  0.88601178
   0.13605954  0.79675072  0.60461640
   0.02067483  0.87367392  0.74531406
   0.66170186  0.83333331  0.16811179
   0.28990570  0.02751994  0.60461640
   0.17452097  0.10444307  0.74531406
   0.66170180  0.33333334  0.00000000
   0.03990567  0.27751997  0.53426754
   0.92452103  0.35444310  0.67496520
   0.80913633  0.43136627  0.81566292
   0.41170186  0.08333334  0.25216761
   0.53990561  0.27752000  0.67496520
   0.42452091  0.35444313  0.81566292
   0.41170180  0.58333343  0.42027944
   0.69375181  0.50828928  0.67496520
   0.57836711  0.58521247  0.81566292
   0.96298271  0.66213542  0.53426754
   0.84759796  0.73905855  0.67496520
   0.73221326  0.81598169  0.81566292
   0.66170174  0.00000000  0.33622354
   0.15529028  0.20059690  0.67496520
   0.03990555  0.27752003  0.81566292
   0.57836855  0.58333343  0.25216761
   0.30913645  0.43136618  0.67496520
   0.19375172  0.50828928  0.81566292
   0.24503513  0.41666672  0.42027944
   0.46298256  0.66213548  0.67496520
   0.34759787  0.73905861  0.81566292
   0.91170174  0.41666672  0.42027944
   0.61682868  0.89290464  0.67496520
   0.50144398  0.96982777  0.81566292
   0.24503510  0.58333343  0.25216761
   0.77067488  0.12367391  0.67496520
   0.65529019  0.20059705  0.81566292
   0.19375187  0.50828922  0.53426754
   0.07836711  0.58521235  0.67496520
   0.96298248  0.66213548  0.81566292
   0.74503505  0.25000000  0.42027944
   0.23221335  0.81598163  0.67496520
   0.24503510  0.41666672  0.08405589
   0.50144422  0.96982771  0.53426754
   0.38605949  0.04675078  0.67496520
   0.27067479  0.12367391  0.81566292
   0.11682877  0.89290458  0.53426754
   0.00144410  0.96982771  0.67496520
   0.88605934  0.04675078  0.81566292
   0.99503511  0.66666669  0.33622354
   0.75144416  0.21982768  0.74531406
   0.63605946  0.29675081  0.88601178
   0.02067483  0.37367377  0.60461640
   0.90529019  0.45059693  0.74531406
   0.99503505  0.16666667  0.16811179
   0.63605964  0.29675070  0.60461640
   0.52067494  0.37367383  0.74531406
   0.91170174  0.08333334  0.08405589
   0.78990585  0.52751994  0.60461640
   0.67452115  0.60444307  0.74531406
   0.55913639  0.68136621  0.88601178
   0.94375205  0.75828922  0.60461640
   0.82836735  0.83521235  0.74531406
   0.71298259  0.91213548  0.88601178
   0.25144419  0.21982756  0.60461640
   0.13605948  0.29675070  0.74531406
   0.49503511  0.00000000  0.16811179
   0.40529036  0.45059687  0.60461640
   0.28990567  0.52752000  0.74531406
   0.91170174  0.41666672  0.08405589
   0.55913651  0.68136609  0.60461640
   0.44375181  0.75828922  0.74531406
   0.32836705  0.83521235  0.88601178
   0.71298271  0.91213542  0.60461640
   0.59759802  0.98905855  0.74531406
   0.99503505  0.50000000  0.16811179
   0.17452106  0.60444301  0.60461640
   0.05913639  0.68136615  0.74531406
   0.66170180  0.66666669  0.00000000
   0.32836723  0.83521223  0.60461640
   0.21298254  0.91213536  0.74531406
   0.32836846  0.00000000  0.00000000
   0.48221347  0.06598151  0.60461640
   0.36682877  0.14290476  0.74531406
   0.07836843  0.58333343  0.08405589
   0.09759800  0.98905837  0.60461640
   0.98221326  0.06598151  0.74531406
   0.66170186  0.50000000  0.16811179
 
 position of ions in cartesian coordinates  (Angst):
  19.37094542 12.97840031  0.00000000
  16.12634504 12.97840031  3.24459999
  17.99820663 16.63395702 10.31149874
  19.37094542  6.48920014  0.00000000
  13.13130318  2.03325813 17.10025142
   3.02312954 13.63893952 10.31149874
  11.63379791  9.52079566 17.10025142
  16.12634504  0.00000000  3.24459999
   5.26939209  2.40763141 10.31149874
   6.39254569 12.97840031  0.00000000
   3.14794475 12.97840031  3.24459999
  16.87507853  2.78200831 11.66924951
   6.39254569  6.48920014  0.00000000
   3.14794475  6.48920014  3.24459999
  19.37094542  6.48920014  6.48919942
   1.89999492 19.25459618 17.10025142
   3.14794475  0.00000000  3.24459999
  19.37094542  0.00000000  6.48919942
  18.37257917 14.76207225 17.10025142
   9.63714548 12.97840031  3.24459999
   6.39254569 12.97840031  6.48919942
   1.15124126  3.53076471 17.10025142
   2.64874887 15.51082777 17.10025142
   6.39254569  6.48920014  6.48919942
  12.88174584  0.00000000  0.00000000
   0.40248690  7.27453311 17.10025142
   6.39254569  0.00000000  6.48919942
   1.52564530 17.84530142  1.62229999
  17.74864580 17.84530142  4.86689869
  14.50404428 17.84530142  8.11149954
   4.89501200  4.27952140 17.10025142
  17.74864580 11.35610186  4.86689869
  14.50404428 11.35610186  8.11149954
   1.52564530  4.86689997  1.62229999
  17.74864580  4.86689997  4.86689869
   6.76689967 14.38769506 10.31149874
   8.01484530 17.84530142  1.62229999
   4.77024522 17.84530142  4.86689869
   1.52564428 17.84530142  8.11149954
   8.01484530 11.35610186  1.62229999
  17.24945340  0.91012556 10.31149874
   1.52564428 11.35610186  8.11149954
   8.01484530  4.86689997  1.62229999
  15.00319144 12.14143193 10.31149874
  16.50070134  4.65389279 10.31149874
  14.50404662 17.84530142  1.62229999
  11.25944741 17.84530142  4.86689869
  13.50568385  0.16137118 10.31149874
  14.50404662 11.35610186  1.62229999
   8.26440785  6.90015534 10.31149874
  15.75194696  8.39766409 10.31149874
  14.50404662  4.86689997  1.62229999
  11.25944741  4.86689997  4.86689869
   8.01484587  4.86689997  8.11149954
   3.14794534 16.22299949  0.00000000
   9.01315759  3.15638869 15.74250065
   0.02811552  9.14641557 10.31149874
   3.14794534  9.73379993  0.00000000
   9.38753478  1.28450391 17.10025142
  16.12634504  9.73379993  6.48919942
  19.12133354 11.01830268 17.10025142
  15.37756283 10.26954947 17.10025142
  16.12634504  3.24460008  6.48919942
   9.63714548 16.22299949  0.00000000
   6.39254511 16.22299949  3.24459999
   3.14794504 16.22299949  6.48919942
   9.63714548  9.73379993  0.00000000
   6.39254511  9.73379993  3.24459999
   3.14794504  9.73379993  6.48919942
  16.12631720  6.52578048 17.10025142
   6.39254511  3.24460008  3.24459999
   3.14794504  3.24460008  6.48919942
  16.12634738 16.22299949  0.00000000
  17.62382596 18.50584180 17.10025142
   9.63714721 16.22299949  6.48919942
  16.12634738  9.73379993  0.00000000
  16.87507158  2.78201033 17.10025142
   9.63714721  9.73379993  6.48919942
  16.12634738  3.24460008  0.00000000
  12.88174700  3.24460008  3.24459999
   9.63714721  3.24460008  6.48919942
   4.77024522 14.60070107  1.62229999
   1.52564530 14.60070107  4.86689869
  17.74864465 14.60070107  8.11149954
   2.27437328 17.38271255 15.74250065
   1.52564530  8.11150091  4.86689869
  14.25443706 15.88520148 10.31149874
   4.77024522  1.62230018  1.62229999
   1.52564530  1.62230018  4.86689869
  17.74864465  1.62230018  8.11149954
  11.25944624 14.60070107  1.62229999
  12.00817741  7.64890915 10.31149874
   4.77024581 14.60070107  8.11149954
  11.25944624  8.11150091  1.62229999
   8.01484704  8.11150091  4.86689869
  11.25942304 11.39267987 10.31149874
  11.25944624  1.62230018  1.62229999
  12.75692948  3.90513958 10.31149874
   4.77024581  1.62230018  8.11149954
  10.13628684 17.00833421 17.10025142
   4.52063771  6.15140096 10.31149874
  11.25944393 14.60070107  8.11149954
[...]
     11.25945      4.86690      4.86690         0.080169      1.148328     -0.133544
      8.01485      4.86690      8.11150        -0.007709     -0.189750      0.893026
      3.14795     16.22300      0.00000         1.546160      1.367964      4.611564
      9.01316      3.15639     15.74250        -0.836123      3.163072     -2.194085
      0.02812      9.14642     10.31150        -0.085787      0.213555     -4.329602
      3.14795      9.73380      0.00000         0.045935     -0.208285      0.295141
      9.38753      1.28450     17.10025         0.673210     -2.304396      6.106383
     16.12635      9.73380      6.48920         0.222072     -1.165585      0.045981
     19.12133     11.01830     17.10025         0.081871      0.338715      3.337333
     15.37756     10.26955     17.10025        -1.780515      0.790181     -1.670928
     16.12635      3.24460      6.48920        -1.477224     -0.139096      0.077540
      9.63715     16.22300      0.00000        -1.365990     -1.424838      4.017595
      6.39255     16.22300      3.24460         0.596565     -0.613936      0.631463
      3.14795     16.22300      6.48920        -0.153073      0.139666      0.063425
      9.63715      9.73380      0.00000         0.185207     -0.315743     -0.827570
      6.39255      9.73380      3.24460        -1.229154     -0.133840      0.094995
      3.14795      9.73380      6.48920         1.186410     -0.094911     -0.279591
     16.12632      6.52578     17.10025        -0.090709      0.025313      3.971602
      6.39255      3.24460      3.24460        -0.047794      0.095480      1.354066
      3.14795      3.24460      6.48920         0.311601      1.073914      0.136442
     16.12635     16.22300      0.00000         0.631624     -0.671016     -0.938392
     17.62383     18.50584     17.10025         0.042383     -0.236247      4.216160
      9.63715     16.22300      6.48920        -0.975668     -0.167133     -0.095542
     16.12635      9.73380      0.00000         2.058874     -1.514986      4.909997
     16.87507      2.78201     17.10025         1.907602     -0.656597     -1.953970
      9.63715      9.73380      6.48920        -0.070906      1.183962      0.241726
     16.12635      3.24460      0.00000        -0.975519      0.226846      5.204388
     12.88175      3.24460      3.24460         0.658761     -0.711311      0.723533
      9.63715      3.24460      6.48920        -0.609742     -0.536668     -0.886657
      4.77025     14.60070      1.62230        -0.163091      0.084363     -0.248309
      1.52565     14.60070      4.86690        -1.231324     -0.137410     -0.124356
     17.74864     14.60070      8.11150         0.051420     -0.201361     -0.295342
      2.27437     17.38271     15.74250        -0.284424     -0.078775     -4.084612
      1.52565      8.11150      4.86690        -0.622768      0.743459     -0.724219
     14.25444     15.88520     10.31150         0.103353      0.359799     -3.367634
      4.77025      1.62230      1.62230         0.209415     -0.199761     -1.307200
      1.52565      1.62230      4.86690        -0.633942      0.641921     -0.647637
     17.74864      1.62230      8.11150         1.535206      1.364394     -4.619837
     11.25945     14.60070      1.62230         1.440406      0.126259     -0.126098
     12.00818      7.64891     10.31150         1.908754     -0.675049      1.967624
      4.77025     14.60070      8.11150         0.176732     -0.303682      0.847685
     11.25945      8.11150      1.62230         0.254543     -0.717077      0.590085
      8.01485      8.11150      4.86690         0.657371     -0.732056     -0.726604
     11.25942     11.39268     10.31150        -0.092262      0.010607     -3.967813
     11.25945      1.62230      1.62230        -1.372873      0.011236      0.211467
     12.75693      3.90514     10.31150         0.041252     -0.220917     -4.177017
      4.77025      1.62230      8.11150        -1.370311     -1.419006     -4.009276
     10.13629     17.00833     17.10025         1.157091      1.418021     -1.373658
      4.52064      6.15140     10.31150         0.667717     -2.311708     -6.129833
     11.25944     14.60070      8.11150         2.053482     -1.525632     -4.900612
      3.39750     11.76706     17.10025         0.002980     -0.481711      3.485661
     10.51067     15.13645     10.31150        -1.781166      0.775838      1.675984
     11.25944      8.11150      8.11150        -0.981545      0.226114     -5.217693
      7.89003      8.77204     17.10025        -0.293082     -0.453290      3.742832
      4.14626      8.02329     11.66925        -0.855637      3.192688      2.205592
     11.25944      1.62230      8.11150         0.619117     -0.660310      0.938142
      1.52564      4.86690      8.11150        -0.412737      0.636620     -0.052080
     14.25444      6.15140     13.02700         0.014422      0.038258      0.118433
     12.00818      7.64891     15.74250         0.184771     -2.429644     -1.077915
     16.12635     16.22300      6.48920        -0.443109     -0.404479     -0.687860
     17.24945     10.64392     13.02700        -0.008262      0.039199      0.160952
     15.00319     12.14143     15.74250        -0.365735      2.307847     -0.992346
      9.01316      3.15639     10.31150         0.018958      0.489344     -0.427129
      6.76690      4.65389     13.02700         0.053008     -0.074872      0.091533
      4.52064      6.15140     15.74250        -0.931566      2.261178     -1.304127
      8.01485     14.60070      4.86690         0.064857      0.028650      0.014958
      9.76191      9.14642     13.02700         0.036261     -0.009496      0.140137
      7.51565     10.64393     15.74250        -0.623818      2.225666     -1.023345
      4.77025      4.86690      4.86690        -0.043839      0.087115     -0.080378
     12.75693     13.63894     13.02700        -0.029539      0.030787      0.177652
     10.51067     15.13645     15.74250         0.881764     -2.239962     -1.345188
     12.88174     12.97840      6.48920         0.173481     -0.031750     -0.645548
     15.75194     18.13147     13.02700        -0.059875      0.078772      0.105968
     13.50568      0.16137     15.74250         0.699274     -2.393851     -1.646600
      1.52562      1.65888     10.31150         0.003649      0.028593     -0.807374
     18.74696      3.15639     13.02700         2.314578      0.565911      1.668563
     16.50070      4.65389     15.74250        -0.103432     -0.056634     -3.066209
     14.50404     14.60070      4.86690        -0.464915      0.535745      0.324806
      2.27437      7.64891     13.02700        -2.243773     -0.481985      1.775797
      0.02811      9.14642     15.74250        -0.176218     -0.102470     -2.448799
      7.51565     10.64392     10.31150        -0.173126      0.411528     -0.424524
      5.26939     12.14143     13.02700        -0.022231     -0.067373      0.125831
      3.02313     13.63894     15.74250         0.192696      0.073296     -2.423299
     14.50404      8.11150      4.86690        -0.483706     -0.460638     -0.421419
      8.26441     16.63395     13.02700        -0.048206     -0.003394      0.112546
      6.01814     18.13146     15.74250         0.191426     -0.059951      0.191254
      8.01485     17.84530      8.11150        -0.275245      0.767309      1.208542
     11.25942      1.65888     13.02700         0.018474     -0.006798     -0.019587
     19.37094     16.22300      3.24460        -0.337761     -0.499132     -0.322038
     12.88174      6.48920      6.48920         0.612937      0.182644     -0.038944
      0.77687     15.13645     13.02700        -0.124097      0.027975      0.060552
     17.99820     16.63396     15.74250         0.374554      0.057839     -2.850305
      6.01815     18.13146     10.31150         0.219986     -0.656891     -0.923203
      3.77188      0.16137     13.02700         0.026958     -0.143235     -0.036933
      1.52562      1.65888     15.74250        -0.005461     -0.000067     -2.857430
      1.15124      3.53076     11.66925         0.191877     -0.057758     -0.201675
     18.37258      5.02827     14.38475         0.020909     -0.106107     -0.035863
      9.63715      3.24460      0.00000        -0.069683     -0.041682     -0.284166
     13.13131      2.03326     11.66925         0.373631      0.044746      2.827001
     10.88504      3.53076     14.38475         2.219889      0.605862     -1.744535
      8.63878      5.02827     17.10025        -0.360861      1.814093      2.344099
     16.12632      6.52578     11.66925        -0.013580      0.000975      2.872261
     13.88006      8.02329     14.38475         0.026627      0.041158     -0.039388
     19.37095      0.00000      0.00000        -0.152038     -0.154275     -0.231882
     19.12134     11.01830     11.66925        -0.919829      2.247909      1.305763
     16.87508     12.51581     14.38475         0.062155     -0.001047     -0.100341
     14.62881     14.01332     17.10025        -0.297002      0.153432      1.360794
      8.63878      5.02827     11.66925         0.717451     -2.400472      1.654051
      6.39252      6.52578     14.38475         0.053180      0.012171      0.008680
      4.14626      8.02329     17.10025         0.008280      0.485419      0.449039
     11.63380      9.52079     11.66925        -0.097637     -0.035380      3.060227
      9.38754     11.01830     14.38475         0.030706      0.110342     -0.070421
      7.14127     12.51581     17.10025         0.789498      0.331905     -2.049887
     14.62881     14.01332     11.66925        -0.180812     -0.112469      2.466237
     12.38255     15.51083     14.38475        -0.024390     -0.014516     -0.106672
     17.74864     14.60070      1.62230         0.298692      0.319536      0.766760
     17.62383     18.50584     11.66925         0.197992      0.095471      2.414923
     15.37757      0.53575     14.38475        -0.124859     -0.022181     -0.066788
     16.12635      6.48920      3.24460         0.006437      0.893989     -0.006409
     14.50404      1.62230      4.86690        -0.327689     -0.471564      0.329419
      1.90000      9.52079     14.38475         0.036231     -0.077606     -0.095014
      3.14795      3.24460      0.00000        -0.268471      0.647387     -0.639273
      7.14128     12.51581     11.66925         0.186166     -2.432748      1.089013
      4.89501     14.01332     14.38475         0.077101     -0.066881     -0.129299
      9.63715      6.48920      3.24460         0.128597     -0.064542      0.113017
     10.13629     17.00833     11.66925        -0.376862      2.316945      0.998903
      7.89003     18.50584     14.38475        -0.062250      0.066025     -0.112172
      5.64376      0.53575     17.10025         0.002458     -0.921696      0.426946
      2.64875     15.51082     11.66925        -0.615475      2.228068      1.034835
      0.40249     17.00833     14.38475        -2.317012     -0.455154     -1.832878
     12.88175     16.22300      3.24460         0.322744     -0.358798      0.513050
      5.64377      0.53575     11.66925         0.877175     -2.239514      1.338322
      3.39750      2.03326     14.38475        -0.040520     -0.083656     -0.089825
     12.88175      6.48920      0.00000         0.409612     -0.329427      0.000968
      0.77687      5.40265     10.31150        -0.002437     -0.899653     -0.423038
     17.99821      6.90016     13.02700        -0.032178     -0.082946      0.070406
     15.75194      8.39767     15.74250         0.089718      0.055034     -3.097502
      8.01485      1.62230      4.86690         0.329827     -0.377690     -0.492621
     10.51067      5.40265     13.02700        -0.052655     -0.005790      0.098969
      8.26440      6.90016     15.74250         0.876706     -2.266808     -1.237201
      8.01485     11.35610      8.11150         0.429648     -0.324825     -0.001762
     13.50568      9.89517     13.02700        -0.017757     -0.081543      0.065327
     11.25942     11.39268     15.74250        -0.436199      2.398481     -1.382852
     18.74696     12.89019     10.31150         0.009638      0.469751     -0.438551
     16.50070     14.38770     13.02700         0.098365     -0.075615      0.101251
     14.25443     15.88520     15.74250        -0.476638     -0.103319      0.288990
     12.88174      0.00000      6.48920         0.316715      0.306008     -0.766728
      3.02313      3.90514     13.02700        -0.049266      0.074295      0.113225
      0.77687      5.40265     15.74250         0.367387      0.146158     -2.842249
     11.25945     11.35610      4.86690         0.835449      0.031144      0.018375
      6.01814      8.39766     13.02700         2.210596      0.587042      1.742129
      3.77188      9.89517     15.74250         0.704956     -2.408997     -1.624055
      4.77025      8.11150      8.11150        -0.042392     -0.037382      0.280893
      9.01316     12.89019     13.02700         0.025246      0.054868      0.056008
      6.76690     14.38770     15.74250        -0.152595      0.062384      0.196363
     17.74864      8.11150      8.11150        -0.277871      0.663449      0.648645
     12.00817     17.38271     13.02700         0.067564     -0.015169      0.122961
      9.76191     18.88022     15.74250        -0.189570     -0.190435     -2.381251
      4.77025     11.35610      4.86690         0.116537     -0.091738     -0.106265
     15.00319      2.40763     13.02700        -2.296608     -0.474401      1.853044
     12.75693      3.90514     15.74250        -0.181681      2.277480     -0.921551
      3.77188      9.89517     10.31150        -0.375986      1.813160     -2.334314
      1.52562     11.39268     13.02700         0.026768      0.013678     -0.003194
     18.74696     12.89019     15.74250        -0.258806     -0.068581     -3.248948
     14.50404      4.86690      8.11150        -0.151090     -0.166857      0.218970
      4.52064     15.88520     13.02700         0.058062      0.122769      0.050062
      4.77025      8.11150      1.62230         0.090365      0.089046      0.281359
      9.76192     18.88022     10.31150        -0.285518      0.153301     -1.376533
      7.51565      0.91013     13.02700        -0.036113     -0.023830      0.097195
      5.26939      2.40763     15.74250         0.600444     -2.184941     -1.049507
      2.27438     17.38271     10.31150         0.803934      0.335539      2.045205
      0.02811     18.88022     13.02700         0.013437     -0.082008      0.086178
     17.24945      0.91013     15.74250        -0.078514      0.092619     -2.548004
     19.37095     12.97840      6.48920         0.088386      0.078320     -0.273698
     14.62881      4.27952     14.38475        -0.016843     -0.006241     -0.098163
     12.38255      5.77703     17.10025        -0.170490      0.413184      0.421758
      0.40249      7.27453     11.66925         0.604282     -2.180957      1.057438
     17.62383      8.77204     14.38475        -0.026671      0.053685     -0.168823
     19.37094      3.24460      3.24460        -0.491359     -0.464053     -0.432444
     12.38255      5.77702     11.66925        -0.095450      0.095812      2.536853
     10.13629      7.27453     14.38475         0.001013     -0.077083     -0.129830
     17.74864      1.62230      1.62230         0.628121      0.193082      0.058579
     15.37757     10.26955     11.66925         0.370024      0.145217      2.858156
     13.13131     11.76706     14.38475        -0.039247      0.022519     -0.087712
     10.88504     13.26456     17.10025         0.245332     -0.664489      0.941163
     18.37259     14.76207     11.66925         0.673982     -2.405651      1.618919
     16.12632     16.25958     14.38475        -0.020762     -0.029170      0.026245
     13.88006     17.75709     17.10025         0.030585      0.476944      0.417068
      4.89501      4.27952     11.66925        -0.171556     -0.169325      2.375798
      2.64875      5.77702     14.38475        -0.036705      0.029937     -0.143383
      9.63715      0.00000      3.24460        -0.449258      0.534065      0.480583
      7.89003      8.77204     11.66925        -0.204037      2.284284      0.936118
      5.64377     10.26955     14.38475        -0.047633      0.047376     -0.060098
     17.74864      8.11150      1.62230         0.167833     -0.025654      0.645206
     10.88505     13.26456     11.66925         0.102038      0.062820      3.097115
      8.63878     14.76207     14.38475        -0.013971     -0.120923      0.010377
      6.39252     16.25958     17.10025         0.010747      0.024391      0.809947
     13.88006     17.75709     11.66925        -0.232571     -0.068581      3.254272
     11.63380     19.25460     14.38475         0.106371     -0.063365     -0.090603
     19.37094      9.73380      3.24460        -0.046203      0.085846     -0.718521
      3.39751     11.76705     11.66925         0.877763     -2.261965      1.256444
      1.15124     13.26456     14.38475        -0.067275      0.070929     -0.105178
     12.88175     12.97840      0.00000        -0.286074      0.783951     -1.213963
      6.39252     16.25958     11.66925        -0.437268      2.397052      1.376256
      4.14626     17.75709     14.38475         2.305575      0.585441     -1.674896
      6.39255      0.00000      0.00000        -0.421039      0.637849      0.041205
      9.38754      1.28450     11.66925        -0.490466     -0.102533     -0.277895
      7.14128      2.78201     14.38475        -2.245946     -0.499498     -1.789794
      1.52565     11.35610      1.62230        -0.431141     -0.419788      0.677298
      1.90000     19.25459     11.66925        -0.163445      0.053384     -0.177626
     19.12133      1.28450     14.38475         0.058852      0.043621     -0.098165
     12.88175      9.73380      3.24460         0.071814      0.023998      0.862266
 -----------------------------------------------------------------------------------
    total drift:                                0.105656      0.077069     -0.477407


--------------------------------------------------------------------------------------------------------



  FREE ENERGIE OF THE ION-ELECTRON SYSTEM (eV)
  ---------------------------------------------------
  free  energy   TOTEN  =     -1120.92749010 eV

  energy  without entropy=    -1120.92364824  energy(sigma->0) =    -1120.92556917
 


--------------------------------------------------------------------------------------------------------


    POTLOK:  cpu time      3.0859: real time      3.1031


--------------------------------------------------------------------------------------------------------


     LOOP+:  cpu time   6392.9283: real time   6447.1670
    4ORBIT:  cpu time      0.0000: real time      0.0000

 total amount of memory used by VASP MPI-rank0   916455. kBytes
=======================================================================

   base      :      30000. kBytes
   nonlr-proj:      25151. kBytes
   fftplans  :      40892. kBytes
   grid      :      30643. kBytes
   one-center:        275. kBytes
   wavefun   :     789494. kBytes
 
  
  
 General timing and accounting informations for this job:
 ========================================================
  
                  Total CPU time used (sec):     6713.216
                            User time (sec):     6400.790
                          System time (sec):      312.426
                         Elapsed time (sec):     6776.811
  
                   Maximum memory used (kb):     1212072.
                   Average memory used (kb):          N/A
  
                          Minor page faults:       855040
                          Major page faults:         1117
                 Voluntary context switches:         4116
