 264 264   0   0
  0.2741953E+02  0.1946760E-08  0.1946760E-08  0.1910025E-08  0.5000000E-15
  1.000000000000000E-004
  CAR 
 Si and Ge interface calculation         
      6.80011906     -8.41454023  301      4.17315393      1.00000000
     -8.415  0.0000E+00  0.0000E+00  0.0000E+00  0.0000E+00
     -8.364  0.0000E+00  0.0000E+00  0.0000E+00  0.0000E+00
     -8.313  0.0000E+00  0.0000E+00  0.0000E+00  0.0000E+00
     -8.262  0.0000E+00  0.0000E+00  0.0000E+00  0.0000E+00
     -8.212  0.0000E+00  0.0000E+00  0.0000E+00  0.0000E+00
     -8.161  0.0000E+00  0.0000E+00  0.0000E+00  0.0000E+00
     -8.110  0.0000E+00  0.0000E+00  0.0000E+00  0.0000E+00
     -8.060  0.0000E+00  0.0000E+00  0.0000E+00  0.0000E+00
     -8.009  0.0000E+00  0.0000E+00  0.0000E+00  0.0000E+00
     -7.958  0.0000E+00  0.0000E+00  0.0000E+00  0.0000E+00
     -7.907  0.0000E+00  0.0000E+00  0.0000E+00  0.0000E+00
     -7.857  0.0000E+00  0.0000E+00  0.0000E+00  0.0000E+00
     -7.806  0.0000E+00  0.0000E+00  0.0000E+00  0.0000E+00
     -7.755  0.2237E-04  0.4596E-05  0.1134E-05  0.2331E-06
     -7.705  0.9811E+01  0.9743E+01  0.4976E+00  0.4941E+00
     -7.654  0.1281E+01  0.6928E+00  0.5626E+00  0.5293E+00
     -7.603  0.3820E+02  0.3886E+02  0.2500E+01  0.2500E+01
     -7.552  0.2933E+02  0.2583E+02  0.3988E+01  0.3810E+01
     -7.502  0.1010E+02  0.1361E+02  0.4500E+01  0.4500E+01
     -7.451  0.5213E-09  0.4863E-10  0.4500E+01  0.4500E+01
     -7.400  0.1534E+02  0.1243E+02  0.5278E+01  0.5130E+01
     -7.350  0.2410E+02  0.2700E+02  0.6500E+01  0.6500E+01
     -7.299  0.7742E+02  0.7600E+02  0.1043E+02  0.1035E+02
     -7.248  0.1447E+01  0.2866E+01  0.1050E+02  0.1050E+02
     -7.197  0.0000E+00  0.0000E+00  0.1050E+02  0.1050E+02
     -7.147  0.4905E-11  0.5333E-12  0.1050E+02  0.1050E+02
     -7.096  0.5145E+01  0.3943E+01  0.1076E+02  0.1070E+02
     -7.045  0.3308E+02  0.3344E+02  0.1244E+02  0.1240E+02
     -6.995  0.2934E+02  0.2793E+02  0.1393E+02  0.1381E+02
     -6.944  0.3602E+02  0.3622E+02  0.1575E+02  0.1565E+02
     -6.893  0.3919E+02  0.3899E+02  0.1774E+02  0.1763E+02
     -6.842  0.1484E+02  0.1691E+02  0.1849E+02  0.1848E+02
     -6.792  0.1327E+00  0.3011E+00  0.1850E+02  0.1850E+02
     -6.741  0.9254E+01  0.8583E+01  0.1897E+02  0.1894E+02
     -6.690  0.5034E+02  0.4576E+02  0.2152E+02  0.2126E+02
     -6.639  0.7178E+02  0.7518E+02  0.2516E+02  0.2507E+02
     -6.589  0.3511E+02  0.3541E+02  0.2694E+02  0.2686E+02
     -6.538  0.1122E+01  0.2672E+01  0.2700E+02  0.2700E+02
     -6.487  0.3714E+02  0.3545E+02  0.2888E+02  0.2880E+02
     -6.437  0.6310E+02  0.5991E+02  0.3208E+02  0.3184E+02
     -6.386  0.8960E+02  0.9075E+02  0.3663E+02  0.3644E+02
     -6.335  0.6136E+02  0.6487E+02  0.3974E+02  0.3973E+02
     -6.284  0.1213E+02  0.1125E+02  0.4036E+02  0.4030E+02
     -6.234  0.8242E+02  0.8118E+02  0.4453E+02  0.4442E+02
     -6.183  0.5304E+02  0.5472E+02  0.4722E+02  0.4719E+02
     -6.132  0.7562E+02  0.6999E+02  0.5106E+02  0.5074E+02
     -6.082  0.7276E+02  0.7579E+02  0.5475E+02  0.5458E+02
     -6.031  0.2180E+02  0.2433E+02  0.5586E+02  0.5582E+02
     -5.980  0.3708E+02  0.2966E+02  0.5774E+02  0.5732E+02
     -5.929  0.9972E+02  0.1051E+03  0.6279E+02  0.6265E+02
     -5.879  0.9862E+02  0.9472E+02  0.6780E+02  0.6746E+02
     -5.828  0.8739E+02  0.8757E+02  0.7223E+02  0.7190E+02
     -5.777  0.1126E+03  0.1111E+03  0.7794E+02  0.7753E+02
     -5.727  0.8205E+02  0.8637E+02  0.8210E+02  0.8191E+02
     -5.676  0.1187E+03  0.1179E+03  0.8812E+02  0.8789E+02
     -5.625  0.7045E+02  0.7192E+02  0.9169E+02  0.9154E+02
     -5.574  0.8096E+02  0.7891E+02  0.9580E+02  0.9554E+02
     -5.524  0.6578E+02  0.6652E+02  0.9914E+02  0.9891E+02
     -5.473  0.1169E+03  0.1141E+03  0.1051E+03  0.1047E+03
     -5.422  0.1218E+03  0.1257E+03  0.1112E+03  0.1111E+03
     -5.372  0.7502E+02  0.7530E+02  0.1150E+03  0.1149E+03
     -5.321  0.1030E+03  0.9853E+02  0.1203E+03  0.1199E+03
     -5.270  0.1083E+03  0.1109E+03  0.1258E+03  0.1255E+03
     -5.219  0.7431E+02  0.7674E+02  0.1295E+03  0.1294E+03
     -5.169  0.8632E+02  0.8533E+02  0.1339E+03  0.1337E+03
     -5.118  0.6750E+02  0.6624E+02  0.1373E+03  0.1371E+03
     -5.067  0.6075E+02  0.6336E+02  0.1404E+03  0.1403E+03
     -5.017  0.8459E+02  0.7782E+02  0.1447E+03  0.1443E+03
     -4.966  0.1169E+03  0.1226E+03  0.1506E+03  0.1505E+03
     -4.915  0.8753E+02  0.8559E+02  0.1551E+03  0.1548E+03
     -4.864  0.1427E+03  0.1456E+03  0.1623E+03  0.1622E+03
     -4.814  0.6936E+02  0.6495E+02  0.1658E+03  0.1655E+03
     -4.763  0.7487E+02  0.7764E+02  0.1696E+03  0.1694E+03
     -4.712  0.9475E+02  0.9563E+02  0.1744E+03  0.1743E+03
     -4.662  0.9638E+02  0.9375E+02  0.1793E+03  0.1790E+03
     -4.611  0.9590E+02  0.9499E+02  0.1842E+03  0.1838E+03
     -4.560  0.1051E+03  0.1054E+03  0.1895E+03  0.1892E+03
     -4.509  0.9168E+02  0.9351E+02  0.1942E+03  0.1939E+03
     -4.459  0.7810E+02  0.7615E+02  0.1981E+03  0.1978E+03
     -4.408  0.1315E+03  0.1284E+03  0.2048E+03  0.2043E+03
     -4.357  0.9937E+02  0.1065E+03  0.2098E+03  0.2097E+03
     -4.307  0.1277E+03  0.1194E+03  0.2163E+03  0.2158E+03
     -4.256  0.8271E+02  0.8981E+02  0.2205E+03  0.2203E+03
     -4.205  0.7007E+02  0.6593E+02  0.2240E+03  0.2237E+03
     -4.154  0.6686E+02  0.6973E+02  0.2274E+03  0.2272E+03
     -4.104  0.8021E+02  0.8171E+02  0.2315E+03  0.2314E+03
     -4.053  0.6599E+02  0.6713E+02  0.2349E+03  0.2348E+03
     -4.002  0.1079E+02  0.1093E+02  0.2354E+03  0.2353E+03
     -3.952  0.5959E+02  0.5708E+02  0.2384E+03  0.2382E+03
     -3.901  0.4547E+02  0.4927E+02  0.2407E+03  0.2407E+03
     -3.850  0.3979E+02  0.3746E+02  0.2427E+03  0.2426E+03
     -3.799  0.6460E+02  0.5990E+02  0.2460E+03  0.2456E+03
     -3.749  0.8857E+02  0.8950E+02  0.2505E+03  0.2502E+03
     -3.698  0.4384E+02  0.4794E+02  0.2527E+03  0.2526E+03
     -3.647  0.3858E+02  0.3587E+02  0.2547E+03  0.2544E+03
     -3.597  0.7815E+02  0.8110E+02  0.2587E+03  0.2585E+03
     -3.546  0.4025E+02  0.4026E+02  0.2607E+03  0.2606E+03
     -3.495  0.5333E+02  0.4823E+02  0.2634E+03  0.2630E+03
     -3.444  0.8750E+02  0.9357E+02  0.2678E+03  0.2678E+03
     -3.394  0.5731E+02  0.5843E+02  0.2707E+03  0.2707E+03
     -3.343  0.4701E+02  0.3948E+02  0.2731E+03  0.2727E+03
     -3.292  0.8864E+02  0.9272E+02  0.2776E+03  0.2774E+03
     -3.242  0.8258E+02  0.8028E+02  0.2818E+03  0.2815E+03
     -3.191  0.5343E+02  0.5379E+02  0.2845E+03  0.2842E+03
     -3.140  0.8348E+02  0.8123E+02  0.2888E+03  0.2884E+03
     -3.089  0.7498E+02  0.7960E+02  0.2926E+03  0.2924E+03
     -3.039  0.5786E+02  0.5853E+02  0.2955E+03  0.2954E+03
     -2.988  0.8571E+02  0.8277E+02  0.2998E+03  0.2996E+03
     -2.937  0.3139E+02  0.3485E+02  0.3014E+03  0.3013E+03
     -2.887  0.6752E+02  0.6381E+02  0.3049E+03  0.3046E+03
     -2.836  0.6868E+02  0.6915E+02  0.3083E+03  0.3081E+03
     -2.785  0.8622E+02  0.8655E+02  0.3127E+03  0.3125E+03
     -2.734  0.1128E+03  0.1086E+03  0.3184E+03  0.3180E+03
     -2.684  0.4531E+02  0.5074E+02  0.3207E+03  0.3206E+03
     -2.633  0.8794E+02  0.8773E+02  0.3252E+03  0.3250E+03
     -2.582  0.8671E+02  0.8542E+02  0.3296E+03  0.3293E+03
     -2.532  0.1409E+03  0.1363E+03  0.3367E+03  0.3362E+03
     -2.481  0.1113E+03  0.1167E+03  0.3424E+03  0.3422E+03
     -2.430  0.1399E+03  0.1374E+03  0.3495E+03  0.3491E+03
     -2.379  0.1326E+03  0.1305E+03  0.3562E+03  0.3557E+03
     -2.329  0.1068E+03  0.1105E+03  0.3616E+03  0.3613E+03
     -2.278  0.9216E+02  0.9089E+02  0.3663E+03  0.3660E+03
     -2.227  0.9097E+02  0.9348E+02  0.3709E+03  0.3707E+03
     -2.177  0.1113E+03  0.1128E+03  0.3765E+03  0.3764E+03
     -2.126  0.5961E+02  0.5674E+02  0.3796E+03  0.3793E+03
     -2.075  0.9342E+02  0.9582E+02  0.3843E+03  0.3842E+03
     -2.024  0.6478E+02  0.6698E+02  0.3876E+03  0.3876E+03
     -1.974  0.8042E+02  0.7507E+02  0.3917E+03  0.3914E+03
     -1.923  0.1187E+03  0.1214E+03  0.3977E+03  0.3975E+03
     -1.872  0.6301E+02  0.6479E+02  0.4009E+03  0.4008E+03
     -1.822  0.5735E+02  0.5469E+02  0.4038E+03  0.4036E+03
     -1.771  0.7697E+02  0.7750E+02  0.4077E+03  0.4075E+03
     -1.720  0.1089E+03  0.1088E+03  0.4132E+03  0.4130E+03
     -1.669  0.7540E+02  0.7696E+02  0.4170E+03  0.4169E+03
     -1.619  0.6451E+02  0.6091E+02  0.4203E+03  0.4200E+03
     -1.568  0.1030E+03  0.1016E+03  0.4255E+03  0.4252E+03
     -1.517  0.6197E+02  0.6472E+02  0.4287E+03  0.4285E+03
     -1.467  0.7544E+02  0.7595E+02  0.4325E+03  0.4323E+03
     -1.416  0.8083E+02  0.7893E+02  0.4366E+03  0.4363E+03
     -1.365  0.6329E+02  0.6633E+02  0.4398E+03  0.4397E+03
     -1.314  0.6261E+02  0.6542E+02  0.4430E+03  0.4430E+03
     -1.264  0.5698E+02  0.5446E+02  0.4459E+03  0.4458E+03
     -1.213  0.5260E+02  0.5266E+02  0.4486E+03  0.4484E+03
     -1.162  0.2959E+02  0.2955E+02  0.4501E+03  0.4499E+03
     -1.112  0.5886E+02  0.5699E+02  0.4530E+03  0.4528E+03
     -1.061  0.5139E+02  0.5436E+02  0.4556E+03  0.4556E+03
     -1.010  0.4575E+02  0.4579E+02  0.4580E+03  0.4579E+03
     -0.959  0.5481E+02  0.4979E+02  0.4607E+03  0.4604E+03
     -0.909  0.4492E+02  0.5030E+02  0.4630E+03  0.4630E+03
     -0.858  0.7904E+02  0.7680E+02  0.4670E+03  0.4669E+03
     -0.807  0.3330E+02  0.3142E+02  0.4687E+03  0.4685E+03
     -0.756  0.9264E+02  0.9192E+02  0.4734E+03  0.4731E+03
     -0.706  0.5371E+02  0.5676E+02  0.4761E+03  0.4760E+03
     -0.655  0.4339E+02  0.4528E+02  0.4783E+03  0.4783E+03
     -0.604  0.3016E+02  0.2776E+02  0.4799E+03  0.4797E+03
     -0.554  0.7282E+02  0.7365E+02  0.4836E+03  0.4834E+03
     -0.503  0.5242E+02  0.5459E+02  0.4862E+03  0.4862E+03
     -0.452  0.2366E+02  0.2248E+02  0.4874E+03  0.4873E+03
     -0.401  0.2119E+02  0.2284E+02  0.4885E+03  0.4885E+03
     -0.351  0.3062E+02  0.2694E+02  0.4901E+03  0.4899E+03
     -0.300  0.2539E+02  0.2721E+02  0.4913E+03  0.4912E+03
     -0.249  0.5400E+02  0.5360E+02  0.4941E+03  0.4940E+03
     -0.199  0.3248E+02  0.3020E+02  0.4957E+03  0.4955E+03
     -0.148  0.3420E+02  0.3535E+02  0.4975E+03  0.4973E+03
     -0.097  0.7994E+02  0.8138E+02  0.5015E+03  0.5014E+03
     -0.046  0.5155E+02  0.5023E+02  0.5041E+03  0.5040E+03
      0.004  0.6145E+02  0.6146E+02  0.5072E+03  0.5071E+03
      0.055  0.7979E+02  0.8017E+02  0.5113E+03  0.5111E+03
      0.106  0.8807E+02  0.8577E+02  0.5158E+03  0.5155E+03
      0.156  0.1240E+03  0.1253E+03  0.5220E+03  0.5218E+03
      0.207  0.1107E+03  0.1077E+03  0.5277E+03  0.5273E+03
      0.258  0.1269E+03  0.1288E+03  0.5341E+03  0.5338E+03
      0.309  0.1538E+03  0.1529E+03  0.5419E+03  0.5416E+03
      0.359  0.1251E+03  0.1216E+03  0.5482E+03  0.5478E+03
      0.410  0.9909E+02  0.1042E+03  0.5533E+03  0.5531E+03
      0.461  0.9601E+02  0.9244E+02  0.5581E+03  0.5577E+03
      0.511  0.1351E+03  0.1342E+03  0.5650E+03  0.5645E+03
      0.562  0.1076E+03  0.1140E+03  0.5704E+03  0.5703E+03
      0.613  0.9999E+02  0.9922E+02  0.5755E+03  0.5754E+03
      0.664  0.6131E+02  0.5980E+02  0.5786E+03  0.5784E+03
      0.714  0.9887E+02  0.9746E+02  0.5836E+03  0.5833E+03
      0.765  0.1522E+03  0.1507E+03  0.5914E+03  0.5910E+03
      0.816  0.1770E+03  0.1778E+03  0.6003E+03  0.6000E+03
      0.866  0.1662E+03  0.1623E+03  0.6088E+03  0.6082E+03
      0.917  0.2118E+03  0.2083E+03  0.6195E+03  0.6188E+03
      0.968  0.1125E+03  0.1195E+03  0.6252E+03  0.6248E+03
      1.019  0.1438E+03  0.1388E+03  0.6325E+03  0.6319E+03
      1.069  0.2027E+03  0.2086E+03  0.6428E+03  0.6425E+03
      1.120  0.1565E+03  0.1557E+03  0.6507E+03  0.6504E+03
      1.171  0.1468E+03  0.1487E+03  0.6582E+03  0.6579E+03
      1.221  0.1904E+03  0.1886E+03  0.6678E+03  0.6675E+03
      1.272  0.1710E+03  0.1698E+03  0.6765E+03  0.6761E+03
      1.323  0.2196E+03  0.2186E+03  0.6876E+03  0.6872E+03
      1.374  0.1178E+03  0.1185E+03  0.6936E+03  0.6932E+03
      1.424  0.1134E+03  0.1169E+03  0.6994E+03  0.6991E+03
      1.475  0.1745E+03  0.1697E+03  0.7082E+03  0.7077E+03
      1.526  0.2043E+03  0.1976E+03  0.7186E+03  0.7177E+03
      1.576  0.2550E+03  0.2608E+03  0.7315E+03  0.7310E+03
      1.627  0.2023E+03  0.2047E+03  0.7418E+03  0.7413E+03
      1.678  0.1231E+03  0.1233E+03  0.7480E+03  0.7476E+03
      1.729  0.1744E+03  0.1741E+03  0.7569E+03  0.7564E+03
      1.779  0.1917E+03  0.1910E+03  0.7666E+03  0.7661E+03
      1.830  0.1750E+03  0.1763E+03  0.7755E+03  0.7751E+03
      1.881  0.1683E+03  0.1634E+03  0.7840E+03  0.7833E+03
      1.931  0.1999E+03  0.2033E+03  0.7941E+03  0.7937E+03
      1.982  0.1706E+03  0.1674E+03  0.8028E+03  0.8021E+03
      2.033  0.1725E+03  0.1755E+03  0.8115E+03  0.8110E+03
      2.084  0.1784E+03  0.1775E+03  0.8206E+03  0.8200E+03
      2.134  0.2101E+03  0.2071E+03  0.8312E+03  0.8305E+03
      2.185  0.1571E+03  0.1626E+03  0.8392E+03  0.8388E+03
      2.236  0.1658E+03  0.1649E+03  0.8476E+03  0.8472E+03
      2.286  0.1395E+03  0.1373E+03  0.8547E+03  0.8541E+03
      2.337  0.1554E+03  0.1553E+03  0.8626E+03  0.8620E+03
      2.388  0.1640E+03  0.1573E+03  0.8709E+03  0.8700E+03
      2.439  0.2131E+03  0.2160E+03  0.8817E+03  0.8809E+03
      2.489  0.1481E+03  0.1578E+03  0.8892E+03  0.8889E+03
      2.540  0.1319E+03  0.1277E+03  0.8959E+03  0.8954E+03
      2.591  0.1270E+03  0.1326E+03  0.9023E+03  0.9021E+03
      2.641  0.1277E+03  0.1199E+03  0.9088E+03  0.9082E+03
      2.692  0.1541E+03  0.1507E+03  0.9166E+03  0.9159E+03
      2.743  0.1356E+03  0.1410E+03  0.9235E+03  0.9230E+03
      2.794  0.1646E+03  0.1563E+03  0.9318E+03  0.9309E+03
      2.844  0.1561E+03  0.1649E+03  0.9398E+03  0.9393E+03
      2.895  0.1468E+03  0.1402E+03  0.9472E+03  0.9464E+03
      2.946  0.1487E+03  0.1529E+03  0.9548E+03  0.9542E+03
      2.996  0.6786E+02  0.7432E+02  0.9582E+03  0.9579E+03
      3.047  0.1509E+03  0.1432E+03  0.9658E+03  0.9652E+03
      3.098  0.1158E+03  0.1160E+03  0.9717E+03  0.9711E+03
      3.149  0.1111E+03  0.1148E+03  0.9774E+03  0.9769E+03
      3.199  0.1243E+03  0.1200E+03  0.9837E+03  0.9830E+03
      3.250  0.1385E+03  0.1371E+03  0.9907E+03  0.9899E+03
      3.301  0.7307E+02  0.7754E+02  0.9944E+03  0.9939E+03
      3.351  0.1116E+03  0.1069E+03  0.1000E+04  0.9993E+03
      3.402  0.1058E+03  0.1146E+03  0.1005E+04  0.1005E+04
      3.453  0.9304E+02  0.8840E+02  0.1010E+04  0.1010E+04
      3.504  0.6272E+02  0.6609E+02  0.1013E+04  0.1013E+04
      3.554  0.9515E+02  0.8978E+02  0.1018E+04  0.1017E+04
      3.605  0.8593E+02  0.8774E+02  0.1022E+04  0.1022E+04
      3.656  0.9298E+02  0.8347E+02  0.1027E+04  0.1026E+04
      3.706  0.9243E+02  0.1051E+03  0.1032E+04  0.1032E+04
      3.757  0.4188E+02  0.4055E+02  0.1034E+04  0.1034E+04
      3.808  0.5677E+02  0.6200E+02  0.1037E+04  0.1037E+04
      3.859  0.4303E+02  0.3340E+02  0.1039E+04  0.1038E+04
      3.909  0.4032E+02  0.4671E+02  0.1041E+04  0.1041E+04
      3.960  0.2868E+02  0.2530E+02  0.1043E+04  0.1042E+04
      4.011  0.5038E+02  0.5012E+02  0.1045E+04  0.1045E+04
      4.061  0.6125E+02  0.6229E+02  0.1048E+04  0.1048E+04
      4.112  0.4526E+02  0.3942E+02  0.1051E+04  0.1050E+04
      4.163  0.9071E+02  0.7078E+02  0.1055E+04  0.1053E+04
      4.214  0.8934E+02  0.1106E+03  0.1060E+04  0.1059E+04
      4.264  0.9421E+02  0.9320E+02  0.1064E+04  0.1064E+04
      4.315  0.1096E+03  0.1143E+03  0.1070E+04  0.1069E+04
      4.366  0.7481E+02  0.7356E+02  0.1074E+04  0.1073E+04
      4.416  0.9861E+02  0.9878E+02  0.1079E+04  0.1078E+04
      4.467  0.9964E+02  0.9264E+02  0.1084E+04  0.1083E+04
      4.518  0.1261E+03  0.1202E+03  0.1090E+04  0.1089E+04
      4.569  0.1017E+03  0.1129E+03  0.1095E+04  0.1095E+04
      4.619  0.1388E+03  0.1343E+03  0.1102E+04  0.1102E+04
      4.670  0.9377E+02  0.1065E+03  0.1107E+04  0.1107E+04
      4.721  0.6419E+02  0.5793E+02  0.1110E+04  0.1110E+04
      4.771  0.1232E+03  0.1191E+03  0.1117E+04  0.1116E+04
      4.822  0.1375E+03  0.1296E+03  0.1124E+04  0.1123E+04
      4.873  0.1079E+03  0.1167E+03  0.1129E+04  0.1128E+04
      4.924  0.7007E+02  0.6540E+02  0.1133E+04  0.1132E+04
      4.974  0.1657E+03  0.1734E+03  0.1141E+04  0.1141E+04
      5.025  0.1222E+03  0.1233E+03  0.1147E+04  0.1147E+04
      5.076  0.1156E+03  0.1044E+03  0.1153E+04  0.1152E+04
      5.127  0.1117E+03  0.1188E+03  0.1159E+04  0.1158E+04
      5.177  0.1426E+03  0.1429E+03  0.1166E+04  0.1165E+04
      5.228  0.1521E+03  0.1430E+03  0.1174E+04  0.1173E+04
      5.279  0.8694E+02  0.1032E+03  0.1178E+04  0.1178E+04
      5.329  0.1045E+03  0.1030E+03  0.1183E+04  0.1183E+04
      5.380  0.9342E+02  0.8853E+02  0.1188E+04  0.1188E+04
      5.431  0.1008E+03  0.1042E+03  0.1193E+04  0.1193E+04
      5.482  0.1370E+03  0.1247E+03  0.1200E+04  0.1199E+04
      5.532  0.1476E+03  0.1516E+03  0.1208E+04  0.1207E+04
      5.583  0.1104E+03  0.1184E+03  0.1213E+04  0.1213E+04
      5.634  0.1067E+03  0.1070E+03  0.1219E+04  0.1218E+04
      5.684  0.1774E+03  0.1729E+03  0.1228E+04  0.1227E+04
      5.735  0.1440E+03  0.1455E+03  0.1235E+04  0.1234E+04
      5.786  0.1188E+03  0.1189E+03  0.1241E+04  0.1240E+04
      5.837  0.9751E+02  0.1009E+03  0.1246E+04  0.1246E+04
      5.887  0.1458E+03  0.1454E+03  0.1253E+04  0.1253E+04
      5.938  0.1174E+03  0.1165E+03  0.1259E+04  0.1259E+04
      5.989  0.1116E+03  0.1061E+03  0.1265E+04  0.1264E+04
      6.039  0.9629E+02  0.1015E+03  0.1270E+04  0.1269E+04
      6.090  0.3462E+02  0.4294E+02  0.1272E+04  0.1272E+04
      6.141  0.5626E+01  0.8338E+01  0.1272E+04  0.1272E+04
      6.192  0.0000E+00  0.0000E+00  0.1272E+04  0.1272E+04
      6.242  0.0000E+00  0.0000E+00  0.1272E+04  0.1272E+04
      6.293  0.0000E+00  0.0000E+00  0.1272E+04  0.1272E+04
      6.344  0.0000E+00  0.0000E+00  0.1272E+04  0.1272E+04
      6.394  0.0000E+00  0.0000E+00  0.1272E+04  0.1272E+04
      6.445  0.0000E+00  0.0000E+00  0.1272E+04  0.1272E+04
      6.496  0.0000E+00  0.0000E+00  0.1272E+04  0.1272E+04
      6.547  0.0000E+00  0.0000E+00  0.1272E+04  0.1272E+04
      6.597  0.0000E+00  0.0000E+00  0.1272E+04  0.1272E+04
      6.648  0.0000E+00  0.0000E+00  0.1272E+04  0.1272E+04
      6.699  0.0000E+00  0.0000E+00  0.1272E+04  0.1272E+04
      6.749  0.0000E+00  0.0000E+00  0.1272E+04  0.1272E+04
      6.800  0.0000E+00  0.0000E+00  0.1272E+04  0.1272E+04
