 vasp.6.4.3 19Mar24 (build Oct 22 2024 11:23:12) complex                        
  
 executed on             LinuxIFC date 2025.06.08  11:53:08
 running   64 mpi-ranks, on    4 nodes
 distrk:  each k-point on   64 cores,    1 groups
 distr:  one band on NCORE=  16 cores,    4 groups


--------------------------------------------------------------------------------------------------------


 INCAR:
   SYSTEM = Si and Ge interface calculation
   ISTART = 0
   ICHARG = 2
   LWAVE = .FALSE.
   LREAL = AUTO
   ENCUT = 700
   ENAUG = 900
   ADDGRID = .TRUE.
   LMAXMIX = 6
   LASPH = .TRUE.
   LMIXTAU = .TRUE.
   NCORE = 16
   NELM = 100
   NBANDS = 288
   EDIFF = 1d-7
   AMIX = 0.6
   ISMEAR = 0
   SIGMA = 0.01
   NELECT = 480
   ISPIN = 2
   NUPDOWN = 1
   LVTOT = .FALSE.
   LVHAR = .TRUE.

 POTCAR:    PAW_PBE Si 05Jan2001                  
 POTCAR:    PAW_PBE Ge 05Jan2001                  
 -----------------------------------------------------------------------------
|                                                                             |
|           W    W    AA    RRRRR   N    N  II  N    N   GGGG   !!!           |
|           W    W   A  A   R    R  NN   N  II  NN   N  G    G  !!!           |
|           W    W  A    A  R    R  N N  N  II  N N  N  G       !!!           |
|           W WW W  AAAAAA  RRRRR   N  N N  II  N  N N  G  GGG   !            |
|           WW  WW  A    A  R   R   N   NN  II  N   NN  G    G                |
|           W    W  A    A  R    R  N    N  II  N    N   GGGG   !!!           |
|                                                                             |
|     You use a magnetic or noncollinear calculation, but did not specify     |
|     the initial magnetic moment with the MAGMOM tag. Note that a            |
|     default of 8.333e-3 will be used for all atoms. This ferromagnetic      |
|     setup may break the symmetry of the crystal, in particular it may       |
|     rule out finding an antiferromagnetic solution. Thence, we              |
|     recommend setting the initial magnetic moment manually or verifying     |
|     carefully that this magnetic setup is desired.                          |
|                                                                             |
 -----------------------------------------------------------------------------

 POTCAR:    PAW_PBE Si 05Jan2001                  
   VRHFIN =Si: s2p2                                                                                 
   LEXCH  = PE                                                                                      
   EATOM  =   103.0669 eV,    7.5752 Ry                                                             
                                                                                                    
   TITEL  = PAW_PBE Si 05Jan2001                                                                    
   LULTRA =        F    use ultrasoft PP ?                                                          
   IUNSCR =        1    unscreen: 0-lin 1-nonlin 2-no                                               
   RPACOR =    1.500    partial core radius                                                         
   POMASS =   28.085; ZVAL   =    4.000    mass and valenz                                          
   RCORE  =    1.900    outmost cutoff radius                                                       
   RWIGS  =    2.480; RWIGS  =    1.312    wigner-seitz radius (au A)                               
   ENMAX  =  245.345; ENMIN  =  184.009 eV                                                          
   ICORE  =        2    local potential                                                             
   LCOR   =        T    correct aug charges                                                         
   LPAW   =        T    paw PP                                                                      
   EAUG   =  322.069                                                                                
   DEXC   =    0.000                                                                                
   RMAX   =    1.950    core radius for proj-oper                                                   
   RAUG   =    1.300    factor for augmentation sphere                                              
   RDEP   =    1.993    radius for radial grids                                                     
   RDEPT  =    1.837    core radius for aug-charge                                                  
                                                                                                    
   Atomic configuration                                                                             
    6 entries                                                                                       
     n  l   j            E        occ.                                                              
     1  0  0.50     -1785.8828   2.0000                                                             
     2  0  0.50      -139.4969   2.0000                                                             
     2  1  1.50       -95.5546   6.0000                                                             
     3  0  0.50       -10.8127   2.0000                                                             
     3  1  0.50        -4.0811   2.0000                                                             
     3  2  1.50        -4.0817   0.0000                                                             
   Description                                                                                      
     l       E           TYP  RCUT    TYP  RCUT                                                     
     0    -10.8127223     23  1.900                                                                 
     0     -7.6451159     23  1.900                                                                 
     1     -4.0811372     23  1.900                                                                 
     1      2.4879257     23  1.900                                                                 
     2     -4.0817478      7  1.900                                                                 
  local pseudopotential read in
  partial core-charges read in
  partial kinetic energy density read in
  atomic valenz-charges read in
  non local Contribution for L=           0  read in
    real space projection operators read in
  non local Contribution for L=           0  read in
    real space projection operators read in
  non local Contribution for L=           1  read in
    real space projection operators read in
  non local Contribution for L=           1  read in
    real space projection operators read in
    PAW grid and wavefunctions read in
 
   number of l-projection  operators is LMAX  =           4
   number of lm-projection operators is LMMAX =           8
 
 POTCAR:    PAW_PBE Ge 05Jan2001                  
   VRHFIN =Ge: s2p2                                                                                 
   LEXCH  = PE                                                                                      
   EATOM  =   104.9960 eV,    7.7170 Ry                                                             
                                                                                                    
   TITEL  = PAW_PBE Ge 05Jan2001                                                                    
   LULTRA =        F    use ultrasoft PP ?                                                          
   IUNSCR =        1    unscreen: 0-lin 1-nonlin 2-no                                               
   RPACOR =    2.170    partial core radius                                                         
   POMASS =   72.610; ZVAL   =    4.000    mass and valenz                                          
   RCORE  =    2.300    outmost cutoff radius                                                       
   RWIGS  =    2.300; RWIGS  =    1.217    wigner-seitz radius (au A)                               
   ENMAX  =  173.807; ENMIN  =  130.355 eV                                                          
   ICORE  =        3    local potential                                                             
   LCOR   =        T    correct aug charges                                                         
   LPAW   =        T    paw PP                                                                      
   EAUG   =  385.843                                                                                
   DEXC   =    0.000                                                                                
   RMAX   =    2.342    core radius for proj-oper                                                   
   RAUG   =    1.300    factor for augmentation sphere                                              
   RDEP   =    2.318    radius for radial grids                                                     
   RDEPT  =    2.103    core radius for aug-charge                                                  
                                                                                                    
   Atomic configuration                                                                             
   10 entries                                                                                       
     n  l   j            E        occ.                                                              
     1  0  0.50    -10959.8463   2.0000                                                             
     2  0  0.50     -1371.6056   2.0000                                                             
     2  1  1.50     -1198.4791   6.0000                                                             
     3  0  0.50      -168.4733   2.0000                                                             
     3  1  1.50      -115.6019   6.0000                                                             
     3  2  2.50       -29.3106  10.0000                                                             
     4  0  0.50       -11.7309   2.0000                                                             
     4  1  0.50        -3.8952   2.0000                                                             
     4  2  1.50        -4.0817   0.0000                                                             
     4  3  2.50        -4.0817   0.0000                                                             
   Description                                                                                      
     l       E           TYP  RCUT    TYP  RCUT                                                     
     0    -11.7309493     23  2.300                                                                 
     0     -7.4578696     23  2.300                                                                 
     1     -3.8952261     23  2.300                                                                 
     1      6.1178114     23  2.300                                                                 
     2     -4.0817478     23  2.300                                                                 
     3     -1.3605826      7  2.300                                                                 
  local pseudopotential read in
  partial core-charges read in
  partial kinetic energy density read in
  atomic valenz-charges read in
  non local Contribution for L=           0  read in
    real space projection operators read in
  non local Contribution for L=           0  read in
    real space projection operators read in
  non local Contribution for L=           1  read in
    real space projection operators read in
  non local Contribution for L=           1  read in
    real space projection operators read in
  non local Contribution for L=           2  read in
    real space projection operators read in
    PAW grid and wavefunctions read in
 
   number of l-projection  operators is LMAX  =           5
   number of lm-projection operators is LMMAX =          13
 
 Optimization of the real space projectors (new method)

 maximal supplied QI-value         = 19.84
 optimisation between [QCUT,QGAM] = [ 13.49, 26.99] = [ 50.98,203.92] Ry 
 Optimized for a Real-space Cutoff    1.07 Angstroem

   l    n(q)    QCUT    max X(q) W(low)/X(q) W(high)/X(q)  e(spline) 
   0      9    13.493   159.560    0.22E-03    0.15E-03    0.72E-07
   0      9    13.493   115.863    0.21E-03    0.15E-03    0.71E-07
   1      8    13.493    88.339    0.15E-03    0.11E-03    0.13E-06
   1      8    13.493    48.592    0.15E-03    0.10E-03    0.13E-06
 Optimization of the real space projectors (new method)

 maximal supplied QI-value         = 16.25
 optimisation between [QCUT,QGAM] = [ 13.49, 26.98] = [ 50.95,203.80] Ry 
 Optimized for a Real-space Cutoff    1.25 Angstroem

   l    n(q)    QCUT    max X(q) W(low)/X(q) W(high)/X(q)  e(spline) 
   0     10    13.489    65.336    0.91E-04    0.11E-03    0.34E-06
   0     10    13.489    52.220    0.89E-04    0.11E-03    0.34E-06
   1     10    13.489    36.409    0.22E-03    0.27E-03    0.14E-06
   1     10    13.489    21.334    0.21E-03    0.27E-03    0.14E-06
   2      9    13.489     4.673    0.11E-03    0.12E-03    0.19E-06
  PAW_PBE Si 05Jan2001                  :
 energy of atom  1       EATOM= -103.0669
 kinetic energy error for atom=    0.0003 (will be added to EATOM!!)
  PAW_PBE Ge 05Jan2001                  :
 energy of atom  2       EATOM= -104.9960
 kinetic energy error for atom=    0.0001 (will be added to EATOM!!)
 
 
 POSCAR: Si+Ge
  positions in direct lattice
  No initial velocities read in


 exchange-correlation table for PE
   RHO(1)=    0.500       N(1)  =     2000
   RHO(2)=  100.500       N(2)  =     4000
 


--------------------------------------------------------------------------------------------------------


 ion  position               nearest neighbor table
   1  0.114  0.196  0.897-  62 2.38  99 2.38  55 2.42
   2  0.614  0.946  0.897-  75 2.38 105 2.38  49 2.44  19 2.49
   3  0.479  0.652  0.183-  51 2.35  69 2.35  58 2.35  50 2.35
   4  0.229  0.486  0.274-  52 2.35  51 2.35  70 2.35  59 2.35
   5  0.864  0.446  0.560- 112 2.38  94 2.38  60 2.44  12 2.49
   6  0.729  0.152  0.457-  72 2.35  54 2.35  53 2.35  79 2.51
   7  0.114  0.446  0.897-  81 2.38 108 2.38  61 3.07
   8  0.729  0.152  0.091-  38 2.35  56 2.35  63 2.35  37 2.35
   9  0.479  0.986  0.183-  64 2.35  39 2.35  57 2.35  38 2.35
  10  0.229  0.819  0.274-  39 2.35  40 2.35  85 2.35  58 2.35
  11  0.979  0.652  0.366-  41 2.35  59 2.35  66 2.35  40 2.35
  12  0.729  0.486  0.457-  60 2.35  41 2.35  42 2.35   5 2.49
  13  0.614  0.446  0.897-  81 2.38 108 2.38  43 3.07
  14  0.729  0.486  0.091-  44 2.35  78 2.35  69 2.35  43 2.35
  15  0.479  0.319  0.183-  70 2.35  45 2.35  63 2.35  44 2.35
  16  0.229  0.152  0.274-  45 2.35  46 2.35  71 2.35  64 2.35
  17  0.979  0.986  0.366-  72 2.35  47 2.35  85 2.35  46 2.35
  18  0.364  0.446  0.560-  94 2.38 112 2.38  42 2.44 103 2.49
  19  0.479  0.986  0.000-  67 2.35  49 2.35  38 2.35   2 2.49
  20  0.229  0.819  0.091-  68 2.35  50 2.35  39 2.35  67 2.35
  21  0.979  0.652  0.183-  51 2.35  69 2.35  40 2.35  68 2.35
  22  0.729  0.486  0.274-  69 2.35  70 2.35  52 2.35  41 2.35
  23  0.479  0.319  0.366-  42 2.35  71 2.35  53 2.35  70 2.35
  24  0.864  0.946  0.560-  88 2.38 109 2.38  72 3.07
  25  0.114  0.946  0.897-  75 2.38 105 2.38  67 2.44  90 2.49
  26  0.229  0.152  0.091-  55 2.35  45 2.35  56 2.35  38 2.35
  27  0.979  0.986  0.183-  46 2.35  56 2.35  39 2.35  57 2.35
  28  0.729  0.819  0.274-  57 2.35  58 2.35  40 2.35  47 2.35
  29  0.479  0.652  0.366-  48 2.35  59 2.35  41 2.35  58 2.35
  30  0.364  0.696  0.560-  65 2.38 115 2.38  48 2.42
  31  0.479  0.652  0.000-  50 2.35  61 2.35  43 2.35 114 2.51
  32  0.229  0.486  0.091-  78 2.35  51 2.35  44 2.35  61 2.35
  33  0.979  0.319  0.183-  52 2.35  45 2.35  63 2.35  78 2.35
  34  0.729  0.152  0.274-  63 2.35  64 2.35  46 2.35  53 2.35
  35  0.479  0.986  0.366-  54 2.35  85 2.35  47 2.35  64 2.35
  36  0.364  0.946  0.560- 109 2.38  88 2.38  54 3.07
  37  0.729  0.236  0.000- 120 2.35   8 2.35 117 2.35 111 2.42
  38  0.479  0.069  0.091-  19 2.35   8 2.35   9 2.35  26 2.35
  39  0.229  0.902  0.183-  10 2.35   9 2.35  20 2.35  27 2.35
  40  0.979  0.736  0.274-  21 2.35  10 2.35  28 2.35  11 2.35
  41  0.729  0.569  0.366-  11 2.35  29 2.35  12 2.35  22 2.35
  42  0.479  0.402  0.457-  23 2.35  12 2.35 103 2.35  18 2.44
  43  0.729  0.569  0.000-  93 2.35  31 2.35  14 2.35  13 3.07
  44  0.479  0.402  0.091-  14 2.35  32 2.35 117 2.35  15 2.35
  45  0.229  0.236  0.183-  15 2.35  16 2.35  33 2.35  26 2.35
  46  0.979  0.069  0.274-  16 2.35  34 2.35  27 2.35  17 2.35
  47  0.729  0.902  0.366-  17 2.35  35 2.35  28 2.35  82 2.35
  48  0.479  0.736  0.457-  29 2.35  82 2.35  76 2.35  30 2.42
  49  0.729  0.902  0.000-  90 2.35  19 2.35  87 2.35   2 2.44
  50  0.479  0.736  0.091-  87 2.35  31 2.35  20 2.35   3 2.35
  51  0.229  0.569  0.183-   3 2.35  21 2.35   4 2.35  32 2.35
  52  0.979  0.402  0.274-   4 2.35  22 2.35  33 2.35 100 2.35
  53  0.729  0.236  0.366- 100 2.35  23 2.35  34 2.35   6 2.35
  54  0.479  0.069  0.457-  35 2.35   6 2.35  97 2.35  36 3.07
  55  0.229  0.236  0.000- 117 2.35 120 2.35  26 2.35   1 2.42
  56  0.979  0.069  0.091-  90 2.35   8 2.35  26 2.35  27 2.35
  57  0.729  0.902  0.183-  28 2.35  87 2.35   9 2.35  27 2.35
  58  0.479  0.736  0.274-   3 2.35  28 2.35  10 2.35  29 2.35
  59  0.229  0.569  0.366-  11 2.35  29 2.35   4 2.35 103 2.35
  60  0.979  0.402  0.457- 100 2.35  12 2.35 103 2.35   5 2.44
  61  0.229  0.569  0.000-  31 2.35  93 2.35  32 2.35   7 3.07
  62  0.864  0.196  0.830- 111 2.38   1 2.38  86 2.48 113 2.48
  63  0.729  0.236  0.183-  34 2.35  15 2.35  33 2.35   8 2.35
  64  0.479  0.069  0.274-   9 2.35  34 2.35  16 2.35  35 2.35
  65  0.114  0.696  0.628-  73 2.38  30 2.38  77 2.48 107 2.48
  66  0.979  0.736  0.457-  82 2.35  11 2.35  76 2.35  73 2.42
  67  0.229  0.902  0.000-  19 2.35  90 2.35  20 2.35  25 2.44
  68  0.979  0.736  0.091-  87 2.35  20 2.35  93 2.35  21 2.35
  69  0.729  0.569  0.183-   3 2.35  22 2.35  21 2.35  14 2.35
  70  0.479  0.402  0.274-  15 2.35  22 2.35   4 2.35  23 2.35
  71  0.229  0.236  0.366-  23 2.35 100 2.35  16 2.35  97 2.35
  72  0.979  0.069  0.457-   6 2.35  17 2.35  97 2.35  24 3.07
  73  0.864  0.696  0.560-  65 2.38 115 2.38  66 2.42
  74  0.614  0.321  0.695-  86 2.38 116 2.38 118 2.48  94 2.48
  75  0.364  0.946  0.830-   2 2.38  25 2.38  95 2.48 119 2.48
  76  0.229  0.819  0.457-  66 2.35  48 2.35  85 2.35
  77  0.114  0.571  0.695-  89 2.38 110 2.38  65 2.48 112 2.48
  78  0.979  0.402  0.091-  14 2.35  32 2.35 120 2.35  33 2.35
  79  0.864  0.196  0.560-  91 2.38 118 2.38   6 2.51
  80  0.614  0.821  0.695-  92 2.38 119 2.38  88 2.48 115 2.48
  81  0.364  0.446  0.830-   7 2.38  13 2.38  89 2.48 116 2.48
  82  0.729  0.819  0.457-  66 2.35  48 2.35  47 2.35
  83  0.114  0.071  0.695-  95 2.38 113 2.38  91 2.48 109 2.48
  84  0.864  0.696  0.830-  96 2.38 114 2.38 110 2.48  92 2.48
  85  0.229  0.902  0.366-  17 2.35  35 2.35  10 2.35  76 2.35
  86  0.864  0.321  0.762-  74 2.38 104 2.38  62 2.48 108 2.48
  87  0.729  0.819  0.091-  50 2.35  68 2.35  57 2.35  49 2.35
  88  0.614  0.946  0.628-  36 2.38  24 2.38  80 2.48 101 2.48
  89  0.364  0.571  0.762-  77 2.38  98 2.38  81 2.48 102 2.48
  90  0.979  0.986  0.000-  49 2.35  67 2.35  56 2.35  25 2.49
  91  0.114  0.196  0.628-  79 2.38 106 2.38 104 2.48  83 2.48
  92  0.864  0.821  0.762-  80 2.38 107 2.38 105 2.48  84 2.48
  93  0.979  0.652  0.000-  43 2.35  68 2.35  61 2.35  96 2.51
  94  0.614  0.446  0.628-  18 2.38   5 2.38  74 2.48  98 2.48
  95  0.364  0.071  0.762-  83 2.38 101 2.38  99 2.48  75 2.48
  96  0.114  0.696  0.897-  84 2.38 102 2.38  93 2.51
  97  0.229  0.152  0.457-  72 2.35  54 2.35  71 2.35 106 2.51
  98  0.614  0.571  0.695- 110 2.38  89 2.38 115 2.48  94 2.48
  99  0.364  0.196  0.830- 111 2.38   1 2.38 116 2.48  95 2.48
 100  0.979  0.319  0.366-  53 2.35  60 2.35  71 2.35  52 2.35
 101  0.614  0.071  0.695-  95 2.38 113 2.38 118 2.48  88 2.48
 102  0.364  0.696  0.830-  96 2.38 114 2.38  89 2.48 119 2.48
 103  0.229  0.486  0.457-  59 2.35  60 2.35  42 2.35  18 2.49
 104  0.114  0.321  0.695-  86 2.38 116 2.38 112 2.48  91 2.48
 105  0.864  0.946  0.830-   2 2.38  25 2.38  92 2.48 113 2.48
 106  0.364  0.196  0.560-  91 2.38 118 2.38  97 2.51
 107  0.114  0.821  0.695-  92 2.38 119 2.38 109 2.48  65 2.48
 108  0.864  0.446  0.830-   7 2.38  13 2.38 110 2.48  86 2.48
 109  0.114  0.946  0.628-  36 2.38  24 2.38 107 2.48  83 2.48
 110  0.864  0.571  0.762-  98 2.38  77 2.38  84 2.48 108 2.48
 111  0.614  0.196  0.897-  62 2.38  99 2.38  37 2.42
 112  0.114  0.446  0.628-   5 2.38  18 2.38 104 2.48  77 2.48
 113  0.864  0.071  0.762-  83 2.38 101 2.38  62 2.48 105 2.48
 114  0.614  0.696  0.897-  84 2.38 102 2.38  31 2.51
 115  0.614  0.696  0.628-  73 2.38  30 2.38  98 2.48  80 2.48
 116  0.364  0.321  0.762-  74 2.38 104 2.38  99 2.48  81 2.48
 117  0.479  0.319  0.000-  55 2.35  44 2.35  37 2.35
 118  0.614  0.196  0.628-  79 2.38 106 2.38  74 2.48 101 2.48
 119  0.364  0.821  0.762-  80 2.38 107 2.38  75 2.48 102 2.48
 120  0.979  0.319  0.000-  37 2.35  55 2.35  78 2.35
 
  LATTYP: Found a simple orthorhombic cell.
 ALAT       =     7.6805944440
 B/A-ratio  =     2.1213200862
 C/A-ratio  =     2.7342758666
  
  Lattice vectors:
  
 A1 = (   7.6805944440,   0.0000000000,   0.0000000000)
 A2 = (   0.0000000000,  16.2929992680,   0.0000000000)
 A3 = (   0.0000000000,   0.0000000000,  21.0008640290)


Analysis of symmetry for initial positions (statically):
=====================================================================
 Subroutine PRICEL returns:
 Original cell was already a primitive cell.
 

 Routine SETGRP: Setting up the symmetry group for a 
 simple orthorhombic supercell.


 Subroutine GETGRP returns: Found  1 space group operations
 (whereof  1 operations were pure point group operations)
 out of a pool of  8 trial point group operations.


The static configuration has the point symmetry C_1 .


Analysis of symmetry for dynamics (positions and initial velocities):
=====================================================================
 Subroutine PRICEL returns:
 Original cell was already a primitive cell.
 

 Routine SETGRP: Setting up the symmetry group for a 
 simple orthorhombic supercell.


 Subroutine GETGRP returns: Found  1 space group operations
 (whereof  1 operations were pure point group operations)
 out of a pool of  8 trial point group operations.


The dynamic configuration has the point symmetry C_1 .


Analysis of structural, dynamic, and magnetic symmetry:
=====================================================================
 Subroutine PRICEL returns:
 Original cell was already a primitive cell.
 

 Routine SETGRP: Setting up the symmetry group for a 
 simple orthorhombic supercell.


 Subroutine GETGRP returns: Found  1 space group operations
 (whereof  1 operations were pure point group operations)
 out of a pool of  8 trial point group operations.


The overall configuration has the point symmetry C_1 .


 Subroutine INISYM returns: Found  1 space group operations
 (whereof  1 operations are pure point group operations),
 and found     1 'primitive' translations


----------------------------------------------------------------------------------------

                                     Primitive cell                                     

  volume of cell :    2628.0464

  direct lattice vectors                    reciprocal lattice vectors
     7.680594444  0.000000000  0.000000000     0.130198256  0.000000000  0.000000000
     0.000000000 16.292999268  0.000000000     0.000000000  0.061376054  0.000000000
     0.000000000  0.000000000 21.000864029     0.000000000  0.000000000  0.047617088

  length of vectors
     7.680594444 16.292999268 21.000864029     0.130198256  0.061376054  0.047617088

  position of ions in fractional coordinates (direct lattice)
     0.114321470  0.196336031  0.896959722
     0.614321470  0.946336031  0.896959722
     0.478517175  0.652344763  0.182863802
     0.228517234  0.485678136  0.274295658
     0.864321470  0.446336091  0.560199738
     0.728517175  0.152344704  0.457159460
     0.114321470  0.446336091  0.896959722
     0.728517234  0.152344853  0.091431901
     0.478517175  0.985678136  0.182863802
     0.228517234  0.819011509  0.274295658
     0.978517175  0.652344763  0.365727574
     0.728517175  0.485678077  0.457159460
     0.614321470  0.446336091  0.896959722
     0.728517234  0.485678196  0.091431901
     0.478517175  0.319011509  0.182863802
     0.228517234  0.152344868  0.274295658
     0.978517175  0.985678136  0.365727574
     0.364321470  0.446336061  0.560199738
     0.478517294  0.985678196  0.000000000
     0.228517249  0.819011450  0.091431901
     0.978517234  0.652344763  0.182863802
     0.728517294  0.485678136  0.274295628
     0.478517175  0.319011390  0.365727574
     0.864321470  0.946336091  0.560199738
     0.114321470  0.946336031  0.896959722
     0.228517249  0.152344853  0.091431901
     0.978517234  0.985678136  0.182863802
     0.728517294  0.819011509  0.274295628
     0.478517175  0.652344763  0.365727574
     0.364321470  0.696336091  0.560199738
     0.478517294  0.652344942  0.000000000
     0.228517249  0.485678196  0.091431901
     0.978517234  0.319011509  0.182863802
     0.728517294  0.152344868  0.274295628
     0.478517175  0.985678136  0.365727574
     0.364321470  0.946336031  0.560199738
     0.728517354  0.235678196  0.000000000
     0.478517294  0.069011487  0.091431893
     0.228517264  0.902344763  0.182863802
     0.978517294  0.735678136  0.274295658
     0.728517234  0.569011450  0.365727574
     0.478517234  0.402344644  0.457159400
     0.728517354  0.569011629  0.000000000
     0.478517294  0.402344882  0.091431893
     0.228517264  0.235678196  0.182863802
     0.978517294  0.069011539  0.274295658
     0.728517234  0.902344823  0.365727574
     0.478517234  0.735678077  0.457159400
     0.728517354  0.902344942  0.000000000
     0.478517294  0.735678196  0.091431893
     0.228517264  0.569011509  0.182863802
     0.978517294  0.402344853  0.274295658
     0.728517234  0.235678121  0.365727574
     0.478517234  0.069011383  0.457159400
     0.228517294  0.235678196  0.000000001
     0.978517234  0.069011487  0.091431901
     0.728517175  0.902344763  0.182863802
     0.478517294  0.735678136  0.274295628
     0.228517175  0.569011450  0.365727574
     0.978517056  0.402344644  0.457159460
     0.228517294  0.569011629  0.000000001
     0.864321470  0.196336150  0.829607725
     0.728517175  0.235678196  0.182863802
     0.478517294  0.069011539  0.274295628
     0.114321470  0.696336031  0.627551734
     0.978517056  0.735678077  0.457159460
     0.228517294  0.902344942  0.000000001
     0.978517234  0.735678196  0.091431901
     0.728517175  0.569011509  0.182863802
     0.478517294  0.402344853  0.274295628
     0.228517175  0.235678121  0.365727574
     0.978517056  0.069011383  0.457159460
     0.864321470  0.696336031  0.560199738
     0.614321470  0.321336091  0.694903731
     0.364321470  0.946336150  0.829607725
     0.228517115  0.819011390  0.457159460
     0.114321470  0.571336091  0.694903731
     0.978517234  0.402344882  0.091431901
     0.864321470  0.196336150  0.560199738
     0.614321470  0.821336150  0.694903731
     0.364321470  0.446336091  0.829607725
     0.728517175  0.819011390  0.457159460
     0.114321470  0.071336150  0.694903731
     0.864321470  0.696336091  0.829607725
     0.228517175  0.902344823  0.365727574
     0.864321470  0.321336091  0.762255728
     0.728517234  0.819011450  0.091431901
     0.614321470  0.946336031  0.627551734
     0.364321470  0.571336091  0.762255728
     0.978517294  0.985678196  0.000000001
     0.114321470  0.196336150  0.627551734
     0.864321470  0.821336150  0.762255728
     0.978517294  0.652344942  0.000000001
     0.614321470  0.446336061  0.627551734
     0.364321470  0.071336150  0.762255728
     0.114321470  0.696336091  0.896959722
     0.228517115  0.152344704  0.457159460
     0.614321589  0.571336150  0.694903731
     0.364321470  0.196336150  0.829607725
     0.978517175  0.319011390  0.365727574
     0.614321470  0.071336150  0.694903731
     0.364321470  0.696336091  0.829607725
     0.228517115  0.485678077  0.457159460
     0.114321470  0.321336150  0.694903731
     0.864321470  0.946336150  0.829607725
     0.364321470  0.196336150  0.560199738
     0.114321470  0.821336091  0.694903731
     0.864321470  0.446336150  0.829607725
     0.114321589  0.946336091  0.627551734
     0.864321470  0.571336150  0.762255728
     0.614321470  0.196336150  0.896959722
     0.114321470  0.446336091  0.627551734
     0.864321470  0.071336150  0.762255728
     0.614321470  0.696336091  0.896959722
     0.614321470  0.696336031  0.627551734
     0.364321470  0.321336061  0.762255728
     0.478517294  0.319011539  0.000000000
     0.614321470  0.196336150  0.627551734
     0.364321470  0.821336150  0.762255728
     0.978517294  0.319011539  0.000000001

  ion indices of the primitive-cell ions
   primitive index   ion index
                 1           1
                 2           2
                 3           3
                 4           4
                 5           5
                 6           6
                 7           7
                 8           8
                 9           9
                10          10
                11          11
                12          12
                13          13
                14          14
                15          15
                16          16
                17          17
                18          18
                19          19
                20          20
                21          21
                22          22
                23          23
                24          24
                25          25
                26          26
                27          27
                28          28
                29          29
                30          30
                31          31
                32          32
                33          33
                34          34
                35          35
                36          36
                37          37
                38          38
                39          39
                40          40
                41          41
                42          42
                43          43
                44          44
                45          45
                46          46
                47          47
                48          48
                49          49
                50          50
                51          51
                52          52
                53          53
                54          54
                55          55
                56          56
                57          57
                58          58
                59          59
                60          60
                61          61
                62          62
                63          63
                64          64
                65          65
                66          66
                67          67
                68          68
                69          69
                70          70
                71          71
                72          72
                73          73
                74          74
                75          75
                76          76
                77          77
                78          78
                79          79
                80          80
                81          81
                82          82
                83          83
                84          84
                85          85
                86          86
                87          87
                88          88
                89          89
                90          90
                91          91
                92          92
                93          93
                94          94
                95          95
                96          96
                97          97
                98          98
                99          99
               100         100
               101         101
               102         102
               103         103
               104         104
               105         105
               106         106
               107         107
               108         108
               109         109
               110         110
               111         111
               112         112
               113         113
               114         114
               115         115
               116         116
               117         117
               118         118
               119         119
               120         120

----------------------------------------------------------------------------------------

 
 
 KPOINTS: Automatic KPOINTS generated             

Automatic generation of k-mesh.
 Grid dimensions read from file:
 generate k-points for:    4    2    1

 Generating k-lattice:

  Cartesian coordinates                     Fractional coordinates (reciprocal lattice)
     0.032549564  0.000000000  0.000000000     0.250000000  0.000000000  0.000000000
     0.000000000  0.030688027  0.000000000     0.000000000  0.500000000  0.000000000
     0.000000000  0.000000000  0.047617088     0.000000000  0.000000000  1.000000000

  Length of vectors
     0.032549564  0.030688027  0.047617088

  Shift w.r.t. Gamma in fractional coordinates (k-lattice)
     0.000000000  0.000000000  0.000000000

 
 Subroutine IBZKPT returns following result:
 ===========================================
 
 Found      6 irreducible k-points:
 
 Following reciprocal coordinates:
            Coordinates               Weight
  0.000000  0.000000  0.000000      1.000000
  0.250000  0.000000  0.000000      2.000000
  0.500000  0.000000  0.000000      1.000000
  0.000000  0.500000  0.000000      1.000000
  0.250000  0.500000  0.000000      2.000000
  0.500000  0.500000  0.000000      1.000000
 
 Following cartesian coordinates:
            Coordinates               Weight
  0.000000  0.000000  0.000000      1.000000
  0.032550  0.000000  0.000000      2.000000
  0.065099  0.000000  0.000000      1.000000
  0.000000  0.030688  0.000000      1.000000
  0.032550  0.030688  0.000000      2.000000
  0.065099  0.030688  0.000000      1.000000
 


--------------------------------------------------------------------------------------------------------




 Dimension of arrays:
   k-points           NKPTS =      6   k-points in BZ     NKDIM =      6   number of bands    NBANDS=    288
   number of dos      NEDOS =    301   number of ions     NIONS =    120
   non local maximal  LDIM  =      5   non local SUM 2l+1 LMDIM =     13
   total plane-waves  NPLWV = 756000
   max r-space proj   IRMAX =   2381   max aug-charges    IRDMAX= 125263
   dimension x,y,z NGX =    50 NGY =  108 NGZ =  140
   dimension x,y,z NGXF=   100 NGYF=  216 NGZF=  280
   support grid    NGXF=   200 NGYF=  432 NGZF=  560
   ions per type =              72  48
   NGX,Y,Z   is equivalent  to a cutoff of  10.82, 11.02, 11.08 a.u.
   NGXF,Y,Z  is equivalent  to a cutoff of  21.64, 22.04, 22.17 a.u.

 SYSTEM =  Si and Ge interface calculation         
 POSCAR =  Si+Ge                                   

 Startparameter for this run:
   NWRITE =      2    write-flag & timer
   PREC   = normal    normal or accurate (medium, high low for compatibility)
   ISTART =      0    job   : 0-new  1-cont  2-samecut
   ICHARG =      2    charge: 1-file 2-atom 10-const
   ISPIN  =      2    spin polarized calculation?
   LNONCOLLINEAR =      F non collinear calculations
   LSORBIT =      F    spin-orbit coupling
   INIWAV =      1    electr: 0-lowe 1-rand  2-diag
   LASPH  =      T    aspherical Exc in radial PAW
 Electronic Relaxation 1
   ENCUT  =  700.0 eV  51.45 Ry    7.17 a.u.  16.57 35.15 45.30*2*pi/ulx,y,z
   ENINI  =  700.0     initial cutoff
   ENAUG  =  900.0 eV  augmentation charge cutoff
   NELM   =    100;   NELMIN=  2; NELMDL= -5     # of ELM steps 
   EDIFF  = 0.1E-06   stopping-criterion for ELM
   LREAL  =      T    real-space projection
   NLSPLINE    = F    spline interpolate recip. space projectors
   LCOMPAT=      F    compatible to vasp.4.4
   GGA_COMPAT  = T    GGA compatible to vasp.4.4-vasp.4.6
   LMAXPAW     = -100 max onsite density
   LMAXMIX     =    6 max onsite mixed and CHGCAR
   VOSKOWN=      0    Vosko Wilk Nusair interpolation
   ROPT   =   -0.00050  -0.00050
 Ionic relaxation
   EDIFFG = 0.1E-05   stopping-criterion for IOM
   NSW    =      0    number of steps for IOM
   NBLOCK =      1;   KBLOCK =      1    inner block; outer block 
   IBRION =     -1    ionic relax: 0-MD 1-quasi-New 2-CG
   NFREE  =      0    steps in history (QN), initial steepest desc. (CG)
   ISIF   =      2    stress and relaxation
   IWAVPR =     10    prediction:  0-non 1-charg 2-wave 3-comb
   ISYM   =      2    0-nonsym 1-usesym 2-fastsym
   LCORR  =      T    Harris-Foulkes like correction to forces

   POTIM  = 0.5000    time-step for ionic-motion
   TEIN   =    0.0    initial temperature
   TEBEG  =    0.0;   TEEND  =   0.0 temperature during run
   SMASS  =  -3.00    Nose mass-parameter (am)
   estimated Nose-frequenzy (Omega)   =  0.10E-29 period in steps = 0.13E+47 mass=  -0.135E-26a.u.
   SCALEE = 1.0000    scale energy and forces
   NPACO  =    256;   APACO  = 10.0  distance and # of slots for P.C.
   PSTRESS=    0.0 pullay stress

  Mass of Ions in am
   POMASS =  28.09 72.61
  Ionic Valenz
   ZVAL   =   4.00  4.00
  Atomic Wigner-Seitz radii
   RWIGS  =  -1.00 -1.00
  virtual crystal weights 
   VCA    =   1.00  1.00
   NELECT =     480.0000    total number of electrons
   NUPDOWN=       1.0000    fix difference up-down

 DOS related values:
   EMIN   =  10.00;   EMAX   =-10.00  energy-range for DOS
   EFERMI =   0.00;   METHOD = LEGACY      
   ISMEAR =     0;   SIGMA  =   0.01  broadening in eV -4-tet -1-fermi 0-gaus

 Electronic relaxation 2 (details)
   IALGO  =     38    algorithm
   LDIAG  =      T    sub-space diagonalisation (order eigenvalues)
   LSUBROT=      F    optimize rotation matrix (better conditioning)
   TURBO    =      0    0=normal 1=particle mesh
   IRESTART =      0    0=no restart 2=restart with 2 vectors
   NREBOOT  =      0    no. of reboots
   NMIN     =      0    reboot dimension
   EREF     =   0.00    reference energy to select bands
   IMIX   =      4    mixing-type and parameters
     AMIX     =   0.60;   BMIX     =  1.00
     AMIX_MAG =   2.40;   BMIX_MAG =  1.00
     AMIN     =   0.10
     WC   =   100.;   INIMIX=   1;  MIXPRE=   1;  MAXMIX= -45

 Intra band minimization:
   WEIMIN = 0.0000     energy-eigenvalue tresh-hold
   EBREAK =  0.87E-10  absolut break condition
   DEPER  =   0.30     relativ break condition  

   TIME   =   0.40     timestep for ELM

  volume/ion in A,a.u.               =      21.90       147.79
  Fermi-wavevector in a.u.,A,eV,Ry     =   0.928847  1.755267 11.738521  0.862757
  Thomas-Fermi vector in A             =   2.055067
 
 Write flags
   LWAVE        =      F    write WAVECAR
   LDOWNSAMPLE  =      F    k-point downsampling of WAVECAR
   LCHARG       =      T    write CHGCAR
   LVTOT        =      F    write LOCPOT, total local potential
   LVHAR        =      T    write LOCPOT, Hartree potential only
   WRT_POTENTIAL=  hartree ionic  ! write potential to hdf5 file
   LELF         =      F    write electronic localiz. function (ELF)
   LORBIT       =      0    0 simple, 1 ext, 2 COOP (PROOUT), +10 PAW based schemes


 Dipole corrections
   LMONO      =      F    monopole corrections only (constant potential shift)
   LDIPOL     =      F    correct potential (dipole corrections)
   IDIPOL     =      0    1-x, 2-y, 3-z, 4-all directions 
   EPSILON    =  1.0000000 bulk dielectric constant
   LVACPOTAV  =      F  vacuum potentials using an averaging scheme for the charge density
   VACPOTFLAT =  0.1000000 required flatness to determine vacuum potential
 Exchange correlation treatment:
   GGA     = PE    functional components
   XC_C    = 1    coefficients multiplying the functional components
   LIBXC   =     F    Libxc                    
   VOSKOWN =     0    Vosko Wilk Nusair interpolation
   LHFCALC =     F    Hartree Fock is set to
   LHFONE  =     F    Hartree Fock one center treatment
   AEXX    =    0.0000 exact exchange contribution

 Parameters of functionals:
   PE:
     No parameter
 
 Van der Waals corrections
   IVDW    =     0    specifies the selected vdW correction

 Linear response parameters
   LEPSILON=     F    determine dielectric tensor
   LRPA    =     F    only Hartree local field effects (RPA)
   LNABLA  =     F    use nabla operator in PAW spheres
   LVEL    =     F    velocity operator in full k-point grid
   CSHIFT  =0.1000    complex shift for real part using Kramers Kronig
   OMEGAMAX=  -1.0    maximum frequency
   DEG_THRESHOLD= 0.2000000E-02 threshold for treating states as degnerate
   RTIME   =   -0.100 relaxation time in fs
  (WPLASMAI=    0.000 imaginary part of plasma frequency in eV, 0.658/RTIME)
   DFIELD  = 0.0000000 0.0000000 0.0000000 field for delta impulse in time
 
  Optional k-point grid parameters
   LKPOINTS_OPT  =     F    use optional k-point grid
   KPOINTS_OPT_MODE=     1    mode for optional k-point grid
 
 Orbital magnetization related:
   ORBITALMAG=     F  switch on orbital magnetization
   LCHIMAG   =     F  perturbation theory with respect to B field
   DQ        =  0.001000  dq finite difference perturbation B field
   LLRAUG    =     F  two centre corrections for induced B field
   LBONE     =     F  B-component reconstruction in AE one-centre
   LVGVCALC  =     T  calculate vGv susceptibility
   LVGVAPPL  =     F  apply vGv susceptibility instead of pGv for G=0

 Random number generation:
   RANDOM_GENERATOR = DEFAULT
   PCG_SEED         = not used


--------------------------------------------------------------------------------------------------------


 Static calculation
 charge density and potential will be updated during run
 spin polarized calculation
 Variant of blocked Davidson
 Davidson routine will perform the subspace rotation
 perform sub-space diagonalisation
    after iterative eigenvector-optimisation
 modified Broyden-mixing scheme, WC =      100.0
 initial mixing is a Kerker type mixing with AMIX =  0.6000 and BMIX =      1.0000
 Hartree-type preconditioning will be used
 using additional bands           48
 real space projection scheme for non local part
 use partial core corrections
 calculate Harris-corrections to forces 
   (improved forces if not selfconsistent)
 use gradient corrections 
 use of overlap-Matrix (Vanderbilt PP)
 Gauss-broadening in eV      SIGMA  =   0.01


--------------------------------------------------------------------------------------------------------


  energy-cutoff  :      700.00
  volume of cell :     2628.05
      direct lattice vectors                 reciprocal lattice vectors
     7.680594444  0.000000000  0.000000000     0.130198256  0.000000000  0.000000000
     0.000000000 16.292999268  0.000000000     0.000000000  0.061376054  0.000000000
     0.000000000  0.000000000 21.000864029     0.000000000  0.000000000  0.047617088

  length of vectors
     7.680594444 16.292999268 21.000864029     0.130198256  0.061376054  0.047617088


 
 k-points in units of 2pi/SCALE and weight: Automatic KPOINTS generated             
   0.00000000  0.00000000  0.00000000       0.125
   0.03254956  0.00000000  0.00000000       0.250
   0.06509913  0.00000000  0.00000000       0.125
   0.00000000  0.03068803  0.00000000       0.125
   0.03254956  0.03068803  0.00000000       0.250
   0.06509913  0.03068803  0.00000000       0.125
 
 k-points in reciprocal lattice and weights: Automatic KPOINTS generated             
   0.00000000  0.00000000  0.00000000       0.125
   0.25000000  0.00000000  0.00000000       0.250
   0.50000000  0.00000000  0.00000000       0.125
   0.00000000  0.50000000  0.00000000       0.125
   0.25000000  0.50000000  0.00000000       0.250
   0.50000000  0.50000000  0.00000000       0.125
 
 position of ions in fractional coordinates (direct lattice) 
   0.11432147  0.19633603  0.89695972
   0.61432147  0.94633603  0.89695972
   0.47851718  0.65234476  0.18286380
   0.22851723  0.48567814  0.27429566
   0.86432147  0.44633609  0.56019974
   0.72851718  0.15234470  0.45715946
   0.11432147  0.44633609  0.89695972
   0.72851723  0.15234485  0.09143190
   0.47851718  0.98567814  0.18286380
   0.22851723  0.81901151  0.27429566
   0.97851718  0.65234476  0.36572757
   0.72851718  0.48567808  0.45715946
   0.61432147  0.44633609  0.89695972
   0.72851723  0.48567820  0.09143190
   0.47851718  0.31901151  0.18286380
   0.22851723  0.15234487  0.27429566
   0.97851718  0.98567814  0.36572757
   0.36432147  0.44633606  0.56019974
   0.47851729  0.98567820  0.00000000
   0.22851725  0.81901145  0.09143190
   0.97851723  0.65234476  0.18286380
   0.72851729  0.48567814  0.27429563
   0.47851718  0.31901139  0.36572757
   0.86432147  0.94633609  0.56019974
   0.11432147  0.94633603  0.89695972
   0.22851725  0.15234485  0.09143190
   0.97851723  0.98567814  0.18286380
   0.72851729  0.81901151  0.27429563
   0.47851718  0.65234476  0.36572757
   0.36432147  0.69633609  0.56019974
   0.47851729  0.65234494  0.00000000
   0.22851725  0.48567820  0.09143190
   0.97851723  0.31901151  0.18286380
   0.72851729  0.15234487  0.27429563
   0.47851718  0.98567814  0.36572757
   0.36432147  0.94633603  0.56019974
   0.72851735  0.23567820  0.00000000
   0.47851729  0.06901149  0.09143189
   0.22851726  0.90234476  0.18286380
   0.97851729  0.73567814  0.27429566
   0.72851723  0.56901145  0.36572757
   0.47851723  0.40234464  0.45715940
   0.72851735  0.56901163  0.00000000
   0.47851729  0.40234488  0.09143189
   0.22851726  0.23567820  0.18286380
   0.97851729  0.06901154  0.27429566
   0.72851723  0.90234482  0.36572757
   0.47851723  0.73567808  0.45715940
   0.72851735  0.90234494  0.00000000
   0.47851729  0.73567820  0.09143189
   0.22851726  0.56901151  0.18286380
   0.97851729  0.40234485  0.27429566
   0.72851723  0.23567812  0.36572757
   0.47851723  0.06901138  0.45715940
   0.22851729  0.23567820  0.00000000
   0.97851723  0.06901149  0.09143190
   0.72851718  0.90234476  0.18286380
   0.47851729  0.73567814  0.27429563
   0.22851718  0.56901145  0.36572757
   0.97851706  0.40234464  0.45715946
   0.22851729  0.56901163  0.00000000
   0.86432147  0.19633615  0.82960773
   0.72851718  0.23567820  0.18286380
   0.47851729  0.06901154  0.27429563
   0.11432147  0.69633603  0.62755173
   0.97851706  0.73567808  0.45715946
   0.22851729  0.90234494  0.00000000
   0.97851723  0.73567820  0.09143190
   0.72851718  0.56901151  0.18286380
   0.47851729  0.40234485  0.27429563
   0.22851718  0.23567812  0.36572757
   0.97851706  0.06901138  0.45715946
   0.86432147  0.69633603  0.56019974
   0.61432147  0.32133609  0.69490373
   0.36432147  0.94633615  0.82960773
   0.22851712  0.81901139  0.45715946
   0.11432147  0.57133609  0.69490373
   0.97851723  0.40234488  0.09143190
   0.86432147  0.19633615  0.56019974
   0.61432147  0.82133615  0.69490373
   0.36432147  0.44633609  0.82960773
   0.72851718  0.81901139  0.45715946
   0.11432147  0.07133615  0.69490373
   0.86432147  0.69633609  0.82960773
   0.22851718  0.90234482  0.36572757
   0.86432147  0.32133609  0.76225573
   0.72851723  0.81901145  0.09143190
   0.61432147  0.94633603  0.62755173
   0.36432147  0.57133609  0.76225573
   0.97851729  0.98567820  0.00000000
   0.11432147  0.19633615  0.62755173
   0.86432147  0.82133615  0.76225573
   0.97851729  0.65234494  0.00000000
   0.61432147  0.44633606  0.62755173
   0.36432147  0.07133615  0.76225573
   0.11432147  0.69633609  0.89695972
   0.22851712  0.15234470  0.45715946
   0.61432159  0.57133615  0.69490373
   0.36432147  0.19633615  0.82960773
   0.97851718  0.31901139  0.36572757
   0.61432147  0.07133615  0.69490373
   0.36432147  0.69633609  0.82960773
   0.22851712  0.48567808  0.45715946
   0.11432147  0.32133615  0.69490373
   0.86432147  0.94633615  0.82960773
   0.36432147  0.19633615  0.56019974
   0.11432147  0.82133609  0.69490373
   0.86432147  0.44633615  0.82960773
   0.11432159  0.94633609  0.62755173
   0.86432147  0.57133615  0.76225573
   0.61432147  0.19633615  0.89695972
   0.11432147  0.44633609  0.62755173
   0.86432147  0.07133615  0.76225573
   0.61432147  0.69633609  0.89695972
   0.61432147  0.69633603  0.62755173
   0.36432147  0.32133606  0.76225573
   0.47851729  0.31901154  0.00000000
   0.61432147  0.19633615  0.62755173
   0.36432147  0.82133615  0.76225573
   0.97851729  0.31901154  0.00000000
 
 position of ions in cartesian coordinates  (Angst):
   0.87805685  3.19890281 18.83692916
   4.71835407 15.41865226 18.83692916
   3.67529636 10.62865275  3.84029784
   1.75514820  7.91315351  5.76044582
   6.63850268  7.27215360 11.76467853
   5.59544497  2.48215215  9.60074366
   0.87805685  7.27215360 18.83692916
   5.59544542  2.48215458  1.92014892
   3.67529636 16.05965315  3.84029784
   1.75514820 13.34415392  5.76044582
   7.51559358 10.62865275  7.68059505
   5.59544497  7.91315255  9.60074366
   4.71835407  7.27215360 18.83692916
   5.59544542  7.91315449  1.92014892
   3.67529636  5.19765428  3.84029784
   1.75514820  2.48215482  5.76044582
   7.51559358 16.05965315  7.68059505
   2.79820546  7.27215312 11.76467853
   3.67529727 16.05965413  0.00000000
   1.75514831 13.34415296  1.92014892
   7.51559403 10.62865275  3.84029784
   5.59544588  7.91315351  5.76044519
   3.67529636  5.19765234  7.68059505
   6.63850268 15.41865324 11.76467853
   0.87805685 15.41865226 18.83692916
   1.75514831  2.48215458  1.92014892
   7.51559403 16.05965315  3.84029784
   5.59544588 13.34415392  5.76044519
   3.67529636 10.62865275  7.68059505
   2.79820546 11.34540342 11.76467853
   3.67529727 10.62865566  0.00000000
   1.75514831  7.91315449  1.92014892
   7.51559403  5.19765428  3.84029784
   5.59544588  2.48215482  5.76044519
   3.67529636 16.05965315  7.68059505
   2.79820546 15.41865226 11.76467853
   5.59544634  3.83990467  0.00000000
   3.67529727  1.12440411  1.92014875
   1.75514843 14.70190256  3.84029784
   7.51559449 11.98640333  5.76044582
   5.59544542  9.27090314  7.68059505
   3.67529681  6.55540099  9.60074240
   5.59544634  9.27090605  0.00000000
   3.67529727  6.55540487  1.92014875
   1.75514843  3.83990467  3.84029784
   7.51559449  1.12440495  5.76044582
   5.59544542 14.70190354  7.68059505
   3.67529681 11.98640237  9.60074240
   5.59544634 14.70190548  0.00000000
   3.67529727 11.98640431  1.92014875
   1.75514843  9.27090410  3.84029784
   7.51559449  6.55540440  5.76044582
   5.59544542  3.83990345  7.68059505
   3.67529681  1.12440241  9.60074240
   1.75514866  3.83990467  0.00000002
   7.51559403  1.12440411  1.92014892
   5.59544497 14.70190256  3.84029784
   3.67529727 11.98640333  5.76044519
   1.75514774  9.27090314  7.68059505
   7.51559266  6.55540099  9.60074366
   1.75514866  9.27090605  0.00000002
   6.63850268  3.19890475 17.42247903
   5.59544497  3.83990467  3.84029784
   3.67529727  1.12440495  5.76044519
   0.87805685 11.34540244 13.17912864
   7.51559266 11.98640237  9.60074366
   1.75514866 14.70190548  0.00000002
   7.51559403 11.98640431  1.92014892
   5.59544497  9.27090410  3.84029784
   3.67529727  6.55540440  5.76044519
   1.75514774  3.83990345  7.68059505
   7.51559266  1.12440241  9.60074366
   6.63850268 11.34540244 11.76467853
   4.71835407  5.23552870 14.59357877
   2.79820546 15.41865420 17.42247903
   1.75514728 13.34415198  9.60074366
   0.87805685  9.30877851 14.59357877
   7.51559403  6.55540487  1.92014892
   6.63850268  3.19890475 11.76467853
   4.71835407 13.38202929 14.59357877
   2.79820546  7.27215360 17.42247903
   5.59544497 13.34415198  9.60074366
   0.87805685  1.16227984 14.59357877
   6.63850268 11.34540342 17.42247903
   1.75514774 14.70190354  7.68059505
   6.63850268  5.23552870 16.00802890
   5.59544542 13.34415296  1.92014892
   4.71835407 15.41865226 13.17912864
   2.79820546  9.30877851 16.00802890
   7.51559449 16.05965413  0.00000002
   0.87805685  3.19890475 13.17912864
   6.63850268 13.38202929 16.00802890
   7.51559449 10.62865566  0.00000002
   4.71835407  7.27215312 13.17912864
   2.79820546  1.16227984 16.00802890
   0.87805685 11.34540342 18.83692916
   1.75514728  2.48215215  9.60074366
   4.71835498  9.30877947 14.59357877
   2.79820546  3.19890475 17.42247903
   7.51559358  5.19765234  7.68059505
   4.71835407  1.16227984 14.59357877
   2.79820546 11.34540342 17.42247903
   1.75514728  7.91315255  9.60074366
   0.87805685  5.23552966 14.59357877
   6.63850268 15.41865420 17.42247903
   2.79820546  3.19890475 11.76467853
   0.87805685 13.38202833 14.59357877
   6.63850268  7.27215457 17.42247903
   0.87805776 15.41865324 13.17912864
   6.63850268  9.30877947 16.00802890
   4.71835407  3.19890475 18.83692916
   0.87805685  7.27215360 13.17912864
   6.63850268  1.16227984 16.00802890
   4.71835407 11.34540342 18.83692916
   4.71835407 11.34540244 13.17912864
   2.79820546  5.23552821 16.00802890
   3.67529727  5.19765477  0.00000000
   4.71835407  3.19890475 13.17912864
   2.79820546 13.38202929 16.00802890
   7.51559449  5.19765477  0.00000002
 


--------------------------------------------------------------------------------------------------------


 k-point     1 :   0.0000 0.0000 0.0000  plane waves:  110549
 k-point     2 :   0.2500 0.0000 0.0000  plane waves:  110533
 k-point     3 :   0.5000 0.0000 0.0000  plane waves:  110530
 k-point     4 :   0.0000 0.5000 0.0000  plane waves:  110618
 k-point     5 :   0.2500 0.5000 0.0000  plane waves:  110556
 k-point     6 :   0.5000 0.5000 0.0000  plane waves:  110468

 maximum and minimum number of plane-waves per node :      6948     6873

 maximum number of plane-waves:    110618
 maximum index in each direction: 
   IXMAX=   16   IYMAX=   35   IZMAX=   45
   IXMIN=  -17   IYMIN=  -35   IZMIN=  -45


 real space projection operators:
  total allocation   :      17576.58 KBytes
  max/ min on nodes  :       1461.05       1019.80


 parallel 3D FFT for wavefunctions:
    minimum data exchange during FFTs selected (reduces bandwidth)
 parallel 3D FFT for charge:
    minimum data exchange during FFTs selected (reduces bandwidth)


 total amount of memory used by VASP MPI-rank0   166883. kBytes
=======================================================================

   base      :      30000. kBytes
   nonlr-proj:       6602. kBytes
   fftplans  :      18524. kBytes
   grid      :      14584. kBytes
   one-center:        129. kBytes
   wavefun   :      97044. kBytes
 
     INWAV:  cpu time      0.0000: real time      0.0003
 Broyden mixing: mesh for mixing (old mesh)
   NGX = 33   NGY = 71   NGZ = 91
  (NGX  =100   NGY  =216   NGZ  =280)
  gives a total of 213213 points

 initial charge density was supplied:
 charge density of overlapping atoms calculated
 number of electron     480.0000000 magnetization       1.0000000
 keeping initial charge density in first step


--------------------------------------------------------------------------------------------------------


 Maximum index for non-local projection operator          418
 Maximum index for augmentation-charges         5902 (set IRDMAX)


--------------------------------------------------------------------------------------------------------


 First call to EWALD:  gamma=   0.128
 Maximum number of real-space cells 5x 2x 2
 Maximum number of reciprocal cells 2x 3x 4

    FEWALD:  cpu time      0.0034: real time      0.0034


--------------------------------------- Ionic step        1  -------------------------------------------




--------------------------------------- Iteration      1(   1)  ---------------------------------------


    POTLOK:  cpu time      0.2175: real time      0.2197
    SETDIJ:  cpu time      1.0800: real time      1.0858
     EDDAV:  cpu time     18.5350: real time     18.7077
       DOS:  cpu time      0.0019: real time      0.0019
    --------------------------------------------
      LOOP:  cpu time     19.8344: real time     20.0151

 eigenvalue-minimisations  :  6912
 total energy-change (2. order) : 0.1964010E+04  (-0.2142158E+05)
 number of electron     480.0000000 magnetization       1.0000000
 augmentation part      480.0000000 magnetization       1.0000000

 Free energy of the ion-electron system (eV)
  ---------------------------------------------------
  alpha Z        PSCENC =       529.58409355
  Ewald energy   TEWEN  =    -12736.09711261
  -Hartree energ DENC   =     -1248.56825855
  -exchange      EXHF   =         0.00000000
  -V(xc)+E(xc)   XCENC  =     -1036.02140958
  PAW double counting   =     10575.88222728    -8613.76247617
  entropy T*S    EENTRO =        -0.00157169
  eigenvalues    EBANDS =      2032.39395962
  atomic energy  EATOM  =     12460.60057749
  Solvation  Ediel_sol  =         0.00000000
  ---------------------------------------------------
  free energy    TOTEN  =      1964.01002935 eV

  energy without entropy =     1964.01160104  energy(sigma->0) =     1964.01081519


--------------------------------------------------------------------------------------------------------




--------------------------------------- Iteration      1(   2)  ---------------------------------------


     EDDAV:  cpu time     20.8019: real time     20.9955
       DOS:  cpu time      0.0014: real time      0.0014
    --------------------------------------------
      LOOP:  cpu time     20.8033: real time     20.9969

 eigenvalue-minimisations  :  8064
 total energy-change (2. order) :-0.2323463E+04  (-0.2240046E+04)
 number of electron     480.0000000 magnetization       1.0000000
 augmentation part      480.0000000 magnetization       1.0000000

 Free energy of the ion-electron system (eV)
  ---------------------------------------------------
  alpha Z        PSCENC =       529.58409355
  Ewald energy   TEWEN  =    -12736.09711261
  -Hartree energ DENC   =     -1248.56825855
  -exchange      EXHF   =         0.00000000
  -V(xc)+E(xc)   XCENC  =     -1036.02140958
  PAW double counting   =     10575.88222728    -8613.76247617
  entropy T*S    EENTRO =        -0.00228082
  eigenvalues    EBANDS =      -291.06832440
  atomic energy  EATOM  =     12460.60057749
  Solvation  Ediel_sol  =         0.00000000
  ---------------------------------------------------
  free energy    TOTEN  =      -359.45296381 eV

  energy without entropy =     -359.45068299  energy(sigma->0) =     -359.45182340


--------------------------------------------------------------------------------------------------------




--------------------------------------- Iteration      1(   3)  ---------------------------------------


     EDDAV:  cpu time     21.7289: real time     21.9319
       DOS:  cpu time      0.0015: real time      0.0015
    --------------------------------------------
      LOOP:  cpu time     21.7304: real time     21.9334

 eigenvalue-minimisations  :  8528
 total energy-change (2. order) :-0.2174522E+03  (-0.2109759E+03)
 number of electron     480.0000000 magnetization       1.0000000
 augmentation part      480.0000000 magnetization       1.0000000

 Free energy of the ion-electron system (eV)
  ---------------------------------------------------
  alpha Z        PSCENC =       529.58409355
  Ewald energy   TEWEN  =    -12736.09711261
  -Hartree energ DENC   =     -1248.56825855
  -exchange      EXHF   =         0.00000000
  -V(xc)+E(xc)   XCENC  =     -1036.02140958
  PAW double counting   =     10575.88222728    -8613.76247617
  entropy T*S    EENTRO =        -0.00192057
  eigenvalues    EBANDS =      -508.52091005
  atomic energy  EATOM  =     12460.60057749
  Solvation  Ediel_sol  =         0.00000000
  ---------------------------------------------------
  free energy    TOTEN  =      -576.90518921 eV

  energy without entropy =     -576.90326864  energy(sigma->0) =     -576.90422892


--------------------------------------------------------------------------------------------------------




--------------------------------------- Iteration      1(   4)  ---------------------------------------


     EDDAV:  cpu time     21.0275: real time     21.2223
       DOS:  cpu time      0.0015: real time      0.0015
    --------------------------------------------
      LOOP:  cpu time     21.0290: real time     21.2238

 eigenvalue-minimisations  :  8168
 total energy-change (2. order) :-0.7907944E+01  (-0.7778640E+01)
 number of electron     480.0000000 magnetization       1.0000000
 augmentation part      480.0000000 magnetization       1.0000000

 Free energy of the ion-electron system (eV)
  ---------------------------------------------------
  alpha Z        PSCENC =       529.58409355
  Ewald energy   TEWEN  =    -12736.09711261
  -Hartree energ DENC   =     -1248.56825855
  -exchange      EXHF   =         0.00000000
  -V(xc)+E(xc)   XCENC  =     -1036.02140958
  PAW double counting   =     10575.88222728    -8613.76247617
  entropy T*S    EENTRO =        -0.00169886
  eigenvalues    EBANDS =      -516.42907603
  atomic energy  EATOM  =     12460.60057749
  Solvation  Ediel_sol  =         0.00000000
  ---------------------------------------------------
  free energy    TOTEN  =      -584.81313347 eV

  energy without entropy =     -584.81143461  energy(sigma->0) =     -584.81228404


--------------------------------------------------------------------------------------------------------




--------------------------------------- Iteration      1(   5)  ---------------------------------------


     EDDAV:  cpu time     23.0285: real time     23.2429
       DOS:  cpu time      0.0014: real time      0.0014
    CHARGE:  cpu time      1.0596: real time      1.0743
    MIXING:  cpu time      0.0049: real time      0.0049
    --------------------------------------------
      LOOP:  cpu time     24.0944: real time     24.3236

 eigenvalue-minimisations  :  9176
 total energy-change (2. order) :-0.3000696E+00  (-0.2982828E+00)
 number of electron     479.9999997 magnetization       1.0000000
 augmentation part      -48.5484263 magnetization      -0.0721259

 Broyden mixing:
  rms(total) = 0.31603E+01    rms(broyden)= 0.31603E+01
  rms(prec ) = 0.33099E+01
  weight for this iteration     100.00

 Free energy of the ion-electron system (eV)
  ---------------------------------------------------
  alpha Z        PSCENC =       529.58409355
  Ewald energy   TEWEN  =    -12736.09711261
  -Hartree energ DENC   =     -1248.56825855
  -exchange      EXHF   =         0.00000000
  -V(xc)+E(xc)   XCENC  =     -1036.02140958
  PAW double counting   =     10575.88222728    -8613.76247617
  entropy T*S    EENTRO =        -0.00168325
  eigenvalues    EBANDS =      -516.72916127
  atomic energy  EATOM  =     12460.60057749
  Solvation  Ediel_sol  =         0.00000000
  ---------------------------------------------------
  free energy    TOTEN  =      -585.11320310 eV

  energy without entropy =     -585.11151985  energy(sigma->0) =     -585.11236148


--------------------------------------------------------------------------------------------------------




--------------------------------------- Iteration      1(   6)  ---------------------------------------


    POTLOK:  cpu time      0.1974: real time      0.1999
    SETDIJ:  cpu time      1.0681: real time      1.0737
     EDDAV:  cpu time     21.3669: real time     21.5646
       DOS:  cpu time      0.0015: real time      0.0015
    CHARGE:  cpu time      1.0714: real time      1.0797
    MIXING:  cpu time      0.0044: real time      0.0045
    --------------------------------------------
      LOOP:  cpu time     23.7098: real time     23.9240

 eigenvalue-minimisations  :  8368
 total energy-change (2. order) : 0.8971146E+01  (-0.1453134E+01)
 number of electron     479.9999997 magnetization       1.0000000
 augmentation part      -48.1876500 magnetization      -0.0581508

 Broyden mixing:
  rms(total) = 0.14406E+01    rms(broyden)= 0.14406E+01
  rms(prec ) = 0.15384E+01
  weight for this iteration     100.00

 eigenvalues of (default mixing * dielectric matrix)
  average eigenvalue GAMMA=   1.6999
  1.6999

 Free energy of the ion-electron system (eV)
  ---------------------------------------------------
  alpha Z        PSCENC =       529.58409355
  Ewald energy   TEWEN  =    -12736.09711261
  -Hartree energ DENC   =     -1383.18755209
  -exchange      EXHF   =         0.00000000
  -V(xc)+E(xc)   XCENC  =     -1017.02140944
  PAW double counting   =     22316.32167836   -20363.00097206
  entropy T*S    EENTRO =        -0.00220126
  eigenvalues    EBANDS =      -383.33915875
  atomic energy  EATOM  =     12460.60057749
  Solvation  Ediel_sol  =         0.00000000
  ---------------------------------------------------
  free energy    TOTEN  =      -576.14205681 eV

  energy without entropy =     -576.13985555  energy(sigma->0) =     -576.14095618


--------------------------------------------------------------------------------------------------------




--------------------------------------- Iteration      1(   7)  ---------------------------------------


    POTLOK:  cpu time      0.1971: real time      0.1988
    SETDIJ:  cpu time      1.0669: real time      1.0724
     EDDAV:  cpu time     21.5530: real time     21.7504
       DOS:  cpu time      0.0014: real time      0.0014
    CHARGE:  cpu time      1.0683: real time      1.0765
    MIXING:  cpu time      0.0045: real time      0.0045
    --------------------------------------------
      LOOP:  cpu time     23.8913: real time     24.1041

 eigenvalue-minimisations  :  8432
 total energy-change (2. order) :-0.1720368E+00  (-0.1510012E+01)
 number of electron     479.9999997 magnetization       1.0000000
 augmentation part      -48.0309519 magnetization      -0.0556569

 Broyden mixing:
  rms(total) = 0.65925E+00    rms(broyden)= 0.65925E+00
  rms(prec ) = 0.91563E+00
  weight for this iteration     100.00

 eigenvalues of (default mixing * dielectric matrix)
  average eigenvalue GAMMA=   1.1920
  1.8576  0.5264

 Free energy of the ion-electron system (eV)
  ---------------------------------------------------
  alpha Z        PSCENC =       529.58409355
  Ewald energy   TEWEN  =    -12736.09711261
  -Hartree energ DENC   =     -1438.40307131
  -exchange      EXHF   =         0.00000000
  -V(xc)+E(xc)   XCENC  =     -1004.41084903
  PAW double counting   =     33770.34360685   -31822.54229762
  entropy T*S    EENTRO =        -0.00211610
  eigenvalues    EBANDS =      -335.38692485
  atomic energy  EATOM  =     12460.60057749
  Solvation  Ediel_sol  =         0.00000000
  ---------------------------------------------------
  free energy    TOTEN  =      -576.31409363 eV

  energy without entropy =     -576.31197753  energy(sigma->0) =     -576.31303558


--------------------------------------------------------------------------------------------------------




--------------------------------------- Iteration      1(   8)  ---------------------------------------


    POTLOK:  cpu time      0.1967: real time      0.1998
    SETDIJ:  cpu time      1.0687: real time      1.0743
     EDDAV:  cpu time     21.5550: real time     21.7514
       DOS:  cpu time      0.0014: real time      0.0014
    CHARGE:  cpu time      1.0662: real time      1.0742
    MIXING:  cpu time      0.0052: real time      0.0052
    --------------------------------------------
      LOOP:  cpu time     23.8932: real time     24.1063

 eigenvalue-minimisations  :  8432
 total energy-change (2. order) : 0.1107095E+01  (-0.4512396E+00)
 number of electron     479.9999997 magnetization       1.0000000
 augmentation part      -47.7911482 magnetization      -0.0618684

 Broyden mixing:
  rms(total) = 0.15899E+00    rms(broyden)= 0.15899E+00
  rms(prec ) = 0.17539E+00
  weight for this iteration     100.00

 eigenvalues of (default mixing * dielectric matrix)
  average eigenvalue GAMMA=   1.2283
  1.8417  1.2617  0.5816

 Free energy of the ion-electron system (eV)
  ---------------------------------------------------
  alpha Z        PSCENC =       529.58409355
  Ewald energy   TEWEN  =    -12736.09711261
  -Hartree energ DENC   =     -1464.47874238
  -exchange      EXHF   =         0.00000000
  -V(xc)+E(xc)   XCENC  =     -1001.33883553
  PAW double counting   =     38474.43877801   -36527.99804291
  entropy T*S    EENTRO =        -0.00261150
  eigenvalues    EBANDS =      -309.91510300
  atomic energy  EATOM  =     12460.60057749
  Solvation  Ediel_sol  =         0.00000000
  ---------------------------------------------------
  free energy    TOTEN  =      -575.20699887 eV

  energy without entropy =     -575.20438737  energy(sigma->0) =     -575.20569312


--------------------------------------------------------------------------------------------------------




--------------------------------------- Iteration      1(   9)  ---------------------------------------


    POTLOK:  cpu time      0.1972: real time      0.2004
    SETDIJ:  cpu time      1.0686: real time      1.0745
     EDDAV:  cpu time     20.7350: real time     20.9260
       DOS:  cpu time      0.0016: real time      0.0016
    CHARGE:  cpu time      1.0678: real time      1.0760
    MIXING:  cpu time      0.0047: real time      0.0048
    --------------------------------------------
      LOOP:  cpu time     23.0749: real time     23.2832

 eigenvalue-minimisations  :  8040
 total energy-change (2. order) :-0.7297406E-01  (-0.1481853E+00)
 number of electron     479.9999997 magnetization       1.0000000
 augmentation part      -47.8366736 magnetization      -0.0660934

 Broyden mixing:
  rms(total) = 0.12741E+00    rms(broyden)= 0.12741E+00
  rms(prec ) = 0.14361E+00
  weight for this iteration     100.00

 eigenvalues of (default mixing * dielectric matrix)
  average eigenvalue GAMMA=   1.1428
  1.7162  1.7162  0.6327  0.5060

 Free energy of the ion-electron system (eV)
  ---------------------------------------------------
  alpha Z        PSCENC =       529.58409355
  Ewald energy   TEWEN  =    -12736.09711261
  -Hartree energ DENC   =     -1455.52449876
  -exchange      EXHF   =         0.00000000
  -V(xc)+E(xc)   XCENC  =     -1002.10460026
  PAW double counting   =     39166.26144818   -37219.51407469
  entropy T*S    EENTRO =        -0.00234799
  eigenvalues    EBANDS =      -318.48345785
  atomic energy  EATOM  =     12460.60057749
  Solvation  Ediel_sol  =         0.00000000
  ---------------------------------------------------
  free energy    TOTEN  =      -575.27997293 eV

  energy without entropy =     -575.27762494  energy(sigma->0) =     -575.27879894


--------------------------------------------------------------------------------------------------------




--------------------------------------- Iteration      1(  10)  ---------------------------------------


    POTLOK:  cpu time      0.1972: real time      0.2003
    SETDIJ:  cpu time      1.0690: real time      1.0748
     EDDAV:  cpu time     21.0544: real time     21.2480
       DOS:  cpu time      0.0014: real time      0.0014
    CHARGE:  cpu time      1.0643: real time      1.0725
    MIXING:  cpu time      0.0049: real time      0.0050
    --------------------------------------------
      LOOP:  cpu time     23.3912: real time     23.6020

 eigenvalue-minimisations  :  8192
 total energy-change (2. order) : 0.1171523E-01  (-0.1894272E-01)
 number of electron     479.9999997 magnetization       1.0000000
 augmentation part      -47.8760509 magnetization      -0.0617910

 Broyden mixing:
  rms(total) = 0.82189E-01    rms(broyden)= 0.82189E-01
  rms(prec ) = 0.95555E-01
  weight for this iteration     100.00

 eigenvalues of (default mixing * dielectric matrix)
  average eigenvalue GAMMA=   1.0739
  1.7450  1.7450  0.7318  0.5738  0.5738

 Free energy of the ion-electron system (eV)
  ---------------------------------------------------
  alpha Z        PSCENC =       529.58409355
  Ewald energy   TEWEN  =    -12736.09711261
  -Hartree energ DENC   =     -1450.14312704
  -exchange      EXHF   =         0.00000000
  -V(xc)+E(xc)   XCENC  =     -1002.59550400
  PAW double counting   =     39323.49289039   -37376.53388374
  entropy T*S    EENTRO =        -0.00216379
  eigenvalues    EBANDS =      -323.57402795
  atomic energy  EATOM  =     12460.60057749
  Solvation  Ediel_sol  =         0.00000000
  ---------------------------------------------------
  free energy    TOTEN  =      -575.26825770 eV

  energy without entropy =     -575.26609391  energy(sigma->0) =     -575.26717580


--------------------------------------------------------------------------------------------------------




--------------------------------------- Iteration      1(  11)  ---------------------------------------


    POTLOK:  cpu time      0.1979: real time      0.2003
    SETDIJ:  cpu time      1.0688: real time      1.0748
     EDDAV:  cpu time     21.4144: real time     21.6132
       DOS:  cpu time      0.0015: real time      0.0015
    CHARGE:  cpu time      1.0657: real time      1.0741
    MIXING:  cpu time      0.0057: real time      0.0057
    --------------------------------------------
      LOOP:  cpu time     23.7540: real time     23.9698

 eigenvalue-minimisations  :  8376
 total energy-change (2. order) :-0.1786242E-02  (-0.8568644E-02)
 number of electron     479.9999997 magnetization       1.0000000
 augmentation part      -47.8768249 magnetization      -0.0612663

 Broyden mixing:
  rms(total) = 0.57763E-01    rms(broyden)= 0.57763E-01
  rms(prec ) = 0.83588E-01
  weight for this iteration     100.00

 eigenvalues of (default mixing * dielectric matrix)
  average eigenvalue GAMMA=   1.0166
  1.6108  1.6108  1.0678  0.7138  0.7138  0.3824

 Free energy of the ion-electron system (eV)
  ---------------------------------------------------
  alpha Z        PSCENC =       529.58409355
  Ewald energy   TEWEN  =    -12736.09711261
  -Hartree energ DENC   =     -1449.02982056
  -exchange      EXHF   =         0.00000000
  -V(xc)+E(xc)   XCENC  =     -1002.71494733
  PAW double counting   =     39380.77384543   -37433.76540468
  entropy T*S    EENTRO =        -0.00212519
  eigenvalues    EBANDS =      -324.61915004
  atomic energy  EATOM  =     12460.60057749
  Solvation  Ediel_sol  =         0.00000000
  ---------------------------------------------------
  free energy    TOTEN  =      -575.27004394 eV

  energy without entropy =     -575.26791875  energy(sigma->0) =     -575.26898134


--------------------------------------------------------------------------------------------------------




--------------------------------------- Iteration      1(  12)  ---------------------------------------


    POTLOK:  cpu time      0.1971: real time      0.1999
    SETDIJ:  cpu time      1.0695: real time      1.0753
     EDDAV:  cpu time     21.5680: real time     21.7644
       DOS:  cpu time      0.0015: real time      0.0015
    CHARGE:  cpu time      1.0645: real time      1.0739
    MIXING:  cpu time      0.0053: real time      0.0054
    --------------------------------------------
      LOOP:  cpu time     23.9059: real time     24.1203

 eigenvalue-minimisations  :  8432
 total energy-change (2. order) : 0.6002403E-02  (-0.3934136E-02)
 number of electron     479.9999997 magnetization       1.0000000
 augmentation part      -47.8746373 magnetization      -0.0604160

 Broyden mixing:
  rms(total) = 0.32299E-01    rms(broyden)= 0.32299E-01
  rms(prec ) = 0.36809E-01
  weight for this iteration     100.00

 eigenvalues of (default mixing * dielectric matrix)
  average eigenvalue GAMMA=   1.0249
  1.6263  1.5844  1.5844  0.8620  0.6432  0.5625  0.3115

 Free energy of the ion-electron system (eV)
  ---------------------------------------------------
  alpha Z        PSCENC =       529.58409355
  Ewald energy   TEWEN  =    -12736.09711261
  -Hartree energ DENC   =     -1449.77688948
  -exchange      EXHF   =         0.00000000
  -V(xc)+E(xc)   XCENC  =     -1002.67614437
  PAW double counting   =     39364.29299062   -37417.30331628
  entropy T*S    EENTRO =        -0.00240747
  eigenvalues    EBANDS =      -323.88583298
  atomic energy  EATOM  =     12460.60057749
  Solvation  Ediel_sol  =         0.00000000
  ---------------------------------------------------
  free energy    TOTEN  =      -575.26404154 eV

  energy without entropy =     -575.26163406  energy(sigma->0) =     -575.26283780


--------------------------------------------------------------------------------------------------------




--------------------------------------- Iteration      1(  13)  ---------------------------------------


    POTLOK:  cpu time      0.1980: real time      0.1996
    SETDIJ:  cpu time      1.0703: real time      1.0758
     EDDAV:  cpu time     20.7581: real time     20.9454
       DOS:  cpu time      0.0015: real time      0.0015
    CHARGE:  cpu time      1.0657: real time      1.0738
    MIXING:  cpu time      0.0055: real time      0.0056
    --------------------------------------------
      LOOP:  cpu time     23.0991: real time     23.3017

 eigenvalue-minimisations  :  8024
 total energy-change (2. order) :-0.1944899E-04  (-0.1048535E-02)
 number of electron     479.9999997 magnetization       1.0000000
 augmentation part      -47.8734328 magnetization      -0.0600863

 Broyden mixing:
  rms(total) = 0.18496E-01    rms(broyden)= 0.18496E-01
  rms(prec ) = 0.20256E-01
  weight for this iteration     100.00

 eigenvalues of (default mixing * dielectric matrix)
  average eigenvalue GAMMA=   1.0628
  1.9738  1.9738  1.6293  0.7574  0.7574  0.6258  0.4845  0.3006

 Free energy of the ion-electron system (eV)
  ---------------------------------------------------
  alpha Z        PSCENC =       529.58409355
  Ewald energy   TEWEN  =    -12736.09711261
  -Hartree energ DENC   =     -1449.53433209
  -exchange      EXHF   =         0.00000000
  -V(xc)+E(xc)   XCENC  =     -1002.72110518
  PAW double counting   =     39316.76797528   -37369.75905358
  entropy T*S    EENTRO =        -0.00251521
  eigenvalues    EBANDS =      -324.10258864
  atomic energy  EATOM  =     12460.60057749
  Solvation  Ediel_sol  =         0.00000000
  ---------------------------------------------------
  free energy    TOTEN  =      -575.26406099 eV

  energy without entropy =     -575.26154577  energy(sigma->0) =     -575.26280338


--------------------------------------------------------------------------------------------------------




--------------------------------------- Iteration      1(  14)  ---------------------------------------


    POTLOK:  cpu time      0.1960: real time      0.1990
    SETDIJ:  cpu time      1.0673: real time      1.0729
     EDDAV:  cpu time     20.2756: real time     20.4574
       DOS:  cpu time      0.0014: real time      0.0015
    CHARGE:  cpu time      1.0663: real time      1.0748
    MIXING:  cpu time      0.0058: real time      0.0058
    --------------------------------------------
      LOOP:  cpu time     22.6124: real time     22.8113

 eigenvalue-minimisations  :  7816
 total energy-change (2. order) :-0.1129465E-03  (-0.2694214E-03)
 number of electron     479.9999997 magnetization       1.0000000
 augmentation part      -47.8759705 magnetization      -0.0592546

 Broyden mixing:
  rms(total) = 0.10600E-01    rms(broyden)= 0.10600E-01
  rms(prec ) = 0.11621E-01
  weight for this iteration     100.00

[...]
   -.672E-02 0.337E+00 0.117E+02   0.868E-02 -.127E+00 -.117E+02   -.261E-02 -.789E-01 -.567E-01   -.536E-05 -.649E-06 -.127E-04
   -.328E-01 0.204E+00 -.117E+02   0.814E-02 -.143E+00 0.117E+02   0.262E-01 0.271E-01 -.365E-01   0.926E-05 -.369E-04 -.134E-03
   -.168E+01 0.289E+01 -.122E+02   0.250E+00 -.280E+01 0.108E+02   0.172E+01 0.169E-01 0.106E+01   -.897E-05 0.127E-04 0.115E-03
   -.676E+01 0.116E+02 -.472E+02   0.585E+01 -.104E+02 0.452E+02   0.381E+00 -.165E+01 0.194E+01   -.123E-04 0.278E-04 -.241E-03
   -.574E+01 0.253E+02 0.474E+02   0.563E+01 -.237E+02 -.460E+02   0.421E+00 -.219E+01 -.156E+01   0.904E-05 0.664E-04 0.219E-03
   0.470E+00 -.118E+01 0.378E+02   -.219E+00 0.171E+01 -.371E+02   0.194E+00 -.331E+00 -.299E+00   0.190E-04 -.692E-05 0.202E-03
   -.635E-01 0.217E+00 0.117E+02   0.815E-02 -.143E+00 -.117E+02   0.335E-01 0.247E-01 0.204E-01   -.142E-04 -.271E-04 0.173E-04
   -.172E-01 0.165E+00 -.119E+02   0.864E-02 -.162E+00 0.117E+02   0.785E-02 0.954E-01 0.243E+00   -.467E-05 -.525E-05 -.163E-03
   0.467E+00 -.118E+01 -.378E+02   -.219E+00 0.171E+01 0.371E+02   0.201E+00 -.326E+00 0.307E+00   0.359E-04 -.979E-05 -.338E-03
   -.423E+01 0.177E+02 -.592E+02   0.287E+01 -.164E+02 0.564E+02   0.132E+00 -.219E+01 0.359E+01   -.386E-04 -.113E-03 -.298E-03
   0.539E+01 0.140E+02 -.182E+02   -.432E+01 -.146E+02 0.183E+02   -.132E+00 0.208E+00 -.431E+00   0.955E-05 0.398E-04 0.279E-04
   -.259E+00 0.410E+00 0.434E+01   0.112E-01 -.325E+00 -.388E+01   -.825E-01 -.320E-01 -.105E+01   0.103E-04 0.211E-04 0.158E-03
   0.286E-01 -.102E+00 0.143E+02   -.131E-01 0.960E-01 -.136E+02   0.687E-02 -.137E-01 -.699E+00   -.669E-05 -.329E-04 -.146E-04
   0.350E+01 -.179E+02 -.572E+02   -.285E+01 0.172E+02 0.570E+02   -.614E-01 0.121E+01 0.177E+01   0.177E-04 -.258E-05 -.215E-03
   0.222E+00 0.121E-01 0.419E+01   -.102E-01 0.300E+00 -.392E+01   0.465E-01 0.757E-01 -.118E+01   -.107E-06 0.484E-04 0.122E-03
   -.371E-01 -.655E+00 0.375E+02   -.217E+00 0.107E+01 -.372E+02   0.924E-01 0.103E+00 0.792E-01   0.209E-04 -.230E-04 0.145E-03
   -.470E+01 -.136E+02 -.160E+02   0.408E+01 0.143E+02 0.157E+02   -.456E-02 -.528E+00 -.832E+00   -.814E-05 -.285E-04 0.764E-04
   0.297E+00 -.254E+00 0.315E+01   -.117E-01 0.325E+00 -.299E+01   -.430E-01 -.122E-01 -.741E+00   0.109E-04 -.234E-04 0.972E-04
   -.659E-01 0.149E+00 0.907E+01   0.965E-02 -.101E+00 -.791E+01   0.267E-01 -.292E-01 -.932E+00   -.597E-05 0.352E-04 0.282E-04
   0.344E+01 -.175E+02 -.577E+02   -.285E+01 0.172E+02 0.570E+02   -.579E-01 0.121E+01 0.170E+01   0.140E-05 0.105E-04 -.242E-03
   -.253E+00 0.193E+00 0.305E+01   0.107E-01 -.300E+00 -.295E+01   0.137E-01 0.518E-01 -.641E+00   -.871E-05 -.447E-04 0.128E-03
   0.133E+01 -.291E+01 0.111E+02   -.249E+00 0.280E+01 -.107E+02   -.855E+00 -.154E-01 -.784E+00   -.407E-04 -.270E-05 -.114E-04
   -.417E-01 -.639E+00 -.375E+02   -.217E+00 0.107E+01 0.372E+02   0.926E-01 0.817E-01 -.765E-01   0.453E-05 -.197E-04 -.237E-03
   0.282E+00 -.626E+00 -.290E+01   -.117E-01 0.325E+00 0.299E+01   -.327E-01 -.537E-01 0.758E+00   0.692E-05 0.196E-04 0.667E-04
   0.181E-01 0.994E+00 0.376E+02   0.179E+00 -.137E+01 -.376E+02   -.114E+00 0.319E-01 -.113E+00   -.244E-04 -.658E-06 0.185E-03
   -.384E-01 0.140E+00 -.908E+01   0.966E-02 -.101E+00 0.791E+01   0.855E-02 -.307E-02 0.942E+00   -.234E-05 -.603E-04 0.690E-04
   -.245E+00 0.213E+00 -.305E+01   0.107E-01 -.300E+00 0.295E+01   0.217E-01 0.274E-01 0.627E+00   -.481E-06 0.259E-04 0.409E-04
   0.588E+01 -.233E+02 0.475E+02   -.573E+01 0.228E+02 -.469E+02   -.669E-01 0.121E+01 -.848E+00   0.215E-04 -.230E-04 0.227E-03
   0.131E+01 -.292E+01 -.111E+02   -.249E+00 0.280E+01 0.107E+02   -.852E+00 -.973E-03 0.781E+00   0.449E-05 -.193E-04 0.170E-03
   -.254E+00 0.412E+00 -.435E+01   0.112E-01 -.325E+00 0.388E+01   -.658E-01 -.460E-01 0.106E+01   -.173E-04 -.446E-04 0.343E-04
   0.601E+01 -.113E+02 0.487E+02   -.551E+01 0.105E+02 -.476E+02   -.237E-01 0.911E+00 -.131E+01   0.186E-04 -.575E-04 0.203E-03
   0.259E-01 -.102E+00 -.143E+02   -.131E-01 0.960E-01 0.136E+02   0.129E-02 -.955E-02 0.700E+00   -.196E-05 0.653E-04 0.143E-03
   0.223E+00 -.318E+00 -.443E+01   -.103E-01 0.300E+00 0.392E+01   0.741E-01 0.347E-02 0.113E+01   -.129E-04 -.561E-05 0.355E-04
   -.450E+01 -.134E+02 0.157E+02   0.408E+01 0.143E+02 -.157E+02   0.940E-02 -.537E+00 0.761E+00   -.131E-04 -.225E-04 -.512E-04
   0.600E+01 -.113E+02 -.487E+02   -.551E+01 0.105E+02 0.476E+02   -.333E-01 0.940E+00 0.131E+01   0.188E-04 -.816E-04 -.302E-03
   0.223E+00 -.320E+00 0.444E+01   -.103E-01 0.300E+00 -.392E+01   0.549E-01 0.130E-01 -.115E+01   0.930E-05 0.472E-04 0.126E-03
   -.173E+01 0.285E+01 0.116E+02   0.250E+00 -.280E+01 -.108E+02   0.744E+00 -.560E-02 -.561E+00   -.376E-04 -.172E-05 0.399E-04
   0.132E-01 0.993E+00 -.376E+02   0.179E+00 -.137E+01 0.376E+02   -.962E-01 0.402E-01 0.120E+00   -.135E-04 0.128E-04 -.322E-03
   -.265E+00 0.195E+00 0.307E+01   0.107E-01 -.300E+00 -.295E+01   0.184E-01 0.327E-01 -.652E+00   -.481E-06 -.486E-04 0.120E-03
   0.129E+01 -.294E+01 0.111E+02   -.249E+00 0.280E+01 -.107E+02   -.818E+00 -.139E-01 -.760E+00   0.513E-04 -.132E-05 0.566E-06
   0.588E+01 -.232E+02 -.475E+02   -.573E+01 0.228E+02 0.469E+02   -.739E-01 0.123E+01 0.841E+00   0.162E-04 0.743E-04 -.251E-03
   -.277E+00 0.409E+00 0.434E+01   0.112E-01 -.325E+00 -.388E+01   -.641E-01 -.459E-01 -.105E+01   -.211E-04 0.181E-04 0.160E-03
   0.611E-01 -.117E+00 0.143E+02   -.131E-01 0.960E-01 -.136E+02   -.324E-01 -.126E-01 -.688E+00   0.887E-05 -.425E-04 -.296E-04
   -.449E+01 -.135E+02 -.157E+02   0.408E+01 0.143E+02 0.157E+02   0.123E-01 -.527E+00 -.771E+00   0.313E-05 -.337E-04 0.828E-04
   0.280E+00 -.611E+00 0.290E+01   -.117E-01 0.325E+00 -.299E+01   -.475E-01 -.563E-01 -.758E+00   -.311E-05 -.206E-04 0.825E-04
   -.207E-01 0.151E+00 0.907E+01   0.965E-02 -.101E+00 -.791E+01   0.278E-02 -.223E-01 -.943E+00   0.580E-06 0.351E-04 0.201E-04
   -.418E-01 0.155E+00 -.907E+01   0.962E-02 -.101E+00 0.791E+01   0.137E-01 -.239E-01 0.936E+00   -.267E-05 -.593E-04 0.735E-04
   -.274E+00 0.177E+00 -.307E+01   0.107E-01 -.300E+00 0.295E+01   0.412E-01 0.414E-01 0.653E+00   -.937E-05 0.256E-04 0.565E-04
   0.538E+01 0.140E+02 0.182E+02   -.432E+01 -.146E+02 -.183E+02   -.140E+00 0.205E+00 0.417E+00   0.154E-04 0.384E-04 0.255E-04
   0.694E-01 -.116E+00 -.143E+02   -.130E-01 0.960E-01 0.136E+02   -.349E-01 0.218E-02 0.690E+00   0.598E-05 0.643E-04 0.154E-03
   0.223E+00 0.618E-02 -.421E+01   -.103E-01 0.300E+00 0.392E+01   0.568E-01 0.753E-01 0.119E+01   0.213E-04 -.643E-06 0.377E-04
   -.470E+01 -.136E+02 0.160E+02   0.408E+01 0.143E+02 -.157E+02   -.118E-01 -.526E+00 0.823E+00   -.242E-05 -.246E-05 -.365E-04
   -.173E+01 0.285E+01 -.116E+02   0.250E+00 -.280E+01 0.108E+02   0.739E+00 0.581E-02 0.563E+00   -.121E-04 0.108E-04 0.110E-03
   0.299E+00 -.238E+00 -.315E+01   -.117E-01 0.325E+00 0.299E+01   -.293E-01 -.272E-01 0.728E+00   0.207E-05 0.186E-04 0.637E-04
   0.345E+01 -.176E+02 0.578E+02   -.285E+01 0.172E+02 -.570E+02   -.385E-01 0.122E+01 -.174E+01   -.138E-04 -.223E-04 0.281E-03
   0.131E+01 -.293E+01 -.111E+02   -.249E+00 0.280E+01 0.107E+02   -.827E+00 -.471E-02 0.765E+00   0.702E-05 -.121E-04 0.159E-03
   -.278E+00 0.408E+00 -.433E+01   0.112E-01 -.325E+00 0.388E+01   -.528E-01 -.471E-01 0.104E+01   0.802E-05 -.368E-04 0.229E-04
   0.349E+01 -.179E+02 0.572E+02   -.285E+01 0.172E+02 -.570E+02   -.512E-01 0.115E+01 -.172E+01   0.383E-04 -.348E-04 0.249E-03
 -----------------------------------------------------------------------------------------------
   -.275E+01 0.613E+01 0.180E-01   0.178E-13 -.249E-13 -.284E-12   0.259E+01 -.613E+01 -.973E-01   0.136E-04 0.215E-04 -.346E-03
 
 
 POSITION                                       TOTAL-FORCE (eV/Angst)
 -----------------------------------------------------------------------------------
      0.87806      3.19890     18.83693         0.232574     -0.195593      0.127560
      4.71835     15.41865     18.83693        -0.133849     -0.006480      0.920973
      3.67530     10.62865      3.84030         0.024226     -0.126675     -0.043902
      1.75515      7.91315      5.76045        -0.001736     -0.085326      0.056629
      6.63850      7.27215     11.76468        -0.140549     -0.013524     -0.927965
      5.59544      2.48215      9.60074         0.683084     -0.151861      0.169995
      0.87806      7.27215     18.83693         0.069585      0.096459      1.744258
      5.59545      2.48215      1.92015         0.065560     -0.193619     -0.123331
      3.67530     16.05965      3.84030         0.021529     -0.090618     -0.045260
      1.75515     13.34415      5.76045         0.025592     -0.427598     -0.457803
      7.51559     10.62865      7.68060         0.063997     -0.203944      0.123548
      5.59544      7.91315      9.60074         0.364921      0.171733      0.146287
      4.71835      7.27215     18.83693         0.058541      0.139926      1.751729
      5.59545      7.91315      1.92015        -0.279064      0.201256     -0.101727
      3.67530      5.19765      3.84030         0.032365     -0.087456     -0.020819
      1.75515      2.48215      5.76045         0.028931     -0.126216      0.056153
      7.51559     16.05965      7.68060        -0.285663      0.195998      0.102350
      2.79821      7.27215     11.76468         0.074355     -0.100139     -0.579804
      3.67530     16.05965      0.00000         0.363186      0.184184     -0.143915
      1.75515     13.34415      1.92015         0.088257     -0.339483     -0.252943
      7.51559     10.62865      3.84030         0.032715     -0.134981     -0.050302
      5.59545      7.91315      5.76045         0.020297     -0.090040      0.051643
      3.67530      5.19765      7.68060         0.085824     -0.348124      0.255756
      6.63850     15.41865     11.76468         0.059687      0.130707     -1.749834
      0.87806     15.41865     18.83693         0.078668     -0.106424      0.587249
      1.75515      2.48215      1.92015         0.053363     -0.189664     -0.114951
      7.51559     16.05965      3.84030         0.005235     -0.093349     -0.049516
      5.59545     13.34415      5.76045         0.025015     -0.072118      0.022291
      3.67530     10.62865      7.68060         0.046454     -0.196872      0.122998
      2.79821     11.34540     11.76468         0.225521     -0.201618     -0.127295
      3.67530     10.62866      0.00000         0.680058     -0.149115     -0.164074
      1.75515      7.91315      1.92015         0.665555      0.205980     -0.105901
      7.51559      5.19765      3.84030         0.025905     -0.420231      0.471230
      5.59545      2.48215      5.76045         0.020420     -0.127136      0.052496
      3.67530     16.05965      7.68060         0.663779      0.196826      0.113064
      2.79821     15.41865     11.76468         0.057066      0.107940     -1.742049
      5.59545      3.83990      0.00000        -0.525456     -0.465152      0.069983
      3.67530      1.12440      1.92015        -0.059718      0.277313     -0.250068
      1.75515     14.70190      3.84030        -0.004659      0.090137     -0.055957
      7.51559     11.98640      5.76045         0.004517      0.134533      0.039504
      5.59545      9.27090      7.68060        -0.060882      0.288343      0.249351
      3.67530      6.55540      9.60074         0.296118     -0.562188      0.194417
      5.59545      9.27091      0.00000        -1.218430     -0.946797     -0.830898
      3.67530      6.55540      1.92015        -0.166685      0.505452      0.386279
      1.75515      3.83990      3.84030        -0.022627      0.130951     -0.044963
      7.51559      1.12440      5.76045        -0.013715      0.099933      0.035844
      5.59545     14.70190      7.68060        -0.162923      0.504208     -0.390841
      3.67530     11.98640      9.60074        -0.715376     -0.605717      0.410528
      5.59545     14.70191      0.00000        -0.798766     -0.148646     -0.647148
      3.67530     11.98640      1.92015        -0.535881     -0.172160     -0.130049
      1.75515      9.27090      3.84030        -0.001288      0.095841     -0.037059
      7.51559      6.55540      5.76045         0.006529      0.432732     -0.433769
      5.59545      3.83990      7.68060        -0.534861     -0.165440      0.127190
      3.67530      1.12440      9.60074        -0.143247     -0.990254      0.819721
      1.75515      3.83990      0.00000        -0.717168     -0.608967     -0.417132
      7.51559      1.12440      1.92015        -0.052630      0.623825      0.234469
      5.59544     14.70190      3.84030        -0.000340      0.446683      0.423538
      3.67530     11.98640      5.76045        -0.014848      0.122066      0.037881
      1.75515      9.27090      7.68060        -0.047081      0.627757     -0.242106
      7.51559      6.55540      9.60074        -0.799806     -0.148153      0.652754
      1.75515      9.27091      0.00000        -0.145117     -0.997117     -0.818683
      6.63850      3.19890     17.42248         0.289770      0.114698      0.312577
      5.59544      3.83990      3.84030         0.000636      0.131563     -0.042755
      3.67530      1.12440      5.76045         0.002859      0.088433      0.031414
      0.87806     11.34540     13.17913         0.293684      0.113513     -0.308056
      7.51559     11.98640      9.60074        -0.531917     -0.458750     -0.055088
      1.75515     14.70191      0.00000         0.302498     -0.567828     -0.196103
      7.51559     11.98640      1.92015         0.445940      0.190912      0.355333
      5.59544      9.27090      3.84030        -0.020538      0.098727     -0.039672
      3.67530      6.55540      5.76045         0.000626      0.097688      0.055008
      1.75515      3.83990      7.68060         0.449886      0.199980     -0.362718
      7.51559      1.12440      9.60074        -1.223128     -0.949633      0.833524
      6.63850     11.34540     11.76468         0.933445     -0.393667     -0.317865
      4.71835      5.23553     14.59358        -0.328656      0.053021     -0.594222
      2.79821     15.41865     17.42248         0.023665     -0.019620     -0.000806
      1.75515     13.34415      9.60074         0.588376      0.516939      1.568283
      0.87806      9.30878     14.59358         0.259802      0.387562     -0.904566
      7.51559      6.55540      1.92015        -0.160112      0.512908      0.452761
      6.63850      3.19890     11.76468        -0.627704      0.245019     -1.183953
      4.71835     13.38203     14.59358         0.243664      0.058721     -0.583579
      2.79821      7.27215     17.42248        -0.028268      0.018750      0.225621
      5.59544     13.34415      9.60074         0.534743      0.914345      1.014256
      0.87806      1.16228     14.59358        -0.227771     -0.055292     -0.539627
      6.63850     11.34540     17.42248         0.225592     -0.128008     -0.327865
      1.75515     14.70190      7.68060        -0.164589      0.507748     -0.453457
      6.63850      5.23553     16.00803         0.239255     -0.354879      0.848509
      5.59545     13.34415      1.92015         0.084561     -0.348828     -0.196873
      4.71835     15.41865     13.17913        -0.018865      0.035742     -0.221393
      2.79821      9.30878     16.00803        -0.210945     -0.059477      0.532321
      7.51559     16.05965      0.00000         0.091658      0.745418     -0.229992
      0.87806      3.19890     13.17913         0.208996     -0.125075      0.332547
      6.63850     13.38203     16.00803        -0.307016      0.041407      0.588430
      7.51559     10.62866      0.00000         0.472683      0.107674     -0.201706
      4.71835      7.27215     13.17913         0.015381     -0.015076      0.003373
      2.79821      1.16228     16.00803         0.288638     -0.015226      0.620710
      0.87806     11.34540     18.83693        -0.413517      0.381766      0.810517
      1.75515      2.48215      9.60074         0.457993      0.132694      0.202231
      4.71835      9.30878     14.59358         0.268984     -0.007224     -0.626033
      2.79821      3.19890     17.42248        -0.737411      0.047218      0.159446
      7.51559      5.19765      7.68060         0.097304     -0.341266      0.207984
      4.71835      1.16228     14.59358        -0.234526     -0.072601     -0.539345
      2.79821     11.34540     17.42248         0.226650     -0.149967     -0.316312
      1.75515      7.91315      9.60074         0.080466      0.775877      0.234092
      0.87806      5.23553     14.59358        -0.328775      0.038019     -0.591424
      6.63850     15.41865     17.42248         0.016949     -0.033419      0.006460
      2.79821      3.19890     11.76468        -0.403890      0.369871     -0.818823
      0.87806     13.38203     14.59358         0.222111     -0.341879     -0.848170
      6.63850      7.27215     17.42248        -0.006938      0.027748      0.217570
      0.87806     15.41865     13.17913        -0.017141      0.030661     -0.219520
      6.63850      9.30878     16.00803        -0.220669     -0.081487      0.536908
      4.71835      3.19890     18.83693         0.922766     -0.399118      0.310699
      0.87806      7.27215     13.17913         0.022785     -0.017473     -0.002068
      6.63850      1.16228     16.00803         0.271183      0.381214      0.901836
      4.71835     11.34540     18.83693        -0.628821      0.236519      1.178667
      4.71835     11.34540     13.17913        -0.739517      0.061441     -0.159657
      2.79821      5.23553     16.00803         0.259399      0.059687      0.572428
      3.67530      5.19765      0.00000         0.560015      0.876583     -1.022452
      4.71835      3.19890     13.17913         0.236895     -0.130660      0.315490
      2.79821     13.38203     16.00803        -0.318580      0.035402      0.587194
      7.51559      5.19765      0.00000         0.592376      0.508994     -1.569694
 -----------------------------------------------------------------------------------
    total drift:                               -0.155590      0.001630     -0.079717


--------------------------------------------------------------------------------------------------------



  FREE ENERGIE OF THE ION-ELECTRON SYSTEM (eV)
  ---------------------------------------------------
  free  energy   TOTEN  =      -575.26428795 eV

  energy  without entropy=     -575.26185015  energy(sigma->0) =     -575.26306905
 


--------------------------------------------------------------------------------------------------------


    POTLOK:  cpu time      1.2777: real time      1.2846


--------------------------------------------------------------------------------------------------------


     LOOP+:  cpu time    600.5666: real time    607.5816
    4ORBIT:  cpu time      0.0000: real time      0.0000

 total amount of memory used by VASP MPI-rank0   166883. kBytes
=======================================================================

   base      :      30000. kBytes
   nonlr-proj:       6602. kBytes
   fftplans  :      18524. kBytes
   grid      :      14584. kBytes
   one-center:        129. kBytes
   wavefun   :      97044. kBytes
 
  
  
 General timing and accounting informations for this job:
 ========================================================
  
                  Total CPU time used (sec):      656.517
                            User time (sec):      619.930
                          System time (sec):       36.587
                         Elapsed time (sec):      665.599
  
                   Maximum memory used (kb):      423732.
                   Average memory used (kb):          N/A
  
                          Minor page faults:       175899
                          Major page faults:           31
                 Voluntary context switches:         1844
