 168 168   0   0
  0.2743752E+02  0.1123962E-08  0.1589523E-08  0.2580094E-08  0.5000000E-15
  1.000000000000000E-004
  CAR 
 Si and Ge interface calculation         
      6.49930096     -9.84723835  301      3.45593757      1.00000000
     -9.847  0.0000E+00  0.0000E+00  0.0000E+00  0.0000E+00
     -9.793  0.0000E+00  0.0000E+00  0.0000E+00  0.0000E+00
     -9.738  0.0000E+00  0.0000E+00  0.0000E+00  0.0000E+00
     -9.684  0.0000E+00  0.0000E+00  0.0000E+00  0.0000E+00
     -9.629  0.0000E+00  0.0000E+00  0.0000E+00  0.0000E+00
     -9.575  0.0000E+00  0.0000E+00  0.0000E+00  0.0000E+00
     -9.520  0.0000E+00  0.0000E+00  0.0000E+00  0.0000E+00
     -9.466  0.0000E+00  0.0000E+00  0.0000E+00  0.0000E+00
     -9.411  0.0000E+00  0.0000E+00  0.0000E+00  0.0000E+00
     -9.357  0.0000E+00  0.0000E+00  0.0000E+00  0.0000E+00
     -9.302  0.0000E+00  0.0000E+00  0.0000E+00  0.0000E+00
     -9.248  0.0000E+00  0.0000E+00  0.0000E+00  0.0000E+00
     -9.193  0.0000E+00  0.0000E+00  0.0000E+00  0.0000E+00
     -9.139  0.2877E-05  0.3136E-07  0.1567E-06  0.1709E-08
     -9.084  0.6102E+01  0.5971E+01  0.3325E+00  0.3254E+00
     -9.030  0.1561E-01  0.1461E+00  0.3333E+00  0.3333E+00
     -8.975  0.1924E+02  0.1536E+02  0.1381E+01  0.1170E+01
     -8.921  0.5235E+01  0.9107E+01  0.1667E+01  0.1667E+01
     -8.866  0.2071E+02  0.1444E+02  0.2795E+01  0.2454E+01
     -8.812  0.4077E+01  0.1008E+02  0.3017E+01  0.3003E+01
     -8.757  0.6140E+01  0.6106E+01  0.3352E+01  0.3335E+01
     -8.703  0.1191E+02  0.1220E+02  0.4001E+01  0.4000E+01
     -8.648  0.2146E+02  0.1772E+02  0.5170E+01  0.4966E+01
     -8.594  0.3958E+02  0.4265E+02  0.7326E+01  0.7290E+01
     -8.540  0.1611E+02  0.7117E+01  0.8204E+01  0.7678E+01
     -8.485  0.3770E+02  0.4444E+02  0.1026E+02  0.1010E+02
     -8.431  0.7496E+01  0.1041E+02  0.1067E+02  0.1067E+02
     -8.376  0.4062E+02  0.3734E+02  0.1288E+02  0.1270E+02
     -8.322  0.3223E+02  0.3326E+02  0.1464E+02  0.1451E+02
     -8.267  0.2761E+02  0.2238E+02  0.1614E+02  0.1573E+02
     -8.213  0.1581E+02  0.2326E+02  0.1700E+02  0.1700E+02
     -8.158  0.3927E+02  0.3694E+02  0.1914E+02  0.1901E+02
     -8.104  0.1523E+02  0.1444E+02  0.1997E+02  0.1980E+02
     -8.049  0.3212E+02  0.3082E+02  0.2172E+02  0.2148E+02
     -7.995  0.2964E+02  0.3404E+02  0.2334E+02  0.2333E+02
     -7.940  0.8283E+01  0.6865E+01  0.2379E+02  0.2371E+02
     -7.886  0.2225E+02  0.2371E+02  0.2500E+02  0.2500E+02
     -7.831  0.2150E+02  0.1235E+02  0.2617E+02  0.2567E+02
     -7.777  0.5145E+02  0.5867E+02  0.2897E+02  0.2887E+02
     -7.722  0.6585E+01  0.8485E+01  0.2933E+02  0.2933E+02
     -7.668  0.6286E+01  0.6163E+01  0.2968E+02  0.2967E+02
     -7.613  0.1380E+02  0.1260E+02  0.3043E+02  0.3035E+02
     -7.559  0.6688E+02  0.5961E+02  0.3407E+02  0.3360E+02
     -7.504  0.3374E+02  0.3928E+02  0.3591E+02  0.3574E+02
     -7.450  0.4666E+02  0.4781E+02  0.3845E+02  0.3835E+02
     -7.395  0.2837E+02  0.3016E+02  0.4000E+02  0.3999E+02
     -7.341  0.7868E+01  0.4220E+01  0.4043E+02  0.4022E+02
     -7.286  0.1880E+02  0.2100E+02  0.4145E+02  0.4137E+02
     -7.232  0.5158E+02  0.4689E+02  0.4426E+02  0.4392E+02
     -7.177  0.2787E+02  0.3004E+02  0.4578E+02  0.4556E+02
     -7.123  0.6515E+02  0.6393E+02  0.4933E+02  0.4904E+02
     -7.068  0.3900E+02  0.4191E+02  0.5146E+02  0.5132E+02
     -7.014  0.2454E+02  0.2548E+02  0.5279E+02  0.5271E+02
     -6.959  0.5670E+02  0.5252E+02  0.5588E+02  0.5557E+02
     -6.905  0.3346E+02  0.3776E+02  0.5771E+02  0.5763E+02
     -6.850  0.5454E+02  0.5241E+02  0.6068E+02  0.6049E+02
     -6.796  0.2246E+02  0.2278E+02  0.6190E+02  0.6173E+02
     -6.741  0.4921E+02  0.4899E+02  0.6458E+02  0.6440E+02
     -6.687  0.5828E+02  0.5959E+02  0.6776E+02  0.6765E+02
     -6.632  0.5396E+02  0.4650E+02  0.7070E+02  0.7018E+02
     -6.578  0.5858E+02  0.6510E+02  0.7389E+02  0.7373E+02
     -6.523  0.2169E+01  0.5034E+01  0.7401E+02  0.7400E+02
     -6.469  0.3375E+02  0.3010E+02  0.7585E+02  0.7564E+02
     -6.414  0.2894E+02  0.2612E+02  0.7742E+02  0.7706E+02
     -6.360  0.3840E+02  0.3712E+02  0.7952E+02  0.7909E+02
     -6.305  0.6635E+02  0.6817E+02  0.8313E+02  0.8280E+02
     -6.251  0.6276E+02  0.6042E+02  0.8655E+02  0.8609E+02
     -6.197  0.5873E+02  0.6535E+02  0.8975E+02  0.8965E+02
     -6.142  0.6616E+02  0.6265E+02  0.9336E+02  0.9307E+02
     -6.088  0.6540E+02  0.6473E+02  0.9692E+02  0.9659E+02
     -6.033  0.3808E+02  0.4352E+02  0.9900E+02  0.9897E+02
     -5.979  0.1233E+02  0.1286E+02  0.9967E+02  0.9967E+02
     -5.924  0.2921E+02  0.2653E+02  0.1013E+03  0.1011E+03
     -5.870  0.5335E+02  0.4819E+02  0.1042E+03  0.1037E+03
     -5.815  0.2484E+02  0.3073E+02  0.1055E+03  0.1054E+03
     -5.761  0.4505E+02  0.4457E+02  0.1080E+03  0.1078E+03
     -5.706  0.3719E+02  0.3961E+02  0.1100E+03  0.1100E+03
     -5.652  0.5340E+02  0.4884E+02  0.1129E+03  0.1127E+03
     -5.597  0.1239E+02  0.1447E+02  0.1136E+03  0.1134E+03
     -5.543  0.3097E+02  0.3135E+02  0.1153E+03  0.1152E+03
     -5.488  0.4030E+02  0.3678E+02  0.1175E+03  0.1172E+03
     -5.434  0.6670E+02  0.6803E+02  0.1211E+03  0.1209E+03
     -5.379  0.6038E+02  0.5890E+02  0.1244E+03  0.1241E+03
     -5.325  0.4702E+02  0.4759E+02  0.1270E+03  0.1267E+03
     -5.270  0.4393E+02  0.4541E+02  0.1293E+03  0.1291E+03
     -5.216  0.5874E+02  0.5556E+02  0.1325E+03  0.1322E+03
     -5.161  0.6566E+02  0.6827E+02  0.1361E+03  0.1359E+03
     -5.107  0.6132E+02  0.6248E+02  0.1395E+03  0.1393E+03
     -5.052  0.4276E+02  0.4412E+02  0.1418E+03  0.1417E+03
     -4.998  0.6161E+02  0.5802E+02  0.1452E+03  0.1449E+03
     -4.943  0.4419E+02  0.4632E+02  0.1476E+03  0.1474E+03
     -4.889  0.3638E+02  0.3207E+02  0.1495E+03  0.1491E+03
     -4.834  0.7097E+02  0.7314E+02  0.1534E+03  0.1531E+03
     -4.780  0.7801E+02  0.7927E+02  0.1577E+03  0.1574E+03
     -4.725  0.2101E+02  0.2246E+02  0.1588E+03  0.1587E+03
     -4.671  0.5624E+02  0.5565E+02  0.1619E+03  0.1617E+03
     -4.616  0.2976E+02  0.3104E+02  0.1635E+03  0.1634E+03
     -4.562  0.4433E+02  0.3434E+02  0.1659E+03  0.1653E+03
     -4.507  0.7786E+02  0.7909E+02  0.1702E+03  0.1696E+03
     -4.453  0.4996E+02  0.5904E+02  0.1729E+03  0.1728E+03
     -4.398  0.5263E+02  0.5112E+02  0.1757E+03  0.1756E+03
     -4.344  0.5119E+02  0.4173E+02  0.1785E+03  0.1778E+03
     -4.289  0.4878E+02  0.5122E+02  0.1812E+03  0.1806E+03
     -4.235  0.5956E+02  0.6320E+02  0.1844E+03  0.1841E+03
     -4.180  0.3100E+02  0.2963E+02  0.1861E+03  0.1857E+03
     -4.126  0.4514E+02  0.4992E+02  0.1886E+03  0.1884E+03
     -4.071  0.5357E+02  0.4955E+02  0.1915E+03  0.1911E+03
     -4.017  0.3986E+02  0.4293E+02  0.1937E+03  0.1935E+03
     -3.962  0.6120E+02  0.6181E+02  0.1970E+03  0.1968E+03
     -3.908  0.4899E+02  0.5073E+02  0.1997E+03  0.1996E+03
     -3.854  0.5709E+02  0.5000E+02  0.2028E+03  0.2023E+03
     -3.799  0.7143E+02  0.7918E+02  0.2067E+03  0.2066E+03
     -3.745  0.1530E+02  0.1386E+02  0.2075E+03  0.2074E+03
     -3.690  0.5326E+02  0.4876E+02  0.2104E+03  0.2100E+03
     -3.636  0.6426E+02  0.6685E+02  0.2139E+03  0.2137E+03
     -3.581  0.5155E+02  0.5097E+02  0.2167E+03  0.2165E+03
     -3.527  0.6889E+02  0.6744E+02  0.2205E+03  0.2201E+03
     -3.472  0.4614E+02  0.5195E+02  0.2230E+03  0.2230E+03
     -3.418  0.3411E+02  0.2752E+02  0.2249E+03  0.2245E+03
     -3.363  0.4941E+02  0.5347E+02  0.2275E+03  0.2274E+03
     -3.309  0.4594E+02  0.4534E+02  0.2300E+03  0.2298E+03
     -3.254  0.4194E+02  0.4561E+02  0.2323E+03  0.2323E+03
     -3.200  0.4622E+02  0.4018E+02  0.2349E+03  0.2345E+03
     -3.145  0.4159E+02  0.4104E+02  0.2371E+03  0.2368E+03
     -3.091  0.3444E+02  0.3264E+02  0.2390E+03  0.2385E+03
     -3.036  0.3024E+02  0.3694E+02  0.2406E+03  0.2405E+03
     -2.982  0.3918E+02  0.3669E+02  0.2428E+03  0.2425E+03
     -2.927  0.7900E+02  0.7645E+02  0.2471E+03  0.2467E+03
     -2.873  0.7158E+02  0.6416E+02  0.2510E+03  0.2502E+03
     -2.818  0.2591E+02  0.3868E+02  0.2524E+03  0.2523E+03
     -2.764  0.5945E+02  0.5921E+02  0.2556E+03  0.2555E+03
     -2.709  0.2164E+02  0.1565E+02  0.2568E+03  0.2564E+03
     -2.655  0.5217E+02  0.5879E+02  0.2597E+03  0.2596E+03
     -2.600  0.4117E+02  0.3789E+02  0.2619E+03  0.2617E+03
     -2.546  0.6255E+02  0.6186E+02  0.2653E+03  0.2650E+03
     -2.491  0.6765E+02  0.6866E+02  0.2690E+03  0.2688E+03
     -2.437  0.4754E+02  0.4856E+02  0.2716E+03  0.2714E+03
     -2.382  0.5523E+02  0.5590E+02  0.2746E+03  0.2745E+03
     -2.328  0.5374E+02  0.5260E+02  0.2775E+03  0.2773E+03
     -2.273  0.2911E+02  0.2763E+02  0.2791E+03  0.2788E+03
     -2.219  0.4693E+02  0.5107E+02  0.2817E+03  0.2816E+03
     -2.164  0.4688E+02  0.4117E+02  0.2842E+03  0.2839E+03
     -2.110  0.3508E+02  0.3801E+02  0.2861E+03  0.2859E+03
     -2.055  0.2759E+02  0.2951E+02  0.2876E+03  0.2875E+03
     -2.001  0.2316E+02  0.2181E+02  0.2889E+03  0.2887E+03
     -1.946  0.3862E+02  0.4160E+02  0.2910E+03  0.2910E+03
     -1.892  0.2126E+02  0.1850E+02  0.2922E+03  0.2920E+03
     -1.837  0.2854E+02  0.3064E+02  0.2937E+03  0.2937E+03
     -1.783  0.3796E+02  0.3698E+02  0.2958E+03  0.2957E+03
     -1.728  0.4683E+02  0.4843E+02  0.2983E+03  0.2983E+03
     -1.674  0.3609E+02  0.3001E+02  0.3003E+03  0.3000E+03
     -1.619  0.3791E+02  0.4360E+02  0.3024E+03  0.3023E+03
     -1.565  0.3651E+02  0.3601E+02  0.3044E+03  0.3043E+03
     -1.511  0.2540E+02  0.2384E+02  0.3057E+03  0.3056E+03
     -1.456  0.3455E+02  0.3096E+02  0.3076E+03  0.3073E+03
     -1.402  0.4766E+02  0.5081E+02  0.3102E+03  0.3101E+03
     -1.347  0.3180E+02  0.3330E+02  0.3120E+03  0.3119E+03
     -1.293  0.6527E+01  0.6519E+01  0.3123E+03  0.3122E+03
     -1.238  0.2255E+02  0.1703E+02  0.3135E+03  0.3132E+03
     -1.184  0.8528E+01  0.1550E+02  0.3140E+03  0.3140E+03
     -1.129  0.1597E+01  0.4740E+00  0.3141E+03  0.3140E+03
     -1.075  0.3347E+02  0.3113E+02  0.3159E+03  0.3157E+03
     -1.020  0.1408E+02  0.1736E+02  0.3167E+03  0.3167E+03
     -0.966  0.1265E+02  0.1232E+02  0.3174E+03  0.3173E+03
     -0.911  0.1185E+02  0.1216E+02  0.3180E+03  0.3180E+03
     -0.857  0.3402E+02  0.2848E+02  0.3199E+03  0.3196E+03
     -0.802  0.2688E+02  0.3238E+02  0.3213E+03  0.3213E+03
     -0.748  0.1349E+02  0.1284E+02  0.3221E+03  0.3220E+03
     -0.693  0.2785E+02  0.2673E+02  0.3236E+03  0.3235E+03
     -0.639  0.3194E+02  0.2557E+02  0.3253E+03  0.3249E+03
     -0.584  0.6537E+02  0.7083E+02  0.3289E+03  0.3287E+03
     -0.530  0.7359E+02  0.7235E+02  0.3329E+03  0.3327E+03
     -0.475  0.5012E+02  0.4673E+02  0.3356E+03  0.3352E+03
     -0.421  0.7543E+02  0.6953E+02  0.3397E+03  0.3390E+03
     -0.366  0.6467E+02  0.7375E+02  0.3433E+03  0.3430E+03
     -0.312  0.3761E+02  0.3561E+02  0.3453E+03  0.3450E+03
     -0.257  0.1063E+03  0.1062E+03  0.3511E+03  0.3508E+03
     -0.203  0.7197E+02  0.7082E+02  0.3550E+03  0.3546E+03
     -0.148  0.6300E+02  0.6528E+02  0.3585E+03  0.3582E+03
     -0.094  0.6540E+02  0.6918E+02  0.3620E+03  0.3619E+03
     -0.039  0.7531E+02  0.6288E+02  0.3661E+03  0.3654E+03
      0.015  0.6202E+02  0.7119E+02  0.3695E+03  0.3692E+03
      0.070  0.7504E+02  0.6853E+02  0.3736E+03  0.3730E+03
      0.124  0.7045E+02  0.7474E+02  0.3774E+03  0.3770E+03
      0.179  0.8696E+02  0.8195E+02  0.3822E+03  0.3815E+03
      0.233  0.7798E+02  0.7933E+02  0.3864E+03  0.3858E+03
      0.288  0.9128E+02  0.9739E+02  0.3914E+03  0.3911E+03
      0.342  0.9180E+02  0.9291E+02  0.3964E+03  0.3962E+03
      0.397  0.9416E+02  0.8567E+02  0.4015E+03  0.4009E+03
      0.451  0.1086E+03  0.1117E+03  0.4074E+03  0.4070E+03
      0.506  0.1043E+03  0.1045E+03  0.4131E+03  0.4127E+03
      0.560  0.9530E+02  0.9204E+02  0.4183E+03  0.4177E+03
      0.615  0.1241E+03  0.1267E+03  0.4251E+03  0.4246E+03
      0.669  0.1215E+03  0.1177E+03  0.4317E+03  0.4310E+03
      0.724  0.1639E+03  0.1641E+03  0.4406E+03  0.4399E+03
      0.778  0.1460E+03  0.1507E+03  0.4486E+03  0.4481E+03
      0.833  0.6071E+02  0.6179E+02  0.4519E+03  0.4515E+03
      0.887  0.1301E+03  0.1299E+03  0.4590E+03  0.4586E+03
      0.941  0.8704E+02  0.8570E+02  0.4637E+03  0.4633E+03
      0.996  0.1165E+03  0.1214E+03  0.4701E+03  0.4699E+03
      1.050  0.9119E+02  0.8722E+02  0.4750E+03  0.4746E+03
      1.105  0.5386E+02  0.5230E+02  0.4780E+03  0.4775E+03
      1.159  0.1278E+03  0.1273E+03  0.4849E+03  0.4844E+03
      1.214  0.1223E+03  0.1222E+03  0.4916E+03  0.4911E+03
      1.268  0.9917E+02  0.1047E+03  0.4970E+03  0.4968E+03
      1.323  0.1524E+03  0.1447E+03  0.5053E+03  0.5047E+03
      1.377  0.1232E+03  0.1255E+03  0.5120E+03  0.5115E+03
      1.432  0.8110E+02  0.8426E+02  0.5165E+03  0.5161E+03
      1.486  0.1282E+03  0.1260E+03  0.5234E+03  0.5229E+03
      1.541  0.1087E+03  0.1119E+03  0.5294E+03  0.5290E+03
      1.595  0.1258E+03  0.1197E+03  0.5362E+03  0.5356E+03
      1.650  0.9869E+02  0.9896E+02  0.5416E+03  0.5410E+03
      1.704  0.1168E+03  0.1183E+03  0.5480E+03  0.5474E+03
      1.759  0.1033E+03  0.1028E+03  0.5536E+03  0.5530E+03
      1.813  0.1114E+03  0.1092E+03  0.5597E+03  0.5590E+03
      1.868  0.1235E+03  0.1265E+03  0.5664E+03  0.5658E+03
      1.922  0.8943E+02  0.9302E+02  0.5713E+03  0.5709E+03
      1.977  0.7994E+02  0.7819E+02  0.5756E+03  0.5752E+03
      2.031  0.1047E+03  0.9698E+02  0.5813E+03  0.5805E+03
      2.086  0.8093E+02  0.8669E+02  0.5857E+03  0.5852E+03
      2.140  0.8779E+02  0.9226E+02  0.5905E+03  0.5902E+03
      2.195  0.8705E+02  0.8631E+02  0.5953E+03  0.5949E+03
      2.249  0.9637E+02  0.8920E+02  0.6005E+03  0.5998E+03
      2.304  0.8950E+02  0.8771E+02  0.6054E+03  0.6046E+03
      2.358  0.7637E+02  0.8694E+02  0.6095E+03  0.6093E+03
      2.413  0.6411E+02  0.5899E+02  0.6130E+03  0.6125E+03
      2.467  0.6655E+02  0.7498E+02  0.6167E+03  0.6166E+03
      2.522  0.6920E+02  0.6244E+02  0.6204E+03  0.6200E+03
      2.576  0.1111E+03  0.1109E+03  0.6265E+03  0.6260E+03
      2.631  0.5129E+02  0.5642E+02  0.6293E+03  0.6291E+03
      2.685  0.6656E+02  0.6413E+02  0.6329E+03  0.6326E+03
      2.740  0.7782E+02  0.7336E+02  0.6372E+03  0.6366E+03
      2.794  0.7685E+02  0.8204E+02  0.6413E+03  0.6411E+03
      2.849  0.2989E+02  0.2858E+02  0.6430E+03  0.6426E+03
      2.903  0.7700E+02  0.8057E+02  0.6472E+03  0.6470E+03
      2.958  0.5277E+02  0.4717E+02  0.6500E+03  0.6496E+03
      3.012  0.4100E+02  0.4432E+02  0.6523E+03  0.6520E+03
      3.067  0.4133E+02  0.4318E+02  0.6545E+03  0.6544E+03
      3.121  0.4671E+02  0.4463E+02  0.6571E+03  0.6568E+03
      3.176  0.3772E+02  0.3765E+02  0.6591E+03  0.6588E+03
      3.230  0.5134E+02  0.4675E+02  0.6619E+03  0.6614E+03
      3.284  0.3980E+02  0.4671E+02  0.6641E+03  0.6639E+03
      3.339  0.5298E+02  0.4931E+02  0.6670E+03  0.6666E+03
      3.393  0.3801E+02  0.3548E+02  0.6690E+03  0.6686E+03
      3.448  0.3962E+02  0.3706E+02  0.6712E+03  0.6706E+03
      3.502  0.1922E+02  0.1978E+02  0.6723E+03  0.6716E+03
      3.557  0.3007E+02  0.2998E+02  0.6739E+03  0.6733E+03
      3.611  0.1302E+02  0.1968E+02  0.6746E+03  0.6744E+03
      3.666  0.5160E+02  0.5051E+02  0.6774E+03  0.6771E+03
      3.720  0.3144E+02  0.3464E+02  0.6791E+03  0.6790E+03
      3.775  0.5869E+02  0.5385E+02  0.6823E+03  0.6819E+03
      3.829  0.1851E+02  0.2544E+02  0.6833E+03  0.6833E+03
      3.884  0.9615E+01  0.4036E+01  0.6839E+03  0.6835E+03
      3.938  0.2805E+01  0.8555E+01  0.6840E+03  0.6840E+03
      3.993  0.3805E+02  0.3106E+02  0.6861E+03  0.6857E+03
      4.047  0.4598E+01  0.1174E+02  0.6863E+03  0.6863E+03
      4.102  0.1609E+02  0.1405E+02  0.6872E+03  0.6871E+03
      4.156  0.3708E+02  0.3387E+02  0.6892E+03  0.6889E+03
      4.211  0.2356E+02  0.1575E+02  0.6905E+03  0.6898E+03
      4.265  0.5230E+02  0.6259E+02  0.6934E+03  0.6932E+03
      4.320  0.3234E+02  0.2985E+02  0.6951E+03  0.6948E+03
      4.374  0.1526E+02  0.1473E+02  0.6960E+03  0.6956E+03
      4.429  0.4273E+02  0.4580E+02  0.6983E+03  0.6981E+03
      4.483  0.3674E+02  0.3367E+02  0.7003E+03  0.7000E+03
      4.538  0.7783E+02  0.7803E+02  0.7045E+03  0.7042E+03
      4.592  0.8079E+02  0.8368E+02  0.7089E+03  0.7088E+03
      4.647  0.5853E+02  0.5316E+02  0.7121E+03  0.7117E+03
      4.701  0.4830E+02  0.5167E+02  0.7148E+03  0.7145E+03
      4.756  0.7186E+02  0.7075E+02  0.7187E+03  0.7184E+03
      4.810  0.9345E+02  0.9252E+02  0.7238E+03  0.7234E+03
      4.865  0.8356E+02  0.8206E+02  0.7283E+03  0.7279E+03
      4.919  0.6337E+02  0.6321E+02  0.7318E+03  0.7313E+03
      4.974  0.9316E+02  0.9768E+02  0.7368E+03  0.7366E+03
      5.028  0.7586E+02  0.7066E+02  0.7410E+03  0.7405E+03
      5.083  0.1130E+03  0.1162E+03  0.7471E+03  0.7468E+03
      5.137  0.1013E+03  0.9752E+02  0.7526E+03  0.7521E+03
      5.192  0.1031E+03  0.1042E+03  0.7583E+03  0.7578E+03
      5.246  0.8252E+02  0.8273E+02  0.7628E+03  0.7623E+03
      5.301  0.1138E+03  0.1099E+03  0.7690E+03  0.7683E+03
      5.355  0.9835E+02  0.1030E+03  0.7743E+03  0.7739E+03
      5.410  0.9568E+02  0.9096E+02  0.7795E+03  0.7789E+03
      5.464  0.9968E+02  0.1023E+03  0.7850E+03  0.7844E+03
      5.519  0.1211E+03  0.1195E+03  0.7916E+03  0.7910E+03
      5.573  0.1202E+03  0.1228E+03  0.7981E+03  0.7976E+03
      5.627  0.8351E+02  0.8316E+02  0.8027E+03  0.8022E+03
      5.682  0.4822E+02  0.5305E+02  0.8053E+03  0.8051E+03
      5.736  0.3751E+02  0.3994E+02  0.8073E+03  0.8072E+03
      5.791  0.1225E+02  0.1390E+02  0.8080E+03  0.8080E+03
      5.845  0.0000E+00  0.0000E+00  0.8080E+03  0.8080E+03
      5.900  0.0000E+00  0.0000E+00  0.8080E+03  0.8080E+03
      5.954  0.0000E+00  0.0000E+00  0.8080E+03  0.8080E+03
      6.009  0.0000E+00  0.0000E+00  0.8080E+03  0.8080E+03
      6.063  0.0000E+00  0.0000E+00  0.8080E+03  0.8080E+03
      6.118  0.0000E+00  0.0000E+00  0.8080E+03  0.8080E+03
      6.172  0.0000E+00  0.0000E+00  0.8080E+03  0.8080E+03
      6.227  0.0000E+00  0.0000E+00  0.8080E+03  0.8080E+03
      6.281  0.0000E+00  0.0000E+00  0.8080E+03  0.8080E+03
      6.336  0.0000E+00  0.0000E+00  0.8080E+03  0.8080E+03
      6.390  0.0000E+00  0.0000E+00  0.8080E+03  0.8080E+03
      6.445  0.0000E+00  0.0000E+00  0.8080E+03  0.8080E+03
      6.499  0.0000E+00  0.0000E+00  0.8080E+03  0.8080E+03
