 vasp.6.4.3 19Mar24 (build Oct 22 2024 11:23:12) complex                        
  
 executed on             LinuxIFC date 2025.06.08  04:00:37
 running   64 mpi-ranks, on    4 nodes
 distrk:  each k-point on   64 cores,    1 groups
 distr:  one band on NCORE=  16 cores,    4 groups


--------------------------------------------------------------------------------------------------------


 INCAR:
   SYSTEM = Si and Ge interface calculation
   ISTART = 0
   ICHARG = 2
   LWAVE = .FALSE.
   LREAL = AUTO
   ENCUT = 700
   ENAUG = 900
   ADDGRID = .TRUE.
   LMAXMIX = 6
   LASPH = .TRUE.
   LMIXTAU = .TRUE.
   NCORE = 16
   NELM = 100
   NBANDS = 288
   EDIFF = 1d-7
   AMIX = 0.6
   ISMEAR = 0
   SIGMA = 0.01
   NELECT = 480
   ISPIN = 2
   NUPDOWN = 1
   LVTOT = .FALSE.
   LVHAR = .TRUE.

 POTCAR:    PAW_PBE Si 05Jan2001                  
 POTCAR:    PAW_PBE C 08Apr2002                   
 -----------------------------------------------------------------------------
|                                                                             |
|           W    W    AA    RRRRR   N    N  II  N    N   GGGG   !!!           |
|           W    W   A  A   R    R  NN   N  II  NN   N  G    G  !!!           |
|           W    W  A    A  R    R  N N  N  II  N N  N  G       !!!           |
|           W WW W  AAAAAA  RRRRR   N  N N  II  N  N N  G  GGG   !            |
|           WW  WW  A    A  R   R   N   NN  II  N   NN  G    G                |
|           W    W  A    A  R    R  N    N  II  N    N   GGGG   !!!           |
|                                                                             |
|     You use a magnetic or noncollinear calculation, but did not specify     |
|     the initial magnetic moment with the MAGMOM tag. Note that a            |
|     default of 8.333e-3 will be used for all atoms. This ferromagnetic      |
|     setup may break the symmetry of the crystal, in particular it may       |
|     rule out finding an antiferromagnetic solution. Thence, we              |
|     recommend setting the initial magnetic moment manually or verifying     |
|     carefully that this magnetic setup is desired.                          |
|                                                                             |
 -----------------------------------------------------------------------------

 POTCAR:    PAW_PBE Si 05Jan2001                  
   VRHFIN =Si: s2p2                                                                                 
   LEXCH  = PE                                                                                      
   EATOM  =   103.0669 eV,    7.5752 Ry                                                             
                                                                                                    
   TITEL  = PAW_PBE Si 05Jan2001                                                                    
   LULTRA =        F    use ultrasoft PP ?                                                          
   IUNSCR =        1    unscreen: 0-lin 1-nonlin 2-no                                               
   RPACOR =    1.500    partial core radius                                                         
   POMASS =   28.085; ZVAL   =    4.000    mass and valenz                                          
   RCORE  =    1.900    outmost cutoff radius                                                       
   RWIGS  =    2.480; RWIGS  =    1.312    wigner-seitz radius (au A)                               
   ENMAX  =  245.345; ENMIN  =  184.009 eV                                                          
   ICORE  =        2    local potential                                                             
   LCOR   =        T    correct aug charges                                                         
   LPAW   =        T    paw PP                                                                      
   EAUG   =  322.069                                                                                
   DEXC   =    0.000                                                                                
   RMAX   =    1.950    core radius for proj-oper                                                   
   RAUG   =    1.300    factor for augmentation sphere                                              
   RDEP   =    1.993    radius for radial grids                                                     
   RDEPT  =    1.837    core radius for aug-charge                                                  
                                                                                                    
   Atomic configuration                                                                             
    6 entries                                                                                       
     n  l   j            E        occ.                                                              
     1  0  0.50     -1785.8828   2.0000                                                             
     2  0  0.50      -139.4969   2.0000                                                             
     2  1  1.50       -95.5546   6.0000                                                             
     3  0  0.50       -10.8127   2.0000                                                             
     3  1  0.50        -4.0811   2.0000                                                             
     3  2  1.50        -4.0817   0.0000                                                             
   Description                                                                                      
     l       E           TYP  RCUT    TYP  RCUT                                                     
     0    -10.8127223     23  1.900                                                                 
     0     -7.6451159     23  1.900                                                                 
     1     -4.0811372     23  1.900                                                                 
     1      2.4879257     23  1.900                                                                 
     2     -4.0817478      7  1.900                                                                 
  local pseudopotential read in
  partial core-charges read in
  partial kinetic energy density read in
  atomic valenz-charges read in
  non local Contribution for L=           0  read in
    real space projection operators read in
  non local Contribution for L=           0  read in
    real space projection operators read in
  non local Contribution for L=           1  read in
    real space projection operators read in
  non local Contribution for L=           1  read in
    real space projection operators read in
    PAW grid and wavefunctions read in
 
   number of l-projection  operators is LMAX  =           4
   number of lm-projection operators is LMMAX =           8
 
 POTCAR:    PAW_PBE C 08Apr2002                   
   VRHFIN =C: s2p2                                                                                  
   LEXCH  = PE                                                                                      
   EATOM  =   147.1560 eV,   10.8157 Ry                                                             
                                                                                                    
   TITEL  = PAW_PBE C 08Apr2002                                                                     
   LULTRA =        F    use ultrasoft PP ?                                                          
   IUNSCR =        1    unscreen: 0-lin 1-nonlin 2-no                                               
   RPACOR =    1.200    partial core radius                                                         
   POMASS =   12.011; ZVAL   =    4.000    mass and valenz                                          
   RCORE  =    1.500    outmost cutoff radius                                                       
   RWIGS  =    1.630; RWIGS  =    0.863    wigner-seitz radius (au A)                               
   ENMAX  =  400.000; ENMIN  =  300.000 eV                                                          
   ICORE  =        2    local potential                                                             
   LCOR   =        T    correct aug charges                                                         
   LPAW   =        T    paw PP                                                                      
   EAUG   =  644.873                                                                                
   DEXC   =    0.000                                                                                
   RMAX   =    1.529    core radius for proj-oper                                                   
   RAUG   =    1.300    factor for augmentation sphere                                              
   RDEP   =    1.501    radius for radial grids                                                     
   RDEPT  =    1.300    core radius for aug-charge                                                  
                                                                                                    
   Atomic configuration                                                                             
    4 entries                                                                                       
     n  l   j            E        occ.                                                              
     1  0  0.50      -273.3789   2.0000                                                             
     2  0  0.50       -13.7508   2.0000                                                             
     2  1  0.50        -5.2854   2.0000                                                             
     3  2  1.50        -5.4423   0.0000                                                             
   Description                                                                                      
     l       E           TYP  RCUT    TYP  RCUT                                                     
     0    -13.7508458     23  1.200                                                                 
     0     -8.2022199     23  1.200                                                                 
     1     -5.2854383     23  1.500                                                                 
     1     34.0145650     23  1.500                                                                 
     2     -5.4423304      7  1.500                                                                 
  local pseudopotential read in
  partial core-charges read in
  partial kinetic energy density read in
  atomic valenz-charges read in
  non local Contribution for L=           0  read in
    real space projection operators read in
  non local Contribution for L=           0  read in
    real space projection operators read in
  non local Contribution for L=           1  read in
    real space projection operators read in
  non local Contribution for L=           1  read in
    real space projection operators read in
    PAW grid and wavefunctions read in
 
   number of l-projection  operators is LMAX  =           4
   number of lm-projection operators is LMMAX =           8
 
 Optimization of the real space projectors (new method)

 maximal supplied QI-value         = 19.84
 optimisation between [QCUT,QGAM] = [ 13.49, 26.99] = [ 50.98,203.92] Ry 
 Optimized for a Real-space Cutoff    1.07 Angstroem

   l    n(q)    QCUT    max X(q) W(low)/X(q) W(high)/X(q)  e(spline) 
   0      9    13.493   159.560    0.22E-03    0.15E-03    0.72E-07
   0      9    13.493   115.863    0.21E-03    0.15E-03    0.71E-07
   1      8    13.493    88.339    0.15E-03    0.11E-03    0.13E-06
   1      8    13.493    48.592    0.15E-03    0.10E-03    0.13E-06
 Optimization of the real space projectors (new method)

 maximal supplied QI-value         = 25.13
 optimisation between [QCUT,QGAM] = [ 13.32, 26.89] = [ 49.69,202.52] Ry 
 Optimized for a Real-space Cutoff    1.01 Angstroem

   l    n(q)    QCUT    max X(q) W(low)/X(q) W(high)/X(q)  e(spline) 
   0      8    13.321   115.676    0.29E-03    0.42E-03    0.11E-06
   0      8    13.321    87.132    0.29E-03    0.42E-03    0.11E-06
   1      8    13.321     4.429    0.39E-03    0.33E-03    0.98E-07
   1      8    13.321     2.733    0.30E-03    0.26E-03    0.97E-07
  PAW_PBE Si 05Jan2001                  :
 energy of atom  1       EATOM= -103.0669
 kinetic energy error for atom=    0.0003 (will be added to EATOM!!)
  PAW_PBE C 08Apr2002                   :
 energy of atom  2       EATOM= -147.1560
 kinetic energy error for atom=    0.0032 (will be added to EATOM!!)
 
 
 POSCAR: Si+C
  positions in direct lattice
  No initial velocities read in


 exchange-correlation table for PE
   RHO(1)=    0.500       N(1)  =     2000
   RHO(2)=  100.500       N(2)  =     4000
 


--------------------------------------------------------------------------------------------------------


 ion  position               nearest neighbor table
   1  0.983  0.641  0.000-  69 1.75  93 2.00  29 2.35  28 2.35
   2  0.783  0.341  0.152-  30 2.35  29 2.35  13 2.35
   3  0.583  0.041  0.304-  14 2.35  30 2.35  16 2.35  55 2.45
   4  0.983  0.308  0.000- 108 1.58  32 2.35  31 2.35
   5  0.783  0.008  0.152-  33 2.35  32 2.35  16 2.35
   6  0.583  0.708  0.304-  91 2.33  17 2.35  33 2.35  10 2.35
   7  0.983  0.974  0.000-  57 2.14  35 2.35  34 2.35 119 2.45  60 2.48
   8  0.783  0.674  0.152-  36 2.35  10 2.35  35 2.35
   9  0.583  0.374  0.304-  11 2.35  13 2.35  36 2.35
  10  0.633  0.658  0.076- 114 2.17   8 2.35  22 2.35   6 2.35
  11  0.433  0.358  0.228-   9 2.35  23 2.35  22 2.35
  12  0.233  0.058  0.380-  97 2.14  76 2.35  24 2.35  23 2.35  79 2.60
  13  0.633  0.324  0.076-  25 2.35   2 2.35   9 2.35  66 2.50
  14  0.433  0.024  0.228-   3 2.35  26 2.35  25 2.35
  15  0.233  0.724  0.380-  27 2.35  26 2.35  52 2.47  50 2.52
  16  0.633  0.991  0.076-   5 2.35  19 2.35   3 2.35  99 2.51
  17  0.433  0.691  0.228-   6 2.35  19 2.35  20 2.35
  18  0.233  0.391  0.380-  43 2.28  20 2.35  21 2.35  86 2.41
  19  0.483  0.808  0.000-  75 1.58  17 2.35  16 2.35
  20  0.283  0.508  0.152-  18 2.35  31 2.35  17 2.35
  21  0.083  0.208  0.304-  40 2.33  32 2.35  34 2.35  18 2.35
  22  0.483  0.474  0.000-  87 2.14  10 2.35  11 2.35  65 2.45 114 2.48
  23  0.283  0.174  0.152-  11 2.35  12 2.35  34 2.35
  24  0.083  0.874  0.304-  12 2.35  35 2.35  28 2.35
  25  0.483  0.141  0.000- 102 1.75  42 2.00  13 2.35  14 2.35
  26  0.283  0.841  0.152-  28 2.35  14 2.35  15 2.35
  27  0.083  0.541  0.304-  29 2.35  15 2.35  31 2.35  85 2.45
  28  0.133  0.824  0.076-  26 2.35   1 2.35  24 2.35 120 2.50
  29  0.933  0.524  0.228-  27 2.35   2 2.35   1 2.35
  30  0.733  0.224  0.380-   2 2.35   3 2.35  82 2.47  80 2.52
  31  0.133  0.491  0.076-  20 2.35   4 2.35  27 2.35  48 2.51
  32  0.933  0.191  0.228-   4 2.35  21 2.35   5 2.35
  33  0.733  0.891  0.380-  94 2.28   5 2.35   6 2.35  56 2.41
  34  0.133  0.158  0.076-  60 2.17  21 2.35  23 2.35   7 2.35
  35  0.933  0.858  0.228-   7 2.35  24 2.35   8 2.35
  36  0.733  0.558  0.380-  46 2.14 109 2.35   8 2.35   9 2.35  49 2.60
  37  0.766  0.102  0.565- 118 1.54  59 1.54
  38  0.008  0.073  0.665- 119 1.54 100 1.54  60 1.54
  39  0.251  0.045  0.765- 120 1.54 101 1.54  76 1.54
  40  0.051  0.245  0.565- 100 1.54  62 1.54  21 2.33
  41  0.294  0.216  0.665- 101 1.54 103 1.54  63 1.54
  42  0.537  0.188  0.765- 102 1.54 104 1.54  58 1.54  25 2.00
  43  0.337  0.388  0.565- 103 1.54  65 1.54  18 2.28
  44  0.580  0.359  0.665- 104 1.54 106 1.54  66 1.54
  45  0.823  0.331  0.765- 105 1.54 107 1.54  61 1.54
  46  0.623  0.531  0.565- 106 1.54  68 1.54  36 2.14
  47  0.866  0.502  0.665- 107 1.54 109 1.54  69 1.54
  48  0.108  0.473  0.765- 108 1.54 110 1.54  64 1.54  31 2.51
  49  0.908  0.673  0.565- 109 1.54  71 1.54  36 2.60
  50  0.151  0.645  0.665- 110 1.54 112 1.54  72 1.54  15 2.52
  51  0.394  0.616  0.765- 111 1.54 113 1.54  67 1.54
  52  0.194  0.816  0.565- 112 1.54  74 1.54  15 2.47
  53  0.437  0.788  0.665- 113 1.54 115 1.54  75 1.54
  54  0.680  0.759  0.765- 114 1.54 116 1.54  70 1.54
  55  0.480  0.959  0.565- 115 1.54  77 1.54   3 2.45
  56  0.723  0.931  0.665- 116 1.54 118 1.54  78 1.54  33 2.41
  57  0.966  0.902  0.765- 117 1.54 119 1.54  73 1.54   7 2.14
  58  0.601  0.195  0.615-  82 1.54  80 1.54  42 1.54
  59  0.844  0.166  0.715-  83 1.54  81 1.54  37 1.54
  60  0.087  0.138  0.815-  84 1.54  38 1.54  34 2.17   7 2.48
  61  0.887  0.338  0.615-  85 1.54  83 1.54  45 1.54
  62  0.130  0.309  0.715-  86 1.54  84 1.54  40 1.54
  63  0.373  0.281  0.815-  87 1.54  41 1.54
  64  0.173  0.481  0.615-  88 1.54  86 1.54  48 1.54
  65  0.416  0.452  0.715-  89 1.54  87 1.54  43 1.54  22 2.45
  66  0.658  0.423  0.815-  90 1.54  44 1.54  13 2.50
  67  0.458  0.623  0.615-  91 1.54  89 1.54  51 1.54
  68  0.701  0.595  0.715-  92 1.54  90 1.54  46 1.54
  69  0.944  0.566  0.815-  93 1.54  47 1.54   1 1.75
  70  0.744  0.766  0.615-  94 1.54  92 1.54  54 1.54
  71  0.987  0.738  0.715-  95 1.54  93 1.54  49 1.54
  72  0.230  0.709  0.815-  96 1.54  50 1.54
  73  0.030  0.909  0.615-  97 1.54  95 1.54  57 1.54
  74  0.273  0.881  0.715-  96 1.54  98 1.54  52 1.54
  75  0.516  0.852  0.815-  99 1.54  53 1.54  19 1.58
  76  0.316  0.052  0.615-  79 1.54  98 1.54  39 1.54  12 2.35
  77  0.558  0.023  0.715-  80 1.54  99 1.54  55 1.54
  78  0.801  0.995  0.815-  81 1.54  56 1.54
  79  0.408  0.173  0.565-  76 1.54 104 1.54  12 2.60
  80  0.651  0.145  0.665-  77 1.54  58 1.54 105 1.54  30 2.52
  81  0.894  0.116  0.765-  78 1.54  59 1.54 100 1.54
  82  0.694  0.316  0.565-  58 1.54 107 1.54  30 2.47
  83  0.937  0.288  0.665-  59 1.54  61 1.54 108 1.54
  84  0.180  0.259  0.765-  60 1.54  62 1.54 103 1.54
  85  0.980  0.459  0.565-  61 1.54 110 1.54  27 2.45
  86  0.223  0.431  0.665-  62 1.54  64 1.54 111 1.54  18 2.41
  87  0.466  0.402  0.765-  63 1.54  65 1.54 106 1.54  22 2.14
  88  0.266  0.602  0.565-  64 1.54 113 1.54
  89  0.508  0.573  0.665-  65 1.54  67 1.54 114 1.54
  90  0.751  0.545  0.765-  66 1.54  68 1.54 109 1.54
  91  0.551  0.745  0.565-  67 1.54 116 1.54   6 2.33
  92  0.794  0.716  0.665-  68 1.54  70 1.54 117 1.54
  93  0.037  0.688  0.765-  69 1.54  71 1.54 112 1.54   1 2.00
  94  0.837  0.888  0.565-  70 1.54 119 1.54  33 2.28
  95  0.080  0.859  0.665-  73 1.54  71 1.54 120 1.54
  96  0.323  0.831  0.765-  74 1.54  72 1.54 115 1.54
  97  0.123  0.031  0.565-  73 1.54 101 1.54  12 2.14
  98  0.366  0.002  0.665-  74 1.54  76 1.54 102 1.54
  99  0.608  0.973  0.765-  75 1.54  77 1.54 118 1.54  16 2.51
 100  0.958  0.123  0.615-  40 1.54  38 1.54  81 1.54
 101  0.201  0.095  0.715-  41 1.54  39 1.54  97 1.54
 102  0.444  0.066  0.815-  42 1.54  98 1.54  25 1.75
 103  0.244  0.266  0.615-  43 1.54  41 1.54  84 1.54
 104  0.487  0.238  0.715-  44 1.54  42 1.54  79 1.54
 105  0.730  0.209  0.815-  45 1.54  80 1.54
 106  0.530  0.409  0.615-  46 1.54  44 1.54  87 1.54
 107  0.773  0.381  0.715-  47 1.54  45 1.54  82 1.54
 108  0.016  0.352  0.815-  48 1.54  83 1.54   4 1.58
 109  0.816  0.552  0.615-  49 1.54  47 1.54  90 1.54  36 2.35
 110  0.058  0.523  0.715-  50 1.54  48 1.54  85 1.54
 111  0.301  0.495  0.815-  51 1.54  86 1.54
 112  0.101  0.695  0.615-  52 1.54  50 1.54  93 1.54
 113  0.344  0.666  0.715-  51 1.54  53 1.54  88 1.54
 114  0.587  0.638  0.815-  54 1.54  89 1.54  10 2.17  22 2.48
 115  0.387  0.838  0.615-  55 1.54  53 1.54  96 1.54
 116  0.630  0.809  0.715-  56 1.54  54 1.54  91 1.54
 117  0.873  0.781  0.815-  57 1.54  92 1.54
 118  0.673  0.981  0.615-  37 1.54  56 1.54  99 1.54
 119  0.916  0.952  0.715-  38 1.54  57 1.54  94 1.54   7 2.45
 120  0.158  0.923  0.815-  39 1.54  95 1.54  28 2.50
 
  LATTYP: Found a base centered orthorhombic cell.
 ALAT       =    13.3031797203
 B/A-ratio  =     2.2360679556
 C/A-ratio  =     0.6009653116
  
  Lattice vectors:
  
 A1 = (  16.2930011750,   0.0000000000,   0.0000000000)
 A2 = ( -10.8620004650,  12.1440858840,   0.0000000000)
 A3 = (   0.0000000000,   0.0000000000,   7.9947495460)


Analysis of symmetry for initial positions (statically):
=====================================================================
 Subroutine PRICEL returns following result:
 
  LATTYP: Found a simple orthorhombic cell.
 ALAT       =     6.6515894610
 B/A-ratio  =     1.2019306953
 C/A-ratio  =     2.2360682239
  
  Lattice vectors:
  
 A1 = (  -2.7155010067,  -6.0720422134,   0.0000000000)
 A2 = (   0.0000000000,   0.0000000000,   7.9947495460)
 A3 = ( -13.5775014717,   6.0720436706,   0.0000000000)
 
   2 primitive cells build up your supercell.
 

 Routine SETGRP: Setting up the symmetry group for a 
 base centered orthorhombic supercell.


 Subroutine GETGRP returns: Found  1 space group operations
 (whereof  1 operations were pure point group operations)
 out of a pool of  8 trial point group operations.


The static configuration has the point symmetry C_1 .


Analysis of symmetry for dynamics (positions and initial velocities):
=====================================================================
 Subroutine PRICEL returns following result:
 
  LATTYP: Found a simple orthorhombic cell.
 ALAT       =     6.6515894610
 B/A-ratio  =     1.2019306953
 C/A-ratio  =     2.2360682239
  
  Lattice vectors:
  
 A1 = (  -2.7155010067,  -6.0720422134,   0.0000000000)
 A2 = (   0.0000000000,   0.0000000000,   7.9947495460)
 A3 = ( -13.5775014717,   6.0720436706,   0.0000000000)
 
   2 primitive cells build up your supercell.
 

 Routine SETGRP: Setting up the symmetry group for a 
 base centered orthorhombic supercell.


 Subroutine GETGRP returns: Found  1 space group operations
 (whereof  1 operations were pure point group operations)
 out of a pool of  8 trial point group operations.


The dynamic configuration has the point symmetry C_1 .


Analysis of structural, dynamic, and magnetic symmetry:
=====================================================================
 Subroutine PRICEL returns following result:
 
  LATTYP: Found a simple orthorhombic cell.
 ALAT       =     6.6515894610
 B/A-ratio  =     1.2019306953
 C/A-ratio  =     2.2360682239
  
  Lattice vectors:
  
 A1 = (  -2.7155010067,  -6.0720422134,   0.0000000000)
 A2 = (   0.0000000000,   0.0000000000,   7.9947495460)
 A3 = ( -13.5775014717,   6.0720436706,   0.0000000000)
 
   2 primitive cells build up your supercell.
 

 Routine SETGRP: Setting up the symmetry group for a 
 base centered orthorhombic supercell.


 Subroutine GETGRP returns: Found  1 space group operations
 (whereof  1 operations were pure point group operations)
 out of a pool of  8 trial point group operations.


The overall configuration has the point symmetry C_1 .


 Subroutine INISYM returns: Found  1 space group operations
 (whereof  1 operations are pure point group operations),
 and found     2 'primitive' translations


----------------------------------------------------------------------------------------

                                     Primitive cell                                     

  volume of cell :     790.9350

  direct lattice vectors                    reciprocal lattice vectors
    -2.715501007 -6.072042213  0.000000000    -0.061376054 -0.137241019  0.000000000
     0.000000000  0.000000000  7.994749546     0.000000000  0.000000000  0.125082092
   -13.577501472  6.072043671  0.000000000    -0.061376039  0.027448211  0.000000000

  length of vectors
     6.651589461  7.994749546 14.873407833     0.150340006  0.125082092  0.067234087

  position of ions in fractional coordinates (direct lattice)
     0.376069130  0.000000002  0.658119618
     0.876069363  0.151900828  0.558119539
     0.376069565  0.303801656  0.458119551
     0.709402473  0.000000002  0.324786275
     0.209402795  0.151900828  0.224786107
     0.709402849  0.303801656  0.124786327
     0.042735757  0.000000002  0.991452991
     0.542735959  0.151900828  0.891452883
     0.042736252  0.303801656  0.791452864
     0.709402545  0.075950257  0.024786131
     0.209402449  0.227851093  0.924786441
     0.709402473  0.379751921  0.824786513
     0.042735784  0.075950272  0.691452862
     0.542735941  0.227851093  0.591452949
     0.042736130  0.379751921  0.491452826
     0.376069098  0.075950272  0.358119548
     0.876069225  0.227851093  0.258119605
     0.376069384  0.379751921  0.158119572
     0.132425693  0.565175176  0.336463543
     0.918139814  0.664935827  0.065034748
     0.703853935  0.764696479  0.793606073
     0.703854197  0.565175176  0.193606263
     0.489568258  0.664935827  0.922177648
     0.275282737  0.764696479  0.650748853
     0.275282641  0.565175176  0.050749283
     0.060996940  0.664935827  0.779320548
     0.846711178  0.764696479  0.507891754
     0.846711322  0.565175176  0.907892064
     0.632425503  0.664935827  0.636463329
     0.418139624  0.764696479  0.365034414
     0.418139826  0.565175176  0.765034904
     0.203854066  0.664935827  0.493606108
     0.989568305  0.764696479  0.222177433
     0.989568389  0.565175176  0.622177683
     0.775282539  0.664935827  0.350748979
     0.560996868  0.764696479  0.079320334
     0.560996892  0.565175176  0.479320644
     0.346711251  0.664935827  0.207891849
     0.132425491  0.764696479  0.936463293
     0.203854310  0.615055442  0.593606246
     0.989568431  0.714816093  0.322177451
     0.775282611  0.814576745  0.050748835
     0.775282873  0.615055442  0.450749385
     0.560997202  0.714816093  0.179320620
     0.346710994  0.814576745  0.907891796
     0.346711377  0.615055442  0.307892105
     0.132425496  0.714816093  0.036463430
     0.918139915  0.814576745  0.765034695
     0.918139820  0.615055442  0.165034886
     0.703854119  0.714816093  0.893606151
     0.489568181  0.814576745  0.622177535
     0.489568562  0.615055442  0.022177964
     0.275282682  0.714816093  0.750749170
     0.060997101  0.814576745  0.479320435
     0.060997064  0.615055442  0.879320566
     0.846711155  0.714816093  0.607891921
     0.632425545  0.814576626  0.336463215
     0.632425747  0.615055442  0.736463705
     0.418140047  0.714816093  0.465034849
     0.203854286  0.814576626  0.193606174

  ion indices of the primitive-cell ions
   primitive index   ion index
                 1           1
                 2          26
                 3          27
                 4           4
                 5          20
                 6           6
                 7           7
                 8           8
                 9          24
                10          10
                11          35
                12          36
                13          28
                14          29
                15          15
                16          31
                17          17
                18          18
                19          88
                20          38
                21          90
                22          40
                23          92
                24          93
                25          94
                26          95
                27          45
                28          46
                29          47
                30          48
                31          49
                32          50
                33          51
                34          52
                35          83
                36          54
                37          85
                38          86
                39          57
                40         112
                41         113
                42         114
                43          61
                44          62
                45         117
                46          64
                47         119
                48         120
                49          67
                50          68
                51          69
                52          70
                53          71
                54          72
                55          73
                56         107
                57         108
                58         109
                59         110
                60         111

----------------------------------------------------------------------------------------

 
 
 KPOINTS: Automatic KPOINTS generated             

Automatic generation of k-mesh.
 Grid dimensions read from file:
 generate k-points for:    3    3    4

 Generating k-lattice:

  Cartesian coordinates                     Fractional coordinates (reciprocal lattice)
     0.020458682  0.018298801  0.000000000     0.333333333  0.000000000  0.000000000
     0.000000000  0.027448203  0.000000000     0.000000000  0.333333333  0.000000000
     0.000000000  0.000000000  0.031270523     0.000000000  0.000000000  0.250000000

  Length of vectors
     0.027448202  0.027448203  0.031270523

  Shift w.r.t. Gamma in fractional coordinates (k-lattice)
     0.000000000  0.000000000  0.000000000

 
 Subroutine IBZKPT returns following result:
 ===========================================
 
 Found     19 irreducible k-points:
 
 Following reciprocal coordinates:
            Coordinates               Weight
  0.000000  0.000000  0.000000      1.000000
  0.333333 -0.000000  0.000000      2.000000
  0.000000  0.333333  0.000000      2.000000
  0.333333  0.333333  0.000000      2.000000
 -0.333333  0.333333  0.000000      2.000000
  0.000000  0.000000  0.250000      2.000000
  0.333333 -0.000000  0.250000      2.000000
 -0.333333  0.000000  0.250000      2.000000
  0.000000  0.333333 -0.250000      2.000000
  0.000000 -0.333333 -0.250000      2.000000
  0.333333  0.333333  0.250000      2.000000
 -0.333333 -0.333333  0.250000      2.000000
 -0.333333  0.333333  0.250000      2.000000
  0.333333 -0.333333  0.250000      2.000000
  0.000000  0.000000  0.500000      1.000000
  0.333333 -0.000000  0.500000      2.000000
  0.000000  0.333333  0.500000      2.000000
  0.333333  0.333333  0.500000      2.000000
 -0.333333  0.333333  0.500000      2.000000
 
 Following cartesian coordinates:
            Coordinates               Weight
  0.000000  0.000000  0.000000      1.000000
  0.020459  0.018299  0.000000      2.000000
  0.000000  0.027448  0.000000      2.000000
  0.020459  0.045747  0.000000      2.000000
 -0.020459  0.009149  0.000000      2.000000
  0.000000  0.000000  0.031271      2.000000
  0.020459  0.018299  0.031271      2.000000
 -0.020459 -0.018299  0.031271      2.000000
  0.000000  0.027448 -0.031271      2.000000
  0.000000 -0.027448 -0.031271      2.000000
  0.020459  0.045747  0.031271      2.000000
 -0.020459 -0.045747  0.031271      2.000000
 -0.020459  0.009149  0.031271      2.000000
  0.020459 -0.009149  0.031271      2.000000
  0.000000  0.000000  0.062541      1.000000
  0.020459  0.018299  0.062541      2.000000
  0.000000  0.027448  0.062541      2.000000
  0.020459  0.045747  0.062541      2.000000
 -0.020459  0.009149  0.062541      2.000000
 


--------------------------------------------------------------------------------------------------------




 Dimension of arrays:
   k-points           NKPTS =     19   k-points in BZ     NKDIM =     19   number of bands    NBANDS=    288
   number of dos      NEDOS =    301   number of ions     NIONS =    120
   non local maximal  LDIM  =      4   non local SUM 2l+1 LMDIM =      8
   total plane-waves  NPLWV = 629856
   max r-space proj   IRMAX =   2121   max aug-charges    IRDMAX= 106690
   dimension x,y,z NGX =   108 NGY =  108 NGZ =   54
   dimension x,y,z NGXF=   216 NGYF=  216 NGZF=  108
   support grid    NGXF=   432 NGYF=  432 NGZF=  216
   ions per type =              36  84
   NGX,Y,Z   is equivalent  to a cutoff of  11.02, 11.02, 11.23 a.u.
   NGXF,Y,Z  is equivalent  to a cutoff of  22.04, 22.04, 22.46 a.u.

 SYSTEM =  Si and Ge interface calculation         
 POSCAR =  Si+C                                    

 Startparameter for this run:
   NWRITE =      2    write-flag & timer
   PREC   = normal    normal or accurate (medium, high low for compatibility)
   ISTART =      0    job   : 0-new  1-cont  2-samecut
   ICHARG =      2    charge: 1-file 2-atom 10-const
   ISPIN  =      2    spin polarized calculation?
   LNONCOLLINEAR =      F non collinear calculations
   LSORBIT =      F    spin-orbit coupling
   INIWAV =      1    electr: 0-lowe 1-rand  2-diag
   LASPH  =      T    aspherical Exc in radial PAW
 Electronic Relaxation 1
   ENCUT  =  700.0 eV  51.45 Ry    7.17 a.u.  35.15 35.15 17.25*2*pi/ulx,y,z
   ENINI  =  700.0     initial cutoff
   ENAUG  =  900.0 eV  augmentation charge cutoff
   NELM   =    100;   NELMIN=  2; NELMDL= -5     # of ELM steps 
   EDIFF  = 0.1E-06   stopping-criterion for ELM
   LREAL  =      T    real-space projection
   NLSPLINE    = F    spline interpolate recip. space projectors
   LCOMPAT=      F    compatible to vasp.4.4
   GGA_COMPAT  = T    GGA compatible to vasp.4.4-vasp.4.6
   LMAXPAW     = -100 max onsite density
   LMAXMIX     =    6 max onsite mixed and CHGCAR
   VOSKOWN=      0    Vosko Wilk Nusair interpolation
   ROPT   =   -0.00050  -0.00050
 Ionic relaxation
   EDIFFG = 0.1E-05   stopping-criterion for IOM
   NSW    =      0    number of steps for IOM
   NBLOCK =      1;   KBLOCK =      1    inner block; outer block 
   IBRION =     -1    ionic relax: 0-MD 1-quasi-New 2-CG
   NFREE  =      0    steps in history (QN), initial steepest desc. (CG)
   ISIF   =      2    stress and relaxation
   IWAVPR =     10    prediction:  0-non 1-charg 2-wave 3-comb
   ISYM   =      2    0-nonsym 1-usesym 2-fastsym
   LCORR  =      T    Harris-Foulkes like correction to forces

   POTIM  = 0.5000    time-step for ionic-motion
   TEIN   =    0.0    initial temperature
   TEBEG  =    0.0;   TEEND  =   0.0 temperature during run
   SMASS  =  -3.00    Nose mass-parameter (am)
   estimated Nose-frequenzy (Omega)   =  0.10E-29 period in steps = 0.13E+47 mass=  -0.607E-26a.u.
   SCALEE = 1.0000    scale energy and forces
   NPACO  =    256;   APACO  = 10.0  distance and # of slots for P.C.
   PSTRESS=    0.0 pullay stress

  Mass of Ions in am
   POMASS =  28.09 12.01
  Ionic Valenz
   ZVAL   =   4.00  4.00
  Atomic Wigner-Seitz radii
   RWIGS  =  -1.00 -1.00
  virtual crystal weights 
   VCA    =   1.00  1.00
   NELECT =     480.0000    total number of electrons
   NUPDOWN=       1.0000    fix difference up-down

 DOS related values:
   EMIN   =  10.00;   EMAX   =-10.00  energy-range for DOS
   EFERMI =   0.00;   METHOD = LEGACY      
   ISMEAR =     0;   SIGMA  =   0.01  broadening in eV -4-tet -1-fermi 0-gaus

 Electronic relaxation 2 (details)
   IALGO  =     38    algorithm
   LDIAG  =      T    sub-space diagonalisation (order eigenvalues)
   LSUBROT=      F    optimize rotation matrix (better conditioning)
   TURBO    =      0    0=normal 1=particle mesh
   IRESTART =      0    0=no restart 2=restart with 2 vectors
   NREBOOT  =      0    no. of reboots
   NMIN     =      0    reboot dimension
   EREF     =   0.00    reference energy to select bands
   IMIX   =      4    mixing-type and parameters
     AMIX     =   0.60;   BMIX     =  1.00
     AMIX_MAG =   2.40;   BMIX_MAG =  1.00
     AMIN     =   0.10
     WC   =   100.;   INIMIX=   1;  MIXPRE=   1;  MAXMIX= -45

 Intra band minimization:
   WEIMIN = 0.0000     energy-eigenvalue tresh-hold
   EBREAK =  0.87E-10  absolut break condition
   DEPER  =   0.30     relativ break condition  

   TIME   =   0.40     timestep for ELM

  volume/ion in A,a.u.               =      13.18        88.96
  Fermi-wavevector in a.u.,A,eV,Ry     =   1.100099  2.078885 16.466004  1.210217
  Thomas-Fermi vector in A             =   2.236504
 
 Write flags
   LWAVE        =      F    write WAVECAR
   LDOWNSAMPLE  =      F    k-point downsampling of WAVECAR
   LCHARG       =      T    write CHGCAR
   LVTOT        =      F    write LOCPOT, total local potential
   LVHAR        =      T    write LOCPOT, Hartree potential only
   WRT_POTENTIAL=  hartree ionic  ! write potential to hdf5 file
   LELF         =      F    write electronic localiz. function (ELF)
   LORBIT       =      0    0 simple, 1 ext, 2 COOP (PROOUT), +10 PAW based schemes


 Dipole corrections
   LMONO      =      F    monopole corrections only (constant potential shift)
   LDIPOL     =      F    correct potential (dipole corrections)
   IDIPOL     =      0    1-x, 2-y, 3-z, 4-all directions 
   EPSILON    =  1.0000000 bulk dielectric constant
   LVACPOTAV  =      F  vacuum potentials using an averaging scheme for the charge density
   VACPOTFLAT =  0.1000000 required flatness to determine vacuum potential
 Exchange correlation treatment:
   GGA     = PE    functional components
   XC_C    = 1    coefficients multiplying the functional components
   LIBXC   =     F    Libxc                    
   VOSKOWN =     0    Vosko Wilk Nusair interpolation
   LHFCALC =     F    Hartree Fock is set to
   LHFONE  =     F    Hartree Fock one center treatment
   AEXX    =    0.0000 exact exchange contribution

 Parameters of functionals:
   PE:
     No parameter
 
 Van der Waals corrections
   IVDW    =     0    specifies the selected vdW correction

 Linear response parameters
   LEPSILON=     F    determine dielectric tensor
   LRPA    =     F    only Hartree local field effects (RPA)
   LNABLA  =     F    use nabla operator in PAW spheres
   LVEL    =     F    velocity operator in full k-point grid
   CSHIFT  =0.1000    complex shift for real part using Kramers Kronig
   OMEGAMAX=  -1.0    maximum frequency
   DEG_THRESHOLD= 0.2000000E-02 threshold for treating states as degnerate
   RTIME   =   -0.100 relaxation time in fs
  (WPLASMAI=    0.000 imaginary part of plasma frequency in eV, 0.658/RTIME)
   DFIELD  = 0.0000000 0.0000000 0.0000000 field for delta impulse in time
 
  Optional k-point grid parameters
   LKPOINTS_OPT  =     F    use optional k-point grid
   KPOINTS_OPT_MODE=     1    mode for optional k-point grid
 
 Orbital magnetization related:
   ORBITALMAG=     F  switch on orbital magnetization
   LCHIMAG   =     F  perturbation theory with respect to B field
   DQ        =  0.001000  dq finite difference perturbation B field
   LLRAUG    =     F  two centre corrections for induced B field
   LBONE     =     F  B-component reconstruction in AE one-centre
   LVGVCALC  =     T  calculate vGv susceptibility
   LVGVAPPL  =     F  apply vGv susceptibility instead of pGv for G=0

 Random number generation:
   RANDOM_GENERATOR = DEFAULT
   PCG_SEED         = not used


--------------------------------------------------------------------------------------------------------


 Static calculation
 charge density and potential will be updated during run
 spin polarized calculation
 Variant of blocked Davidson
 Davidson routine will perform the subspace rotation
 perform sub-space diagonalisation
    after iterative eigenvector-optimisation
 modified Broyden-mixing scheme, WC =      100.0
 initial mixing is a Kerker type mixing with AMIX =  0.6000 and BMIX =      1.0000
 Hartree-type preconditioning will be used
 using additional bands           48
 real space projection scheme for non local part
 use partial core corrections
 calculate Harris-corrections to forces 
   (improved forces if not selfconsistent)
 use gradient corrections 
 use of overlap-Matrix (Vanderbilt PP)
 Gauss-broadening in eV      SIGMA  =   0.01


--------------------------------------------------------------------------------------------------------


  energy-cutoff  :      700.00
  volume of cell :     1581.87
      direct lattice vectors                 reciprocal lattice vectors
    16.293001175  0.000000000  0.000000000     0.061376047  0.054896404  0.000000000
   -10.862000465 12.144085884  0.000000000     0.000000000  0.082344609  0.000000000
     0.000000000  0.000000000  7.994749546     0.000000000  0.000000000  0.125082092

  length of vectors
    16.293001175 16.293000830  7.994749546     0.082344607  0.082344609  0.125082092


 
 k-points in units of 2pi/SCALE and weight: Automatic KPOINTS generated             
   0.00000000  0.00000000  0.00000000       0.028
   0.02045868  0.01829880  0.00000000       0.056
   0.00000000  0.02744820  0.00000000       0.056
   0.02045868  0.04574700  0.00000000       0.056
  -0.02045868  0.00914940  0.00000000       0.056
   0.00000000  0.00000000  0.03127052       0.056
   0.02045868  0.01829880  0.03127052       0.056
  -0.02045868 -0.01829880  0.03127052       0.056
   0.00000000  0.02744820 -0.03127052       0.056
   0.00000000 -0.02744820 -0.03127052       0.056
   0.02045868  0.04574700  0.03127052       0.056
  -0.02045868 -0.04574700  0.03127052       0.056
  -0.02045868  0.00914940  0.03127052       0.056
   0.02045868 -0.00914940  0.03127052       0.056
   0.00000000  0.00000000  0.06254105       0.028
   0.02045868  0.01829880  0.06254105       0.056
   0.00000000  0.02744820  0.06254105       0.056
   0.02045868  0.04574700  0.06254105       0.056
  -0.02045868  0.00914940  0.06254105       0.056
 
 k-points in reciprocal lattice and weights: Automatic KPOINTS generated             
   0.00000000  0.00000000  0.00000000       0.028
   0.33333333 -0.00000000  0.00000000       0.056
   0.00000000  0.33333333  0.00000000       0.056
   0.33333333  0.33333333  0.00000000       0.056
  -0.33333333  0.33333333  0.00000000       0.056
   0.00000000  0.00000000  0.25000000       0.056
   0.33333333 -0.00000000  0.25000000       0.056
  -0.33333333  0.00000000  0.25000000       0.056
   0.00000000  0.33333333 -0.25000000       0.056
   0.00000000 -0.33333333 -0.25000000       0.056
   0.33333333  0.33333333  0.25000000       0.056
  -0.33333333 -0.33333333  0.25000000       0.056
  -0.33333333  0.33333333  0.25000000       0.056
   0.33333333 -0.33333333  0.25000000       0.056
   0.00000000  0.00000000  0.50000000       0.028
   0.33333333 -0.00000000  0.50000000       0.056
   0.00000000  0.33333333  0.50000000       0.056
   0.33333333  0.33333333  0.50000000       0.056
  -0.33333333  0.33333333  0.50000000       0.056
 
 position of ions in fractional coordinates (direct lattice) 
   0.98290563  0.64102513  0.00000000
   0.78290558  0.34102503  0.15190083
   0.58290541  0.04102494  0.30380166
   0.98290563  0.30769178  0.00000000
   0.78290558  0.00769171  0.15190083
   0.58290541  0.70769167  0.30380166
   0.98290563  0.97435850  0.00000000
   0.78290558  0.67435837  0.15190083
   0.58290541  0.37435830  0.30380166
   0.63290566  0.65769172  0.07595026
   0.43290559  0.35769162  0.22785109
   0.23290552  0.05769158  0.37975192
   0.63290566  0.32435846  0.07595026
   0.43290559  0.02435837  0.22785109
   0.23290552  0.72435832  0.37975192
   0.63290566  0.99102521  0.07595026
   0.43290559  0.69102514  0.22785109
   0.23290552  0.39102507  0.37975192
   0.48290563  0.80769175  0.00000000
   0.28290555  0.50769162  0.15190083
   0.08290544  0.20769161  0.30380166
   0.48290563  0.47435844  0.00000000
   0.28290555  0.17435835  0.15190083
   0.08290544  0.87435830  0.30380166
   0.48290563  0.14102514  0.00000000
   0.28290555  0.84102505  0.15190083
   0.08290544  0.54102498  0.30380166
   0.13290568  0.82435852  0.07595027
   0.93290555  0.52435839  0.22785109
   0.73290551  0.22435838  0.37975192
   0.13290568  0.49102521  0.07595027
   0.93290555  0.19102511  0.22785109
   0.73290551  0.89102513  0.37975192
   0.13290568  0.15769196  0.07595027
   0.93290555  0.85769188  0.22785109
   0.73290551  0.55769193  0.37975192
   0.76555550  0.10201883  0.56517518
   0.00841272  0.07344747  0.66493583
   0.25126994  0.04487586  0.76469648
   0.05126977  0.24487603  0.56517518
   0.29412699  0.21630454  0.66493583
   0.53698421  0.18773307  0.76469648
   0.33698392  0.38773313  0.56517518
   0.57984126  0.35916165  0.66493583
   0.82269853  0.33059019  0.76469648
   0.62269831  0.53059030  0.56517518
   0.86555558  0.50201881  0.66493583
   0.10841298  0.47344738  0.76469648
   0.90841263  0.67344743  0.56517518
   0.15126991  0.64487600  0.66493583
   0.39412713  0.61630452  0.76469648
   0.19412696  0.81630462  0.56517518
   0.43698418  0.78773314  0.66493583
   0.67984140  0.75916165  0.76469648
   0.47984123  0.95916176  0.56517518
   0.72269845  0.93059021  0.66493583
   0.96555561  0.90201879  0.76469648
   0.60126972  0.19487603  0.61505544
   0.84412700  0.16630456  0.71481609
   0.08698416  0.13773304  0.81457663
   0.88698387  0.33773315  0.61505544
   0.12984109  0.30916169  0.71481609
   0.37269831  0.28059018  0.81457674
   0.17269826  0.48059034  0.61505544
   0.41555548  0.45201886  0.71481609
   0.65841270  0.42344737  0.81457674
   0.45841265  0.62344748  0.61505544
   0.70126987  0.59487593  0.71481609
   0.94412714  0.56630456  0.81457674
   0.74412674  0.76630461  0.61505544
   0.98698407  0.73773313  0.71481609
   0.22984123  0.70916164  0.81457674
   0.02984119  0.90916175  0.61505544
   0.27269840  0.88059020  0.71481609
   0.51555562  0.85201877  0.81457663
   0.31555533  0.05201888  0.61505544
   0.55841255  0.02344739  0.71481609
   0.80126983  0.99487591  0.81457663
   0.40841270  0.17344748  0.56517518
   0.65126991  0.14487597  0.66493583
   0.89412719  0.11630455  0.76469648
   0.69412708  0.31630462  0.56517518
   0.93698424  0.28773311  0.66493583
   0.17984128  0.25916162  0.76469648
   0.97984123  0.45916176  0.56517518
   0.22269845  0.43059027  0.66493583
   0.46555567  0.40201879  0.76469648
   0.26555538  0.60201889  0.56517518
   0.50841272  0.57344741  0.66493583
   0.75127000  0.54487598  0.76469648
   0.55126977  0.74487603  0.56517518
   0.79412705  0.71630460  0.66493583
   0.03698421  0.68773305  0.76469648
   0.83698404  0.88773322  0.56517518
   0.07984126  0.85916179  0.66493583
   0.32269859  0.83059031  0.76469648
   0.12269831  0.03059030  0.56517518
   0.36555552  0.00201893  0.66493583
   0.60841286  0.97344744  0.76469648
   0.95841265  0.12344746  0.61505544
   0.20126987  0.09487593  0.71481609
   0.44412720  0.06630445  0.81457674
   0.24412680  0.26630461  0.61505544
   0.48698401  0.23773311  0.71481609
   0.72984123  0.20916167  0.81457663
   0.52984106  0.40916172  0.61505544
   0.77269846  0.38059029  0.71481609
   0.01555562  0.35201883  0.81457663
   0.81555527  0.55201888  0.61505544
   0.05841255  0.52344739  0.71481609
   0.30126977  0.49487591  0.81457663
   0.10126972  0.69487596  0.61505544
   0.34412706  0.66630447  0.71481609
   0.58698428  0.63773304  0.81457674
   0.38698411  0.83773315  0.61505544
   0.62984133  0.80916166  0.71481609
   0.87269860  0.78059030  0.81457674
   0.67269826  0.98059028  0.61505544
   0.91555554  0.95201886  0.71481609
   0.15841270  0.92344737  0.81457674
 
 position of ions in cartesian coordinates  (Angst):
   9.05166730  7.78466418  0.00000002
   9.05166754  4.14143719  1.21440908
   9.05166570  0.49821033  2.42881815
  12.67233423  3.73663544  0.00000002
  12.67233411  0.09340885  1.21440908
   1.81033132  8.59426841  2.42881815
   5.43100005 11.83269329  0.00000002
   5.43100061  8.18946594  1.21440908
   5.43099858  4.54623930  2.42881815
   3.16808496  7.98706470  0.60720328
   3.16808471  4.34383770  1.82161242
   3.16808400  0.70061148  3.03602150
   6.78875092  3.93903703  0.60720328
   6.78875059  0.29581013  1.82161242
  -4.07325047  8.79666965  3.03602150
  -0.45258359 12.03509525  0.60720328
  -0.45258417  8.39186862  1.82161242
  -0.45258451  4.74864198  3.03602150
  -0.90516626  9.80867802  0.00000000
  -0.90516619  6.16545066  1.21440908
  -0.90516790  2.52222475  2.42881815
   2.71550035  5.76064962  0.00000000
   2.71549993  2.11742281  1.21440908
  -8.14650175 10.61828224  2.42881815
   6.33616678  1.71262142  0.00000000
  -4.52583409 10.21348049  1.21440908
  -4.52583515  6.57025386  2.42881815
  -6.78875031 10.01108070  0.60720340
   9.50425021  6.36785335  1.82161242
   9.50424946  2.72462744  3.03602150
  -3.16808370  5.96305231  0.60720340
  13.12491649  2.31982532  1.82161242
   2.26291495 10.82068565  3.03602150
   0.45258225  1.91502466  0.60720340
   5.88358166 10.41588390  1.82161242
   5.88358026  6.77265872  3.03602150
  11.36506807  1.23892547  4.51843398
  -0.66071797  0.89195234  5.31599540
   3.60649977  0.54497630  6.11355683
  -1.82450510  2.97379550  4.51843398
   2.44271132  2.62682092  5.31599540
   6.70992760  2.27984651  6.11355683
   1.27892193  4.70866446  4.51843398
   5.54614031  4.36168986  5.31599540
   9.81335739  4.01471565  6.11355683
   4.38235221  6.44353412  4.51843398
   8.64956961  6.09655953  5.31599540
  -3.37621286  5.74958567  6.11355683
   7.48578183  8.17840343  4.51843398
  -4.54000257  7.83142956  5.31599540
  -0.27278614  7.48445499  6.11355683
  -5.70379035  9.91327346  4.51843398
  -1.43657394  9.56629888  5.31599540
   2.83064251  9.21932429  6.11355683
  -2.60036170 11.64814277  4.51843398
   1.66685538 11.30116746  5.31599540
   5.93407019 10.95419359  6.11355683
   7.67974476  2.36659125  4.91721422
  11.94696199  2.01961685  5.71477563
  -0.07882338  1.67264189  6.51233611
  10.78317162  4.10146038  4.91721422
  -1.24261344  3.75448615  5.71477563
   3.02460332  3.40751121  6.51233706
  -2.40639959  5.83633040  4.91721422
   1.86081684  5.48935582  5.71477563
   6.12803327  5.14238124  6.51233706
   0.69703100  7.57119972  4.91721422
   4.96424808  7.22422441  5.71477563
   9.23146420  6.87725126  6.51233706
   3.80045675  9.30606902  4.91721422
   8.06767512  8.95909444  5.71477563
  -3.95811059  8.61211985  6.51233706
  -9.38911286 11.04093834  4.91721422
  -5.12189578 10.69396302  5.71477563
  -0.85468000 10.34698917  6.51233611
   4.57631432  0.63172176  4.91721422
   8.84353076  0.28474717  5.71477563
   2.24874769 12.08185847  6.51233611
   4.77028197  2.10636103  4.51843398
   9.03749857  1.75938626  5.31599540
  13.30471531  1.41241241  6.11355683
   7.87371241  3.84123052  4.51843398
  12.14092819  3.49425558  5.31599540
   0.11514054  3.14728098  6.11355683
  10.97713912  5.57609982  4.51843398
  -1.04864563  5.22912524  5.31599540
   3.21857082  4.88215065  6.11355683
  -2.21243534  7.31096914  4.51843398
   2.05478304  6.96399455  5.31599540
   6.32199979  6.61702069  6.11355683
   0.89099526  9.04583844  4.51843398
   5.15821201  8.69886458  5.31599540
  -6.86757306  8.35188927  6.11355683
   3.99442326 10.78070848  4.51843398
  -8.03136213 10.43373461  5.31599540
  -3.76414376 10.08676003  6.11355683
   1.66685185  0.37149118  4.51843398
   5.93406699  0.02451805  5.31599540
  -0.66071509 11.82162934  6.11355683
  14.27453198  1.49915659  4.91721422
   2.24874773  1.15218147  5.71477563
   6.51596611  0.80520687  6.51233706
   1.08495737  3.23402608  4.91721422
   5.35217397  2.88705132  5.71477563
   9.61938990  2.54007727  6.51233611
   4.18838633  4.96889503  4.91721422
   8.45560504  4.62192117  5.71477563
  -3.57018099  4.27494694  6.51233611
   7.29181370  6.70376470  4.91721422
  -4.73397006  6.35679011  5.71477563
  -0.46675363  6.00981553  6.51233611
  -5.89775526  8.43863329  4.91721422
  -1.63053688  8.09165870  5.71477563
   2.63667892  7.74468483  6.51233706
  -2.79432531 10.17350332  4.91721422
   1.47289114  9.82652873  5.71477563
   5.74010724  9.47955559  6.51233706
   0.30910140 11.90837263  4.91721422
   4.57631817 11.56139876  5.71477563
  -7.44946755 11.21442418  6.51233706
 


--------------------------------------------------------------------------------------------------------


 k-point     1 :   0.0000 0.0000 0.0000  plane waves:   66547
 k-point     2 :   0.3333-0.0000 0.0000  plane waves:   66521
 k-point     3 :   0.0000 0.3333 0.0000  plane waves:   66521
 k-point     4 :   0.3333 0.3333 0.0000  plane waves:   66551
 k-point     5 :  -0.3333 0.3333 0.0000  plane waves:   66504
 k-point     6 :   0.0000 0.0000 0.2500  plane waves:   66560
 k-point     7 :   0.3333-0.0000 0.2500  plane waves:   66504
 k-point     8 :  -0.3333 0.0000 0.2500  plane waves:   66504
 k-point     9 :   0.0000 0.3333-0.2500  plane waves:   66504
 k-point    10 :   0.0000-0.3333-0.2500  plane waves:   66504
 k-point    11 :   0.3333 0.3333 0.2500  plane waves:   66494
 k-point    12 :  -0.3333-0.3333 0.2500  plane waves:   66494
 k-point    13 :  -0.3333 0.3333 0.2500  plane waves:   66507
 k-point    14 :   0.3333-0.3333 0.2500  plane waves:   66507
 k-point    15 :   0.0000 0.0000 0.5000  plane waves:   66494
 k-point    16 :   0.3333-0.0000 0.5000  plane waves:   66548
 k-point    17 :   0.0000 0.3333 0.5000  plane waves:   66548
 k-point    18 :   0.3333 0.3333 0.5000  plane waves:   66500
 k-point    19 :  -0.3333 0.3333 0.5000  plane waves:   66554

 maximum and minimum number of plane-waves per node :      4205     4093

 maximum number of plane-waves:     66560
 maximum index in each direction: 
   IXMAX=   35   IYMAX=   35   IZMAX=   17
   IXMIN=  -35   IYMIN=  -35   IZMIN=  -17


 real space projection operators:
  total allocation   :      13353.38 KBytes
  max/ min on nodes  :        884.81        740.62


 parallel 3D FFT for wavefunctions:
    minimum data exchange during FFTs selected (reduces bandwidth)
 parallel 3D FFT for charge:
    minimum data exchange during FFTs selected (reduces bandwidth)


 total amount of memory used by VASP MPI-rank0   246070. kBytes
=======================================================================

   base      :      30000. kBytes
   nonlr-proj:       5359. kBytes
   fftplans  :      13312. kBytes
   grid      :      10865. kBytes
   one-center:         49. kBytes
   wavefun   :     186485. kBytes
 
     INWAV:  cpu time      0.0000: real time      0.0002
 Broyden mixing: mesh for mixing (old mesh)
   NGX = 71   NGY = 71   NGZ = 35
  (NGX  =216   NGY  =216   NGZ  =108)
  gives a total of 176435 points

 initial charge density was supplied:
 charge density of overlapping atoms calculated
 number of electron     480.0000000 magnetization       1.0000000
 keeping initial charge density in first step


--------------------------------------------------------------------------------------------------------


 Maximum index for non-local projection operator          183
 Maximum index for augmentation-charges         2267 (set IRDMAX)


--------------------------------------------------------------------------------------------------------


 First call to EWALD:  gamma=   0.152
 Maximum number of real-space cells 3x 3x 4
 Maximum number of reciprocal cells 4x 4x 2

    FEWALD:  cpu time      0.0037: real time      0.0037


--------------------------------------- Ionic step        1  -------------------------------------------




--------------------------------------- Iteration      1(   1)  ---------------------------------------


    POTLOK:  cpu time      0.1766: real time      0.1780
    SETDIJ:  cpu time      0.6242: real time      0.6272
     EDDAV:  cpu time     41.0334: real time     41.3643
       DOS:  cpu time      0.0041: real time      0.0041
    --------------------------------------------
      LOOP:  cpu time     41.8384: real time     42.1737

 eigenvalue-minimisations  : 21888
 total energy-change (2. order) : 0.2381102E+04  (-0.2555784E+05)
 number of electron     480.0000000 magnetization       1.0000000
 augmentation part      480.0000000 magnetization       1.0000000

 Free energy of the ion-electron system (eV)
  ---------------------------------------------------
  alpha Z        PSCENC =       615.38788919
  Ewald energy   TEWEN  =     -8774.17789371
  -Hartree energ DENC   =     -8329.36622893
  -exchange      EXHF   =         0.00000000
  -V(xc)+E(xc)   XCENC  =       737.99349517
  PAW double counting   =     12288.30765307   -11702.77953025
  entropy T*S    EENTRO =        -0.00104259
  eigenvalues    EBANDS =      1474.50750951
  atomic energy  EATOM  =     16071.23009607
  Solvation  Ediel_sol  =         0.00000000
  ---------------------------------------------------
  free energy    TOTEN  =      2381.10194753 eV

  energy without entropy =     2381.10299012  energy(sigma->0) =     2381.10246882


--------------------------------------------------------------------------------------------------------




--------------------------------------- Iteration      1(   2)  ---------------------------------------


     EDDAV:  cpu time     47.6718: real time     48.0592
       DOS:  cpu time      0.0032: real time      0.0032
    --------------------------------------------
      LOOP:  cpu time     47.6749: real time     48.0624

 eigenvalue-minimisations  : 26872
 total energy-change (2. order) :-0.2895369E+04  (-0.2764395E+04)
 number of electron     480.0000000 magnetization       1.0000000
 augmentation part      480.0000000 magnetization       1.0000000

 Free energy of the ion-electron system (eV)
  ---------------------------------------------------
  alpha Z        PSCENC =       615.38788919
  Ewald energy   TEWEN  =     -8774.17789371
  -Hartree energ DENC   =     -8329.36622893
  -exchange      EXHF   =         0.00000000
  -V(xc)+E(xc)   XCENC  =       737.99349517
  PAW double counting   =     12288.30765307   -11702.77953025
  entropy T*S    EENTRO =        -0.00179555
  eigenvalues    EBANDS =     -1420.86080292
  atomic energy  EATOM  =     16071.23009607
  Solvation  Ediel_sol  =         0.00000000
  ---------------------------------------------------
  free energy    TOTEN  =      -514.26711786 eV

  energy without entropy =     -514.26532231  energy(sigma->0) =     -514.26622008


--------------------------------------------------------------------------------------------------------




--------------------------------------- Iteration      1(   3)  ---------------------------------------


     EDDAV:  cpu time     48.1283: real time     48.5202
       DOS:  cpu time      0.0035: real time      0.0035
    --------------------------------------------
      LOOP:  cpu time     48.1318: real time     48.5237

 eigenvalue-minimisations  : 27176
 total energy-change (2. order) :-0.3121184E+03  (-0.2975190E+03)
 number of electron     480.0000000 magnetization       1.0000000
 augmentation part      480.0000000 magnetization       1.0000000

 Free energy of the ion-electron system (eV)
  ---------------------------------------------------
  alpha Z        PSCENC =       615.38788919
  Ewald energy   TEWEN  =     -8774.17789371
  -Hartree energ DENC   =     -8329.36622893
  -exchange      EXHF   =         0.00000000
  -V(xc)+E(xc)   XCENC  =       737.99349517
  PAW double counting   =     12288.30765307   -11702.77953025
  entropy T*S    EENTRO =        -0.00175175
  eigenvalues    EBANDS =     -1732.97924219
  atomic energy  EATOM  =     16071.23009607
  Solvation  Ediel_sol  =         0.00000000
  ---------------------------------------------------
  free energy    TOTEN  =      -826.38551334 eV

  energy without entropy =     -826.38376159  energy(sigma->0) =     -826.38463746


--------------------------------------------------------------------------------------------------------




--------------------------------------- Iteration      1(   4)  ---------------------------------------


     EDDAV:  cpu time     50.9005: real time     51.3428
       DOS:  cpu time      0.0033: real time      0.0033
    --------------------------------------------
      LOOP:  cpu time     50.9038: real time     51.3461

 eigenvalue-minimisations  : 29264
 total energy-change (2. order) :-0.1638108E+02  (-0.1579185E+02)
 number of electron     480.0000000 magnetization       1.0000000
 augmentation part      480.0000000 magnetization       1.0000000

 Free energy of the ion-electron system (eV)
  ---------------------------------------------------
  alpha Z        PSCENC =       615.38788919
  Ewald energy   TEWEN  =     -8774.17789371
  -Hartree energ DENC   =     -8329.36622893
  -exchange      EXHF   =         0.00000000
  -V(xc)+E(xc)   XCENC  =       737.99349517
  PAW double counting   =     12288.30765307   -11702.77953025
  entropy T*S    EENTRO =        -0.00173510
  eigenvalues    EBANDS =     -1749.36034356
  atomic energy  EATOM  =     16071.23009607
  Solvation  Ediel_sol  =         0.00000000
  ---------------------------------------------------
  free energy    TOTEN  =      -842.76659805 eV

  energy without entropy =     -842.76486296  energy(sigma->0) =     -842.76573050


--------------------------------------------------------------------------------------------------------




--------------------------------------- Iteration      1(   5)  ---------------------------------------


     EDDAV:  cpu time     53.9177: real time     54.3574
       DOS:  cpu time      0.0033: real time      0.0033
    CHARGE:  cpu time      1.8730: real time      1.8840
    MIXING:  cpu time      0.0043: real time      0.0043
    --------------------------------------------
      LOOP:  cpu time     55.7982: real time     56.2490

 eigenvalue-minimisations  : 31400
 total energy-change (2. order) :-0.8446455E+00  (-0.8315613E+00)
 number of electron     480.0000000 magnetization       1.0000000
 augmentation part       -0.8165679 magnetization       0.0184413

 Broyden mixing:
  rms(total) = 0.40654E+01    rms(broyden)= 0.40654E+01
  rms(prec ) = 0.52740E+01
  weight for this iteration     100.00

 Free energy of the ion-electron system (eV)
  ---------------------------------------------------
  alpha Z        PSCENC =       615.38788919
  Ewald energy   TEWEN  =     -8774.17789371
  -Hartree energ DENC   =     -8329.36622893
  -exchange      EXHF   =         0.00000000
  -V(xc)+E(xc)   XCENC  =       737.99349517
  PAW double counting   =     12288.30765307   -11702.77953025
  entropy T*S    EENTRO =        -0.00177177
  eigenvalues    EBANDS =     -1750.20495241
  atomic energy  EATOM  =     16071.23009607
  Solvation  Ediel_sol  =         0.00000000
  ---------------------------------------------------
  free energy    TOTEN  =      -843.61124358 eV

  energy without entropy =     -843.60947181  energy(sigma->0) =     -843.61035769


--------------------------------------------------------------------------------------------------------




--------------------------------------- Iteration      1(   6)  ---------------------------------------


    POTLOK:  cpu time      0.1613: real time      0.1639
    SETDIJ:  cpu time      0.6125: real time      0.6155
     EDDAV:  cpu time     51.7465: real time     52.1685
       DOS:  cpu time      0.0033: real time      0.0033
    CHARGE:  cpu time      1.8228: real time      1.8330
    MIXING:  cpu time      0.0042: real time      0.0043
    --------------------------------------------
      LOOP:  cpu time     54.3506: real time     54.7885

 eigenvalue-minimisations  : 29864
 total energy-change (2. order) : 0.1263440E+02  (-0.3842287E+02)
 number of electron     480.0000000 magnetization       1.0000000
 augmentation part       -4.3662320 magnetization       0.0232023

 Broyden mixing:
  rms(total) = 0.33892E+01    rms(broyden)= 0.33892E+01
  rms(prec ) = 0.50550E+01
  weight for this iteration     100.00

 eigenvalues of (default mixing * dielectric matrix)
  average eigenvalue GAMMA=   0.6299
  0.6299

 Free energy of the ion-electron system (eV)
  ---------------------------------------------------
  alpha Z        PSCENC =       615.38788919
  Ewald energy   TEWEN  =     -8774.17789371
  -Hartree energ DENC   =     -9219.30052628
  -exchange      EXHF   =         0.00000000
  -V(xc)+E(xc)   XCENC  =       771.89571148
  PAW double counting   =     22332.30444684   -21752.16739513
  entropy T*S    EENTRO =        -0.00235578
  eigenvalues    EBANDS =      -876.14681164
  atomic energy  EATOM  =     16071.23009607
  Solvation  Ediel_sol  =         0.00000000
  ---------------------------------------------------
  free energy    TOTEN  =      -830.97683896 eV

  energy without entropy =     -830.97448318  energy(sigma->0) =     -830.97566107


--------------------------------------------------------------------------------------------------------




--------------------------------------- Iteration      1(   7)  ---------------------------------------


    POTLOK:  cpu time      0.1626: real time      0.1644
    SETDIJ:  cpu time      0.6322: real time      0.6353
     EDDAV:  cpu time     51.8080: real time     52.2270
       DOS:  cpu time      0.0036: real time      0.0036
    CHARGE:  cpu time      1.8332: real time      1.8434
    MIXING:  cpu time      0.0040: real time      0.0040
    --------------------------------------------
      LOOP:  cpu time     54.4436: real time     54.8778

 eigenvalue-minimisations  : 29840
 total energy-change (2. order) : 0.3652794E+02  (-0.1720877E+02)
 number of electron     480.0000000 magnetization       1.0000000
 augmentation part       -3.2677010 magnetization       0.0169375

 Broyden mixing:
  rms(total) = 0.12811E+01    rms(broyden)= 0.12811E+01
  rms(prec ) = 0.15597E+01
  weight for this iteration     100.00

 eigenvalues of (default mixing * dielectric matrix)
  average eigenvalue GAMMA=   0.8474
  1.1874  0.5073

 Free energy of the ion-electron system (eV)
  ---------------------------------------------------
  alpha Z        PSCENC =       615.38788919
  Ewald energy   TEWEN  =     -8774.17789371
  -Hartree energ DENC   =     -8869.28649164
  -exchange      EXHF   =         0.00000000
  -V(xc)+E(xc)   XCENC  =       768.23250039
  PAW double counting   =     27062.19531414   -26483.05648181
  entropy T*S    EENTRO =        -0.00329711
  eigenvalues    EBANDS =     -1184.97053479
  atomic energy  EATOM  =     16071.23009607
  Solvation  Ediel_sol  =         0.00000000
  ---------------------------------------------------
  free energy    TOTEN  =      -794.44889928 eV

  energy without entropy =     -794.44560217  energy(sigma->0) =     -794.44725072


--------------------------------------------------------------------------------------------------------




--------------------------------------- Iteration      1(   8)  ---------------------------------------


    POTLOK:  cpu time      0.1618: real time      0.1634
    SETDIJ:  cpu time      0.6128: real time      0.6159
     EDDAV:  cpu time     53.1241: real time     53.5535
       DOS:  cpu time      0.0035: real time      0.0035
    CHARGE:  cpu time      1.8313: real time      1.8417
    MIXING:  cpu time      0.0038: real time      0.0038
    --------------------------------------------
      LOOP:  cpu time     55.7372: real time     56.1819

 eigenvalue-minimisations  : 30712
 total energy-change (2. order) :-0.4834942E+01  (-0.3792495E+01)
 number of electron     480.0000000 magnetization       1.0000000
 augmentation part       -2.9963824 magnetization       0.0193238

 Broyden mixing:
  rms(total) = 0.10741E+01    rms(broyden)= 0.10741E+01
  rms(prec ) = 0.21968E+01
  weight for this iteration     100.00

 eigenvalues of (default mixing * dielectric matrix)
  average eigenvalue GAMMA=   0.7811
  1.3760  0.4836  0.4836

 Free energy of the ion-electron system (eV)
  ---------------------------------------------------
  alpha Z        PSCENC =       615.38788919
  Ewald energy   TEWEN  =     -8774.17789371
  -Hartree energ DENC   =     -8872.56325679
  -exchange      EXHF   =         0.00000000
  -V(xc)+E(xc)   XCENC  =       770.28317326
  PAW double counting   =     31786.81273725   -31207.60715383
  entropy T*S    EENTRO =        -0.00182293
  eigenvalues    EBANDS =     -1188.64760934
  atomic energy  EATOM  =     16071.23009607
  Solvation  Ediel_sol  =         0.00000000
  ---------------------------------------------------
  free energy    TOTEN  =      -799.28384084 eV

  energy without entropy =     -799.28201790  energy(sigma->0) =     -799.28292937


--------------------------------------------------------------------------------------------------------




--------------------------------------- Iteration      1(   9)  ---------------------------------------


    POTLOK:  cpu time      0.1630: real time      0.1643
    SETDIJ:  cpu time      0.6117: real time      0.6145
     EDDAV:  cpu time     50.5677: real time     50.9742
       DOS:  cpu time      0.0034: real time      0.0034
    CHARGE:  cpu time      1.8468: real time      1.8571
    MIXING:  cpu time      0.0040: real time      0.0040
    --------------------------------------------
      LOOP:  cpu time     53.1967: real time     53.6175

 eigenvalue-minimisations  : 28848
 total energy-change (2. order) : 0.3360599E+01  (-0.1117904E+01)
 number of electron     480.0000000 magnetization       1.0000000
 augmentation part       -3.0204028 magnetization       0.0197455

 Broyden mixing:
  rms(total) = 0.48219E+00    rms(broyden)= 0.48216E+00
  rms(prec ) = 0.83121E+00
  weight for this iteration     100.00

 eigenvalues of (default mixing * dielectric matrix)
  average eigenvalue GAMMA=   0.7690
  1.5651  0.6091  0.6091  0.2927

 Free energy of the ion-electron system (eV)
  ---------------------------------------------------
  alpha Z        PSCENC =       615.38788919
  Ewald energy   TEWEN  =     -8774.17789371
  -Hartree energ DENC   =     -8898.90806794
  -exchange      EXHF   =         0.00000000
  -V(xc)+E(xc)   XCENC  =       771.57947477
  PAW double counting   =     33665.77859575   -33086.65999846
  entropy T*S    EENTRO =        -0.00364912
  eigenvalues    EBANDS =     -1160.14968796
  atomic energy  EATOM  =     16071.23009607
  Solvation  Ediel_sol  =         0.00000000
  ---------------------------------------------------
  free energy    TOTEN  =      -795.92324141 eV

  energy without entropy =     -795.91959229  energy(sigma->0) =     -795.92141685


--------------------------------------------------------------------------------------------------------




--------------------------------------- Iteration      1(  10)  ---------------------------------------


    POTLOK:  cpu time      0.1628: real time      0.1639
    SETDIJ:  cpu time      0.6143: real time      0.6173
     EDDAV:  cpu time     52.2551: real time     52.6750
       DOS:  cpu time      0.0033: real time      0.0033
    CHARGE:  cpu time      1.8414: real time      1.8515
    MIXING:  cpu time      0.0042: real time      0.0043
    --------------------------------------------
      LOOP:  cpu time     54.8811: real time     55.3152

 eigenvalue-minimisations  : 30104
 total energy-change (2. order) : 0.2564046E+00  (-0.4206164E+00)
 number of electron     480.0000000 magnetization       1.0000000
 augmentation part       -3.0547857 magnetization       0.0192213

 Broyden mixing:
  rms(total) = 0.30918E+00    rms(broyden)= 0.30917E+00
  rms(prec ) = 0.41718E+00
  weight for this iteration     100.00

 eigenvalues of (default mixing * dielectric matrix)
  average eigenvalue GAMMA=   0.7417
  1.6045  0.6904  0.6904  0.4413  0.2819

 Free energy of the ion-electron system (eV)
  ---------------------------------------------------
  alpha Z        PSCENC =       615.38788919
  Ewald energy   TEWEN  =     -8774.17789371
  -Hartree energ DENC   =     -8914.28853980
  -exchange      EXHF   =         0.00000000
  -V(xc)+E(xc)   XCENC  =       772.52376809
  PAW double counting   =     34984.14853946   -34405.24956905
  entropy T*S    EENTRO =        -0.00343367
  eigenvalues    EBANDS =     -1145.23769337
  atomic energy  EATOM  =     16071.23009607
  Solvation  Ediel_sol  =         0.00000000
  ---------------------------------------------------
  free energy    TOTEN  =      -795.66683679 eV

  energy without entropy =     -795.66340312  energy(sigma->0) =     -795.66511996


--------------------------------------------------------------------------------------------------------




--------------------------------------- Iteration      1(  11)  ---------------------------------------


    POTLOK:  cpu time      0.1605: real time      0.1631
    SETDIJ:  cpu time      0.6139: real time      0.6168
     EDDAV:  cpu time     50.6985: real time     51.1072
       DOS:  cpu time      0.0033: real time      0.0033
    CHARGE:  cpu time      1.8286: real time      1.8388
    MIXING:  cpu time      0.0043: real time      0.0045
    --------------------------------------------
      LOOP:  cpu time     53.3090: real time     53.7337

 eigenvalue-minimisations  : 29040
 total energy-change (2. order) : 0.1505565E+00  (-0.1262359E+00)
 number of electron     480.0000000 magnetization       1.0000000
 augmentation part       -3.1055051 magnetization       0.0187791

 Broyden mixing:
  rms(total) = 0.17054E+00    rms(broyden)= 0.17053E+00
  rms(prec ) = 0.21303E+00
  weight for this iteration     100.00

 eigenvalues of (default mixing * dielectric matrix)
  average eigenvalue GAMMA=   0.7697
  1.4764  1.1919  0.7524  0.2760  0.5120  0.4096

 Free energy of the ion-electron system (eV)
  ---------------------------------------------------
  alpha Z        PSCENC =       615.38788919
  Ewald energy   TEWEN  =     -8774.17789371
  -Hartree energ DENC   =     -8919.39324641
  -exchange      EXHF   =         0.00000000
  -V(xc)+E(xc)   XCENC  =       772.82156577
  PAW double counting   =     35365.78630340   -34786.99483670
  entropy T*S    EENTRO =        -0.00269698
  eigenvalues    EBANDS =     -1140.17346095
  atomic energy  EATOM  =     16071.23009607
  Solvation  Ediel_sol  =         0.00000000
  ---------------------------------------------------
  free energy    TOTEN  =      -795.51628031 eV

  energy without entropy =     -795.51358334  energy(sigma->0) =     -795.51493183


--------------------------------------------------------------------------------------------------------




--------------------------------------- Iteration      1(  12)  ---------------------------------------


    POTLOK:  cpu time      0.1633: real time      0.1645
    SETDIJ:  cpu time      0.6147: real time      0.6174
     EDDAV:  cpu time     48.3258: real time     48.7192
       DOS:  cpu time      0.0034: real time      0.0034
    CHARGE:  cpu time      1.8216: real time      1.8321
    MIXING:  cpu time      0.0051: real time      0.0052
    --------------------------------------------
      LOOP:  cpu time     50.9339: real time     51.3417

 eigenvalue-minimisations  : 27448
 total energy-change (2. order) :-0.2975776E-02  (-0.3053104E-01)
 number of electron     480.0000000 magnetization       1.0000000
 augmentation part       -3.1212062 magnetization       0.0193682

 Broyden mixing:
  rms(total) = 0.11763E+00    rms(broyden)= 0.11763E+00
  rms(prec ) = 0.18006E+00
  weight for this iteration     100.00

 eigenvalues of (default mixing * dielectric matrix)
  average eigenvalue GAMMA=   0.8121
  1.6124  1.6124  0.7483  0.5173  0.5173  0.2753  0.4020

 Free energy of the ion-electron system (eV)
  ---------------------------------------------------
  alpha Z        PSCENC =       615.38788919
  Ewald energy   TEWEN  =     -8774.17789371
  -Hartree energ DENC   =     -8919.28203966
  -exchange      EXHF   =         0.00000000
  -V(xc)+E(xc)   XCENC  =       772.87231076
  PAW double counting   =     35425.69189132   -34846.95193846
  entropy T*S    EENTRO =        -0.00285474
  eigenvalues    EBANDS =     -1140.28671685
  atomic energy  EATOM  =     16071.23009607
  Solvation  Ediel_sol  =         0.00000000
  ---------------------------------------------------
  free energy    TOTEN  =      -795.51925609 eV

  energy without entropy =     -795.51640135  energy(sigma->0) =     -795.51782872


--------------------------------------------------------------------------------------------------------




--------------------------------------- Iteration      1(  13)  ---------------------------------------


    POTLOK:  cpu time      0.1626: real time      0.1644
    SETDIJ:  cpu time      0.6149: real time      0.6177
     EDDAV:  cpu time     49.3696: real time     49.7714
       DOS:  cpu time      0.0033: real time      0.0033
    CHARGE:  cpu time      1.8532: real time      1.8636
    MIXING:  cpu time      0.0046: real time      0.0046
    --------------------------------------------
      LOOP:  cpu time     52.0082: real time     52.4251

 eigenvalue-minimisations  : 28128
 total energy-change (2. order) : 0.2091600E-02  (-0.1077392E-01)
 number of electron     480.0000000 magnetization       1.0000000
 augmentation part       -3.1223509 magnetization       0.0190668

 Broyden mixing:
  rms(total) = 0.79865E-01    rms(broyden)= 0.79863E-01
  rms(prec ) = 0.13425E+00
  weight for this iteration     100.00

 eigenvalues of (default mixing * dielectric matrix)
  average eigenvalue GAMMA=   0.8169
  1.8083  1.8083  0.7705  0.5843  0.5843  0.4150  0.2822  0.2822

 Free energy of the ion-electron system (eV)
  ---------------------------------------------------
  alpha Z        PSCENC =       615.38788919
  Ewald energy   TEWEN  =     -8774.17789371
  -Hartree energ DENC   =     -8918.03837041
  -exchange      EXHF   =         0.00000000
  -V(xc)+E(xc)   XCENC  =       772.86458448
  PAW double counting   =     35406.52102064   -34827.81114647
  entropy T*S    EENTRO =        -0.00287779
  eigenvalues    EBANDS =     -1141.49046648
  atomic energy  EATOM  =     16071.23009607
  Solvation  Ediel_sol  =         0.00000000
  ---------------------------------------------------
  free energy    TOTEN  =      -795.51716449 eV

  energy without entropy =     -795.51428669  energy(sigma->0) =     -795.51572559


--------------------------------------------------------------------------------------------------------




--------------------------------------- Iteration      1(  14)  ---------------------------------------


    POTLOK:  cpu time      0.1629: real time      0.1641
    SETDIJ:  cpu time      0.6131: real time      0.6165
     EDDAV:  cpu time     49.5013: real time     49.9422
       DOS:  cpu time      0.0034: real time      0.0034
    CHARGE:  cpu time      1.8438: real time      1.8550
    MIXING:  cpu time      0.0049: real time      0.0049
    --------------------------------------------
      LOOP:  cpu time     52.1295: real time     52.5861

 eigenvalue-minimisations  : 28160
 total energy-change (2. order) : 0.6708421E-02  (-0.5045935E-02)
 number of electron     480.0000000 magnetization       1.0000000
 augmentation part       -3.1194982 magnetization       0.0190941

 Broyden mixing:
  rms(total) = 0.41595E-01    rms(broyden)= 0.41593E-01
  rms(prec ) = 0.58718E-01
  weight for this iteration     100.00

 eigenvalues of (default mixing * dielectric matrix)
  average eigenvalue GAMMA=   0.8087
  1.8627  1.8627  0.8170  0.6608  0.6608  0.4721  0.4064  0.2772  0.2583

 Free energy of the ion-electron system (eV)
  ---------------------------------------------------
  alpha Z        PSCENC =       615.38788919
  Ewald energy   TEWEN  =     -8774.17789371
  -Hartree energ DENC   =     -8917.24411387
  -exchange      EXHF   =         0.00000000
  -V(xc)+E(xc)   XCENC  =       772.85720859
  PAW double counting   =     35378.41732729   -34799.72954940
  entropy T*S    EENTRO =        -0.00268018
  eigenvalues    EBANDS =     -1142.24874005
  atomic energy  EATOM  =     16071.23009607
  Solvation  Ediel_sol  =         0.00000000
  ---------------------------------------------------
  free energy    TOTEN  =      -795.51045607 eV

  energy without entropy =     -795.50777589  energy(sigma->0) =     -795.50911598


--------------------------------------------------------------------------------------------------------




--------------------------------------- Iteration      1(  15)  ---------------------------------------


    POTLOK:  cpu time      0.1632: real time      0.1646
    SETDIJ:  cpu time      0.6122: real time      0.6159
     EDDAV:  cpu time     49.3685: real time     49.8157
       DOS:  cpu time      0.0142: real time      0.0144
    CHARGE:  cpu time      1.8706: real time      1.8822
    MIXING:  cpu time      0.0046: real time      0.0046
    --------------------------------------------
      LOOP:  cpu time     52.0334: real time     52.4974

[...]
   -.223E+02 0.366E+02 -.192E+03   0.227E+02 -.420E+02 0.199E+03   -.317E+00 0.572E+01 -.107E+02   -.218E-03 0.992E-04 -.121E-03
   0.230E+02 0.275E+02 0.145E+03   -.255E+02 -.293E+02 -.147E+03   0.388E+01 0.545E+01 0.399E+01   -.164E-03 -.213E-03 -.195E-03
   0.467E+02 0.457E+01 -.638E+02   -.498E+02 -.266E+01 0.639E+02   0.360E+01 -.468E+00 -.444E+01   0.359E-03 0.553E-03 0.334E-04
   -.185E+02 0.202E+02 -.198E+03   0.185E+02 -.226E+02 0.202E+03   0.109E+01 0.297E+01 -.614E+01   0.164E-03 0.962E-04 0.491E-04
   0.232E+02 0.362E+02 0.141E+03   -.262E+02 -.379E+02 -.143E+03   0.420E+01 0.522E+01 0.514E+01   0.623E-03 0.905E-03 0.140E-03
   0.366E+02 -.290E+01 -.868E+02   -.393E+02 0.484E+01 0.880E+02   0.442E+01 0.105E+00 -.417E+01   -.555E-03 0.105E-02 -.388E-03
   -.249E+02 0.607E+02 -.158E+03   0.242E+02 -.677E+02 0.161E+03   0.400E+00 0.739E+01 -.546E+01   -.168E-03 0.484E-03 -.131E-03
   0.114E+02 0.322E+02 0.140E+03   -.135E+02 -.345E+02 -.143E+03   0.369E+01 0.584E+01 0.512E+01   0.259E-03 0.390E-03 0.332E-03
   0.460E+02 -.179E+01 -.690E+02   -.499E+02 0.295E+01 0.695E+02   0.481E+01 0.470E+00 -.474E+01   -.149E-03 0.325E-03 -.105E-03
   -.245E+02 0.300E+02 -.207E+03   0.250E+02 -.347E+02 0.214E+03   0.203E-01 0.668E+01 -.104E+02   -.482E-03 0.606E-03 -.566E-04
   0.299E+02 0.357E+02 0.137E+03   -.317E+02 -.371E+02 -.140E+03   0.373E+01 0.499E+01 0.407E+01   -.481E-03 -.323E-03 -.231E-03
   0.362E+02 -.324E+01 -.791E+02   -.394E+02 0.502E+01 0.804E+02   0.503E+01 0.162E+00 -.529E+01   -.176E-03 -.368E-03 -.419E-03
   -.179E+02 0.184E+02 -.136E+03   0.184E+02 -.179E+02 0.132E+03   -.761E+00 0.223E+01 -.684E+01   0.382E-03 -.530E-04 0.536E-04
   0.571E+01 0.305E+02 0.133E+03   -.703E+01 -.317E+02 -.136E+03   0.216E+01 0.433E+01 0.285E+01   0.408E-03 -.860E-03 -.608E-03
   0.414E+02 0.225E+01 -.817E+02   -.445E+02 -.502E+00 0.830E+02   0.418E+01 -.165E+00 -.538E+01   -.120E-03 -.264E-03 -.116E-03
   -.249E+02 0.314E+02 -.197E+03   0.254E+02 -.353E+02 0.204E+03   -.308E-01 0.554E+01 -.883E+01   0.351E-03 -.565E-03 -.435E-04
   0.122E+02 -.343E+02 0.199E+03   -.108E+02 0.393E+02 -.206E+03   -.150E+01 -.566E+01 0.994E+01   0.346E-03 -.260E-03 -.295E-03
   -.376E+02 0.325E+01 0.597E+02   0.410E+02 -.467E+01 -.602E+02   -.521E+01 0.502E-01 0.465E+01   -.211E-03 -.926E-04 -.219E-03
   -.205E+02 -.262E+02 -.144E+03   0.235E+02 0.277E+02 0.145E+03   -.424E+01 -.525E+01 -.449E+01   0.300E-03 -.655E-03 0.261E-03
   0.294E+02 -.392E+02 0.193E+03   -.303E+02 0.432E+02 -.198E+03   0.105E+01 -.638E+01 0.736E+01   0.981E-04 0.173E-03 -.165E-03
   -.356E+02 0.946E+00 0.942E+02   0.386E+02 -.295E+01 -.954E+02   -.422E+01 0.166E+00 0.406E+01   -.866E-04 -.358E-03 -.120E-03
   -.211E+02 -.376E+02 -.147E+03   0.236E+02 0.397E+02 0.149E+03   -.413E+01 -.538E+01 -.454E+01   -.267E-03 -.927E-03 0.248E-03
   0.252E+02 -.205E+02 0.189E+03   -.249E+02 0.231E+02 -.194E+03   0.294E+00 -.319E+01 0.608E+01   -.558E-03 0.260E-03 -.201E-03
   -.374E+02 -.830E+01 0.615E+02   0.396E+02 0.632E+01 -.617E+02   -.416E+01 0.485E-01 0.316E+01   -.170E-03 -.301E-03 -.137E-03
   -.257E+02 -.160E+02 -.121E+03   0.285E+02 0.166E+02 0.123E+03   -.453E+01 -.271E+01 -.115E+01   0.164E-03 0.663E-03 -.633E-04
   0.114E+02 -.294E+02 0.195E+03   -.110E+02 0.340E+02 -.201E+03   -.665E+00 -.586E+01 0.994E+01   -.100E-03 0.283E-03 -.572E-04
   -.344E+02 0.484E+00 0.884E+02   0.379E+02 -.195E+01 -.906E+02   -.446E+01 -.218E+00 0.599E+01   0.745E-03 0.102E-02 0.275E-03
   -.229E+02 -.311E+02 -.157E+03   0.250E+02 0.334E+02 0.160E+03   -.418E+01 -.555E+01 -.416E+01   -.901E-04 0.676E-03 -.308E-03
   0.351E+02 -.259E+02 0.178E+03   -.367E+02 0.293E+02 -.183E+03   0.125E+01 -.535E+01 0.678E+01   0.618E-03 0.671E-03 0.154E-03
   -.383E+02 -.632E+01 0.771E+02   0.422E+02 0.472E+01 -.778E+02   -.511E+01 -.227E+00 0.476E+01   -.110E-03 0.741E-03 0.911E-04
   -.247E+02 -.347E+02 -.109E+03   0.280E+02 0.384E+02 0.108E+03   -.441E+01 -.576E+01 -.271E+01   -.289E-03 0.291E-03 -.217E-03
   0.158E+01 -.342E+02 0.193E+03   0.386E-01 0.370E+02 -.198E+03   -.271E+01 -.472E+01 0.564E+01   0.247E-03 -.308E-03 0.202E-03
   -.382E+02 0.325E+01 0.726E+02   0.408E+02 -.512E+01 -.736E+02   -.422E+01 0.462E+00 0.522E+01   -.493E-03 -.442E-03 -.278E-03
   -.218E+02 -.329E+02 -.150E+03   0.236E+02 0.342E+02 0.152E+03   -.360E+01 -.499E+01 -.422E+01   -.364E-03 0.295E-03 -.148E-03
   0.463E+02 -.334E+02 0.183E+03   -.471E+02 0.356E+02 -.187E+03   0.162E+01 -.350E+01 0.575E+01   -.720E-03 -.867E-03 -.882E-04
   -.389E+02 0.518E+00 0.832E+02   0.417E+02 -.389E+01 -.850E+02   -.400E+01 0.970E+00 0.528E+01   0.264E-03 -.623E-03 -.293E-03
   -.200E+02 -.397E+02 -.126E+03   0.217E+02 0.415E+02 0.128E+03   -.362E+01 -.436E+01 -.308E+01   0.482E-03 -.238E-03 -.188E-03
   0.232E+02 0.362E+02 0.141E+03   -.262E+02 -.379E+02 -.143E+03   0.420E+01 0.522E+01 0.514E+01   0.209E-03 -.750E-03 0.349E-03
   0.366E+02 -.290E+01 -.868E+02   -.393E+02 0.484E+01 0.880E+02   0.442E+01 0.105E+00 -.417E+01   -.129E-02 -.755E-03 -.601E-03
   -.249E+02 0.607E+02 -.158E+03   0.242E+02 -.677E+02 0.161E+03   0.400E+00 0.739E+01 -.546E+01   0.207E-03 -.382E-03 -.905E-04
   0.114E+02 0.322E+02 0.140E+03   -.135E+02 -.345E+02 -.143E+03   0.369E+01 0.584E+01 0.512E+01   -.238E-03 -.648E-03 0.204E-03
   0.460E+02 -.179E+01 -.690E+02   -.499E+02 0.295E+01 0.695E+02   0.481E+01 0.470E+00 -.474E+01   0.537E-03 -.461E-04 -.725E-04
   -.245E+02 0.300E+02 -.207E+03   0.250E+02 -.347E+02 0.214E+03   0.203E-01 0.668E+01 -.104E+02   -.634E-04 0.744E-04 0.298E-04
   0.299E+02 0.357E+02 0.137E+03   -.317E+02 -.371E+02 -.140E+03   0.373E+01 0.499E+01 0.407E+01   0.206E-03 0.878E-03 -.198E-03
   0.362E+02 -.324E+01 -.791E+02   -.394E+02 0.502E+01 0.804E+02   0.503E+01 0.162E+00 -.529E+01   0.118E-03 0.344E-03 -.236E-03
   -.179E+02 0.184E+02 -.136E+03   0.184E+02 -.179E+02 0.132E+03   -.761E+00 0.223E+01 -.684E+01   -.127E-03 -.376E-03 0.207E-03
   0.571E+01 0.305E+02 0.133E+03   -.703E+01 -.317E+02 -.136E+03   0.216E+01 0.433E+01 0.285E+01   0.403E-03 0.533E-03 -.429E-03
   0.414E+02 0.225E+01 -.817E+02   -.445E+02 -.502E+00 0.830E+02   0.418E+01 -.165E+00 -.538E+01   -.647E-03 0.345E-03 -.716E-04
   -.249E+02 0.314E+02 -.197E+03   0.254E+02 -.353E+02 0.204E+03   -.308E-01 0.554E+01 -.883E+01   0.102E-03 0.241E-03 0.778E-04
   0.320E+02 0.307E+02 0.142E+03   -.346E+02 -.321E+02 -.145E+03   0.383E+01 0.496E+01 0.446E+01   -.560E-03 0.563E-03 -.194E-03
   0.389E+02 0.529E+01 -.751E+02   -.429E+02 -.362E+01 0.763E+02   0.518E+01 0.111E+00 -.561E+01   0.241E-03 0.704E-03 0.187E-03
   -.111E+02 0.193E+02 -.173E+03   0.112E+02 -.213E+02 0.174E+03   0.993E+00 0.411E+01 -.357E+01   0.449E-03 0.957E-03 0.372E-04
   0.145E+02 0.252E+02 0.143E+03   -.165E+02 -.270E+02 -.145E+03   0.330E+01 0.445E+01 0.303E+01   -.319E-03 0.182E-03 -.508E-04
   0.364E+02 0.180E+01 -.899E+02   -.397E+02 -.612E+00 0.909E+02   0.511E+01 0.243E+00 -.489E+01   0.664E-03 0.118E-03 0.823E-04
   -.223E+02 0.366E+02 -.192E+03   0.227E+02 -.420E+02 0.199E+03   -.317E+00 0.572E+01 -.107E+02   -.225E-03 0.266E-03 -.881E-04
   0.230E+02 0.275E+02 0.145E+03   -.255E+02 -.293E+02 -.147E+03   0.388E+01 0.545E+01 0.399E+01   0.482E-03 -.624E-03 -.138E-03
   0.467E+02 0.457E+01 -.638E+02   -.498E+02 -.266E+01 0.639E+02   0.360E+01 -.468E+00 -.444E+01   0.934E-04 -.620E-03 -.468E-04
   -.185E+02 0.202E+02 -.198E+03   0.185E+02 -.226E+02 0.202E+03   0.109E+01 0.297E+01 -.614E+01   -.440E-03 -.122E-02 -.170E-03
 -----------------------------------------------------------------------------------------------
   0.140E+01 -.493E+01 -.515E+02   0.348E-12 -.274E-12 -.114E-12   -.137E+01 0.486E+01 0.515E+02   -.174E-02 0.266E-04 -.521E-02
 
 
 POSITION                                       TOTAL-FORCE (eV/Angst)
 -----------------------------------------------------------------------------------
      9.05167      7.78466      0.00000        -0.184524     -0.335665      2.152747
      9.05167      4.14144      1.21441         0.422122      0.350302     -0.216055
      9.05167      0.49821      2.42882        -1.179229     -0.532534      1.483199
     12.67233      3.73664      0.00000         0.310018     -2.109656      7.994543
     12.67233      0.09341      1.21441         0.228472      0.727738     -0.824908
      1.81033      8.59427      2.42882        -0.604318      0.781737      1.056649
      5.43100     11.83269      0.00000         0.740198     -0.123747     -0.535230
      5.43100      8.18947      1.21441         0.486784      0.796801     -0.378546
      5.43100      4.54624      2.42882         0.078134     -0.281930      0.053145
      3.16808      7.98706      0.60720        -0.251771     -0.979570     -1.292711
      3.16808      4.34384      1.82161        -0.174800     -0.755065      0.231666
      3.16808      0.70061      3.03602        -0.613950     -0.796844      1.792532
      6.78875      3.93904      0.60720        -0.752500      0.766862     -1.607745
      6.78875      0.29581      1.82161        -0.006799     -0.215825     -0.013091
     -4.07325      8.79667      3.03602         0.434350      0.555070      1.930229
     -0.45258     12.03510      0.60720         0.385483     -0.045234     -0.381770
     -0.45258      8.39187      1.82161        -0.347288     -0.394413     -0.271782
     -0.45258      4.74864      3.03602         1.494696      0.350346      1.558249
     -0.90517      9.80868      0.00000         0.310018     -2.109656      7.994543
     -0.90517      6.16545      1.21441         0.228472      0.727738     -0.824908
     -0.90517      2.52222      2.42882        -0.604318      0.781737      1.056649
      2.71550      5.76065      0.00000         0.740198     -0.123747     -0.535230
      2.71550      2.11742      1.21441         0.486784      0.796801     -0.378546
     -8.14650     10.61828      2.42882         0.078134     -0.281930      0.053145
      6.33617      1.71262      0.00000        -0.184524     -0.335665      2.152747
     -4.52583     10.21348      1.21441         0.422122      0.350302     -0.216055
     -4.52584      6.57025      2.42882        -1.179229     -0.532534      1.483199
     -6.78875     10.01108      0.60720        -0.752500      0.766862     -1.607745
      9.50425      6.36785      1.82161        -0.006799     -0.215825     -0.013091
      9.50425      2.72463      3.03602         0.434350      0.555070      1.930229
     -3.16808      5.96305      0.60720         0.385483     -0.045234     -0.381770
     13.12492      2.31983      1.82161        -0.347288     -0.394413     -0.271782
      2.26291     10.82069      3.03602         1.494696      0.350346      1.558249
      0.45258      1.91502      0.60720        -0.251771     -0.979570     -1.292711
      5.88358     10.41588      1.82161        -0.174800     -0.755065      0.231666
      5.88358      6.77266      3.03602        -0.613950     -0.796844      1.792532
     11.36507      1.23893      4.51843        -0.215928     -1.232097      3.067327
     -0.66072      0.89195      5.31600        -0.909832     -1.684660      3.784797
      3.60650      0.54498      6.11356        -2.106250     -3.230449     -1.167162
     -1.82451      2.97380      4.51843        -0.417715     -2.001271      2.245192
      2.44271      2.62682      5.31600        -1.183518     -1.830189      4.070208
      6.70993      2.27985      6.11356        -1.182748     -2.060208     -3.377110
      1.27892      4.70866      4.51843        -1.083521     -1.929765      0.701906
      5.54614      4.36169      5.31600        -1.653993     -1.401434      4.234949
      9.81336      4.01472      6.11356        -1.743113     -3.749565     -1.823447
      4.38235      6.44353      4.51843         0.831090     -1.344663      1.777135
      8.64957      6.09656      5.31600        -1.189683     -2.397545      3.505052
     -3.37621      5.74959      6.11356        -1.864530     -2.647894     -0.656675
      7.48578      8.17840      4.51843        -0.098732     -0.739512      3.188772
     -4.54000      7.83143      5.31600        -1.825933     -1.364068      4.182205
     -0.27279      7.48445      6.11356        -1.263208     -3.746559     -2.659234
     -5.70379      9.91327      4.51843         0.192927     -2.354721      1.744684
     -1.43657      9.56630      5.31600        -1.231371     -1.836256      2.859960
      2.83064      9.21932      6.11356        -1.562820     -3.190100     -2.563194
     -2.60036     11.64814      4.51843         0.596596     -0.592062      1.698368
      1.66686     11.30117      5.31600        -1.987592     -1.927629      2.915936
      5.93407     10.95419      6.11356        -1.729650     -2.118245      0.291127
      7.67974      2.36659      4.91721         1.293093      3.588151      2.268671
     11.94696      2.01962      5.71478         1.157008      1.775717     -4.398991
     -0.07882      1.67264      6.51234         1.075753      2.140410     -2.009605
     10.78317      4.10146      4.91721         1.262075      2.721098      0.675396
     -1.24261      3.75449      5.71478         1.798114      1.429763     -3.859693
      3.02460      3.40751      6.51234         0.053775      0.346941     -3.427484
     -2.40640      5.83633      4.91721         1.426480      3.698207      2.085760
      1.86082      5.48936      5.71478         0.450606      1.436968     -4.289494
      6.12803      5.14238      6.51234         1.103062      0.561317     -1.921142
      0.69703      7.57120      4.91721         1.266084      3.588160      3.031091
      4.96425      7.22422      5.71478         1.644916      2.046201     -2.953472
      9.23146      6.87725      6.51234        -0.287289      0.397123     -3.286016
      3.80046      9.30607      4.91721         1.599134      3.531551      2.691353
      8.06768      8.95909      5.71478         0.905791      1.635907     -4.311590
     -3.95811      8.61212      6.51234         0.598595      1.972544     -3.031013
     -9.38911     11.04094      4.91721         1.890642      3.578665      1.210776
     -5.12190     10.69396      5.71478         1.780985      1.941166     -4.037073
     -0.85468     10.34699      6.51234        -0.264596      2.798286    -10.233702
      4.57631      0.63172      4.91721         0.838900      3.139972      0.685523
      8.84353      0.28475      5.71478         1.131106      1.584158     -4.027671
      2.24875     12.08186      6.51234         0.440214      1.708213     -1.613537
      4.77028      2.10636      4.51843        -0.098732     -0.739512      3.188772
      9.03750      1.75939      5.31600        -1.825933     -1.364068      4.182205
     13.30472      1.41241      6.11356        -1.263208     -3.746559     -2.659234
      7.87371      3.84123      4.51843         0.192927     -2.354721      1.744684
     12.14093      3.49426      5.31600        -1.231371     -1.836256      2.859960
      0.11514      3.14728      6.11356        -1.562820     -3.190100     -2.563194
     10.97714      5.57610      4.51843         0.596596     -0.592062      1.698368
     -1.04865      5.22913      5.31600        -1.987592     -1.927629      2.915936
      3.21857      4.88215      6.11356        -1.729650     -2.118245      0.291127
     -2.21244      7.31097      4.51843        -0.215928     -1.232097      3.067327
      2.05478      6.96399      5.31600        -0.909832     -1.684660      3.784797
      6.32200      6.61702      6.11356        -2.106250     -3.230449     -1.167162
      0.89100      9.04584      4.51843        -0.417715     -2.001271      2.245192
      5.15821      8.69886      5.31600        -1.183518     -1.830189      4.070208
     -6.86757      8.35189      6.11356        -1.182748     -2.060208     -3.377110
      3.99442     10.78071      4.51843        -1.083521     -1.929765      0.701906
     -8.03136     10.43373      5.31600        -1.653993     -1.401434      4.234949
     -3.76414     10.08676      6.11356        -1.743113     -3.749565     -1.823447
      1.66685      0.37149      4.51843         0.831090     -1.344663      1.777135
      5.93407      0.02452      5.31600        -1.189683     -2.397545      3.505052
     -0.66072     11.82163      6.11356        -1.864530     -2.647894     -0.656675
     14.27453      1.49916      4.91721         1.266084      3.588160      3.031091
      2.24875      1.15218      5.71478         1.644916      2.046201     -2.953472
      6.51597      0.80521      6.51234        -0.287289      0.397123     -3.286016
      1.08496      3.23403      4.91721         1.599134      3.531551      2.691353
      5.35217      2.88705      5.71478         0.905791      1.635907     -4.311590
      9.61939      2.54008      6.51234         0.598595      1.972544     -3.031013
      4.18839      4.96890      4.91721         1.890642      3.578665      1.210776
      8.45561      4.62192      5.71478         1.780985      1.941166     -4.037073
     -3.57018      4.27495      6.51234        -0.264596      2.798286    -10.233702
      7.29181      6.70376      4.91721         0.838900      3.139972      0.685523
     -4.73397      6.35679      5.71478         1.131106      1.584158     -4.027671
     -0.46675      6.00982      6.51234         0.440214      1.708213     -1.613537
     -5.89776      8.43863      4.91721         1.293093      3.588151      2.268671
     -1.63054      8.09166      5.71478         1.157008      1.775717     -4.398991
      2.63668      7.74468      6.51234         1.075753      2.140410     -2.009605
     -2.79433     10.17350      4.91721         1.262075      2.721098      0.675396
      1.47289      9.82653      5.71478         1.798114      1.429763     -3.859693
      5.74011      9.47956      6.51234         0.053775      0.346941     -3.427484
      0.30910     11.90837      4.91721         1.426480      3.698207      2.085760
      4.57632     11.56140      5.71478         0.450606      1.436968     -4.289494
     -7.44947     11.21442      6.51234         1.103062      0.561317     -1.921142
 -----------------------------------------------------------------------------------
    total drift:                                0.032821     -0.071217      0.082395


--------------------------------------------------------------------------------------------------------



  FREE ENERGIE OF THE ION-ELECTRON SYSTEM (eV)
  ---------------------------------------------------
  free  energy   TOTEN  =      -795.50681956 eV

  energy  without entropy=     -795.50407384  energy(sigma->0) =     -795.50544670
 


--------------------------------------------------------------------------------------------------------


    POTLOK:  cpu time      0.7870: real time      0.7920


--------------------------------------------------------------------------------------------------------


     LOOP+:  cpu time   1350.6502: real time   1362.1711
    4ORBIT:  cpu time      0.0000: real time      0.0000

 total amount of memory used by VASP MPI-rank0   246070. kBytes
=======================================================================

   base      :      30000. kBytes
   nonlr-proj:       5359. kBytes
   fftplans  :      13312. kBytes
   grid      :      10865. kBytes
   one-center:         49. kBytes
   wavefun   :     186485. kBytes
 
  
  
 General timing and accounting informations for this job:
 ========================================================
  
                  Total CPU time used (sec):     1418.063
                            User time (sec):     1330.390
                          System time (sec):       87.674
                         Elapsed time (sec):     1431.261
  
                   Maximum memory used (kb):      494856.
                   Average memory used (kb):          N/A
  
                          Minor page faults:       106379
                          Major page faults:           26
                 Voluntary context switches:         1562
