 264 264   0   0
  0.2774202E+02  0.1958175E-08  0.1958175E-08  0.1910025E-08  0.5000000E-15
  1.000000000000000E-004
  CAR 
 Si and Ge interface calculation         
      6.63998371     -9.02044596  301      4.03170140      1.00000000
     -9.020  0.0000E+00  0.0000E+00  0.0000E+00  0.0000E+00
     -8.968  0.0000E+00  0.0000E+00  0.0000E+00  0.0000E+00
     -8.916  0.0000E+00  0.0000E+00  0.0000E+00  0.0000E+00
     -8.864  0.0000E+00  0.0000E+00  0.0000E+00  0.0000E+00
     -8.812  0.0000E+00  0.0000E+00  0.0000E+00  0.0000E+00
     -8.759  0.0000E+00  0.0000E+00  0.0000E+00  0.0000E+00
     -8.707  0.0000E+00  0.0000E+00  0.0000E+00  0.0000E+00
     -8.655  0.0000E+00  0.0000E+00  0.0000E+00  0.0000E+00
     -8.603  0.0000E+00  0.0000E+00  0.0000E+00  0.0000E+00
     -8.551  0.0000E+00  0.0000E+00  0.0000E+00  0.0000E+00
     -8.498  0.0000E+00  0.0000E+00  0.0000E+00  0.0000E+00
     -8.446  0.0000E+00  0.0000E+00  0.0000E+00  0.0000E+00
     -8.394  0.0000E+00  0.0000E+00  0.0000E+00  0.0000E+00
     -8.342  0.1239E-04  0.3946E-05  0.6467E-06  0.2060E-06
     -8.290  0.9719E+01  0.9610E+01  0.5074E+00  0.5016E+00
     -8.237  0.1895E+02  0.1899E+02  0.1496E+01  0.1493E+01
     -8.185  0.2490E+02  0.2405E+02  0.2796E+01  0.2749E+01
     -8.133  0.1358E+02  0.1443E+02  0.3505E+01  0.3502E+01
     -8.081  0.9483E+01  0.9544E+01  0.4000E+01  0.4000E+01
     -8.029  0.1337E+02  0.1251E+02  0.4698E+01  0.4653E+01
     -7.976  0.2443E+02  0.2500E+02  0.5973E+01  0.5958E+01
     -7.924  0.1793E+02  0.1647E+02  0.6909E+01  0.6818E+01
     -7.872  0.1132E+02  0.1307E+02  0.7500E+01  0.7500E+01
     -7.820  0.1677E+02  0.1538E+02  0.8376E+01  0.8303E+01
     -7.768  0.2155E+02  0.2294E+02  0.9501E+01  0.9500E+01
     -7.715  0.1914E+02  0.1915E+02  0.1050E+02  0.1050E+02
     -7.663  0.7597E+00  0.4823E+00  0.1054E+02  0.1053E+02
     -7.611  0.3782E+02  0.3781E+02  0.1251E+02  0.1250E+02
     -7.559  0.3009E+02  0.2777E+02  0.1408E+02  0.1395E+02
     -7.507  0.1990E+02  0.2181E+02  0.1512E+02  0.1509E+02
     -7.454  0.2703E+02  0.2719E+02  0.1654E+02  0.1651E+02
     -7.402  0.1818E+02  0.1856E+02  0.1748E+02  0.1748E+02
     -7.350  0.1000E+02  0.9893E+01  0.1801E+02  0.1799E+02
     -7.298  0.2181E+02  0.2103E+02  0.1914E+02  0.1909E+02
     -7.246  0.3298E+02  0.3278E+02  0.2087E+02  0.2080E+02
     -7.193  0.2758E+02  0.2730E+02  0.2231E+02  0.2223E+02
     -7.141  0.2935E+02  0.2918E+02  0.2384E+02  0.2375E+02
     -7.089  0.5592E+02  0.5606E+02  0.2676E+02  0.2668E+02
     -7.037  0.3165E+02  0.3226E+02  0.2841E+02  0.2836E+02
     -6.985  0.2090E+02  0.2183E+02  0.2950E+02  0.2950E+02
     -6.932  0.3496E+02  0.3351E+02  0.3133E+02  0.3125E+02
     -6.880  0.3971E+02  0.4033E+02  0.3340E+02  0.3335E+02
     -6.828  0.4015E+02  0.3850E+02  0.3549E+02  0.3536E+02
     -6.776  0.5168E+02  0.5299E+02  0.3819E+02  0.3813E+02
     -6.724  0.4862E+02  0.4835E+02  0.4073E+02  0.4065E+02
     -6.671  0.4055E+02  0.4039E+02  0.4285E+02  0.4276E+02
     -6.619  0.5022E+02  0.4996E+02  0.4547E+02  0.4537E+02
     -6.567  0.4489E+02  0.4529E+02  0.4781E+02  0.4773E+02
     -6.515  0.1333E+02  0.1473E+02  0.4851E+02  0.4850E+02
     -6.463  0.4671E+02  0.4434E+02  0.5095E+02  0.5082E+02
     -6.410  0.3456E+02  0.3584E+02  0.5275E+02  0.5269E+02
     -6.358  0.4537E+02  0.4397E+02  0.5512E+02  0.5498E+02
     -6.306  0.2928E+02  0.3070E+02  0.5665E+02  0.5659E+02
     -6.254  0.6121E+02  0.6057E+02  0.5984E+02  0.5975E+02
     -6.202  0.4464E+02  0.4488E+02  0.6217E+02  0.6209E+02
     -6.149  0.6310E+02  0.6130E+02  0.6547E+02  0.6529E+02
     -6.097  0.9845E+02  0.9899E+02  0.7061E+02  0.7046E+02
     -6.045  0.7094E+02  0.7082E+02  0.7431E+02  0.7416E+02
     -5.993  0.7481E+02  0.7592E+02  0.7821E+02  0.7812E+02
     -5.941  0.4955E+02  0.4728E+02  0.8080E+02  0.8059E+02
     -5.888  0.5595E+02  0.5810E+02  0.8372E+02  0.8362E+02
     -5.836  0.8084E+02  0.7763E+02  0.8794E+02  0.8767E+02
     -5.784  0.7960E+02  0.7918E+02  0.9210E+02  0.9181E+02
     -5.732  0.8302E+02  0.8530E+02  0.9643E+02  0.9626E+02
     -5.680  0.7533E+02  0.7523E+02  0.1004E+03  0.1002E+03
     -5.627  0.9529E+02  0.9351E+02  0.1053E+03  0.1051E+03
     -5.575  0.8716E+02  0.8835E+02  0.1099E+03  0.1097E+03
     -5.523  0.5594E+02  0.5753E+02  0.1128E+03  0.1127E+03
     -5.471  0.6186E+02  0.6015E+02  0.1160E+03  0.1158E+03
     -5.419  0.6825E+02  0.6868E+02  0.1196E+03  0.1194E+03
     -5.366  0.8984E+02  0.8848E+02  0.1243E+03  0.1240E+03
     -5.314  0.7607E+02  0.7689E+02  0.1283E+03  0.1280E+03
     -5.262  0.8226E+02  0.8380E+02  0.1326E+03  0.1324E+03
     -5.210  0.5844E+02  0.5661E+02  0.1356E+03  0.1354E+03
     -5.158  0.6202E+02  0.6500E+02  0.1388E+03  0.1388E+03
     -5.105  0.6190E+02  0.6046E+02  0.1421E+03  0.1419E+03
     -5.053  0.9449E+02  0.9317E+02  0.1470E+03  0.1468E+03
     -5.001  0.6360E+02  0.6366E+02  0.1503E+03  0.1501E+03
     -4.949  0.6258E+02  0.6376E+02  0.1536E+03  0.1534E+03
     -4.897  0.6972E+02  0.6998E+02  0.1572E+03  0.1571E+03
     -4.844  0.9808E+02  0.9601E+02  0.1624E+03  0.1621E+03
     -4.792  0.9667E+02  0.9588E+02  0.1674E+03  0.1671E+03
     -4.740  0.1025E+03  0.1014E+03  0.1727E+03  0.1724E+03
     -4.688  0.1310E+03  0.1322E+03  0.1796E+03  0.1793E+03
     -4.636  0.9763E+02  0.9787E+02  0.1847E+03  0.1844E+03
     -4.583  0.1071E+03  0.1051E+03  0.1903E+03  0.1899E+03
     -4.531  0.8716E+02  0.8886E+02  0.1948E+03  0.1945E+03
     -4.479  0.1066E+03  0.1076E+03  0.2004E+03  0.2001E+03
     -4.427  0.9307E+02  0.9269E+02  0.2052E+03  0.2050E+03
     -4.375  0.7311E+02  0.7239E+02  0.2091E+03  0.2088E+03
     -4.322  0.7963E+02  0.7713E+02  0.2132E+03  0.2128E+03
     -4.270  0.7551E+02  0.7929E+02  0.2172E+03  0.2169E+03
     -4.218  0.9103E+02  0.8941E+02  0.2219E+03  0.2216E+03
     -4.166  0.7646E+02  0.7430E+02  0.2259E+03  0.2255E+03
     -4.114  0.9800E+02  0.1021E+03  0.2310E+03  0.2308E+03
     -4.061  0.7748E+02  0.7860E+02  0.2351E+03  0.2349E+03
     -4.009  0.7263E+02  0.7157E+02  0.2389E+03  0.2386E+03
     -3.957  0.4194E+02  0.4439E+02  0.2410E+03  0.2410E+03
     -3.905  0.4230E+02  0.4061E+02  0.2433E+03  0.2431E+03
     -3.853  0.5601E+02  0.5666E+02  0.2462E+03  0.2460E+03
     -3.800  0.6199E+02  0.6063E+02  0.2494E+03  0.2492E+03
     -3.748  0.5147E+02  0.5253E+02  0.2521E+03  0.2519E+03
     -3.696  0.7065E+02  0.6613E+02  0.2558E+03  0.2554E+03
     -3.644  0.7905E+02  0.8467E+02  0.2599E+03  0.2598E+03
     -3.591  0.7128E+02  0.6602E+02  0.2636E+03  0.2633E+03
     -3.539  0.3961E+02  0.4334E+02  0.2657E+03  0.2655E+03
     -3.487  0.9152E+02  0.8917E+02  0.2705E+03  0.2702E+03
     -3.435  0.8058E+02  0.8184E+02  0.2747E+03  0.2745E+03
     -3.383  0.5911E+02  0.5737E+02  0.2778E+03  0.2774E+03
     -3.330  0.9031E+02  0.9235E+02  0.2825E+03  0.2823E+03
     -3.278  0.7941E+02  0.7656E+02  0.2866E+03  0.2863E+03
     -3.226  0.6711E+02  0.6901E+02  0.2901E+03  0.2899E+03
     -3.174  0.7491E+02  0.7462E+02  0.2940E+03  0.2938E+03
     -3.122  0.7815E+02  0.7771E+02  0.2981E+03  0.2978E+03
     -3.069  0.7309E+02  0.7460E+02  0.3019E+03  0.3017E+03
     -3.017  0.5979E+02  0.5989E+02  0.3051E+03  0.3048E+03
     -2.965  0.8305E+02  0.8128E+02  0.3094E+03  0.3091E+03
     -2.913  0.9702E+02  0.9538E+02  0.3145E+03  0.3141E+03
     -2.861  0.1019E+03  0.1032E+03  0.3198E+03  0.3194E+03
     -2.808  0.8029E+02  0.8221E+02  0.3240E+03  0.3237E+03
     -2.756  0.1060E+03  0.1044E+03  0.3295E+03  0.3292E+03
     -2.704  0.9223E+02  0.9212E+02  0.3343E+03  0.3340E+03
     -2.652  0.1054E+03  0.1045E+03  0.3398E+03  0.3395E+03
     -2.600  0.9984E+02  0.1015E+03  0.3450E+03  0.3448E+03
     -2.547  0.1189E+03  0.1171E+03  0.3512E+03  0.3509E+03
     -2.495  0.1144E+03  0.1156E+03  0.3572E+03  0.3569E+03
     -2.443  0.1024E+03  0.1042E+03  0.3626E+03  0.3623E+03
     -2.391  0.8793E+02  0.8476E+02  0.3671E+03  0.3668E+03
     -2.339  0.9261E+02  0.9542E+02  0.3720E+03  0.3717E+03
     -2.286  0.1013E+03  0.1000E+03  0.3773E+03  0.3770E+03
     -2.234  0.8941E+02  0.9252E+02  0.3819E+03  0.3818E+03
     -2.182  0.4344E+02  0.4462E+02  0.3842E+03  0.3841E+03
     -2.130  0.3171E+02  0.2925E+02  0.3859E+03  0.3856E+03
     -2.078  0.8144E+02  0.8020E+02  0.3901E+03  0.3898E+03
     -2.025  0.7418E+02  0.7119E+02  0.3940E+03  0.3936E+03
     -1.973  0.8737E+02  0.8928E+02  0.3985E+03  0.3982E+03
     -1.921  0.1027E+03  0.1040E+03  0.4039E+03  0.4036E+03
     -1.869  0.8996E+02  0.9167E+02  0.4086E+03  0.4084E+03
     -1.817  0.5784E+02  0.5617E+02  0.4116E+03  0.4114E+03
     -1.764  0.1015E+03  0.9993E+02  0.4169E+03  0.4166E+03
     -1.712  0.9854E+02  0.1014E+03  0.4221E+03  0.4219E+03
     -1.660  0.9103E+02  0.8803E+02  0.4268E+03  0.4265E+03
     -1.608  0.6700E+02  0.6927E+02  0.4303E+03  0.4301E+03
     -1.556  0.1077E+03  0.1045E+03  0.4359E+03  0.4355E+03
     -1.503  0.4978E+02  0.5241E+02  0.4385E+03  0.4383E+03
     -1.451  0.5708E+02  0.5938E+02  0.4415E+03  0.4414E+03
     -1.399  0.5975E+02  0.5638E+02  0.4446E+03  0.4443E+03
     -1.347  0.6952E+02  0.6765E+02  0.4483E+03  0.4478E+03
     -1.295  0.3976E+02  0.4631E+02  0.4503E+03  0.4503E+03
     -1.242  0.6234E+02  0.5949E+02  0.4536E+03  0.4534E+03
     -1.190  0.6382E+02  0.6494E+02  0.4569E+03  0.4568E+03
     -1.138  0.3843E+02  0.3622E+02  0.4589E+03  0.4587E+03
     -1.086  0.4228E+02  0.4611E+02  0.4611E+03  0.4611E+03
     -1.034  0.5891E+02  0.5446E+02  0.4642E+03  0.4639E+03
     -0.981  0.5336E+02  0.5750E+02  0.4670E+03  0.4669E+03
     -0.929  0.3223E+02  0.3185E+02  0.4687E+03  0.4686E+03
     -0.877  0.4413E+02  0.4053E+02  0.4710E+03  0.4707E+03
     -0.825  0.8125E+02  0.8184E+02  0.4752E+03  0.4750E+03
     -0.773  0.5963E+02  0.6296E+02  0.4783E+03  0.4782E+03
     -0.720  0.3652E+02  0.3449E+02  0.4802E+03  0.4800E+03
     -0.668  0.9436E+02  0.9213E+02  0.4852E+03  0.4849E+03
     -0.616  0.4459E+02  0.4840E+02  0.4875E+03  0.4874E+03
     -0.564  0.2567E+02  0.2618E+02  0.4888E+03  0.4887E+03
     -0.512  0.2363E+02  0.2236E+02  0.4901E+03  0.4899E+03
     -0.459  0.2244E+02  0.2437E+02  0.4912E+03  0.4912E+03
     -0.407  0.3855E+02  0.3723E+02  0.4932E+03  0.4931E+03
     -0.355  0.3919E+02  0.3802E+02  0.4953E+03  0.4951E+03
     -0.303  0.6640E+02  0.6733E+02  0.4988E+03  0.4986E+03
     -0.251  0.7783E+02  0.7501E+02  0.5028E+03  0.5025E+03
     -0.198  0.8388E+02  0.8501E+02  0.5072E+03  0.5070E+03
     -0.146  0.1049E+03  0.1041E+03  0.5127E+03  0.5124E+03
     -0.094  0.1063E+03  0.1059E+03  0.5182E+03  0.5179E+03
     -0.042  0.1242E+03  0.1259E+03  0.5247E+03  0.5245E+03
      0.010  0.1095E+03  0.1058E+03  0.5304E+03  0.5300E+03
      0.063  0.1456E+03  0.1460E+03  0.5380E+03  0.5377E+03
      0.115  0.1084E+03  0.1075E+03  0.5437E+03  0.5433E+03
      0.167  0.1270E+03  0.1294E+03  0.5503E+03  0.5500E+03
      0.219  0.6560E+02  0.6606E+02  0.5537E+03  0.5535E+03
      0.271  0.8416E+02  0.8427E+02  0.5581E+03  0.5579E+03
      0.324  0.1002E+03  0.1007E+03  0.5634E+03  0.5631E+03
      0.376  0.6967E+02  0.6965E+02  0.5670E+03  0.5668E+03
      0.428  0.1259E+03  0.1254E+03  0.5736E+03  0.5733E+03
      0.480  0.7722E+02  0.7760E+02  0.5776E+03  0.5774E+03
      0.532  0.1021E+03  0.1015E+03  0.5829E+03  0.5827E+03
      0.585  0.1190E+03  0.1184E+03  0.5891E+03  0.5888E+03
      0.637  0.1318E+03  0.1319E+03  0.5960E+03  0.5957E+03
      0.689  0.1518E+03  0.1480E+03  0.6039E+03  0.6035E+03
      0.741  0.1240E+03  0.1285E+03  0.6104E+03  0.6102E+03
      0.793  0.1316E+03  0.1286E+03  0.6173E+03  0.6169E+03
      0.846  0.1089E+03  0.1124E+03  0.6230E+03  0.6227E+03
      0.898  0.9507E+02  0.9505E+02  0.6279E+03  0.6277E+03
      0.950  0.9973E+02  0.9774E+02  0.6331E+03  0.6328E+03
      1.002  0.1240E+03  0.1244E+03  0.6396E+03  0.6393E+03
      1.054  0.1418E+03  0.1382E+03  0.6470E+03  0.6465E+03
      1.107  0.1690E+03  0.1701E+03  0.6558E+03  0.6554E+03
      1.159  0.1599E+03  0.1591E+03  0.6642E+03  0.6637E+03
      1.211  0.1850E+03  0.1839E+03  0.6738E+03  0.6733E+03
      1.263  0.1656E+03  0.1677E+03  0.6825E+03  0.6821E+03
      1.315  0.1987E+03  0.1956E+03  0.6929E+03  0.6923E+03
      1.368  0.1842E+03  0.1888E+03  0.7025E+03  0.7021E+03
      1.420  0.1338E+03  0.1325E+03  0.7095E+03  0.7090E+03
      1.472  0.1514E+03  0.1503E+03  0.7174E+03  0.7169E+03
      1.524  0.2124E+03  0.2122E+03  0.7285E+03  0.7280E+03
      1.576  0.1896E+03  0.1895E+03  0.7384E+03  0.7379E+03
      1.629  0.1872E+03  0.1854E+03  0.7481E+03  0.7475E+03
      1.681  0.1904E+03  0.1896E+03  0.7581E+03  0.7574E+03
      1.733  0.1665E+03  0.1704E+03  0.7668E+03  0.7663E+03
      1.785  0.1892E+03  0.1864E+03  0.7766E+03  0.7761E+03
      1.837  0.1842E+03  0.1886E+03  0.7862E+03  0.7859E+03
      1.890  0.1327E+03  0.1308E+03  0.7932E+03  0.7927E+03
      1.942  0.2153E+03  0.2097E+03  0.8044E+03  0.8037E+03
      1.994  0.1808E+03  0.1874E+03  0.8139E+03  0.8135E+03
      2.046  0.1719E+03  0.1666E+03  0.8228E+03  0.8222E+03
      2.098  0.1910E+03  0.1902E+03  0.8328E+03  0.8321E+03
      2.151  0.2002E+03  0.2016E+03  0.8432E+03  0.8426E+03
      2.203  0.1507E+03  0.1551E+03  0.8511E+03  0.8507E+03
      2.255  0.1725E+03  0.1696E+03  0.8601E+03  0.8596E+03
      2.307  0.1416E+03  0.1441E+03  0.8675E+03  0.8671E+03
      2.359  0.1702E+03  0.1654E+03  0.8764E+03  0.8757E+03
      2.412  0.2010E+03  0.1998E+03  0.8869E+03  0.8861E+03
      2.464  0.1390E+03  0.1460E+03  0.8941E+03  0.8938E+03
      2.516  0.1428E+03  0.1431E+03  0.9016E+03  0.9012E+03
      2.568  0.1382E+03  0.1335E+03  0.9088E+03  0.9082E+03
      2.620  0.1388E+03  0.1418E+03  0.9160E+03  0.9156E+03
      2.673  0.1260E+03  0.1274E+03  0.9226E+03  0.9223E+03
      2.725  0.1468E+03  0.1375E+03  0.9303E+03  0.9294E+03
      2.777  0.1525E+03  0.1583E+03  0.9383E+03  0.9377E+03
      2.829  0.1330E+03  0.1318E+03  0.9452E+03  0.9446E+03
      2.881  0.1526E+03  0.1521E+03  0.9532E+03  0.9525E+03
      2.934  0.1223E+03  0.1205E+03  0.9595E+03  0.9588E+03
      2.986  0.1239E+03  0.1216E+03  0.9660E+03  0.9652E+03
      3.038  0.1338E+03  0.1357E+03  0.9730E+03  0.9722E+03
      3.090  0.1150E+03  0.1179E+03  0.9790E+03  0.9784E+03
      3.142  0.1172E+03  0.1163E+03  0.9851E+03  0.9845E+03
      3.195  0.1173E+03  0.1168E+03  0.9912E+03  0.9906E+03
      3.247  0.1073E+03  0.1087E+03  0.9968E+03  0.9962E+03
      3.299  0.1094E+03  0.1092E+03  0.1003E+04  0.1002E+04
      3.351  0.1013E+03  0.1023E+03  0.1008E+04  0.1007E+04
      3.403  0.5762E+02  0.6417E+02  0.1011E+04  0.1011E+04
      3.456  0.9805E+02  0.8871E+02  0.1016E+04  0.1015E+04
      3.508  0.1102E+03  0.1123E+03  0.1022E+04  0.1021E+04
      3.560  0.7882E+02  0.7857E+02  0.1026E+04  0.1025E+04
      3.612  0.1020E+03  0.1006E+03  0.1031E+04  0.1030E+04
      3.665  0.6901E+02  0.7206E+02  0.1035E+04  0.1034E+04
      3.717  0.5390E+02  0.6060E+02  0.1038E+04  0.1037E+04
      3.769  0.5311E+02  0.4741E+02  0.1040E+04  0.1040E+04
      3.821  0.4146E+02  0.4158E+02  0.1043E+04  0.1042E+04
      3.873  0.3032E+02  0.3456E+02  0.1044E+04  0.1044E+04
      3.926  0.7276E+02  0.5318E+02  0.1048E+04  0.1047E+04
      3.978  0.6057E+02  0.6692E+02  0.1051E+04  0.1050E+04
      4.030  0.9657E+02  0.8970E+02  0.1056E+04  0.1055E+04
      4.082  0.1149E+03  0.1176E+03  0.1062E+04  0.1061E+04
      4.134  0.7551E+02  0.8980E+02  0.1066E+04  0.1066E+04
      4.187  0.8971E+02  0.7636E+02  0.1071E+04  0.1070E+04
      4.239  0.8524E+02  0.8655E+02  0.1075E+04  0.1074E+04
      4.291  0.1167E+03  0.1193E+03  0.1081E+04  0.1080E+04
      4.343  0.1270E+03  0.1202E+03  0.1088E+04  0.1087E+04
      4.395  0.9538E+02  0.9856E+02  0.1093E+04  0.1092E+04
      4.448  0.1227E+03  0.1249E+03  0.1099E+04  0.1098E+04
      4.500  0.1155E+03  0.1197E+03  0.1105E+04  0.1105E+04
      4.552  0.9834E+02  0.9931E+02  0.1110E+04  0.1110E+04
      4.604  0.1220E+03  0.1156E+03  0.1117E+04  0.1116E+04
      4.656  0.1113E+03  0.1175E+03  0.1123E+04  0.1122E+04
      4.709  0.1049E+03  0.1040E+03  0.1128E+04  0.1127E+04
      4.761  0.1145E+03  0.1160E+03  0.1134E+04  0.1133E+04
      4.813  0.1172E+03  0.1172E+03  0.1140E+04  0.1139E+04
      4.865  0.1198E+03  0.1170E+03  0.1146E+04  0.1146E+04
      4.917  0.1116E+03  0.1138E+03  0.1152E+04  0.1152E+04
      4.970  0.1078E+03  0.1106E+03  0.1158E+04  0.1157E+04
      5.022  0.1240E+03  0.1186E+03  0.1164E+04  0.1164E+04
      5.074  0.1322E+03  0.1348E+03  0.1171E+04  0.1171E+04
      5.126  0.1009E+03  0.1040E+03  0.1177E+04  0.1176E+04
      5.178  0.9733E+02  0.9896E+02  0.1182E+04  0.1181E+04
      5.231  0.9546E+02  0.9551E+02  0.1187E+04  0.1186E+04
      5.283  0.1141E+03  0.1135E+03  0.1193E+04  0.1192E+04
      5.335  0.1103E+03  0.1090E+03  0.1198E+04  0.1198E+04
      5.387  0.1310E+03  0.1275E+03  0.1205E+04  0.1204E+04
      5.439  0.1408E+03  0.1473E+03  0.1212E+04  0.1212E+04
      5.492  0.1257E+03  0.1193E+03  0.1219E+04  0.1218E+04
      5.544  0.1702E+03  0.1696E+03  0.1228E+04  0.1227E+04
      5.596  0.1403E+03  0.1417E+03  0.1235E+04  0.1235E+04
      5.648  0.1217E+03  0.1261E+03  0.1242E+04  0.1241E+04
      5.700  0.1248E+03  0.1229E+03  0.1248E+04  0.1248E+04
      5.753  0.1089E+03  0.1131E+03  0.1254E+04  0.1253E+04
      5.805  0.1266E+03  0.1221E+03  0.1260E+04  0.1260E+04
      5.857  0.1440E+03  0.1530E+03  0.1268E+04  0.1268E+04
      5.909  0.6278E+02  0.6235E+02  0.1271E+04  0.1271E+04
      5.961  0.1488E+02  0.1759E+02  0.1272E+04  0.1272E+04
      6.014  0.0000E+00  0.0000E+00  0.1272E+04  0.1272E+04
      6.066  0.0000E+00  0.0000E+00  0.1272E+04  0.1272E+04
      6.118  0.0000E+00  0.0000E+00  0.1272E+04  0.1272E+04
      6.170  0.0000E+00  0.0000E+00  0.1272E+04  0.1272E+04
      6.222  0.0000E+00  0.0000E+00  0.1272E+04  0.1272E+04
      6.275  0.0000E+00  0.0000E+00  0.1272E+04  0.1272E+04
      6.327  0.0000E+00  0.0000E+00  0.1272E+04  0.1272E+04
      6.379  0.0000E+00  0.0000E+00  0.1272E+04  0.1272E+04
      6.431  0.0000E+00  0.0000E+00  0.1272E+04  0.1272E+04
      6.483  0.0000E+00  0.0000E+00  0.1272E+04  0.1272E+04
      6.536  0.0000E+00  0.0000E+00  0.1272E+04  0.1272E+04
      6.588  0.0000E+00  0.0000E+00  0.1272E+04  0.1272E+04
      6.640  0.0000E+00  0.0000E+00  0.1272E+04  0.1272E+04
