 120 120   0   0
  0.1778612E+02  0.1629300E-08  0.1717433E-08  0.7627488E-09  0.5000000E-15
  1.000000000000000E-004
  CAR 
 Si and Ge interface calculation         
      9.54523142     -9.69743908  301      6.73270915      1.00000000
     -9.697  0.0000E+00  0.0000E+00  0.0000E+00  0.0000E+00
     -9.633  0.0000E+00  0.0000E+00  0.0000E+00  0.0000E+00
     -9.569  0.0000E+00  0.0000E+00  0.0000E+00  0.0000E+00
     -9.505  0.0000E+00  0.0000E+00  0.0000E+00  0.0000E+00
     -9.441  0.0000E+00  0.0000E+00  0.0000E+00  0.0000E+00
     -9.377  0.0000E+00  0.0000E+00  0.0000E+00  0.0000E+00
     -9.313  0.0000E+00  0.0000E+00  0.0000E+00  0.0000E+00
     -9.248  0.0000E+00  0.0000E+00  0.0000E+00  0.0000E+00
     -9.184  0.0000E+00  0.0000E+00  0.0000E+00  0.0000E+00
     -9.120  0.0000E+00  0.0000E+00  0.0000E+00  0.0000E+00
     -9.056  0.0000E+00  0.0000E+00  0.0000E+00  0.0000E+00
     -8.992  0.0000E+00  0.0000E+00  0.0000E+00  0.0000E+00
     -8.928  0.0000E+00  0.0000E+00  0.0000E+00  0.0000E+00
     -8.864  0.1021E-07  0.2827E-11  0.6548E-09  0.1813E-12
     -8.799  0.7499E+01  0.6028E+01  0.4810E+00  0.3867E+00
     -8.735  0.9878E+01  0.6591E+01  0.1115E+01  0.8094E+00
     -8.671  0.6543E+01  0.1087E+02  0.1534E+01  0.1506E+01
     -8.607  0.3064E+02  0.3105E+02  0.3500E+01  0.3498E+01
     -8.543  0.9560E+01  0.8074E+01  0.4113E+01  0.4018E+01
     -8.479  0.2772E+02  0.2315E+02  0.5891E+01  0.5503E+01
     -8.415  0.1675E+01  0.7749E+01  0.6000E+01  0.6000E+01
     -8.350  0.0000E+00  0.0000E+00  0.6000E+01  0.6000E+01
     -8.286  0.4306E+01  0.1259E+01  0.6276E+01  0.6081E+01
     -8.222  0.2721E+02  0.2318E+02  0.8022E+01  0.7567E+01
     -8.158  0.3298E+02  0.3507E+02  0.1014E+02  0.9817E+01
     -8.094  0.3858E+02  0.3874E+02  0.1261E+02  0.1230E+02
     -8.030  0.2161E+02  0.2643E+02  0.1400E+02  0.1400E+02
     -7.966  0.3541E-08  0.4824E-12  0.1400E+02  0.1400E+02
     -7.901  0.7733E+01  0.6886E+01  0.1450E+02  0.1444E+02
     -7.837  0.1147E+02  0.7709E+01  0.1523E+02  0.1494E+02
     -7.773  0.3536E+02  0.3997E+02  0.1750E+02  0.1750E+02
     -7.709  0.8388E+01  0.7848E+01  0.1804E+02  0.1800E+02
     -7.645  0.1120E+02  0.1163E+02  0.1876E+02  0.1875E+02
     -7.581  0.1926E+02  0.1853E+02  0.1999E+02  0.1994E+02
     -7.517  0.1581E+01  0.1187E+01  0.2009E+02  0.2002E+02
     -7.452  0.1414E+02  0.1517E+02  0.2100E+02  0.2099E+02
     -7.388  0.1140E+02  0.9860E+01  0.2173E+02  0.2162E+02
     -7.324  0.4165E+01  0.5890E+01  0.2200E+02  0.2200E+02
     -7.260  0.0000E+00  0.0000E+00  0.2200E+02  0.2200E+02
     -7.196  0.2086E-01  0.2001E-03  0.2200E+02  0.2200E+02
     -7.132  0.7531E+01  0.6496E+01  0.2248E+02  0.2242E+02
     -7.068  0.1583E+02  0.1680E+02  0.2350E+02  0.2349E+02
     -7.003  0.1645E+02  0.1522E+02  0.2456E+02  0.2448E+02
     -6.939  0.2664E+02  0.2425E+02  0.2627E+02  0.2603E+02
     -6.875  0.2694E+02  0.2915E+02  0.2799E+02  0.2790E+02
     -6.811  0.2136E+02  0.2069E+02  0.2937E+02  0.2923E+02
     -6.747  0.1714E+02  0.1553E+02  0.3047E+02  0.3023E+02
     -6.683  0.1994E+02  0.2325E+02  0.3175E+02  0.3172E+02
     -6.619  0.6267E+01  0.6305E+01  0.3215E+02  0.3212E+02
     -6.554  0.2617E+02  0.2422E+02  0.3383E+02  0.3368E+02
     -6.490  0.1344E+02  0.1195E+02  0.3469E+02  0.3445E+02
     -6.426  0.3229E+02  0.3169E+02  0.3676E+02  0.3648E+02
     -6.362  0.1592E+02  0.1788E+02  0.3778E+02  0.3763E+02
     -6.298  0.2707E+02  0.2723E+02  0.3952E+02  0.3938E+02
     -6.234  0.9350E+01  0.1099E+02  0.4012E+02  0.4008E+02
     -6.170  0.1458E+02  0.1330E+02  0.4105E+02  0.4093E+02
     -6.105  0.1089E+02  0.1120E+02  0.4175E+02  0.4165E+02
     -6.041  0.1782E+02  0.1685E+02  0.4290E+02  0.4274E+02
     -5.977  0.2529E+02  0.2574E+02  0.4452E+02  0.4439E+02
     -5.913  0.1519E+02  0.1268E+02  0.4549E+02  0.4520E+02
     -5.849  0.1775E+02  0.2027E+02  0.4663E+02  0.4650E+02
     -5.785  0.1438E+02  0.1408E+02  0.4756E+02  0.4741E+02
     -5.721  0.1842E+02  0.1857E+02  0.4874E+02  0.4860E+02
     -5.656  0.1918E+02  0.1968E+02  0.4997E+02  0.4986E+02
     -5.592  0.2773E+02  0.2636E+02  0.5175E+02  0.5155E+02
     -5.528  0.3945E+01  0.6971E+01  0.5200E+02  0.5200E+02
     -5.464  0.1044E+02  0.7300E+01  0.5267E+02  0.5247E+02
     -5.400  0.2220E+02  0.2330E+02  0.5409E+02  0.5396E+02
     -5.336  0.1328E+02  0.8828E+01  0.5495E+02  0.5453E+02
     -5.272  0.8749E+01  0.1510E+02  0.5551E+02  0.5550E+02
     -5.207  0.1364E+02  0.1228E+02  0.5638E+02  0.5629E+02
     -5.143  0.1742E+02  0.1889E+02  0.5750E+02  0.5750E+02
     -5.079  0.2266E+01  0.1982E+01  0.5765E+02  0.5763E+02
     -5.015  0.1155E+02  0.1156E+02  0.5839E+02  0.5837E+02
     -4.951  0.1904E+02  0.1604E+02  0.5961E+02  0.5940E+02
     -4.887  0.2237E+02  0.2233E+02  0.6104E+02  0.6083E+02
     -4.823  0.7185E+01  0.1043E+02  0.6151E+02  0.6150E+02
     -4.758  0.1506E+02  0.1342E+02  0.6247E+02  0.6236E+02
     -4.694  0.1666E+02  0.1386E+02  0.6354E+02  0.6325E+02
     -4.630  0.2107E+02  0.1992E+02  0.6489E+02  0.6453E+02
     -4.566  0.2727E+02  0.2921E+02  0.6664E+02  0.6640E+02
     -4.502  0.2325E+02  0.2624E+02  0.6813E+02  0.6809E+02
     -4.438  0.2641E+02  0.2586E+02  0.6983E+02  0.6975E+02
     -4.374  0.8799E+01  0.9773E+01  0.7040E+02  0.7038E+02
     -4.309  0.1905E+02  0.1766E+02  0.7162E+02  0.7151E+02
     -4.245  0.9871E+01  0.1052E+02  0.7225E+02  0.7218E+02
     -4.181  0.1878E+02  0.1776E+02  0.7346E+02  0.7332E+02
     -4.117  0.3657E+02  0.3433E+02  0.7580E+02  0.7553E+02
     -4.053  0.3010E+02  0.2805E+02  0.7774E+02  0.7733E+02
     -3.989  0.3125E+02  0.3492E+02  0.7974E+02  0.7957E+02
     -3.925  0.1883E+02  0.1903E+02  0.8095E+02  0.8079E+02
     -3.860  0.1392E+02  0.1376E+02  0.8184E+02  0.8167E+02
     -3.796  0.2002E+02  0.2200E+02  0.8313E+02  0.8308E+02
     -3.732  0.1725E+02  0.1445E+02  0.8423E+02  0.8401E+02
     -3.668  0.2944E+02  0.3004E+02  0.8612E+02  0.8594E+02
     -3.604  0.2917E+02  0.2997E+02  0.8800E+02  0.8786E+02
     -3.540  0.1957E+02  0.1743E+02  0.8925E+02  0.8898E+02
     -3.476  0.1985E+02  0.2124E+02  0.9053E+02  0.9034E+02
     -3.412  0.2422E+02  0.2214E+02  0.9208E+02  0.9176E+02
     -3.347  0.1900E+02  0.1950E+02  0.9330E+02  0.9302E+02
     -3.283  0.3047E+02  0.3310E+02  0.9526E+02  0.9514E+02
     -3.219  0.3000E+02  0.2631E+02  0.9718E+02  0.9683E+02
     -3.155  0.1866E+02  0.2080E+02  0.9838E+02  0.9816E+02
     -3.091  0.3401E+02  0.3470E+02  0.1006E+03  0.1004E+03
     -3.027  0.2258E+02  0.2161E+02  0.1020E+03  0.1018E+03
     -2.963  0.3227E+02  0.3175E+02  0.1041E+03  0.1038E+03
     -2.898  0.3456E+02  0.3522E+02  0.1063E+03  0.1061E+03
     -2.834  0.3521E+02  0.3492E+02  0.1086E+03  0.1083E+03
     -2.770  0.2647E+02  0.2536E+02  0.1103E+03  0.1099E+03
     -2.706  0.2973E+02  0.3335E+02  0.1122E+03  0.1121E+03
     -2.642  0.2710E+02  0.2559E+02  0.1139E+03  0.1137E+03
     -2.578  0.2986E+02  0.2964E+02  0.1158E+03  0.1156E+03
     -2.514  0.4004E+02  0.3827E+02  0.1184E+03  0.1181E+03
     -2.449  0.2973E+02  0.2804E+02  0.1203E+03  0.1199E+03
     -2.385  0.2413E+02  0.2849E+02  0.1218E+03  0.1217E+03
     -2.321  0.2661E+02  0.2627E+02  0.1236E+03  0.1234E+03
     -2.257  0.2377E+02  0.2098E+02  0.1251E+03  0.1247E+03
     -2.193  0.2149E+02  0.2254E+02  0.1265E+03  0.1262E+03
     -2.129  0.3269E+02  0.3495E+02  0.1286E+03  0.1284E+03
     -2.065  0.2418E+02  0.2218E+02  0.1301E+03  0.1299E+03
     -2.000  0.2387E+02  0.2451E+02  0.1316E+03  0.1314E+03
     -1.936  0.2481E+02  0.2510E+02  0.1332E+03  0.1330E+03
     -1.872  0.3232E+02  0.2923E+02  0.1353E+03  0.1349E+03
     -1.808  0.2219E+02  0.2449E+02  0.1367E+03  0.1365E+03
     -1.744  0.2816E+02  0.2859E+02  0.1385E+03  0.1383E+03
     -1.680  0.2809E+02  0.2909E+02  0.1403E+03  0.1402E+03
     -1.616  0.2730E+02  0.2609E+02  0.1421E+03  0.1419E+03
     -1.551  0.2075E+02  0.2204E+02  0.1434E+03  0.1433E+03
     -1.487  0.3520E+02  0.2984E+02  0.1457E+03  0.1452E+03
     -1.423  0.2604E+02  0.3188E+02  0.1474E+03  0.1472E+03
     -1.359  0.3188E+02  0.3180E+02  0.1494E+03  0.1493E+03
     -1.295  0.2979E+02  0.2866E+02  0.1513E+03  0.1511E+03
     -1.231  0.2598E+02  0.2694E+02  0.1530E+03  0.1528E+03
     -1.167  0.2943E+02  0.2656E+02  0.1549E+03  0.1545E+03
     -1.102  0.3147E+02  0.2969E+02  0.1569E+03  0.1565E+03
     -1.038  0.3371E+02  0.3677E+02  0.1590E+03  0.1588E+03
     -0.974  0.3126E+02  0.3172E+02  0.1611E+03  0.1608E+03
     -0.910  0.2662E+02  0.2521E+02  0.1628E+03  0.1625E+03
     -0.846  0.2686E+02  0.2633E+02  0.1645E+03  0.1641E+03
     -0.782  0.3146E+02  0.3601E+02  0.1665E+03  0.1665E+03
     -0.718  0.4188E+02  0.3691E+02  0.1692E+03  0.1688E+03
     -0.653  0.2863E+02  0.2834E+02  0.1710E+03  0.1706E+03
     -0.589  0.3624E+02  0.3635E+02  0.1734E+03  0.1730E+03
     -0.525  0.3143E+02  0.3237E+02  0.1754E+03  0.1751E+03
     -0.461  0.3911E+02  0.3991E+02  0.1779E+03  0.1776E+03
     -0.397  0.3026E+02  0.2731E+02  0.1798E+03  0.1794E+03
     -0.333  0.3700E+02  0.4006E+02  0.1822E+03  0.1819E+03
     -0.269  0.4031E+02  0.3808E+02  0.1848E+03  0.1844E+03
     -0.204  0.3605E+02  0.4059E+02  0.1871E+03  0.1870E+03
     -0.140  0.3147E+02  0.2807E+02  0.1891E+03  0.1888E+03
     -0.076  0.3941E+02  0.3674E+02  0.1917E+03  0.1911E+03
     -0.012  0.3076E+02  0.3429E+02  0.1936E+03  0.1933E+03
      0.052  0.3490E+02  0.3502E+02  0.1959E+03  0.1956E+03
      0.116  0.3891E+02  0.3589E+02  0.1984E+03  0.1979E+03
      0.180  0.3241E+02  0.3577E+02  0.2004E+03  0.2002E+03
      0.245  0.3413E+02  0.3478E+02  0.2026E+03  0.2024E+03
      0.309  0.2335E+02  0.2363E+02  0.2041E+03  0.2039E+03
      0.373  0.3429E+02  0.3235E+02  0.2063E+03  0.2060E+03
      0.437  0.3276E+02  0.3461E+02  0.2084E+03  0.2082E+03
      0.501  0.4298E+02  0.3778E+02  0.2112E+03  0.2107E+03
      0.565  0.3917E+02  0.4271E+02  0.2137E+03  0.2134E+03
      0.629  0.3334E+02  0.3282E+02  0.2159E+03  0.2155E+03
      0.694  0.4279E+02  0.4257E+02  0.2186E+03  0.2182E+03
      0.758  0.4236E+02  0.4067E+02  0.2213E+03  0.2209E+03
      0.822  0.3880E+02  0.4271E+02  0.2238E+03  0.2236E+03
      0.886  0.3776E+02  0.3508E+02  0.2262E+03  0.2258E+03
      0.950  0.4768E+02  0.4742E+02  0.2293E+03  0.2289E+03
      1.014  0.3901E+02  0.3998E+02  0.2318E+03  0.2315E+03
      1.078  0.3793E+02  0.3532E+02  0.2342E+03  0.2337E+03
      1.143  0.4679E+02  0.4837E+02  0.2372E+03  0.2368E+03
      1.207  0.4306E+02  0.4195E+02  0.2400E+03  0.2395E+03
      1.271  0.4373E+02  0.4258E+02  0.2428E+03  0.2423E+03
      1.335  0.3579E+02  0.3911E+02  0.2451E+03  0.2448E+03
      1.399  0.4338E+02  0.4372E+02  0.2479E+03  0.2476E+03
      1.463  0.4654E+02  0.4523E+02  0.2509E+03  0.2505E+03
      1.527  0.5413E+02  0.5485E+02  0.2543E+03  0.2540E+03
      1.592  0.3611E+02  0.3911E+02  0.2567E+03  0.2565E+03
      1.656  0.4968E+02  0.4669E+02  0.2598E+03  0.2595E+03
      1.720  0.4401E+02  0.4607E+02  0.2627E+03  0.2625E+03
      1.784  0.4152E+02  0.4099E+02  0.2653E+03  0.2651E+03
      1.848  0.3665E+02  0.3565E+02  0.2677E+03  0.2674E+03
      1.912  0.4163E+02  0.3859E+02  0.2704E+03  0.2698E+03
      1.976  0.4194E+02  0.4523E+02  0.2731E+03  0.2727E+03
      2.041  0.4369E+02  0.4424E+02  0.2759E+03  0.2756E+03
      2.105  0.3906E+02  0.3941E+02  0.2784E+03  0.2781E+03
      2.169  0.4912E+02  0.4756E+02  0.2815E+03  0.2812E+03
      2.233  0.4396E+02  0.4346E+02  0.2843E+03  0.2840E+03
      2.297  0.4608E+02  0.4692E+02  0.2873E+03  0.2870E+03
      2.361  0.5167E+02  0.5314E+02  0.2906E+03  0.2904E+03
      2.425  0.4663E+02  0.4367E+02  0.2936E+03  0.2932E+03
      2.490  0.4161E+02  0.4637E+02  0.2963E+03  0.2962E+03
      2.554  0.3331E+02  0.3040E+02  0.2984E+03  0.2981E+03
      2.618  0.5675E+02  0.5699E+02  0.3021E+03  0.3018E+03
      2.682  0.4816E+02  0.4610E+02  0.3051E+03  0.3047E+03
      2.746  0.4575E+02  0.4591E+02  0.3081E+03  0.3077E+03
      2.810  0.3895E+02  0.4245E+02  0.3106E+03  0.3104E+03
      2.874  0.4430E+02  0.4074E+02  0.3134E+03  0.3130E+03
      2.939  0.4522E+02  0.4432E+02  0.3163E+03  0.3159E+03
      3.003  0.4281E+02  0.4367E+02  0.3191E+03  0.3187E+03
      3.067  0.3981E+02  0.4279E+02  0.3216E+03  0.3214E+03
      3.131  0.4621E+02  0.4214E+02  0.3246E+03  0.3241E+03
      3.195  0.4394E+02  0.4751E+02  0.3274E+03  0.3272E+03
      3.259  0.4730E+02  0.4293E+02  0.3304E+03  0.3299E+03
      3.323  0.3679E+02  0.3883E+02  0.3328E+03  0.3324E+03
      3.388  0.3905E+02  0.4113E+02  0.3353E+03  0.3350E+03
      3.452  0.3797E+02  0.3388E+02  0.3378E+03  0.3372E+03
      3.516  0.4635E+02  0.5083E+02  0.3407E+03  0.3405E+03
      3.580  0.4194E+02  0.3831E+02  0.3434E+03  0.3429E+03
      3.644  0.4688E+02  0.4559E+02  0.3464E+03  0.3459E+03
      3.708  0.4050E+02  0.4182E+02  0.3490E+03  0.3486E+03
      3.772  0.4421E+02  0.4559E+02  0.3519E+03  0.3515E+03
      3.837  0.3203E+02  0.3337E+02  0.3539E+03  0.3536E+03
      3.901  0.4274E+02  0.4182E+02  0.3567E+03  0.3563E+03
      3.965  0.5679E+02  0.5495E+02  0.3603E+03  0.3598E+03
      4.029  0.3866E+02  0.4221E+02  0.3628E+03  0.3625E+03
      4.093  0.5168E+02  0.4879E+02  0.3661E+03  0.3657E+03
      4.157  0.3777E+02  0.3781E+02  0.3685E+03  0.3681E+03
      4.221  0.4515E+02  0.4696E+02  0.3714E+03  0.3711E+03
      4.286  0.5559E+02  0.5207E+02  0.3750E+03  0.3745E+03
      4.350  0.4640E+02  0.4949E+02  0.3780E+03  0.3776E+03
      4.414  0.4599E+02  0.4351E+02  0.3809E+03  0.3804E+03
      4.478  0.3328E+02  0.3335E+02  0.3831E+03  0.3826E+03
      4.542  0.4372E+02  0.4363E+02  0.3859E+03  0.3854E+03
      4.606  0.4048E+02  0.4643E+02  0.3885E+03  0.3883E+03
      4.670  0.5455E+02  0.5097E+02  0.3920E+03  0.3916E+03
      4.735  0.3395E+02  0.3067E+02  0.3941E+03  0.3936E+03
      4.799  0.5069E+02  0.5227E+02  0.3974E+03  0.3969E+03
      4.863  0.5252E+02  0.5448E+02  0.4008E+03  0.4004E+03
      4.927  0.3730E+02  0.3493E+02  0.4031E+03  0.4027E+03
      4.991  0.4420E+02  0.4787E+02  0.4060E+03  0.4057E+03
      5.055  0.4863E+02  0.4572E+02  0.4091E+03  0.4087E+03
      5.119  0.4672E+02  0.5060E+02  0.4121E+03  0.4119E+03
      5.184  0.4496E+02  0.3784E+02  0.4150E+03  0.4144E+03
      5.248  0.4407E+02  0.4808E+02  0.4178E+03  0.4174E+03
      5.312  0.4360E+02  0.4494E+02  0.4206E+03  0.4203E+03
      5.376  0.3835E+02  0.3479E+02  0.4231E+03  0.4226E+03
      5.440  0.4019E+02  0.4075E+02  0.4257E+03  0.4252E+03
      5.504  0.4294E+02  0.4129E+02  0.4284E+03  0.4278E+03
      5.568  0.3905E+02  0.4501E+02  0.4309E+03  0.4307E+03
      5.633  0.4269E+02  0.3810E+02  0.4337E+03  0.4332E+03
      5.697  0.4052E+02  0.4532E+02  0.4362E+03  0.4361E+03
      5.761  0.4639E+02  0.4198E+02  0.4392E+03  0.4388E+03
      5.825  0.4752E+02  0.4754E+02  0.4423E+03  0.4418E+03
      5.889  0.3435E+02  0.3614E+02  0.4445E+03  0.4441E+03
      5.953  0.4911E+02  0.4690E+02  0.4476E+03  0.4471E+03
      6.017  0.4368E+02  0.4399E+02  0.4504E+03  0.4500E+03
      6.082  0.2821E+02  0.3050E+02  0.4522E+03  0.4519E+03
      6.146  0.4683E+02  0.4464E+02  0.4552E+03  0.4548E+03
      6.210  0.3322E+02  0.3176E+02  0.4574E+03  0.4568E+03
      6.274  0.4810E+02  0.4874E+02  0.4605E+03  0.4600E+03
      6.338  0.3155E+02  0.3772E+02  0.4625E+03  0.4624E+03
      6.402  0.4996E+02  0.4513E+02  0.4657E+03  0.4653E+03
      6.466  0.2794E+02  0.2808E+02  0.4675E+03  0.4671E+03
      6.531  0.5015E+02  0.4764E+02  0.4707E+03  0.4701E+03
      6.595  0.4393E+02  0.4617E+02  0.4735E+03  0.4731E+03
      6.659  0.4552E+02  0.4691E+02  0.4764E+03  0.4761E+03
      6.723  0.4275E+02  0.3695E+02  0.4792E+03  0.4785E+03
      6.787  0.5211E+02  0.5329E+02  0.4825E+03  0.4819E+03
      6.851  0.4528E+02  0.4441E+02  0.4854E+03  0.4847E+03
      6.915  0.5059E+02  0.5418E+02  0.4887E+03  0.4882E+03
      6.980  0.4804E+02  0.4673E+02  0.4918E+03  0.4912E+03
      7.044  0.4083E+02  0.4233E+02  0.4944E+03  0.4939E+03
      7.108  0.4815E+02  0.4910E+02  0.4975E+03  0.4971E+03
      7.172  0.6013E+02  0.5765E+02  0.5013E+03  0.5008E+03
      7.236  0.4867E+02  0.4739E+02  0.5045E+03  0.5038E+03
      7.300  0.4839E+02  0.4760E+02  0.5076E+03  0.5069E+03
      7.364  0.5325E+02  0.5403E+02  0.5110E+03  0.5103E+03
      7.429  0.4633E+02  0.4901E+02  0.5140E+03  0.5135E+03
      7.493  0.5708E+02  0.5650E+02  0.5176E+03  0.5171E+03
      7.557  0.4956E+02  0.4883E+02  0.5208E+03  0.5203E+03
      7.621  0.4925E+02  0.5194E+02  0.5240E+03  0.5236E+03
      7.685  0.4604E+02  0.4578E+02  0.5269E+03  0.5265E+03
      7.749  0.4784E+02  0.4378E+02  0.5300E+03  0.5293E+03
      7.813  0.5996E+02  0.5989E+02  0.5338E+03  0.5332E+03
      7.878  0.4330E+02  0.4211E+02  0.5366E+03  0.5359E+03
      7.942  0.5070E+02  0.5366E+02  0.5399E+03  0.5393E+03
      8.006  0.4424E+02  0.4691E+02  0.5427E+03  0.5423E+03
      8.070  0.5779E+02  0.5389E+02  0.5464E+03  0.5458E+03
      8.134  0.5602E+02  0.5775E+02  0.5500E+03  0.5495E+03
      8.198  0.7120E+02  0.6606E+02  0.5546E+03  0.5537E+03
      8.262  0.4444E+02  0.4999E+02  0.5574E+03  0.5569E+03
      8.327  0.6270E+02  0.5864E+02  0.5615E+03  0.5607E+03
      8.391  0.5038E+02  0.5322E+02  0.5647E+03  0.5641E+03
      8.455  0.5680E+02  0.6008E+02  0.5683E+03  0.5680E+03
      8.519  0.5849E+02  0.6129E+02  0.5721E+03  0.5719E+03
      8.583  0.4919E+02  0.4748E+02  0.5752E+03  0.5750E+03
      8.647  0.8608E+01  0.1226E+02  0.5758E+03  0.5757E+03
      8.711  0.3222E+01  0.3997E+01  0.5760E+03  0.5760E+03
      8.776  0.0000E+00  0.0000E+00  0.5760E+03  0.5760E+03
      8.840  0.0000E+00  0.0000E+00  0.5760E+03  0.5760E+03
      8.904  0.0000E+00  0.0000E+00  0.5760E+03  0.5760E+03
      8.968  0.0000E+00  0.0000E+00  0.5760E+03  0.5760E+03
      9.032  0.0000E+00  0.0000E+00  0.5760E+03  0.5760E+03
      9.096  0.0000E+00  0.0000E+00  0.5760E+03  0.5760E+03
      9.160  0.0000E+00  0.0000E+00  0.5760E+03  0.5760E+03
      9.225  0.0000E+00  0.0000E+00  0.5760E+03  0.5760E+03
      9.289  0.0000E+00  0.0000E+00  0.5760E+03  0.5760E+03
      9.353  0.0000E+00  0.0000E+00  0.5760E+03  0.5760E+03
      9.417  0.0000E+00  0.0000E+00  0.5760E+03  0.5760E+03
      9.481  0.0000E+00  0.0000E+00  0.5760E+03  0.5760E+03
      9.545  0.0000E+00  0.0000E+00  0.5760E+03  0.5760E+03
