  96  96   0   0
  0.1886566E+02  0.1265123E-08  0.1265123E-08  0.1154894E-08  0.5000000E-15
  1.000000000000000E-004
  CAR 
 Si and Ge interface calculation         
      8.37269354    -10.98393320  301      5.37660340      1.00000000
    -10.984  0.0000E+00  0.0000E+00  0.0000E+00  0.0000E+00
    -10.919  0.0000E+00  0.0000E+00  0.0000E+00  0.0000E+00
    -10.855  0.0000E+00  0.0000E+00  0.0000E+00  0.0000E+00
    -10.790  0.0000E+00  0.0000E+00  0.0000E+00  0.0000E+00
    -10.726  0.0000E+00  0.0000E+00  0.0000E+00  0.0000E+00
    -10.661  0.0000E+00  0.0000E+00  0.0000E+00  0.0000E+00
    -10.597  0.0000E+00  0.0000E+00  0.0000E+00  0.0000E+00
    -10.532  0.0000E+00  0.0000E+00  0.0000E+00  0.0000E+00
    -10.468  0.0000E+00  0.0000E+00  0.0000E+00  0.0000E+00
    -10.403  0.0000E+00  0.0000E+00  0.0000E+00  0.0000E+00
    -10.339  0.0000E+00  0.0000E+00  0.0000E+00  0.0000E+00
    -10.274  0.0000E+00  0.0000E+00  0.0000E+00  0.0000E+00
    -10.210  0.0000E+00  0.0000E+00  0.0000E+00  0.0000E+00
    -10.145  0.3658E-08  0.3777E-12  0.2360E-09  0.2437E-13
    -10.081  0.1151E+01  0.1118E+01  0.7424E-01  0.7212E-01
    -10.016  0.7664E+01  0.6689E+01  0.5687E+00  0.5037E+00
     -9.952  0.1963E+02  0.1853E+02  0.1836E+01  0.1699E+01
     -9.887  0.1347E+02  0.1118E+02  0.2707E+01  0.2420E+01
     -9.823  0.1534E+02  0.1866E+02  0.3698E+01  0.3624E+01
     -9.758  0.1165E+02  0.1035E+02  0.4450E+01  0.4292E+01
     -9.693  0.1359E+02  0.1496E+02  0.5329E+01  0.5257E+01
     -9.629  0.1446E+02  0.1158E+02  0.6263E+01  0.6004E+01
     -9.564  0.2269E+02  0.2349E+02  0.7729E+01  0.7520E+01
     -9.500  0.1451E+02  0.1763E+02  0.8667E+01  0.8657E+01
     -9.435  0.1486E+02  0.1245E+02  0.9626E+01  0.9462E+01
     -9.371  0.1498E+02  0.1664E+02  0.1059E+02  0.1054E+02
     -9.306  0.2057E+02  0.1617E+02  0.1192E+02  0.1158E+02
     -9.242  0.2278E+02  0.2437E+02  0.1339E+02  0.1315E+02
     -9.177  0.3533E+02  0.3571E+02  0.1567E+02  0.1546E+02
     -9.113  0.2101E+02  0.2109E+02  0.1703E+02  0.1682E+02
     -9.048  0.1130E+02  0.1325E+02  0.1776E+02  0.1768E+02
     -8.984  0.3678E+02  0.2927E+02  0.2013E+02  0.1956E+02
     -8.919  0.2713E+02  0.3411E+02  0.2188E+02  0.2177E+02
     -8.855  0.1322E+02  0.1409E+02  0.2274E+02  0.2268E+02
     -8.790  0.1472E+02  0.1144E+02  0.2369E+02  0.2341E+02
     -8.726  0.3202E+02  0.3407E+02  0.2575E+02  0.2561E+02
     -8.661  0.2437E+02  0.2509E+02  0.2733E+02  0.2723E+02
     -8.597  0.2636E+02  0.2554E+02  0.2903E+02  0.2888E+02
     -8.532  0.2694E+02  0.2770E+02  0.3077E+02  0.3067E+02
     -8.468  0.1723E+02  0.1592E+02  0.3188E+02  0.3170E+02
     -8.403  0.2383E+02  0.1923E+02  0.3342E+02  0.3294E+02
     -8.339  0.3391E+02  0.3966E+02  0.3561E+02  0.3550E+02
     -8.274  0.2181E+02  0.1872E+02  0.3701E+02  0.3671E+02
     -8.209  0.2021E+02  0.2303E+02  0.3832E+02  0.3819E+02
     -8.145  0.1269E+02  0.1369E+02  0.3914E+02  0.3908E+02
     -8.080  0.2757E+02  0.2543E+02  0.4092E+02  0.4072E+02
     -8.016  0.2233E+02  0.2061E+02  0.4236E+02  0.4205E+02
     -7.951  0.2466E+02  0.2606E+02  0.4395E+02  0.4373E+02
     -7.887  0.1825E+02  0.1766E+02  0.4513E+02  0.4487E+02
     -7.822  0.5462E+01  0.7663E+01  0.4548E+02  0.4537E+02
     -7.758  0.8062E+01  0.9835E+01  0.4600E+02  0.4600E+02
     -7.693  0.0000E+00  0.0000E+00  0.4600E+02  0.4600E+02
     -7.629  0.0000E+00  0.0000E+00  0.4600E+02  0.4600E+02
     -7.564  0.0000E+00  0.0000E+00  0.4600E+02  0.4600E+02
     -7.500  0.0000E+00  0.0000E+00  0.4600E+02  0.4600E+02
     -7.435  0.0000E+00  0.0000E+00  0.4600E+02  0.4600E+02
     -7.371  0.0000E+00  0.0000E+00  0.4600E+02  0.4600E+02
     -7.306  0.0000E+00  0.0000E+00  0.4600E+02  0.4600E+02
     -7.242  0.0000E+00  0.0000E+00  0.4600E+02  0.4600E+02
     -7.177  0.0000E+00  0.0000E+00  0.4600E+02  0.4600E+02
     -7.113  0.0000E+00  0.0000E+00  0.4600E+02  0.4600E+02
     -7.048  0.0000E+00  0.0000E+00  0.4600E+02  0.4600E+02
     -6.984  0.0000E+00  0.0000E+00  0.4600E+02  0.4600E+02
     -6.919  0.0000E+00  0.0000E+00  0.4600E+02  0.4600E+02
     -6.855  0.0000E+00  0.0000E+00  0.4600E+02  0.4600E+02
     -6.790  0.3221E-03  0.2334E-06  0.4600E+02  0.4600E+02
     -6.725  0.6336E+01  0.4867E+01  0.4641E+02  0.4631E+02
     -6.661  0.3995E+01  0.5465E+01  0.4667E+02  0.4667E+02
     -6.596  0.0000E+00  0.0000E+00  0.4667E+02  0.4667E+02
     -6.532  0.1169E+01  0.1432E+00  0.4674E+02  0.4668E+02
     -6.467  0.2320E+02  0.2174E+02  0.4824E+02  0.4808E+02
     -6.403  0.3163E+01  0.5664E+01  0.4844E+02  0.4844E+02
     -6.338  0.1626E+00  0.2862E-02  0.4845E+02  0.4844E+02
     -6.274  0.1917E+02  0.1770E+02  0.4969E+02  0.4959E+02
     -6.209  0.3440E+01  0.3242E+01  0.4991E+02  0.4980E+02
     -6.145  0.4775E+01  0.6588E+01  0.5022E+02  0.5022E+02
     -6.080  0.9175E+01  0.5625E+01  0.5081E+02  0.5059E+02
     -6.016  0.9904E+01  0.1148E+02  0.5145E+02  0.5133E+02
     -5.951  0.2506E+02  0.2247E+02  0.5307E+02  0.5278E+02
     -5.887  0.2429E+02  0.2654E+02  0.5464E+02  0.5449E+02
     -5.822  0.2472E+02  0.2314E+02  0.5624E+02  0.5598E+02
     -5.758  0.2281E+02  0.2076E+02  0.5771E+02  0.5732E+02
     -5.693  0.2670E+02  0.2865E+02  0.5943E+02  0.5917E+02
     -5.629  0.1773E+02  0.1888E+02  0.6058E+02  0.6039E+02
     -5.564  0.2371E+02  0.2262E+02  0.6211E+02  0.6185E+02
     -5.500  0.2313E+02  0.2184E+02  0.6360E+02  0.6327E+02
     -5.435  0.2987E+02  0.3033E+02  0.6553E+02  0.6523E+02
     -5.371  0.2260E+02  0.2398E+02  0.6699E+02  0.6677E+02
     -5.306  0.3316E+02  0.3290E+02  0.6913E+02  0.6890E+02
     -5.241  0.2280E+02  0.2072E+02  0.7060E+02  0.7024E+02
     -5.177  0.2818E+02  0.2548E+02  0.7242E+02  0.7188E+02
     -5.112  0.2777E+02  0.2966E+02  0.7422E+02  0.7380E+02
     -5.048  0.2232E+02  0.2712E+02  0.7566E+02  0.7555E+02
     -4.983  0.2153E+02  0.2130E+02  0.7705E+02  0.7692E+02
     -4.919  0.2705E+02  0.2707E+02  0.7880E+02  0.7867E+02
     -4.854  0.2494E+02  0.2283E+02  0.8041E+02  0.8014E+02
     -4.790  0.2137E+02  0.2462E+02  0.8178E+02  0.8173E+02
     -4.725  0.1780E+02  0.1420E+02  0.8293E+02  0.8265E+02
     -4.661  0.2694E+02  0.2797E+02  0.8467E+02  0.8446E+02
     -4.596  0.2325E+02  0.2269E+02  0.8617E+02  0.8592E+02
     -4.532  0.2776E+02  0.2765E+02  0.8797E+02  0.8771E+02
     -4.467  0.2451E+02  0.2635E+02  0.8955E+02  0.8941E+02
     -4.403  0.2049E+02  0.1874E+02  0.9087E+02  0.9063E+02
     -4.338  0.1719E+02  0.1927E+02  0.9198E+02  0.9187E+02
     -4.274  0.1652E+02  0.1587E+02  0.9305E+02  0.9289E+02
     -4.209  0.2413E+02  0.2320E+02  0.9461E+02  0.9439E+02
     -4.145  0.1647E+02  0.1871E+02  0.9567E+02  0.9560E+02
     -4.080  0.2222E+02  0.1950E+02  0.9710E+02  0.9686E+02
     -4.016  0.1260E+02  0.1474E+02  0.9792E+02  0.9781E+02
     -3.951  0.2379E+02  0.2121E+02  0.9945E+02  0.9918E+02
     -3.887  0.2246E+02  0.2215E+02  0.1009E+03  0.1006E+03
     -3.822  0.2235E+02  0.2346E+02  0.1023E+03  0.1021E+03
     -3.757  0.1381E+02  0.1375E+02  0.1032E+03  0.1030E+03
     -3.693  0.2019E+02  0.2130E+02  0.1045E+03  0.1044E+03
     -3.628  0.1782E+02  0.1653E+02  0.1057E+03  0.1055E+03
     -3.564  0.1649E+02  0.1826E+02  0.1068E+03  0.1066E+03
     -3.499  0.2401E+02  0.2325E+02  0.1083E+03  0.1081E+03
     -3.435  0.2253E+02  0.2061E+02  0.1098E+03  0.1095E+03
     -3.370  0.4762E+01  0.7929E+01  0.1101E+03  0.1100E+03
     -3.306  0.3175E+02  0.3036E+02  0.1121E+03  0.1119E+03
     -3.241  0.1046E+02  0.1225E+02  0.1128E+03  0.1127E+03
     -3.177  0.3680E+02  0.3441E+02  0.1152E+03  0.1149E+03
     -3.112  0.2473E+02  0.2339E+02  0.1168E+03  0.1165E+03
     -3.048  0.2053E+02  0.2420E+02  0.1181E+03  0.1180E+03
     -2.983  0.2778E+02  0.2447E+02  0.1199E+03  0.1196E+03
     -2.919  0.2072E+02  0.2259E+02  0.1212E+03  0.1211E+03
     -2.854  0.1774E+02  0.1624E+02  0.1224E+03  0.1221E+03
     -2.790  0.3307E+02  0.3185E+02  0.1245E+03  0.1242E+03
     -2.725  0.3352E+02  0.3684E+02  0.1267E+03  0.1265E+03
     -2.661  0.2412E+02  0.2002E+02  0.1282E+03  0.1278E+03
     -2.596  0.2606E+02  0.2903E+02  0.1299E+03  0.1297E+03
     -2.532  0.3157E+02  0.2978E+02  0.1319E+03  0.1316E+03
     -2.467  0.3251E+02  0.3378E+02  0.1340E+03  0.1338E+03
     -2.402  0.2761E+02  0.2796E+02  0.1358E+03  0.1356E+03
     -2.338  0.1943E+02  0.1751E+02  0.1371E+03  0.1367E+03
     -2.273  0.3400E+02  0.3599E+02  0.1393E+03  0.1391E+03
     -2.209  0.2614E+02  0.2629E+02  0.1410E+03  0.1408E+03
     -2.144  0.2066E+02  0.1819E+02  0.1423E+03  0.1419E+03
     -2.080  0.3198E+02  0.3312E+02  0.1444E+03  0.1441E+03
     -2.015  0.2969E+02  0.2980E+02  0.1463E+03  0.1460E+03
     -1.951  0.2632E+02  0.2747E+02  0.1480E+03  0.1478E+03
     -1.886  0.2288E+02  0.2447E+02  0.1495E+03  0.1493E+03
     -1.822  0.2777E+02  0.2509E+02  0.1513E+03  0.1510E+03
     -1.757  0.2321E+02  0.2457E+02  0.1528E+03  0.1526E+03
     -1.693  0.2316E+02  0.2249E+02  0.1542E+03  0.1540E+03
     -1.628  0.2593E+02  0.2884E+02  0.1559E+03  0.1559E+03
     -1.564  0.2207E+02  0.1943E+02  0.1573E+03  0.1571E+03
     -1.499  0.2447E+02  0.2320E+02  0.1589E+03  0.1586E+03
     -1.435  0.2946E+02  0.2867E+02  0.1608E+03  0.1605E+03
     -1.370  0.2585E+02  0.2946E+02  0.1625E+03  0.1624E+03
     -1.306  0.2201E+02  0.2085E+02  0.1639E+03  0.1637E+03
     -1.241  0.1560E+02  0.1509E+02  0.1649E+03  0.1647E+03
     -1.177  0.1600E+02  0.1782E+02  0.1660E+03  0.1658E+03
     -1.112  0.2149E+02  0.2068E+02  0.1673E+03  0.1672E+03
     -1.048  0.2164E+02  0.2016E+02  0.1687E+03  0.1685E+03
     -0.983  0.2321E+02  0.2615E+02  0.1702E+03  0.1702E+03
     -0.918  0.2042E+02  0.1807E+02  0.1716E+03  0.1713E+03
     -0.854  0.1772E+02  0.1803E+02  0.1727E+03  0.1725E+03
     -0.789  0.1593E+02  0.1634E+02  0.1737E+03  0.1736E+03
     -0.725  0.2241E+02  0.1903E+02  0.1752E+03  0.1748E+03
     -0.660  0.2506E+02  0.2740E+02  0.1768E+03  0.1766E+03
     -0.596  0.2692E+02  0.2158E+02  0.1785E+03  0.1779E+03
     -0.531  0.3036E+02  0.3425E+02  0.1805E+03  0.1802E+03
     -0.467  0.2526E+02  0.2580E+02  0.1821E+03  0.1818E+03
     -0.402  0.2730E+02  0.2692E+02  0.1839E+03  0.1836E+03
     -0.338  0.2839E+02  0.2910E+02  0.1857E+03  0.1854E+03
     -0.273  0.2415E+02  0.2431E+02  0.1873E+03  0.1870E+03
     -0.209  0.2947E+02  0.3013E+02  0.1892E+03  0.1890E+03
     -0.144  0.3273E+02  0.2984E+02  0.1913E+03  0.1909E+03
     -0.080  0.3506E+02  0.3542E+02  0.1936E+03  0.1932E+03
     -0.015  0.2945E+02  0.3413E+02  0.1955E+03  0.1954E+03
      0.049  0.3199E+02  0.2942E+02  0.1975E+03  0.1973E+03
      0.114  0.2654E+02  0.2434E+02  0.1992E+03  0.1988E+03
      0.178  0.4099E+02  0.3701E+02  0.2019E+03  0.2012E+03
      0.243  0.4688E+02  0.5017E+02  0.2049E+03  0.2045E+03
      0.307  0.3805E+02  0.3740E+02  0.2074E+03  0.2069E+03
      0.372  0.3566E+02  0.3767E+02  0.2097E+03  0.2093E+03
      0.436  0.4385E+02  0.4218E+02  0.2125E+03  0.2120E+03
      0.501  0.3804E+02  0.3992E+02  0.2150E+03  0.2146E+03
      0.566  0.4082E+02  0.4041E+02  0.2176E+03  0.2172E+03
      0.630  0.4083E+02  0.4314E+02  0.2202E+03  0.2200E+03
      0.695  0.4144E+02  0.3613E+02  0.2229E+03  0.2223E+03
      0.759  0.3213E+02  0.3732E+02  0.2250E+03  0.2247E+03
      0.824  0.4182E+02  0.3728E+02  0.2277E+03  0.2272E+03
      0.888  0.3273E+02  0.3415E+02  0.2298E+03  0.2294E+03
      0.953  0.3594E+02  0.3535E+02  0.2321E+03  0.2316E+03
      1.017  0.4510E+02  0.4616E+02  0.2350E+03  0.2346E+03
      1.082  0.3715E+02  0.3967E+02  0.2374E+03  0.2372E+03
      1.146  0.3610E+02  0.3454E+02  0.2397E+03  0.2394E+03
      1.211  0.3750E+02  0.3787E+02  0.2422E+03  0.2419E+03
      1.275  0.4108E+02  0.4166E+02  0.2448E+03  0.2445E+03
      1.340  0.2807E+02  0.2726E+02  0.2466E+03  0.2463E+03
      1.404  0.3428E+02  0.3544E+02  0.2488E+03  0.2486E+03
      1.469  0.3599E+02  0.3467E+02  0.2512E+03  0.2508E+03
      1.533  0.3514E+02  0.3485E+02  0.2534E+03  0.2531E+03
      1.598  0.4022E+02  0.4217E+02  0.2560E+03  0.2558E+03
      1.662  0.4951E+02  0.4501E+02  0.2592E+03  0.2587E+03
      1.727  0.3274E+02  0.3373E+02  0.2613E+03  0.2609E+03
      1.791  0.3844E+02  0.4197E+02  0.2638E+03  0.2636E+03
      1.856  0.4600E+02  0.4558E+02  0.2668E+03  0.2665E+03
      1.920  0.4268E+02  0.3934E+02  0.2696E+03  0.2691E+03
      1.985  0.3803E+02  0.4080E+02  0.2720E+03  0.2717E+03
      2.050  0.4608E+02  0.4455E+02  0.2750E+03  0.2746E+03
      2.114  0.3456E+02  0.3552E+02  0.2772E+03  0.2769E+03
      2.179  0.4103E+02  0.4307E+02  0.2799E+03  0.2797E+03
      2.243  0.4209E+02  0.4011E+02  0.2826E+03  0.2823E+03
      2.308  0.4344E+02  0.4303E+02  0.2854E+03  0.2850E+03
      2.372  0.3100E+02  0.3293E+02  0.2874E+03  0.2872E+03
      2.437  0.4299E+02  0.4040E+02  0.2902E+03  0.2898E+03
      2.501  0.3373E+02  0.3454E+02  0.2923E+03  0.2920E+03
      2.566  0.3241E+02  0.3345E+02  0.2944E+03  0.2942E+03
      2.630  0.3079E+02  0.2925E+02  0.2964E+03  0.2960E+03
      2.695  0.3528E+02  0.3710E+02  0.2987E+03  0.2984E+03
      2.759  0.3599E+02  0.3582E+02  0.3010E+03  0.3008E+03
      2.824  0.3272E+02  0.2973E+02  0.3031E+03  0.3027E+03
      2.888  0.3721E+02  0.3648E+02  0.3055E+03  0.3050E+03
      2.953  0.3225E+02  0.3485E+02  0.3076E+03  0.3073E+03
      3.017  0.2639E+02  0.2540E+02  0.3093E+03  0.3089E+03
      3.082  0.3840E+02  0.3896E+02  0.3118E+03  0.3114E+03
      3.146  0.3480E+02  0.3612E+02  0.3141E+03  0.3138E+03
      3.211  0.3712E+02  0.3501E+02  0.3164E+03  0.3160E+03
      3.275  0.3394E+02  0.3431E+02  0.3186E+03  0.3182E+03
      3.340  0.4045E+02  0.4103E+02  0.3212E+03  0.3209E+03
      3.404  0.3174E+02  0.3378E+02  0.3233E+03  0.3231E+03
      3.469  0.4108E+02  0.3924E+02  0.3259E+03  0.3256E+03
      3.534  0.2768E+02  0.2818E+02  0.3277E+03  0.3274E+03
      3.598  0.3065E+02  0.3017E+02  0.3297E+03  0.3294E+03
      3.663  0.2648E+02  0.2863E+02  0.3314E+03  0.3312E+03
      3.727  0.2808E+02  0.2938E+02  0.3332E+03  0.3331E+03
      3.792  0.2385E+02  0.2097E+02  0.3348E+03  0.3345E+03
      3.856  0.2830E+02  0.2876E+02  0.3366E+03  0.3363E+03
      3.921  0.2570E+02  0.2636E+02  0.3383E+03  0.3380E+03
      3.985  0.2196E+02  0.1922E+02  0.3397E+03  0.3393E+03
      4.050  0.3357E+02  0.3395E+02  0.3418E+03  0.3415E+03
      4.114  0.2295E+02  0.2617E+02  0.3433E+03  0.3432E+03
      4.179  0.3712E+02  0.3243E+02  0.3457E+03  0.3452E+03
      4.243  0.2159E+02  0.2404E+02  0.3471E+03  0.3468E+03
      4.308  0.3647E+02  0.3272E+02  0.3495E+03  0.3489E+03
      4.372  0.2662E+02  0.3320E+02  0.3512E+03  0.3511E+03
      4.437  0.2998E+02  0.2500E+02  0.3531E+03  0.3527E+03
      4.501  0.3389E+02  0.3754E+02  0.3553E+03  0.3551E+03
      4.566  0.2696E+02  0.2441E+02  0.3571E+03  0.3567E+03
      4.630  0.3234E+02  0.2985E+02  0.3591E+03  0.3586E+03
      4.695  0.3104E+02  0.3591E+02  0.3611E+03  0.3609E+03
      4.759  0.3307E+02  0.3011E+02  0.3633E+03  0.3629E+03
      4.824  0.3786E+02  0.3528E+02  0.3657E+03  0.3651E+03
      4.889  0.3634E+02  0.3644E+02  0.3681E+03  0.3675E+03
      4.953  0.3636E+02  0.4077E+02  0.3704E+03  0.3701E+03
      5.018  0.2975E+02  0.2915E+02  0.3723E+03  0.3720E+03
      5.082  0.3009E+02  0.2929E+02  0.3743E+03  0.3739E+03
      5.147  0.3008E+02  0.3140E+02  0.3762E+03  0.3759E+03
      5.211  0.2970E+02  0.3015E+02  0.3781E+03  0.3779E+03
      5.276  0.2789E+02  0.2283E+02  0.3799E+03  0.3793E+03
      5.340  0.3645E+02  0.3768E+02  0.3823E+03  0.3818E+03
      5.405  0.2949E+02  0.3258E+02  0.3842E+03  0.3839E+03
      5.469  0.3585E+02  0.3215E+02  0.3865E+03  0.3859E+03
      5.534  0.3202E+02  0.3435E+02  0.3886E+03  0.3882E+03
      5.598  0.3092E+02  0.3214E+02  0.3906E+03  0.3902E+03
      5.663  0.3368E+02  0.3379E+02  0.3927E+03  0.3924E+03
      5.727  0.3259E+02  0.2907E+02  0.3949E+03  0.3943E+03
      5.792  0.3507E+02  0.3497E+02  0.3971E+03  0.3966E+03
      5.856  0.3952E+02  0.4080E+02  0.3997E+03  0.3992E+03
      5.921  0.3490E+02  0.3572E+02  0.4019E+03  0.4015E+03
      5.985  0.3729E+02  0.3769E+02  0.4043E+03  0.4039E+03
      6.050  0.3920E+02  0.3551E+02  0.4069E+03  0.4062E+03
      6.114  0.4148E+02  0.4473E+02  0.4095E+03  0.4091E+03
      6.179  0.3833E+02  0.3780E+02  0.4120E+03  0.4115E+03
      6.243  0.4161E+02  0.4077E+02  0.4147E+03  0.4142E+03
      6.308  0.3866E+02  0.4090E+02  0.4172E+03  0.4168E+03
      6.373  0.3877E+02  0.3582E+02  0.4197E+03  0.4191E+03
      6.437  0.3755E+02  0.4041E+02  0.4221E+03  0.4217E+03
      6.502  0.3961E+02  0.4163E+02  0.4247E+03  0.4244E+03
      6.566  0.3799E+02  0.3289E+02  0.4271E+03  0.4265E+03
      6.631  0.4394E+02  0.4255E+02  0.4300E+03  0.4293E+03
      6.695  0.3648E+02  0.3862E+02  0.4323E+03  0.4318E+03
      6.760  0.3602E+02  0.3788E+02  0.4346E+03  0.4342E+03
      6.824  0.4729E+02  0.4358E+02  0.4377E+03  0.4370E+03
      6.889  0.4518E+02  0.4384E+02  0.4406E+03  0.4399E+03
      6.953  0.4066E+02  0.4397E+02  0.4432E+03  0.4427E+03
      7.018  0.4312E+02  0.4434E+02  0.4460E+03  0.4456E+03
      7.082  0.4007E+02  0.3928E+02  0.4486E+03  0.4481E+03
      7.147  0.4281E+02  0.4552E+02  0.4514E+03  0.4511E+03
      7.211  0.4699E+02  0.4425E+02  0.4544E+03  0.4539E+03
      7.276  0.3755E+02  0.3859E+02  0.4568E+03  0.4564E+03
      7.340  0.4343E+02  0.4288E+02  0.4596E+03  0.4592E+03
      7.405  0.3809E+02  0.3836E+02  0.4621E+03  0.4616E+03
      7.469  0.2375E+02  0.2687E+02  0.4636E+03  0.4634E+03
      7.534  0.5786E+01  0.9606E+01  0.4640E+03  0.4640E+03
      7.598  0.0000E+00  0.0000E+00  0.4640E+03  0.4640E+03
      7.663  0.0000E+00  0.0000E+00  0.4640E+03  0.4640E+03
      7.727  0.0000E+00  0.0000E+00  0.4640E+03  0.4640E+03
      7.792  0.0000E+00  0.0000E+00  0.4640E+03  0.4640E+03
      7.857  0.0000E+00  0.0000E+00  0.4640E+03  0.4640E+03
      7.921  0.0000E+00  0.0000E+00  0.4640E+03  0.4640E+03
      7.986  0.0000E+00  0.0000E+00  0.4640E+03  0.4640E+03
      8.050  0.0000E+00  0.0000E+00  0.4640E+03  0.4640E+03
      8.115  0.0000E+00  0.0000E+00  0.4640E+03  0.4640E+03
      8.179  0.0000E+00  0.0000E+00  0.4640E+03  0.4640E+03
      8.244  0.0000E+00  0.0000E+00  0.4640E+03  0.4640E+03
      8.308  0.0000E+00  0.0000E+00  0.4640E+03  0.4640E+03
      8.373  0.0000E+00  0.0000E+00  0.4640E+03  0.4640E+03
