 120 120   0   0
  0.1383406E+02  0.1330318E-08  0.1629300E-08  0.8390060E-09  0.5000000E-15
  1.000000000000000E-004
  CAR 
 Si and Ge interface calculation         
      7.21361757    -15.24206589  301      3.88036164      1.00000000
    -15.242  0.0000E+00  0.0000E+00  0.0000E+00  0.0000E+00
    -15.167  0.0000E+00  0.0000E+00  0.0000E+00  0.0000E+00
    -15.092  0.0000E+00  0.0000E+00  0.0000E+00  0.0000E+00
    -15.018  0.0000E+00  0.0000E+00  0.0000E+00  0.0000E+00
    -14.943  0.0000E+00  0.0000E+00  0.0000E+00  0.0000E+00
    -14.868  0.0000E+00  0.0000E+00  0.0000E+00  0.0000E+00
    -14.793  0.0000E+00  0.0000E+00  0.0000E+00  0.0000E+00
    -14.718  0.0000E+00  0.0000E+00  0.0000E+00  0.0000E+00
    -14.643  0.0000E+00  0.0000E+00  0.0000E+00  0.0000E+00
    -14.568  0.0000E+00  0.0000E+00  0.0000E+00  0.0000E+00
    -14.494  0.0000E+00  0.0000E+00  0.0000E+00  0.0000E+00
    -14.419  0.0000E+00  0.0000E+00  0.0000E+00  0.0000E+00
    -14.344  0.0000E+00  0.0000E+00  0.0000E+00  0.0000E+00
    -14.269  0.2809E-10  0.1051E-14  0.2102E-11  0.7864E-16
    -14.194  0.4453E+01  0.4423E+01  0.3333E+00  0.3311E+00
    -14.119  0.1202E+02  0.9611E+01  0.1233E+01  0.1053E+01
    -14.044  0.1469E+02  0.1685E+02  0.2333E+01  0.2333E+01
    -13.970  0.9041E-01  0.8787E-03  0.2340E+01  0.2333E+01
    -13.895  0.2634E+02  0.2405E+02  0.4312E+01  0.4134E+01
    -13.820  0.8902E+01  0.1132E+02  0.5000E+01  0.4981E+01
    -13.745  0.1758E+02  0.1489E+02  0.6316E+01  0.6114E+01
    -13.670  0.4043E-01  0.2337E+01  0.6336E+01  0.6333E+01
    -13.595  0.1766E+02  0.1658E+02  0.7658E+01  0.7574E+01
    -13.520  0.1970E+02  0.1861E+02  0.9142E+01  0.8967E+01
    -13.446  0.6970E+01  0.8512E+01  0.9667E+01  0.9665E+01
    -13.371  0.1778E+02  0.1667E+02  0.1100E+02  0.1091E+02
    -13.296  0.4820E+00  0.1096E-01  0.1104E+02  0.1100E+02
    -13.221  0.1398E+02  0.1337E+02  0.1208E+02  0.1200E+02
    -13.146  0.2955E+02  0.2740E+02  0.1429E+02  0.1406E+02
    -13.071  0.8606E+01  0.1152E+02  0.1500E+02  0.1500E+02
    -12.996  0.5626E+01  0.4496E+01  0.1542E+02  0.1534E+02
    -12.922  0.3445E+02  0.3558E+02  0.1800E+02  0.1800E+02
    -12.847  0.1171E+00  0.9691E-03  0.1801E+02  0.1800E+02
    -12.772  0.8789E+01  0.8905E+01  0.1867E+02  0.1867E+02
    -12.697  0.8324E+01  0.6163E+01  0.1929E+02  0.1913E+02
    -12.622  0.1026E+02  0.1043E+02  0.2010E+02  0.1991E+02
    -12.547  0.3949E+02  0.3619E+02  0.2306E+02  0.2271E+02
    -12.473  0.3588E+01  0.8166E+01  0.2333E+02  0.2333E+02
    -12.398  0.1782E-04  0.2389E-07  0.2333E+02  0.2333E+02
    -12.323  0.1335E+02  0.1310E+02  0.2433E+02  0.2431E+02
    -12.248  0.1744E+02  0.1432E+02  0.2564E+02  0.2541E+02
    -12.173  0.0000E+00  0.2650E+01  0.2567E+02  0.2567E+02
    -12.098  0.3363E+01  0.1715E+01  0.2592E+02  0.2580E+02
    -12.023  0.1588E+02  0.1282E+02  0.2711E+02  0.2675E+02
    -11.949  0.1193E+02  0.1663E+02  0.2800E+02  0.2800E+02
    -11.874  0.3077E-12  0.0000E+00  0.2800E+02  0.2800E+02
    -11.799  0.4450E+01  0.4378E+01  0.2833E+02  0.2833E+02
    -11.724  0.7763E+01  0.4672E+01  0.2891E+02  0.2868E+02
    -11.649  0.0000E+00  0.4235E+01  0.2900E+02  0.2900E+02
    -11.574  0.3697E-03  0.5113E-05  0.2900E+02  0.2900E+02
    -11.499  0.8376E+01  0.5868E+01  0.2963E+02  0.2944E+02
    -11.425  0.4525E+02  0.4573E+02  0.3301E+02  0.3286E+02
    -11.350  0.2416E+02  0.2202E+02  0.3483E+02  0.3456E+02
    -11.275  0.6796E+01  0.5174E+01  0.3534E+02  0.3508E+02
    -11.200  0.1769E+02  0.2118E+02  0.3667E+02  0.3667E+02
    -11.125  0.4453E+01  0.4453E+01  0.3700E+02  0.3700E+02
    -11.050  0.1781E+02  0.1772E+02  0.3833E+02  0.3833E+02
    -10.975  0.3304E-03  0.1405E-05  0.3833E+02  0.3833E+02
    -10.901  0.2668E+02  0.2529E+02  0.4033E+02  0.4023E+02
    -10.826  0.8880E+01  0.8906E+01  0.4100E+02  0.4100E+02
    -10.751  0.8899E+01  0.8906E+01  0.4167E+02  0.4167E+02
    -10.676  0.4630E+01  0.1251E+01  0.4201E+02  0.4176E+02
    -10.601  0.5355E+01  0.7790E+01  0.4241E+02  0.4234E+02
    -10.526  0.2564E+02  0.2653E+02  0.4433E+02  0.4433E+02
    -10.452  0.6560E+01  0.1942E+01  0.4482E+02  0.4448E+02
    -10.377  0.2347E+01  0.6964E+01  0.4500E+02  0.4500E+02
    -10.302  0.8906E+01  0.8906E+01  0.4567E+02  0.4567E+02
    -10.227  0.1332E+02  0.1170E+02  0.4666E+02  0.4654E+02
    -10.152  0.1412E+02  0.8534E+01  0.4772E+02  0.4731E+02
    -10.077  0.6607E+01  0.8600E+01  0.4822E+02  0.4802E+02
    -10.002  0.1481E+02  0.1624E+02  0.4933E+02  0.4924E+02
     -9.928  0.1778E+02  0.1769E+02  0.5066E+02  0.5056E+02
     -9.853  0.6979E+01  0.4694E+01  0.5119E+02  0.5102E+02
     -9.778  0.1539E+02  0.1741E+02  0.5234E+02  0.5233E+02
     -9.703  0.4253E+02  0.4058E+02  0.5552E+02  0.5537E+02
     -9.628  0.2444E+02  0.2603E+02  0.5735E+02  0.5732E+02
     -9.553  0.1309E+02  0.1335E+02  0.5833E+02  0.5833E+02
     -9.478  0.2672E+02  0.2666E+02  0.6033E+02  0.6033E+02
     -9.404  0.9073E+01  0.8907E+01  0.6101E+02  0.6100E+02
     -9.329  0.2094E+02  0.1681E+02  0.6258E+02  0.6226E+02
     -9.254  0.1853E+02  0.2325E+02  0.6406E+02  0.6400E+02
     -9.179  0.2085E+02  0.1652E+02  0.6562E+02  0.6524E+02
     -9.104  0.2958E+02  0.3129E+02  0.6788E+02  0.6764E+02
     -9.029  0.3378E+02  0.2880E+02  0.7043E+02  0.6985E+02
     -8.954  0.1547E+02  0.2034E+02  0.7166E+02  0.7141E+02
     -8.880  0.8762E+01  0.1187E+02  0.7233E+02  0.7233E+02
     -8.805  0.6468E+01  0.3714E+01  0.7282E+02  0.7261E+02
     -8.730  0.2468E+02  0.2688E+02  0.7467E+02  0.7467E+02
     -8.655  0.1951E+02  0.1412E+02  0.7613E+02  0.7572E+02
     -8.580  0.2683E+02  0.2754E+02  0.7817E+02  0.7780E+02
     -8.505  0.1534E+02  0.1993E+02  0.7933E+02  0.7933E+02
     -8.431  0.2179E+02  0.1795E+02  0.8096E+02  0.8068E+02
     -8.356  0.9470E+01  0.8896E+01  0.8171E+02  0.8143E+02
     -8.281  0.8053E+01  0.9282E+01  0.8231E+02  0.8213E+02
     -8.206  0.0000E+00  0.2686E+01  0.8233E+02  0.8233E+02
     -8.131  0.7071E+01  0.2520E+01  0.8286E+02  0.8252E+02
     -8.056  0.1315E+01  0.6387E+01  0.8300E+02  0.8300E+02
     -7.981  0.0000E+00  0.0000E+00  0.8300E+02  0.8300E+02
     -7.907  0.1058E+00  0.3668E-02  0.8301E+02  0.8300E+02
     -7.832  0.1221E+02  0.1019E+02  0.8392E+02  0.8376E+02
     -7.757  0.7876E+00  0.3162E+01  0.8400E+02  0.8400E+02
     -7.682  0.3082E+01  0.1360E+01  0.8423E+02  0.8410E+02
     -7.607  0.5769E+01  0.7547E+01  0.8467E+02  0.8467E+02
     -7.532  0.4387E+01  0.4453E+01  0.8500E+02  0.8500E+02
     -7.457  0.1171E+02  0.9844E+01  0.8588E+02  0.8574E+02
     -7.383  0.2613E+01  0.3440E+01  0.8609E+02  0.8601E+02
     -7.308  0.1356E+02  0.1132E+02  0.8710E+02  0.8685E+02
     -7.233  0.7363E+01  0.1086E+02  0.8767E+02  0.8767E+02
     -7.158  0.2735E-01  0.1383E-03  0.8767E+02  0.8767E+02
     -7.083  0.1396E+02  0.1202E+02  0.8871E+02  0.8857E+02
     -7.008  0.1049E+02  0.1106E+02  0.8950E+02  0.8939E+02
     -6.933  0.6643E+01  0.8072E+01  0.9000E+02  0.9000E+02
     -6.859  0.7272E+01  0.5146E+01  0.9054E+02  0.9039E+02
     -6.784  0.1330E+02  0.1273E+02  0.9156E+02  0.9134E+02
     -6.709  0.2421E+02  0.2435E+02  0.9337E+02  0.9319E+02
     -6.634  0.2018E+02  0.1897E+02  0.9491E+02  0.9464E+02
     -6.559  0.2606E+02  0.2752E+02  0.9689E+02  0.9670E+02
     -6.484  0.2777E+02  0.2728E+02  0.9897E+02  0.9879E+02
     -6.409  0.2792E+02  0.2732E+02  0.1011E+03  0.1009E+03
     -6.335  0.2174E+02  0.2023E+02  0.1027E+03  0.1024E+03
     -6.260  0.3189E+02  0.3548E+02  0.1052E+03  0.1051E+03
     -6.185  0.3051E+02  0.2377E+02  0.1075E+03  0.1069E+03
     -6.110  0.2783E+02  0.3372E+02  0.1096E+03  0.1094E+03
     -6.035  0.3016E+02  0.2891E+02  0.1118E+03  0.1116E+03
     -5.960  0.3868E+02  0.3617E+02  0.1148E+03  0.1144E+03
     -5.886  0.3137E+02  0.3398E+02  0.1172E+03  0.1170E+03
     -5.811  0.2435E+02  0.2546E+02  0.1190E+03  0.1189E+03
     -5.736  0.3144E+02  0.2932E+02  0.1214E+03  0.1211E+03
     -5.661  0.2347E+02  0.2408E+02  0.1232E+03  0.1229E+03
     -5.586  0.1599E+02  0.1497E+02  0.1244E+03  0.1240E+03
     -5.511  0.3312E+02  0.3450E+02  0.1270E+03  0.1267E+03
     -5.436  0.2333E+02  0.2593E+02  0.1288E+03  0.1286E+03
     -5.362  0.1840E+02  0.1751E+02  0.1302E+03  0.1300E+03
     -5.287  0.3478E+02  0.3406E+02  0.1328E+03  0.1325E+03
     -5.212  0.3333E+02  0.3122E+02  0.1353E+03  0.1349E+03
     -5.137  0.3769E+02  0.3640E+02  0.1382E+03  0.1377E+03
     -5.062  0.2557E+02  0.3014E+02  0.1402E+03  0.1400E+03
     -4.987  0.3129E+02  0.2682E+02  0.1425E+03  0.1420E+03
     -4.912  0.2453E+02  0.2919E+02  0.1444E+03  0.1442E+03
     -4.838  0.2984E+02  0.3064E+02  0.1467E+03  0.1465E+03
     -4.763  0.3900E+02  0.3382E+02  0.1496E+03  0.1492E+03
     -4.688  0.4379E+02  0.4385E+02  0.1529E+03  0.1524E+03
     -4.613  0.2243E+02  0.2654E+02  0.1547E+03  0.1545E+03
     -4.538  0.2624E+02  0.2617E+02  0.1567E+03  0.1565E+03
     -4.463  0.2585E+02  0.2571E+02  0.1586E+03  0.1585E+03
     -4.388  0.2497E+02  0.2638E+02  0.1605E+03  0.1605E+03
     -4.314  0.3595E+02  0.3420E+02  0.1632E+03  0.1630E+03
     -4.239  0.2067E+02  0.2020E+02  0.1647E+03  0.1646E+03
     -4.164  0.1540E+02  0.1525E+02  0.1659E+03  0.1658E+03
     -4.089  0.3643E+02  0.3522E+02  0.1686E+03  0.1684E+03
     -4.014  0.2418E+02  0.2468E+02  0.1705E+03  0.1703E+03
     -3.939  0.3284E+02  0.3146E+02  0.1730E+03  0.1726E+03
     -3.865  0.2794E+02  0.2885E+02  0.1751E+03  0.1749E+03
     -3.790  0.3296E+02  0.3329E+02  0.1776E+03  0.1773E+03
     -3.715  0.3942E+02  0.3937E+02  0.1806E+03  0.1803E+03
     -3.640  0.3147E+02  0.3168E+02  0.1830E+03  0.1827E+03
     -3.565  0.2532E+02  0.2381E+02  0.1849E+03  0.1845E+03
     -3.490  0.2341E+02  0.2555E+02  0.1867E+03  0.1864E+03
     -3.415  0.3327E+02  0.3283E+02  0.1892E+03  0.1889E+03
     -3.341  0.2738E+02  0.2526E+02  0.1913E+03  0.1908E+03
     -3.266  0.2777E+02  0.3147E+02  0.1934E+03  0.1932E+03
     -3.191  0.1652E+02  0.1838E+02  0.1947E+03  0.1946E+03
     -3.116  0.1737E+02  0.1495E+02  0.1960E+03  0.1957E+03
     -3.041  0.2587E+02  0.2720E+02  0.1979E+03  0.1978E+03
     -2.966  0.2097E+02  0.2176E+02  0.1995E+03  0.1995E+03
     -2.891  0.2721E+02  0.2409E+02  0.2016E+03  0.2013E+03
     -2.817  0.2284E+02  0.2494E+02  0.2033E+03  0.2031E+03
     -2.742  0.3926E+02  0.3717E+02  0.2063E+03  0.2059E+03
     -2.667  0.3479E+02  0.3756E+02  0.2089E+03  0.2088E+03
     -2.592  0.4020E+02  0.3943E+02  0.2119E+03  0.2118E+03
     -2.517  0.3963E+02  0.3942E+02  0.2149E+03  0.2147E+03
     -2.442  0.3856E+02  0.3576E+02  0.2178E+03  0.2174E+03
     -2.367  0.3445E+02  0.3318E+02  0.2204E+03  0.2200E+03
     -2.293  0.2542E+02  0.2696E+02  0.2224E+03  0.2220E+03
     -2.218  0.3461E+02  0.3587E+02  0.2250E+03  0.2247E+03
     -2.143  0.2841E+02  0.2732E+02  0.2272E+03  0.2268E+03
     -2.068  0.2788E+02  0.2948E+02  0.2293E+03  0.2290E+03
     -1.993  0.4399E+02  0.4328E+02  0.2326E+03  0.2323E+03
     -1.918  0.3903E+02  0.3686E+02  0.2355E+03  0.2351E+03
     -1.844  0.3932E+02  0.4066E+02  0.2385E+03  0.2382E+03
     -1.769  0.3487E+02  0.3336E+02  0.2412E+03  0.2407E+03
     -1.694  0.4885E+02  0.4885E+02  0.2448E+03  0.2445E+03
     -1.619  0.3804E+02  0.3679E+02  0.2477E+03  0.2472E+03
     -1.544  0.4688E+02  0.4615E+02  0.2513E+03  0.2507E+03
     -1.469  0.4420E+02  0.4768E+02  0.2546E+03  0.2543E+03
     -1.394  0.3203E+02  0.3111E+02  0.2571E+03  0.2567E+03
     -1.320  0.4530E+02  0.4540E+02  0.2605E+03  0.2601E+03
     -1.245  0.3403E+02  0.3107E+02  0.2631E+03  0.2626E+03
     -1.170  0.3583E+02  0.3675E+02  0.2658E+03  0.2653E+03
     -1.095  0.4041E+02  0.4298E+02  0.2689E+03  0.2686E+03
     -1.020  0.3563E+02  0.3558E+02  0.2716E+03  0.2713E+03
     -0.945  0.3741E+02  0.3940E+02  0.2744E+03  0.2742E+03
     -0.870  0.2764E+02  0.2716E+02  0.2765E+03  0.2763E+03
     -0.796  0.4297E+02  0.4049E+02  0.2798E+03  0.2794E+03
     -0.721  0.3885E+02  0.4162E+02  0.2827E+03  0.2825E+03
     -0.646  0.3229E+02  0.3060E+02  0.2851E+03  0.2848E+03
     -0.571  0.3016E+02  0.2892E+02  0.2874E+03  0.2870E+03
     -0.496  0.3294E+02  0.3106E+02  0.2899E+03  0.2893E+03
     -0.421  0.3752E+02  0.4279E+02  0.2928E+03  0.2926E+03
     -0.346  0.3177E+02  0.3018E+02  0.2952E+03  0.2948E+03
     -0.272  0.2681E+02  0.2431E+02  0.2972E+03  0.2967E+03
     -0.197  0.2956E+02  0.3276E+02  0.2995E+03  0.2991E+03
     -0.122  0.3481E+02  0.3428E+02  0.3021E+03  0.3017E+03
     -0.047  0.2998E+02  0.2981E+02  0.3044E+03  0.3040E+03
      0.028  0.3888E+02  0.3977E+02  0.3073E+03  0.3070E+03
      0.103  0.3678E+02  0.3606E+02  0.3101E+03  0.3098E+03
      0.178  0.4091E+02  0.3964E+02  0.3131E+03  0.3128E+03
      0.252  0.4273E+02  0.4248E+02  0.3164E+03  0.3160E+03
      0.327  0.2678E+02  0.2797E+02  0.3184E+03  0.3182E+03
      0.402  0.4970E+02  0.4563E+02  0.3222E+03  0.3216E+03
      0.477  0.4130E+02  0.3924E+02  0.3253E+03  0.3246E+03
      0.552  0.4226E+02  0.4498E+02  0.3284E+03  0.3280E+03
      0.627  0.4206E+02  0.4077E+02  0.3317E+03  0.3311E+03
      0.701  0.4307E+02  0.4544E+02  0.3349E+03  0.3345E+03
      0.776  0.4967E+02  0.5052E+02  0.3387E+03  0.3384E+03
      0.851  0.3423E+02  0.3299E+02  0.3412E+03  0.3409E+03
      0.926  0.4967E+02  0.4724E+02  0.3450E+03  0.3445E+03
      1.001  0.4262E+02  0.4470E+02  0.3482E+03  0.3479E+03
      1.076  0.3153E+02  0.3403E+02  0.3506E+03  0.3504E+03
      1.151  0.4851E+02  0.4202E+02  0.3543E+03  0.3536E+03
      1.225  0.3893E+02  0.4096E+02  0.3573E+03  0.3567E+03
      1.300  0.4226E+02  0.4580E+02  0.3605E+03  0.3602E+03
      1.375  0.4439E+02  0.4033E+02  0.3639E+03  0.3633E+03
      1.450  0.4528E+02  0.4843E+02  0.3673E+03  0.3669E+03
      1.525  0.4405E+02  0.4527E+02  0.3707E+03  0.3703E+03
      1.600  0.4374E+02  0.3590E+02  0.3740E+03  0.3731E+03
      1.675  0.4854E+02  0.5149E+02  0.3777E+03  0.3770E+03
      1.749  0.5098E+02  0.4925E+02  0.3815E+03  0.3807E+03
      1.824  0.3065E+02  0.3705E+02  0.3839E+03  0.3836E+03
      1.899  0.5829E+02  0.4731E+02  0.3882E+03  0.3871E+03
      1.974  0.4034E+02  0.4768E+02  0.3914E+03  0.3908E+03
      2.049  0.4798E+02  0.4725E+02  0.3950E+03  0.3943E+03
      2.124  0.4817E+02  0.5104E+02  0.3987E+03  0.3982E+03
      2.199  0.6242E+02  0.5575E+02  0.4034E+03  0.4024E+03
      2.273  0.4747E+02  0.5449E+02  0.4070E+03  0.4066E+03
      2.348  0.5144E+02  0.4625E+02  0.4109E+03  0.4101E+03
      2.423  0.4449E+02  0.4736E+02  0.4143E+03  0.4138E+03
      2.498  0.4811E+02  0.4369E+02  0.4179E+03  0.4172E+03
      2.573  0.5682E+02  0.4710E+02  0.4222E+03  0.4208E+03
      2.648  0.4327E+02  0.5408E+02  0.4255E+03  0.4249E+03
      2.722  0.5066E+02  0.4605E+02  0.4293E+03  0.4284E+03
      2.797  0.4544E+02  0.4797E+02  0.4328E+03  0.4320E+03
      2.872  0.4329E+02  0.4317E+02  0.4360E+03  0.4353E+03
      2.947  0.5155E+02  0.5729E+02  0.4399E+03  0.4396E+03
      3.022  0.4922E+02  0.4389E+02  0.4437E+03  0.4429E+03
      3.097  0.4427E+02  0.3559E+02  0.4470E+03  0.4457E+03
      3.172  0.3583E+02  0.4326E+02  0.4498E+03  0.4489E+03
      3.246  0.4116E+02  0.4322E+02  0.4529E+03  0.4522E+03
      3.321  0.4932E+02  0.4687E+02  0.4566E+03  0.4557E+03
      3.396  0.3391E+02  0.3991E+02  0.4592E+03  0.4587E+03
      3.471  0.3917E+02  0.3337E+02  0.4621E+03  0.4613E+03
      3.546  0.4555E+02  0.4400E+02  0.4656E+03  0.4646E+03
      3.621  0.4107E+02  0.4032E+02  0.4688E+03  0.4676E+03
      3.696  0.4049E+02  0.4120E+02  0.4719E+03  0.4708E+03
      3.770  0.4501E+02  0.4460E+02  0.4753E+03  0.4742E+03
      3.845  0.4724E+02  0.4547E+02  0.4789E+03  0.4776E+03
      3.920  0.5328E+02  0.4836E+02  0.4829E+03  0.4813E+03
      3.995  0.4333E+02  0.5144E+02  0.4863E+03  0.4852E+03
      4.070  0.4749E+02  0.5018E+02  0.4899E+03  0.4890E+03
      4.145  0.5104E+02  0.4504E+02  0.4937E+03  0.4924E+03
      4.220  0.4248E+02  0.4243E+02  0.4970E+03  0.4956E+03
      4.294  0.4353E+02  0.4672E+02  0.5003E+03  0.4991E+03
      4.369  0.4273E+02  0.3807E+02  0.5035E+03  0.5020E+03
      4.444  0.4722E+02  0.5746E+02  0.5071E+03  0.5063E+03
      4.519  0.4206E+02  0.4011E+02  0.5102E+03  0.5093E+03
      4.594  0.4751E+02  0.4744E+02  0.5139E+03  0.5129E+03
      4.669  0.5181E+02  0.4984E+02  0.5178E+03  0.5166E+03
      4.743  0.4459E+02  0.4267E+02  0.5211E+03  0.5199E+03
      4.818  0.4177E+02  0.5065E+02  0.5243E+03  0.5238E+03
      4.893  0.5075E+02  0.4099E+02  0.5281E+03  0.5269E+03
      4.968  0.3156E+02  0.3999E+02  0.5305E+03  0.5299E+03
      5.043  0.3744E+02  0.3309E+02  0.5334E+03  0.5324E+03
      5.118  0.4909E+02  0.4857E+02  0.5371E+03  0.5361E+03
      5.193  0.3142E+02  0.3905E+02  0.5395E+03  0.5391E+03
      5.267  0.4560E+02  0.4387E+02  0.5429E+03  0.5425E+03
      5.342  0.3598E+02  0.3682E+02  0.5457E+03  0.5453E+03
      5.417  0.3421E+02  0.3255E+02  0.5482E+03  0.5477E+03
      5.492  0.4106E+02  0.4179E+02  0.5513E+03  0.5509E+03
      5.567  0.3137E+02  0.2694E+02  0.5537E+03  0.5529E+03
      5.642  0.3675E+02  0.3467E+02  0.5565E+03  0.5555E+03
      5.717  0.3691E+02  0.4058E+02  0.5593E+03  0.5586E+03
      5.791  0.3914E+02  0.3885E+02  0.5623E+03  0.5616E+03
      5.866  0.4116E+02  0.4316E+02  0.5654E+03  0.5648E+03
      5.941  0.4838E+02  0.4218E+02  0.5690E+03  0.5680E+03
      6.016  0.4257E+02  0.4627E+02  0.5723E+03  0.5715E+03
      6.091  0.2779E+02  0.2413E+02  0.5744E+03  0.5734E+03
      6.166  0.1969E+02  0.3140E+02  0.5759E+03  0.5758E+03
      6.241  0.8621E+00  0.3204E+01  0.5760E+03  0.5760E+03
      6.315  0.0000E+00  0.0000E+00  0.5760E+03  0.5760E+03
      6.390  0.0000E+00  0.0000E+00  0.5760E+03  0.5760E+03
      6.465  0.0000E+00  0.0000E+00  0.5760E+03  0.5760E+03
      6.540  0.0000E+00  0.0000E+00  0.5760E+03  0.5760E+03
      6.615  0.0000E+00  0.0000E+00  0.5760E+03  0.5760E+03
      6.690  0.0000E+00  0.0000E+00  0.5760E+03  0.5760E+03
      6.765  0.0000E+00  0.0000E+00  0.5760E+03  0.5760E+03
      6.839  0.0000E+00  0.0000E+00  0.5760E+03  0.5760E+03
      6.914  0.0000E+00  0.0000E+00  0.5760E+03  0.5760E+03
      6.989  0.0000E+00  0.0000E+00  0.5760E+03  0.5760E+03
      7.064  0.0000E+00  0.0000E+00  0.5760E+03  0.5760E+03
      7.139  0.0000E+00  0.0000E+00  0.5760E+03  0.5760E+03
      7.214  0.0000E+00  0.0000E+00  0.5760E+03  0.5760E+03
