<?xml version="1.0" encoding="ISO-8859-1"?>
<modeling>
 <generator>
  <i name="program" type="string">vasp </i>
  <i name="version" type="string">6.4.3  </i>
  <i name="subversion" type="string">19Mar24 (build Oct 22 2024 11:23:12) complex                          parallel </i>
  <i name="platform" type="string">LinuxIFC </i>
  <i name="date" type="string">2025 06 04 </i>
  <i name="time" type="string">02:44:04 </i>
 </generator>
 <incar>
  <i type="string" name="SYSTEM">Si and Ge interface calculation</i>
  <i type="int" name="ISTART">     0</i>
  <i type="logical" name="ADDGRID"> T  </i>
  <i type="int" name="ISPIN">     2</i>
  <i name="AMIX">      0.60000000</i>
  <i type="int" name="ICHARG">     2</i>
  <i type="int" name="NELM">   100</i>
  <i name="EDIFF">      0.00000010</i>
  <i name="ENCUT">    700.00000000</i>
  <i name="ENAUG">    900.00000000</i>
  <i type="int" name="NBANDS">   173</i>
  <i name="NUPDOWN">      1.00000000</i>
  <i name="NELECT">    288.00000000</i>
  <i type="string" name="LREAL">AUTO</i>
  <i type="int" name="ISMEAR">     0</i>
  <i name="SIGMA">      0.01000000</i>
  <i type="int" name="LMAXMIX">     6</i>
  <i type="logical" name="LWAVE"> F  </i>
  <i type="logical" name="LVTOT"> F  </i>
  <i type="logical" name="LVHAR"> T  </i>
  <i type="logical" name="LASPH"> T  </i>
  <i type="logical" name="LMIXTAU"> T  </i>
 </incar>
 <primitive_cell>
  <structure name="primitive_cell" >
   <crystal>
    <varray name="basis" >
     <v>      -4.00066900       0.00000000       0.00000000 </v>
     <v>       0.00000000       0.00000000      13.26432228 </v>
     <v>       0.00000000      16.00267601       0.00000000 </v>
    </varray>
    <i name="volume">    849.20061340 </i>
    <varray name="rec_basis" >
     <v>      -0.24995819       0.00000000       0.00000000 </v>
     <v>       0.00000000       0.00000000       0.07539021 </v>
     <v>       0.00000000       0.06248955       0.00000000 </v>
    </varray>
   </crystal>
   <varray name="positions" >
    <v>       0.98291655       0.00000000       0.99572915 </v>
    <v>       0.48291659       0.21327135       0.87072915 </v>
    <v>       0.98291683       0.42654276       0.74572921 </v>
    <v>       0.98291657       0.00000000       0.24572913 </v>
    <v>       0.48291659       0.21327135       0.12072913 </v>
    <v>       0.98291683       0.42654276       0.99572915 </v>
    <v>       0.98291652       0.00000000       0.49572909 </v>
    <v>       0.48291659       0.21327135       0.37072912 </v>
    <v>       0.98291659       0.42654276       0.24572916 </v>
    <v>       0.98291652       0.00000000       0.74572915 </v>
    <v>       0.48291665       0.21327135       0.62072915 </v>
    <v>       0.98291659       0.42654276       0.49572912 </v>
    <v>       0.98291659       0.10663567       0.12072916 </v>
    <v>       0.48291659       0.31990707       0.99572915 </v>
    <v>       0.98291659       0.53317845       0.87072915 </v>
    <v>       0.98291659       0.10663567       0.37072912 </v>
    <v>       0.48291683       0.31990707       0.24572912 </v>
    <v>       0.98291659       0.53317845       0.12072913 </v>
    <v>       0.98291683       0.10663567       0.62072909 </v>
    <v>       0.48291683       0.31990707       0.49572909 </v>
    <v>       0.98291659       0.53317845       0.37072909 </v>
    <v>       0.98291683       0.10663567       0.87072909 </v>
    <v>       0.48291683       0.31990707       0.74572909 </v>
    <v>       0.98291659       0.53317845       0.62072915 </v>
    <v>       0.73512939       0.64595544       0.97502607 </v>
    <v>       0.23512936       0.69420898       0.58613712 </v>
    <v>       0.73512924       0.74246252       0.19724822 </v>
    <v>       0.23512912       0.79071599       0.80835921 </v>
    <v>       0.73512900       0.83896953       0.41947025 </v>
    <v>       0.23512876       0.88722289       0.03058112 </v>
    <v>       0.23512924       0.64595544       0.72502613 </v>
    <v>       0.73512924       0.69420898       0.33613709 </v>
    <v>       0.23512912       0.74246246       0.94724822 </v>
    <v>       0.73512900       0.79071599       0.55835915 </v>
    <v>       0.23512900       0.83896941       0.16947013 </v>
    <v>       0.73512852       0.88722295       0.78058106 </v>
   </varray>
  </structure>
  <varray name="primitive_index" >
   <v type="int" >        1 </v>
   <v type="int" >        2 </v>
   <v type="int" >       27 </v>
   <v type="int" >       28 </v>
   <v type="int" >       29 </v>
   <v type="int" >        6 </v>
   <v type="int" >        7 </v>
   <v type="int" >        8 </v>
   <v type="int" >       33 </v>
   <v type="int" >       34 </v>
   <v type="int" >       35 </v>
   <v type="int" >       12 </v>
   <v type="int" >       13 </v>
   <v type="int" >       14 </v>
   <v type="int" >       39 </v>
   <v type="int" >       40 </v>
   <v type="int" >       41 </v>
   <v type="int" >       18 </v>
   <v type="int" >       19 </v>
   <v type="int" >       20 </v>
   <v type="int" >       45 </v>
   <v type="int" >       46 </v>
   <v type="int" >       47 </v>
   <v type="int" >       24 </v>
   <v type="int" >       49 </v>
   <v type="int" >       68 </v>
   <v type="int" >       69 </v>
   <v type="int" >       52 </v>
   <v type="int" >       53 </v>
   <v type="int" >       72 </v>
   <v type="int" >       55 </v>
   <v type="int" >       56 </v>
   <v type="int" >       63 </v>
   <v type="int" >       64 </v>
   <v type="int" >       59 </v>
   <v type="int" >       60 </v>
  </varray>
 </primitive_cell>
 <kpoints>
  <generation param="Gamma">
   <v type="int" name="divisions">       4        2        2 </v>
   <v name="usershift">      0.00000000       0.00000000       0.00000000 </v>
   <v name="genvec1">      0.25000000       0.00000000       0.00000000 </v>
   <v name="genvec2">      0.00000000       0.50000000       0.00000000 </v>
   <v name="genvec3">      0.00000000       0.00000000       0.50000000 </v>
   <v name="shift">      0.00000000       0.00000000       0.00000000 </v>
  </generation>
  <varray name="kpointlist" >
   <v>       0.00000000       0.00000000       0.00000000 </v>
   <v>       0.25000000       0.00000000       0.00000000 </v>
   <v>       0.50000000       0.00000000       0.00000000 </v>
   <v>       0.00000000       0.50000000       0.00000000 </v>
   <v>       0.25000000       0.50000000       0.00000000 </v>
   <v>       0.50000000       0.50000000       0.00000000 </v>
   <v>       0.00000000       0.00000000       0.50000000 </v>
   <v>       0.25000000       0.00000000       0.50000000 </v>
   <v>       0.50000000       0.00000000       0.50000000 </v>
   <v>       0.00000000       0.50000000       0.50000000 </v>
   <v>       0.25000000       0.50000000       0.50000000 </v>
   <v>       0.50000000       0.50000000       0.50000000 </v>
  </varray>
  <varray name="weights" >
   <v>       0.06250000 </v>
   <v>       0.12500000 </v>
   <v>       0.06250000 </v>
   <v>       0.06250000 </v>
   <v>       0.12500000 </v>
   <v>       0.06250000 </v>
   <v>       0.06250000 </v>
   <v>       0.12500000 </v>
   <v>       0.06250000 </v>
   <v>       0.06250000 </v>
   <v>       0.12500000 </v>
   <v>       0.06250000 </v>
  </varray>
 </kpoints>
 <parameters>
  <separator name="general" >
   <i type="string" name="SYSTEM">Si and Ge interface calculation</i>
   <i type="logical" name="LCOMPAT"> F  </i>
  </separator>
  <separator name="electronic" >
   <i type="string" name="PREC">normal</i>
   <i name="ENMAX">    700.00000000</i>
   <i name="ENAUG">    900.00000000</i>
   <i name="EDIFF">      0.00000010</i>
   <i type="int" name="IALGO">    38</i>
   <i type="int" name="IWAVPR">    10</i>
   <i type="int" name="NBANDS">   176</i>
   <i type="int" name="NBANDSLOW">    -1</i>
   <i type="int" name="NBANDSHIGH">    -1</i>
   <i name="NELECT">    288.00000000</i>
   <i type="int" name="TURBO">     0</i>
   <i type="int" name="IRESTART">     0</i>
   <i type="int" name="NREBOOT">     0</i>
   <i type="int" name="NMIN">     0</i>
   <i name="EREF">      0.00000000</i>
   <separator name="electronic smearing" >
    <i type="int" name="ISMEAR">     0</i>
    <i name="SIGMA">      0.01000000</i>
    <i name="KSPACING">      0.50000000</i>
    <i type="logical" name="KGAMMA"> T  </i>
    <i type="logical" name="KBLOWUP"> T  </i>
   </separator>
   <separator name="electronic projectors" >
    <i type="logical" name="LREAL"> T  </i>
    <v name="ROPT">     -0.00050000     -0.00050000</v>
    <i type="int" name="LMAXPAW">  -100</i>
    <i type="int" name="LMAXMIX">     6</i>
    <i type="logical" name="NLSPLINE"> F  </i>
   </separator>
   <separator name="electronic startup" >
    <i type="int" name="ISTART">     0</i>
    <i type="int" name="ICHARG">     2</i>
    <i type="int" name="INIWAV">     1</i>
   </separator>
   <separator name="electronic spin" >
    <i type="int" name="ISPIN">     2</i>
    <i type="logical" name="LNONCOLLINEAR"> F  </i>
    <v name="MAGMOM">      0.01388889      0.01388889      0.01388889      0.01388889      0.01388889      0.01388889      0.01388889      0.01388889      0.01388889      0.01388889      0.01388889      0.01388889      0.01388889      0.01388889      0.01388889      0.01388889      0.01388889      0.01388889      0.01388889      0.01388889
      0.01388889      0.01388889      0.01388889      0.01388889      0.01388889      0.01388889      0.01388889      0.01388889      0.01388889      0.01388889      0.01388889      0.01388889      0.01388889      0.01388889      0.01388889      0.01388889      0.01388889      0.01388889      0.01388889      0.01388889
      0.01388889      0.01388889      0.01388889      0.01388889      0.01388889      0.01388889      0.01388889      0.01388889      0.01388889      0.01388889      0.01388889      0.01388889      0.01388889      0.01388889      0.01388889      0.01388889      0.01388889      0.01388889      0.01388889      0.01388889
      0.01388889      0.01388889      0.01388889      0.01388889      0.01388889      0.01388889      0.01388889      0.01388889      0.01388889      0.01388889      0.01388889      0.01388889</v>
    <i name="NUPDOWN">      1.00000000</i>
    <i type="logical" name="LSORBIT"> F  </i>
    <v name="SAXIS">      0.00000000      0.00000000      1.00000000</v>
    <i type="logical" name="LSPIRAL"> F  </i>
    <v name="QSPIRAL">      0.00000000      0.00000000      0.00000000</v>
    <i type="logical" name="LZEROZ"> F  </i>
   </separator>
   <separator name="electronic exchange-correlation" >
    <i type="logical" name="LASPH"> T  </i>
   </separator>
   <separator name="electronic convergence" >
    <i type="int" name="NELM">   100</i>
    <i type="int" name="NELMDL">    -5</i>
    <i type="int" name="NELMIN">     2</i>
    <i name="ENINI">    700.00000000</i>
    <separator name="electronic convergence detail" >
     <i type="logical" name="LDIAG"> T  </i>
     <i type="logical" name="LSUBROT"> F  </i>
     <i name="WEIMIN">      0.00000000</i>
     <i name="EBREAK">      0.00000000</i>
     <i name="DEPER">      0.30000000</i>
     <i type="int" name="NRMM">     4</i>
     <i name="TIME">      0.40000000</i>
    </separator>
   </separator>
   <separator name="electronic mixer" >
    <i name="AMIX">      0.60000000</i>
    <i name="BMIX">      1.00000000</i>
    <i name="AMIN">      0.10000000</i>
    <i name="AMIX_MAG">      2.40000000</i>
    <i name="BMIX_MAG">      1.00000000</i>
    <separator name="electronic mixer details" >
     <i type="int" name="IMIX">     4</i>
     <i type="logical" name="MIXFIRST"> F  </i>
     <i type="int" name="MAXMIX">   -45</i>
     <i name="WC">    100.00000000</i>
     <i type="int" name="INIMIX">     1</i>
     <i type="int" name="MIXPRE">     1</i>
     <i type="int" name="MREMOVE">     5</i>
    </separator>
   </separator>
   <separator name="electronic dipolcorrection" >
    <i type="logical" name="LDIPOL"> F  </i>
    <i type="logical" name="LMONO"> F  </i>
    <i type="int" name="IDIPOL">     0</i>
    <i name="EPSILON">      1.00000000</i>
    <v name="DIPOL">   -100.00000000   -100.00000000   -100.00000000</v>
    <i name="EFIELD">      0.00000000</i>
    <i type="logical" name="LVACPOTAV"> F  </i>
   </separator>
  </separator>
  <separator name="grids" >
   <i type="int" name="NGX">    54</i>
   <i type="int" name="NGY">   108</i>
   <i type="int" name="NGZ">    90</i>
   <i type="int" name="NGXF">   108</i>
   <i type="int" name="NGYF">   216</i>
   <i type="int" name="NGZF">   180</i>
   <i type="logical" name="ADDGRID"> T  </i>
  </separator>
  <separator name="ionic" >
   <i type="int" name="NSW">     0</i>
   <i type="int" name="IBRION">    -1</i>
   <i type="int" name="MDALGO">     0</i>
   <i type="int" name="ISIF">     2</i>
   <i name="PSTRESS">      0.00000000</i>
   <i name="EDIFFG">      0.00000100</i>
   <i type="int" name="NFREE">     0</i>
   <i name="POTIM">      0.50000000</i>
   <i name="SMASS">     -3.00000000</i>
   <i name="SCALEE">      1.00000000</i>
  </separator>
  <separator name="ionic md" >
   <i name="TEBEG">      0.00010000</i>
   <i name="TEEND">      0.00010000</i>
   <i type="int" name="NBLOCK">     1</i>
   <i type="int" name="KBLOCK">     1</i>
   <i type="int" name="NPACO">   256</i>
   <i name="APACO">     10.00000000</i>
  </separator>
  <separator name="symmetry" >
   <i type="int" name="ISYM">     2</i>
   <i name="SYMPREC">      0.00001000</i>
  </separator>
  <separator name="dos" >
   <i type="int" name="LORBIT">     0</i>
   <v name="RWIGS">     -1.00000000     -1.00000000</v>
   <i type="int" name="NEDOS">   301</i>
   <i name="EMIN">     10.00000000</i>
   <i name="EMAX">    -10.00000000</i>
   <i name="EFERMI">      0.00000000</i>
  </separator>
  <separator name="writing" >
   <i type="int" name="NWRITE">     2</i>
   <i type="logical" name="LWAVE"> F  </i>
   <i type="logical" name="LDOWNSAMPLE"> F  </i>
   <i type="logical" name="LCHARG"> T  </i>
   <i type="logical" name="LPARD"> F  </i>
   <i type="logical" name="LVTOT"> F  </i>
   <i type="logical" name="LVHAR"> T  </i>
   <i type="logical" name="LELF"> F  </i>
   <i type="logical" name="LOPTICS"> F  </i>
   <v name="STM">      0.00000000      0.00000000      0.00000000      0.00000000      0.00000000      0.00000000      0.00000000</v>
  </separator>
  <separator name="performance" >
   <i type="int" name="NPAR">     4</i>
   <i type="int" name="NSIM">     4</i>
   <i type="int" name="NBLK">    -1</i>
   <i type="logical" name="LPLANE"> T  </i>
   <i type="logical" name="LSCALAPACK"> T  </i>
   <i type="logical" name="LSCAAWARE"> F  </i>
   <i type="logical" name="LSCALU"> F  </i>
   <i type="logical" name="LASYNC"> F  </i>
   <i type="logical" name="LORBITALREAL"> F  </i>
  </separator>
  <separator name="miscellaneous" >
   <i type="int" name="IDIOT">     3</i>
   <i type="int" name="PHON_NSTRUCT">    -1</i>
   <i type="logical" name="LMUSIC"> F  </i>
   <v name="POMASS">     72.61000000     28.08500000</v>
   <v name="DARWINR">      0.00000000      0.00000000</v>
   <v name="DARWINV">      1.00000000      1.00000000</v>
   <i type="logical" name="LCORR"> T  </i>
  </separator>
  <i type="logical" name="GGA_COMPAT"> T  </i>
  <i type="logical" name="LBERRY"> F  </i>
  <i type="int" name="ICORELEVEL">     0</i>
  <i type="logical" name="LDAU"> F  </i>
  <i type="int" name="I_CONSTRAINED_M">     0</i>
  <separator name="electronic exchange-correlation" >
   <i type="string" name="GGA    ">PE</i>
   <i type="string" name="XC_C">1</i>
   <i type="int" name="VOSKOWN">     0</i>
   <i type="logical" name="LHFCALC"> F  </i>
   <i type="string" name="PRECFOCK"></i>
   <i type="logical" name="LSYMGRAD"> F  </i>
   <i type="logical" name="LHFONE"> F  </i>
   <i type="logical" name="LRHFCALC"> F  </i>
   <i type="logical" name="LTHOMAS"> F  </i>
   <i type="logical" name="LMODELHF"> F  </i>
   <i type="logical" name="LFOCKACE"> F  </i>
   <i name="ENCUT4O">     -1.00000000</i>
   <i type="int" name="EXXOEP">     0</i>
   <i type="int" name="FOURORBIT">     0</i>
   <i name="AEXX">      0.00000000</i>
   <i name="HFALPHA">      0.00000000</i>
   <i name="MCALPHA">      0.00000000</i>
   <i name="ALDAX">      1.00000000</i>
   <i name="AGGAX">      1.00000000</i>
   <i name="AMGGAX">      1.00000000</i>
   <i name="ALDAC">      1.00000000</i>
   <i name="AGGAC">      1.00000000</i>
   <i name="AMGGAC">      1.00000000</i>
   <i type="int" name="NKREDX">     1</i>
   <i type="int" name="NKREDY">     1</i>
   <i type="int" name="NKREDZ">     1</i>
   <i type="logical" name="SHIFTRED"> F  </i>
   <i type="logical" name="ODDONLY"> F  </i>
   <i type="logical" name="EVENONLY"> F  </i>
   <i type="int" name="LMAXFOCK">     0</i>
   <i type="int" name="NMAXFOCKAE">     0</i>
   <i type="logical" name="LFOCKAEDFT"> F  </i>
   <i name="HFSCREEN">      0.00000000</i>
   <i name="HFSCREENC">      0.00000000</i>
   <i type="int" name="NBANDSGWLOW">     0</i>
  </separator>
  <separator name="vdW DFT" >
   <i type="logical" name="LUSE_VDW"> F  </i>
   <i type="int" name="IVDW_NL">    -1</i>
   <i type="logical" name="LSPIN_VDW"> F  </i>
   <i name="ZAB_VDW">     -0.84910000</i>
   <i name="GAMMA_VDW">      1.39626340</i>
   <i name="ALPHA_VDW">      0.00000000</i>
   <i name="PARAM1">      0.12340000</i>
   <i name="PARAM2">      1.00000000</i>
   <i name="BPARAM">      6.30000000</i>
   <i name="CPARAM">      0.00930000</i>
  </separator>
  <separator name="model GW" >
   <i type="int" name="MODEL_GW">     0</i>
   <i name="MODEL_EPS0">     14.15334356</i>
   <i name="MODEL_ALPHA">      1.00000000</i>
  </separator>
  <separator name="linear response parameters" >
   <i type="logical" name="LEPSILON"> F  </i>
   <i type="logical" name="LRPA"> F  </i>
   <i type="logical" name="LNABLA"> F  </i>
   <i type="logical" name="LVEL"> F  </i>
   <i name="CSHIFT">      0.10000000</i>
   <i name="OMEGAMAX">     -1.00000000</i>
   <i name="DEG_THRESHOLD">      0.00200000</i>
   <i name="RTIME">     -0.10000000</i>
   <i name="WPLASMAI">      0.00000000</i>
   <v name="DFIELD">      0.00000000      0.00000000      0.00000000</v>
   <v name="WPLASMA">      0.00000000      0.00000000      0.00000000      0.00000000      0.00000000      0.00000000      0.00000000      0.00000000      0.00000000</v>
  </separator>
  <separator name="orbital magnetization" >
   <i type="logical" name="NUCIND"> F  </i>
   <v name="MAGPOS">      0.00000000      0.00000000      0.00000000</v>
   <i type="logical" name="LNICSALL"> T  </i>
   <i type="logical" name="ORBITALMAG"> F  </i>
   <i type="logical" name="LMAGBLOCH"> F  </i>
   <i type="logical" name="LCHIMAG"> F  </i>
   <i type="logical" name="LGAUGE"> T  </i>
   <i type="int" name="MAGATOM">     0</i>
   <v name="MAGDIPOL">      0.00000000      0.00000000      0.00000000</v>
   <v name="AVECCONST">      0.00000000      0.00000000      0.00000000</v>
  </separator>
  <separator name="response functions" >
   <i type="logical" name="LALL_IN_ONE"> F  </i>
   <i type="int" name="IALL_IN_ONE">    -1</i>
   <i type="int" name="NBANDS_WAVE">    -1</i>
   <i type="logical" name="LFINITE_TEMPERATURE"> F  </i>
   <i type="logical" name="LADDER"> F  </i>
   <i type="logical" name="LRPAFORCE"> F  </i>
   <i type="logical" name="LFXC"> F  </i>
   <i type="logical" name="LHARTREE"> T  </i>
   <i type="int" name="IBSE">     0</i>
   <v type="int" name="KPOINT">    -1     0     0     0</v>
   <i type="logical" name="LTCTC"> F  </i>
   <i type="logical" name="LTCTE"> F  </i>
   <i type="logical" name="LTETE"> F  </i>
   <i type="logical" name="LTRIPLET"> F  </i>
   <i type="logical" name="LFXCEPS"> F  </i>
   <i type="logical" name="LFXHEG"> F  </i>
   <i type="int" name="NATURALO">     2</i>
   <i type="logical" name="LHOLEGF"> F  </i>
   <i type="logical" name="L2ORDER"> F  </i>
   <i type="logical" name="LDMP1"> F  </i>
   <i type="logical" name="LMP2LT"> F  </i>
   <i type="logical" name="LSMP2LT"> F  </i>
   <i type="logical" name="LGWLF"> F  </i>
   <i name="ENCUTGW">     -1.60000002</i>
   <i name="ENCUTGWSOFT">     -1.60000002</i>
   <i name="ENCUTLF">     -1.00000000</i>
   <i type="logical" name="ESF_SPLINES"> F  </i>
   <i name="ESF_CONV">      0.01000000</i>
   <i type="int" name="ESF_NINTER">    15</i>
   <i type="int" name="LMAXMP2">    -1</i>
   <i name="SCISSOR">      0.00000000</i>
   <i type="int" name="NOMEGA">     0</i>
   <i type="int" name="NOMEGAR">     0</i>
   <i type="int" name="NBANDSGW">    -1</i>
   <i type="int" name="NBANDSO">    -1</i>
   <i type="int" name="NBANDSV">    -1</i>
   <i type="int" name="NELMGW">     1</i>
   <i type="int" name="NELMHF">     1</i>
   <i type="int" name="DIM">     3</i>
   <i type="int" name="IESPILON">     4</i>
   <i type="int" name="ANTIRES">     0</i>
   <i name="OMEGAMAX">    -30.00000000</i>
   <i name="OMEGAMIN">    -30.00000000</i>
   <i name="OMEGATL">   -200.00000000</i>
   <i type="int" name="OMEGAGRID">     0</i>
   <i name="CSHIFT">     -0.10000000</i>
   <i type="logical" name="LSELFENERGY"> F  </i>
   <i type="logical" name="LSPECTRAL"> F  </i>
   <i type="logical" name="LSPECTRALGW"> F  </i>
   <i type="logical" name="LSINGLES"> F  </i>
   <i type="logical" name="LFERMIGW"> F  </i>
   <i type="logical" name="ODDONLYGW"> F  </i>
   <i type="logical" name="EVENONLYGW"> F  </i>
   <i type="int" name="NKREDLFX">     1</i>
   <i type="int" name="NKREDLFY">     1</i>
   <i type="int" name="NKREDLFZ">     1</i>
   <i type="int" name="MAXMEM">  2800</i>
   <i type="int" name="TELESCOPE">     0</i>
   <i type="int" name="NTAUPAR">    -1</i>
   <i type="int" name="NOMEGAPAR">    -1</i>
   <i name="DAMP_NEWTON">      0.80000001</i>
   <i name="LAMBDA">      1.00000000</i>
  </separator>
  <separator name="External order field" >
   <i name="OFIELD_KAPPA">      0.00000000</i>
   <v name="OFIELD_K">      0.00000000      0.00000000      0.00000000</v>
   <i name="OFIELD_Q6_NEAR">      0.00000000</i>
   <i name="OFIELD_Q6_FAR">      0.00000000</i>
   <i name="OFIELD_A">      0.00000000</i>
  </separator>
  <separator name="optional k-points parameters" >
   <i type="int" name="KPOINTS_OPT_MODE">     1</i>
   <i type="logical" name="LKPOINTS_OPT"> F  </i>
  </separator>
 </parameters>
 <atominfo>
  <atoms>      72 </atoms>
  <types>       2 </types>
  <array name="atoms" >
   <dimension dim="1">ion</dimension>
   <field type="string">element</field>
   <field type="int">atomtype</field>
   <set>
    <rc><c>Ge</c><c>   1</c></rc>
    <rc><c>Ge</c><c>   1</c></rc>
    <rc><c>Ge</c><c>   1</c></rc>
    <rc><c>Ge</c><c>   1</c></rc>
    <rc><c>Ge</c><c>   1</c></rc>
    <rc><c>Ge</c><c>   1</c></rc>
    <rc><c>Ge</c><c>   1</c></rc>
    <rc><c>Ge</c><c>   1</c></rc>
    <rc><c>Ge</c><c>   1</c></rc>
    <rc><c>Ge</c><c>   1</c></rc>
    <rc><c>Ge</c><c>   1</c></rc>
    <rc><c>Ge</c><c>   1</c></rc>
    <rc><c>Ge</c><c>   1</c></rc>
    <rc><c>Ge</c><c>   1</c></rc>
    <rc><c>Ge</c><c>   1</c></rc>
    <rc><c>Ge</c><c>   1</c></rc>
    <rc><c>Ge</c><c>   1</c></rc>
    <rc><c>Ge</c><c>   1</c></rc>
    <rc><c>Ge</c><c>   1</c></rc>
    <rc><c>Ge</c><c>   1</c></rc>
    <rc><c>Ge</c><c>   1</c></rc>
    <rc><c>Ge</c><c>   1</c></rc>
    <rc><c>Ge</c><c>   1</c></rc>
    <rc><c>Ge</c><c>   1</c></rc>
    <rc><c>Ge</c><c>   1</c></rc>
    <rc><c>Ge</c><c>   1</c></rc>
    <rc><c>Ge</c><c>   1</c></rc>
    <rc><c>Ge</c><c>   1</c></rc>
    <rc><c>Ge</c><c>   1</c></rc>
    <rc><c>Ge</c><c>   1</c></rc>
    <rc><c>Ge</c><c>   1</c></rc>
    <rc><c>Ge</c><c>   1</c></rc>
    <rc><c>Ge</c><c>   1</c></rc>
    <rc><c>Ge</c><c>   1</c></rc>
    <rc><c>Ge</c><c>   1</c></rc>
    <rc><c>Ge</c><c>   1</c></rc>
    <rc><c>Ge</c><c>   1</c></rc>
    <rc><c>Ge</c><c>   1</c></rc>
    <rc><c>Ge</c><c>   1</c></rc>
    <rc><c>Ge</c><c>   1</c></rc>
    <rc><c>Ge</c><c>   1</c></rc>
    <rc><c>Ge</c><c>   1</c></rc>
    <rc><c>Ge</c><c>   1</c></rc>
    <rc><c>Ge</c><c>   1</c></rc>
    <rc><c>Ge</c><c>   1</c></rc>
    <rc><c>Ge</c><c>   1</c></rc>
    <rc><c>Ge</c><c>   1</c></rc>
    <rc><c>Ge</c><c>   1</c></rc>
    <rc><c>Si</c><c>   2</c></rc>
    <rc><c>Si</c><c>   2</c></rc>
    <rc><c>Si</c><c>   2</c></rc>
    <rc><c>Si</c><c>   2</c></rc>
    <rc><c>Si</c><c>   2</c></rc>
    <rc><c>Si</c><c>   2</c></rc>
    <rc><c>Si</c><c>   2</c></rc>
    <rc><c>Si</c><c>   2</c></rc>
    <rc><c>Si</c><c>   2</c></rc>
    <rc><c>Si</c><c>   2</c></rc>
    <rc><c>Si</c><c>   2</c></rc>
    <rc><c>Si</c><c>   2</c></rc>
    <rc><c>Si</c><c>   2</c></rc>
    <rc><c>Si</c><c>   2</c></rc>
    <rc><c>Si</c><c>   2</c></rc>
    <rc><c>Si</c><c>   2</c></rc>
    <rc><c>Si</c><c>   2</c></rc>
    <rc><c>Si</c><c>   2</c></rc>
    <rc><c>Si</c><c>   2</c></rc>
    <rc><c>Si</c><c>   2</c></rc>
    <rc><c>Si</c><c>   2</c></rc>
    <rc><c>Si</c><c>   2</c></rc>
    <rc><c>Si</c><c>   2</c></rc>
    <rc><c>Si</c><c>   2</c></rc>
   </set>
  </array>
  <array name="atomtypes" >
   <dimension dim="1">type</dimension>
   <field type="int">atomspertype</field>
   <field type="string">element</field>
   <field>mass</field>
   <field>valence</field>
   <field type="string">pseudopotential</field>
   <set>
    <rc><c>  48</c><c>Ge</c><c>     72.61000000</c><c>      4.00000000</c><c>  PAW_PBE Ge 05Jan2001                  </c></rc>
    <rc><c>  24</c><c>Si</c><c>     28.08500000</c><c>      4.00000000</c><c>  PAW_PBE Si 05Jan2001                  </c></rc>
   </set>
  </array>
 </atominfo>
 <structure name="initialpos" >
  <crystal>
   <varray name="basis" >
    <v>       8.00133800       0.00000000       0.00000000 </v>
    <v>       0.00000000      16.00267601       0.00000000 </v>
    <v>       0.00000000       0.00000000      13.26432228 </v>
   </varray>
   <i name="volume">   1698.40122681 </i>
   <varray name="rec_basis" >
    <v>       0.12497910       0.00000000       0.00000000 </v>
    <v>       0.00000000       0.06248955       0.00000000 </v>
    <v>       0.00000000       0.00000000       0.07539021 </v>
   </varray>
  </crystal>
  <varray name="positions" >
   <v>       0.00854173       0.99572915       0.00000000 </v>
   <v>       0.25854170       0.87072915       0.21327135 </v>
   <v>       0.50854170       0.74572915       0.42654276 </v>
   <v>       0.50854170       0.24572912       0.00000000 </v>
   <v>       0.75854164       0.12072913       0.21327135 </v>
   <v>       0.00854158       0.99572915       0.42654276 </v>
   <v>       0.00854174       0.49572909       0.00000000 </v>
   <v>       0.25854170       0.37072912       0.21327135 </v>
   <v>       0.50854170       0.24572912       0.42654276 </v>
   <v>       0.50854170       0.74572909       0.00000000 </v>
   <v>       0.75854164       0.62072909       0.21327135 </v>
   <v>       0.00854170       0.49572912       0.42654276 </v>
   <v>       0.00854170       0.12072916       0.10663567 </v>
   <v>       0.25854170       0.99572915       0.31990707 </v>
   <v>       0.50854170       0.87072915       0.53317845 </v>
   <v>       0.50854176       0.37072912       0.10663567 </v>
   <v>       0.75854170       0.24572915       0.31990707 </v>
   <v>       0.00854170       0.12072913       0.53317845 </v>
   <v>       0.00854158       0.62072909       0.10663567 </v>
   <v>       0.25854158       0.49572909       0.31990707 </v>
   <v>       0.50854158       0.37072906       0.53317845 </v>
   <v>       0.50854170       0.87072915       0.10663567 </v>
   <v>       0.75854170       0.74572915       0.31990707 </v>
   <v>       0.00854170       0.62072915       0.53317845 </v>
   <v>       0.50854170       0.99572915       0.00000000 </v>
   <v>       0.75854164       0.87072915       0.21327135 </v>
   <v>       0.00854158       0.74572921       0.42654276 </v>
   <v>       0.00854172       0.24572913       0.00000000 </v>
   <v>       0.25854170       0.12072913       0.21327135 </v>
   <v>       0.50854170       0.99572915       0.42654276 </v>
   <v>       0.50854170       0.49572915       0.00000000 </v>
   <v>       0.75854170       0.37072915       0.21327135 </v>
   <v>       0.00854170       0.24572916       0.42654276 </v>
   <v>       0.00854174       0.74572915       0.00000000 </v>
   <v>       0.25854167       0.62072915       0.21327135 </v>
   <v>       0.50854170       0.49572915       0.42654276 </v>
   <v>       0.50854170       0.12072913       0.10663567 </v>
   <v>       0.75854170       0.99572915       0.31990707 </v>
   <v>       0.00854170       0.87072915       0.53317845 </v>
   <v>       0.00854170       0.37072912       0.10663567 </v>
   <v>       0.25854158       0.24572912       0.31990707 </v>
   <v>       0.50854170       0.12072911       0.53317845 </v>
   <v>       0.50854170       0.62072909       0.10663567 </v>
   <v>       0.75854164       0.49572912       0.31990707 </v>
   <v>       0.00854170       0.37072909       0.53317845 </v>
   <v>       0.00854158       0.87072909       0.10663567 </v>
   <v>       0.25854158       0.74572909       0.31990707 </v>
   <v>       0.50854158       0.62072909       0.53317845 </v>
   <v>       0.13243531       0.97502607       0.64595544 </v>
   <v>       0.38243538       0.58613712       0.69420898 </v>
   <v>       0.63243538       0.19724822       0.74246252 </v>
   <v>       0.88243544       0.80835921       0.79071599 </v>
   <v>       0.13243550       0.41947025       0.83896953 </v>
   <v>       0.38243562       0.03058088       0.88722289 </v>
   <v>       0.88243538       0.72502613       0.64595544 </v>
   <v>       0.13243538       0.33613709       0.69420898 </v>
   <v>       0.38243538       0.94724822       0.74246246 </v>
   <v>       0.63243562       0.55835915       0.79071599 </v>
   <v>       0.88243550       0.16947013       0.83896941 </v>
   <v>       0.13243574       0.78058106       0.88722295 </v>
   <v>       0.38243538       0.72502613       0.64595544 </v>
   <v>       0.63243538       0.33613712       0.69420898 </v>
   <v>       0.88243544       0.94724822       0.74246246 </v>
   <v>       0.13243550       0.55835915       0.79071599 </v>
   <v>       0.38243550       0.16947013       0.83896941 </v>
   <v>       0.63243562       0.78058106       0.88722295 </v>
   <v>       0.63243532       0.97502607       0.64595544 </v>
   <v>       0.88243532       0.58613712       0.69420898 </v>
   <v>       0.13243538       0.19724822       0.74246252 </v>
   <v>       0.38243538       0.80835921       0.79071599 </v>
   <v>       0.63243574       0.41947013       0.83896941 </v>
   <v>       0.88243562       0.03058112       0.88722289 </v>
  </varray>
 </structure>
 <calculation>
  <scstep>
   <time name="dav">   13.49   13.60</time>
   <time name="total">   14.67   14.78</time>
   <energy>
    <i name="alphaZ">    423.17631592 </i>
    <i name="ewald">  -7547.91466924 </i>
    <i name="hartreedc">   -664.55706135 </i>
    <i name="XCdc">   -591.88484864 </i>
    <i name="pawpsdc">   6345.93939393 </i>
    <i name="pawaedc">  -5228.29706555 </i>
    <i name="eentropy">     -0.00072638 </i>
    <i name="bandstr">   1023.92612958 </i>
    <i name="atom">   7513.40264132 </i>
    <i name="e_fr_energy">   1273.79010960 </i>
    <i name="e_wo_entrp">   1273.79083598 </i>
    <i name="e_0_energy">   1273.79047279 </i>
   </energy>
  </scstep>
  <scstep>
   <time name="dav">   15.05   15.17</time>
   <time name="total">   15.05   15.17</time>
   <energy>
    <i name="e_fr_energy">   -168.62754126 </i>
    <i name="e_wo_entrp">   -168.62599368 </i>
    <i name="e_0_energy">   -168.62676747 </i>
   </energy>
  </scstep>
  <scstep>
   <time name="dav">   15.87   16.00</time>
   <time name="total">   15.88   16.02</time>
   <energy>
    <i name="e_fr_energy">   -308.64571370 </i>
    <i name="e_wo_entrp">   -308.64363966 </i>
    <i name="e_0_energy">   -308.64467668 </i>
   </energy>
  </scstep>
  <scstep>
   <time name="dav">   15.37   15.50</time>
   <time name="total">   15.38   15.50</time>
   <energy>
    <i name="e_fr_energy">   -313.84014561 </i>
    <i name="e_wo_entrp">   -313.83839026 </i>
    <i name="e_0_energy">   -313.83926793 </i>
   </energy>
  </scstep>
  <scstep>
   <time name="dav">   16.61   16.74</time>
   <time name="total">   17.49   17.63</time>
   <energy>
    <i name="e_fr_energy">   -314.03105536 </i>
    <i name="e_wo_entrp">   -314.02927504 </i>
    <i name="e_0_energy">   -314.03016520 </i>
   </energy>
  </scstep>
  <scstep>
   <time name="dav">   15.36   15.48</time>
   <time name="total">   17.44   17.57</time>
   <energy>
    <i name="e_fr_energy">   -308.57630896 </i>
    <i name="e_wo_entrp">   -308.57472848 </i>
    <i name="e_0_energy">   -308.57551872 </i>
   </energy>
  </scstep>
  <scstep>
   <time name="dav">   15.95   16.07</time>
   <time name="total">   17.87   18.01</time>
   <energy>
    <i name="e_fr_energy">   -308.83961704 </i>
    <i name="e_wo_entrp">   -308.83693545 </i>
    <i name="e_0_energy">   -308.83827625 </i>
   </energy>
  </scstep>
  <scstep>
   <time name="dav">   15.78   15.91</time>
   <time name="total">   17.70   17.83</time>
   <energy>
    <i name="e_fr_energy">   -307.78625206 </i>
    <i name="e_wo_entrp">   -307.78371318 </i>
    <i name="e_0_energy">   -307.78498262 </i>
   </energy>
  </scstep>
  <scstep>
   <time name="dav">   15.29   15.41</time>
   <time name="total">   17.21   17.33</time>
   <energy>
    <i name="e_fr_energy">   -307.68808269 </i>
    <i name="e_wo_entrp">   -307.68613779 </i>
    <i name="e_0_energy">   -307.68711024 </i>
   </energy>
  </scstep>
  <scstep>
   <time name="dav">   15.01   15.12</time>
   <time name="total">   16.93   17.06</time>
   <energy>
    <i name="e_fr_energy">   -307.67555719 </i>
    <i name="e_wo_entrp">   -307.67388446 </i>
    <i name="e_0_energy">   -307.67472083 </i>
   </energy>
  </scstep>
  <scstep>
   <time name="dav">   15.13   15.24</time>
   <time name="total">   17.05   17.17</time>
   <energy>
    <i name="e_fr_energy">   -307.67160122 </i>
    <i name="e_wo_entrp">   -307.66983178 </i>
    <i name="e_0_energy">   -307.67071650 </i>
   </energy>
  </scstep>
  <scstep>
   <time name="dav">   15.21   15.32</time>
   <time name="total">   17.13   17.26</time>
   <energy>
    <i name="e_fr_energy">   -307.67163559 </i>
    <i name="e_wo_entrp">   -307.66970228 </i>
    <i name="e_0_energy">   -307.67066894 </i>
   </energy>
  </scstep>
  <scstep>
   <time name="dav">   15.14   15.26</time>
   <time name="total">   17.06   17.19</time>
   <energy>
    <i name="e_fr_energy">   -307.67140118 </i>
    <i name="e_wo_entrp">   -307.66957780 </i>
    <i name="e_0_energy">   -307.67048949 </i>
   </energy>
  </scstep>
  <scstep>
   <time name="dav">   15.10   15.21</time>
   <time name="total">   17.02   17.15</time>
   <energy>
    <i name="e_fr_energy">   -307.67141752 </i>
    <i name="e_wo_entrp">   -307.66960298 </i>
    <i name="e_0_energy">   -307.67051025 </i>
   </energy>
  </scstep>
  <scstep>
   <time name="dav">   14.82   14.94</time>
   <time name="total">   16.74   16.87</time>
   <energy>
    <i name="e_fr_energy">   -307.67145596 </i>
    <i name="e_wo_entrp">   -307.66965186 </i>
    <i name="e_0_energy">   -307.67055391 </i>
   </energy>
  </scstep>
  <scstep>
   <time name="dav">   15.15   15.27</time>
   <time name="total">   17.07   17.20</time>
   <energy>
    <i name="e_fr_energy">   -307.67147024 </i>
    <i name="e_wo_entrp">   -307.66967204 </i>
    <i name="e_0_energy">   -307.67057114 </i>
   </energy>
  </scstep>
  <scstep>
   <time name="dav">   15.02   15.14</time>
   <time name="total">   16.95   17.08</time>
   <energy>
    <i name="e_fr_energy">   -307.67147739 </i>
    <i name="e_wo_entrp">   -307.66968339 </i>
    <i name="e_0_energy">   -307.67058039 </i>
   </energy>
  </scstep>
  <scstep>
   <time name="dav">   15.30   15.42</time>
   <time name="total">   17.21   17.34</time>
   <energy>
    <i name="e_fr_energy">   -307.67148169 </i>
    <i name="e_wo_entrp">   -307.66969145 </i>
    <i name="e_0_energy">   -307.67058657 </i>
   </energy>
  </scstep>
  <scstep>
   <time name="dav">   15.40   15.52</time>
   <time name="total">   17.33   17.46</time>
   <energy>
    <i name="e_fr_energy">   -307.67148371 </i>
    <i name="e_wo_entrp">   -307.66969582 </i>
    <i name="e_0_energy">   -307.67058977 </i>
   </energy>
  </scstep>
  <scstep>
   <time name="dav">   14.97   15.10</time>
   <time name="total">   16.91   17.05</time>
   <energy>
    <i name="e_fr_energy">   -307.67148472 </i>
    <i name="e_wo_entrp">   -307.66969970 </i>
    <i name="e_0_energy">   -307.67059221 </i>
   </energy>
  </scstep>
  <scstep>
   <time name="dav">   13.36   13.47</time>
   <time name="total">   15.29   15.40</time>
   <energy>
    <i name="e_fr_energy">   -307.67148526 </i>
    <i name="e_wo_entrp">   -307.66970246 </i>
    <i name="e_0_energy">   -307.67059386 </i>
   </energy>
  </scstep>
  <scstep>
   <time name="dav">    9.96   10.04</time>
   <time name="total">   11.89   11.98</time>
   <energy>
    <i name="e_fr_energy">   -307.67148537 </i>
    <i name="e_wo_entrp">   -307.66970312 </i>
    <i name="e_0_energy">   -307.67059425 </i>
   </energy>
  </scstep>
  <scstep>
   <time name="dav">    9.36    9.44</time>
   <time name="total">   10.51   10.59</time>
   <energy>
    <i name="alphaZ">    423.17631592 </i>
    <i name="ewald">  -7547.91466924 </i>
    <i name="hartreedc">   -766.11577207 </i>
    <i name="XCdc">   -574.36378428 </i>
    <i name="pawpsdc">  18883.47084951 </i>
    <i name="pawaedc"> -17775.49898397 </i>
    <i name="eentropy">     -0.00178198 </i>
    <i name="bandstr">   -463.82630058 </i>
    <i name="atom">   7513.40264132 </i>
    <i name="e_fr_energy">   -307.67148536 </i>
    <i name="e_wo_entrp">   -307.66970338 </i>
    <i name="e_0_energy">   -307.67059437 </i>
   </energy>
  </scstep>
  <structure>
   <crystal>
    <varray name="basis" >
     <v>       8.00133800       0.00000000       0.00000000 </v>
     <v>       0.00000000      16.00267601       0.00000000 </v>
     <v>       0.00000000       0.00000000      13.26432228 </v>
    </varray>
    <i name="volume">   1698.40122681 </i>
    <varray name="rec_basis" >
     <v>       0.12497910       0.00000000       0.00000000 </v>
     <v>       0.00000000       0.06248955       0.00000000 </v>
     <v>       0.00000000       0.00000000       0.07539021 </v>
    </varray>
   </crystal>
   <varray name="positions" >
    <v>       0.00854173       0.99572915       0.00000000 </v>
    <v>       0.25854170       0.87072915       0.21327135 </v>
    <v>       0.50854170       0.74572915       0.42654276 </v>
    <v>       0.50854170       0.24572912       0.00000000 </v>
    <v>       0.75854164       0.12072913       0.21327135 </v>
    <v>       0.00854158       0.99572915       0.42654276 </v>
    <v>       0.00854174       0.49572909       0.00000000 </v>
    <v>       0.25854170       0.37072912       0.21327135 </v>
    <v>       0.50854170       0.24572912       0.42654276 </v>
    <v>       0.50854170       0.74572909       0.00000000 </v>
    <v>       0.75854164       0.62072909       0.21327135 </v>
    <v>       0.00854170       0.49572912       0.42654276 </v>
    <v>       0.00854170       0.12072916       0.10663567 </v>
    <v>       0.25854170       0.99572915       0.31990707 </v>
    <v>       0.50854170       0.87072915       0.53317845 </v>
    <v>       0.50854176       0.37072912       0.10663567 </v>
    <v>       0.75854170       0.24572915       0.31990707 </v>
    <v>       0.00854170       0.12072913       0.53317845 </v>
    <v>       0.00854158       0.62072909       0.10663567 </v>
    <v>       0.25854158       0.49572909       0.31990707 </v>
    <v>       0.50854158       0.37072906       0.53317845 </v>
    <v>       0.50854170       0.87072915       0.10663567 </v>
    <v>       0.75854170       0.74572915       0.31990707 </v>
    <v>       0.00854170       0.62072915       0.53317845 </v>
    <v>       0.50854170       0.99572915       0.00000000 </v>
    <v>       0.75854164       0.87072915       0.21327135 </v>
    <v>       0.00854158       0.74572921       0.42654276 </v>
    <v>       0.00854172       0.24572913       0.00000000 </v>
    <v>       0.25854170       0.12072913       0.21327135 </v>
    <v>       0.50854170       0.99572915       0.42654276 </v>
    <v>       0.50854170       0.49572915       0.00000000 </v>
    <v>       0.75854170       0.37072915       0.21327135 </v>
    <v>       0.00854170       0.24572916       0.42654276 </v>
    <v>       0.00854174       0.74572915       0.00000000 </v>
    <v>       0.25854167       0.62072915       0.21327135 </v>
    <v>       0.50854170       0.49572915       0.42654276 </v>
    <v>       0.50854170       0.12072913       0.10663567 </v>
    <v>       0.75854170       0.99572915       0.31990707 </v>
    <v>       0.00854170       0.87072915       0.53317845 </v>
    <v>       0.00854170       0.37072912       0.10663567 </v>
    <v>       0.25854158       0.24572912       0.31990707 </v>
    <v>       0.50854170       0.12072911       0.53317845 </v>
    <v>       0.50854170       0.62072909       0.10663567 </v>
    <v>       0.75854164       0.49572912       0.31990707 </v>
    <v>       0.00854170       0.37072909       0.53317845 </v>
    <v>       0.00854158       0.87072909       0.10663567 </v>
    <v>       0.25854158       0.74572909       0.31990707 </v>
    <v>       0.50854158       0.62072909       0.53317845 </v>
    <v>       0.13243531       0.97502607       0.64595544 </v>
    <v>       0.38243538       0.58613712       0.69420898 </v>
    <v>       0.63243538       0.19724822       0.74246252 </v>
    <v>       0.88243544       0.80835921       0.79071599 </v>
    <v>       0.13243550       0.41947025       0.83896953 </v>
    <v>       0.38243562       0.03058088       0.88722289 </v>
    <v>       0.88243538       0.72502613       0.64595544 </v>
    <v>       0.13243538       0.33613709       0.69420898 </v>
    <v>       0.38243538       0.94724822       0.74246246 </v>
    <v>       0.63243562       0.55835915       0.79071599 </v>
    <v>       0.88243550       0.16947013       0.83896941 </v>
    <v>       0.13243574       0.78058106       0.88722295 </v>
    <v>       0.38243538       0.72502613       0.64595544 </v>
    <v>       0.63243538       0.33613712       0.69420898 </v>
    <v>       0.88243544       0.94724822       0.74246246 </v>
    <v>       0.13243550       0.55835915       0.79071599 </v>
    <v>       0.38243550       0.16947013       0.83896941 </v>
    <v>       0.63243562       0.78058106       0.88722295 </v>
    <v>       0.63243532       0.97502607       0.64595544 </v>
    <v>       0.88243532       0.58613712       0.69420898 </v>
    <v>       0.13243538       0.19724822       0.74246252 </v>
    <v>       0.38243538       0.80835921       0.79071599 </v>
    <v>       0.63243574       0.41947013       0.83896941 </v>
    <v>       0.88243562       0.03058112       0.88722289 </v>
   </varray>
  </structure>
  <varray name="forces" >
   <v>       5.81337046      -2.85170597       8.10534136 </v>
   <v>      -0.01856108       0.05619299       0.11344803 </v>
   <v>       0.15250861       0.15864472      -0.24066090 </v>
   <v>      -0.06362669      -0.39195012      -1.20634281 </v>
   <v>      -0.10769812      -0.01486626       0.10571324 </v>
   <v>      -0.30388535      -0.00848786      -0.34090395 </v>
   <v>      -0.08467383      -0.56957068      -1.26753376 </v>
   <v>       0.09919994      -0.14267788       0.09553767 </v>
   <v>       0.27397866       0.15590530      -0.00533277 </v>
   <v>      -5.69684394      -3.47946210       8.43557936 </v>
   <v>       0.11477922      -0.02068658       0.09664633 </v>
   <v>       0.13289309      -0.00946876       0.11763296 </v>
   <v>       0.20001779       0.07116851       0.13344198 </v>
   <v>       0.03632605       0.08563378      -0.16952358 </v>
   <v>       0.04330160      -0.27260241       0.60967569 </v>
   <v>      -0.24856693       0.15963785       0.01191144 </v>
   <v>       0.01532353      -0.05537172      -0.11257641 </v>
   <v>      -0.10918662      -0.27904695       1.67085866 </v>
   <v>       0.06729923       0.11443076       0.04747477 </v>
   <v>      -0.02980155      -0.09657918      -0.16818348 </v>
   <v>      -0.27461791      -0.32521549       0.80717090 </v>
   <v>      -0.08126394       0.06294409      -0.15447706 </v>
   <v>       0.05556320       0.04235001      -0.27298974 </v>
   <v>       0.66758989      -0.47979372      -0.02051109 </v>
   <v>       5.81337046      -2.85170597       8.10534136 </v>
   <v>      -0.01856108       0.05619299       0.11344803 </v>
   <v>       0.15250861       0.15864472      -0.24066090 </v>
   <v>      -0.06362669      -0.39195012      -1.20634281 </v>
   <v>      -0.10769812      -0.01486626       0.10571324 </v>
   <v>      -0.30388535      -0.00848786      -0.34090395 </v>
   <v>      -0.08467383      -0.56957068      -1.26753376 </v>
   <v>       0.09919994      -0.14267788       0.09553767 </v>
   <v>       0.27397866       0.15590530      -0.00533277 </v>
   <v>      -5.69684394      -3.47946210       8.43557936 </v>
   <v>       0.11477922      -0.02068658       0.09664633 </v>
   <v>       0.13289309      -0.00946876       0.11763296 </v>
   <v>       0.20001779       0.07116851       0.13344198 </v>
   <v>       0.03632605       0.08563378      -0.16952358 </v>
   <v>       0.04330160      -0.27260241       0.60967569 </v>
   <v>      -0.24856693       0.15963785       0.01191144 </v>
   <v>       0.01532353      -0.05537172      -0.11257641 </v>
   <v>      -0.10918662      -0.27904695       1.67085866 </v>
   <v>       0.06729923       0.11443076       0.04747477 </v>
   <v>      -0.02980155      -0.09657918      -0.16818348 </v>
   <v>      -0.27461791      -0.32521549       0.80717090 </v>
   <v>      -0.08126394       0.06294409      -0.15447706 </v>
   <v>       0.05556320       0.04235001      -0.27298974 </v>
   <v>       0.66758989      -0.47979372      -0.02051109 </v>
   <v>       0.08225020      -0.00589508       0.05313114 </v>
   <v>      -0.06479934      -0.29893134       0.67955588 </v>
   <v>      -0.28218778      -0.58700550      -0.43210316 </v>
   <v>       0.04155713      -0.12437081       0.53503938 </v>
   <v>       0.10203773       0.24407841       0.61045133 </v>
   <v>      -5.88068508       2.59346939      -8.30754921 </v>
   <v>      -0.47999296       1.00371845       0.47983495 </v>
   <v>       0.21084161       0.39857706      -0.33889822 </v>
   <v>      -0.17432203       0.51032911      -0.19968523 </v>
   <v>      -0.25563421       0.30245753      -0.41440514 </v>
   <v>       0.19988627       0.94597387       0.26524384 </v>
   <v>       5.84762315       3.10817657      -9.32201242 </v>
   <v>      -0.47999296       1.00371845       0.47983495 </v>
   <v>       0.21084161       0.39857706      -0.33889822 </v>
   <v>      -0.17432203       0.51032911      -0.19968523 </v>
   <v>      -0.25563421       0.30245753      -0.41440514 </v>
   <v>       0.19988627       0.94597387       0.26524384 </v>
   <v>       5.84762315       3.10817657      -9.32201242 </v>
   <v>       0.08225020      -0.00589508       0.05313114 </v>
   <v>      -0.06479934      -0.29893134       0.67955588 </v>
   <v>      -0.28218778      -0.58700550      -0.43210316 </v>
   <v>       0.04155713      -0.12437081       0.53503938 </v>
   <v>       0.10203773       0.24407841       0.61045133 </v>
   <v>      -5.88068508       2.59346939      -8.30754921 </v>
  </varray>
  <varray name="stress" >
   <v>      14.14743763      -4.74889937      -4.23599818 </v>
   <v>      -4.74889665      36.56305051     -16.47293952 </v>
   <v>      -4.23599656     -16.47292721      76.79613138 </v>
  </varray>
  <energy>
   <i name="e_fr_energy">   -307.67148536 </i>
   <i name="e_wo_entrp">   -307.66970338 </i>
   <i name="e_0_energy">   -307.67059437 </i>
  </energy>
  <time name="totalsc">  400.48  403.86</time>
  <eigenvalues>
   <array>
    <dimension dim="1">band</dimension>
    <dimension dim="2">kpoint</dimension>
    <dimension dim="3">spin</dimension>
    <field>eigene</field>
    <field>occ</field>
    <set>
     <set comment="spin 1">
      <set comment="kpoint 1">
       <r>   -8.8635    1.0000 </r>
       <r>   -8.4078    1.0000 </r>
       <r>   -8.3377    1.0000 </r>
       <r>   -8.1300    1.0000 </r>
       <r>   -7.8462    1.0000 </r>
       <r>   -7.7468    1.0000 </r>
       <r>   -7.7443    1.0000 </r>
       <r>   -7.4437    1.0000 </r>
       <r>   -7.4352    1.0000 </r>
       <r>   -7.3462    1.0000 </r>
       <r>   -7.2875    1.0000 </r>
       <r>   -7.0903    1.0000 </r>
       <r>   -7.0578    1.0000 </r>
       <r>   -7.0327    1.0000 </r>
       <r>   -6.9134    1.0000 </r>
       <r>   -6.7738    1.0000 </r>
       <r>   -6.7382    1.0000 </r>
       <r>   -6.5561    1.0000 </r>
       <r>   -6.5443    1.0000 </r>
       <r>   -6.5385    1.0000 </r>
       <r>   -6.5150    1.0000 </r>
       <r>   -6.0849    1.0000 </r>
       <r>   -5.9866    1.0000 </r>
       <r>   -5.9333    1.0000 </r>
       <r>   -5.7888    1.0000 </r>
       <r>   -5.6998    1.0000 </r>
       <r>   -5.6409    1.0000 </r>
       <r>   -5.5291    1.0000 </r>
       <r>   -5.3612    1.0000 </r>
       <r>   -5.2680    1.0000 </r>
       <r>   -5.2227    1.0000 </r>
       <r>   -5.2181    1.0000 </r>
       <r>   -5.1235    1.0000 </r>
       <r>   -5.1045    1.0000 </r>
       <r>   -5.0958    1.0000 </r>
       <r>   -5.0278    1.0000 </r>
       <r>   -4.8049    1.0000 </r>
       <r>   -4.7943    1.0000 </r>
       <r>   -4.7674    1.0000 </r>
       <r>   -4.6032    1.0000 </r>
       <r>   -4.4385    1.0000 </r>
       <r>   -4.1747    1.0000 </r>
       <r>   -4.1519    1.0000 </r>
       <r>   -3.7297    1.0000 </r>
       <r>   -3.6684    1.0000 </r>
       <r>   -3.6535    1.0000 </r>
       <r>   -3.4593    1.0000 </r>
       <r>   -3.4437    1.0000 </r>
       <r>   -3.3592    1.0000 </r>
       <r>   -3.2879    1.0000 </r>
       <r>   -3.2162    1.0000 </r>
       <r>   -3.0968    1.0000 </r>
       <r>   -3.0072    1.0000 </r>
       <r>   -2.9281    1.0000 </r>
       <r>   -2.9039    1.0000 </r>
       <r>   -2.8212    1.0000 </r>
       <r>   -2.7785    1.0000 </r>
       <r>   -2.7191    1.0000 </r>
       <r>   -2.7086    1.0000 </r>
       <r>   -2.5673    1.0000 </r>
       <r>   -2.4744    1.0000 </r>
       <r>   -2.1233    1.0000 </r>
       <r>   -2.0919    1.0000 </r>
       <r>   -1.6382    1.0000 </r>
       <r>   -1.4948    1.0000 </r>
       <r>   -1.3719    1.0000 </r>
       <r>   -1.2363    1.0000 </r>
       <r>   -1.0162    1.0000 </r>
       <r>   -0.8689    1.0000 </r>
       <r>   -0.6012    1.0000 </r>
       <r>   -0.5204    1.0000 </r>
       <r>   -0.5025    1.0000 </r>
       <r>   -0.3400    1.0000 </r>
       <r>   -0.2395    1.0000 </r>
       <r>   -0.1815    1.0000 </r>
       <r>   -0.1266    1.0000 </r>
       <r>   -0.0989    1.0000 </r>
       <r>   -0.0522    1.0000 </r>
       <r>   -0.0311    1.0000 </r>
       <r>   -0.0031    1.0000 </r>
       <r>    0.0318    1.0000 </r>
       <r>    0.0805    1.0000 </r>
       <r>    0.1560    1.0000 </r>
       <r>    0.1952    1.0000 </r>
       <r>    0.2648    1.0000 </r>
       <r>    0.2650    1.0000 </r>
       <r>    0.3066    1.0000 </r>
       <r>    0.3857    1.0000 </r>
       <r>    0.3954    1.0000 </r>
       <r>    0.4665    1.0000 </r>
       <r>    0.5265    1.0000 </r>
       <r>    0.6277    1.0000 </r>
       <r>    0.6810    1.0000 </r>
       <r>    0.7841    1.0000 </r>
       <r>    0.8385    1.0000 </r>
       <r>    0.8953    1.0000 </r>
       <r>    0.9358    1.0000 </r>
       <r>    0.9866    1.0000 </r>
       <r>    1.0571    1.0000 </r>
       <r>    1.1608    1.0000 </r>
       <r>    1.1950    1.0000 </r>
       <r>    1.2248    1.0000 </r>
       <r>    1.2251    1.0000 </r>
       <r>    1.3063    1.0000 </r>
       <r>    1.3907    1.0000 </r>
       <r>    1.4143    1.0000 </r>
       <r>    1.4579    1.0000 </r>
       <r>    1.4803    1.0000 </r>
       <r>    1.4893    1.0000 </r>
       <r>    1.5392    1.0000 </r>
       <r>    1.6233    1.0000 </r>
       <r>    1.7024    1.0000 </r>
       <r>    1.7114    1.0000 </r>
       <r>    1.7663    1.0000 </r>
       <r>    1.7764    1.0000 </r>
       <r>    2.0068    1.0000 </r>
       <r>    2.0140    1.0000 </r>
       <r>    2.0152    1.0000 </r>
       <r>    2.0813    1.0000 </r>
       <r>    2.0903    1.0000 </r>
       <r>    2.1754    1.0000 </r>
       <r>    2.1857    1.0000 </r>
       <r>    2.2409    1.0000 </r>
       <r>    2.2701    1.0000 </r>
       <r>    2.2928    1.0000 </r>
       <r>    2.3456    1.0000 </r>
       <r>    2.3512    1.0000 </r>
       <r>    2.4039    1.0000 </r>
       <r>    2.4356    1.0000 </r>
       <r>    2.5096    1.0000 </r>
       <r>    2.5907    1.0000 </r>
       <r>    2.7211    1.0000 </r>
       <r>    2.7826    1.0000 </r>
       <r>    2.8509    1.0000 </r>
       <r>    2.9160    1.0000 </r>
       <r>    2.9467    1.0000 </r>
       <r>    3.1488    1.0000 </r>
       <r>    3.1999    1.0000 </r>
       <r>    3.2790    1.0000 </r>
       <r>    3.3702    1.0000 </r>
       <r>    3.4245    1.0000 </r>
       <r>    3.4516    1.0000 </r>
       <r>    3.5130    1.0000 </r>
       <r>    3.5628    1.0000 </r>
       <r>    3.6074    0.9951 </r>
       <r>    3.7522    0.0000 </r>
       <r>    3.8558    0.0000 </r>
       <r>    3.8594    0.0000 </r>
       <r>    3.9621    0.0000 </r>
       <r>    4.0399    0.0000 </r>
       <r>    4.1352    0.0000 </r>
       <r>    4.1701    0.0000 </r>
       <r>    4.2893    0.0000 </r>
       <r>    4.3071    0.0000 </r>
       <r>    4.3935    0.0000 </r>
       <r>    4.4243    0.0000 </r>
       <r>    4.4682    0.0000 </r>
       <r>    4.5013    0.0000 </r>
       <r>    4.6202    0.0000 </r>
       <r>    4.6515    0.0000 </r>
       <r>    4.6697    0.0000 </r>
       <r>    4.7479    0.0000 </r>
       <r>    4.8125    0.0000 </r>
       <r>    4.8684    0.0000 </r>
       <r>    4.9290    0.0000 </r>
       <r>    4.9717    0.0000 </r>
       <r>    5.0240    0.0000 </r>
       <r>    5.0436    0.0000 </r>
       <r>    5.0879    0.0000 </r>
       <r>    5.1713    0.0000 </r>
       <r>    5.2759    0.0000 </r>
       <r>    5.2975    0.0000 </r>
       <r>    5.3860    0.0000 </r>
       <r>    5.4225    0.0000 </r>
       <r>    5.4337    0.0000 </r>
       <r>    5.4743    0.0000 </r>
      </set>
      <set comment="kpoint 2">
       <r>   -8.7515    1.0000 </r>
       <r>   -8.3023    1.0000 </r>
       <r>   -8.2238    1.0000 </r>
       <r>   -8.0305    1.0000 </r>
       <r>   -7.9937    1.0000 </r>
       <r>   -7.7564    1.0000 </r>
       <r>   -7.6635    1.0000 </r>
       <r>   -7.6438    1.0000 </r>
       <r>   -7.4721    1.0000 </r>
       <r>   -7.3324    1.0000 </r>
       <r>   -7.3314    1.0000 </r>
       <r>   -7.2435    1.0000 </r>
       <r>   -7.1470    1.0000 </r>
       <r>   -6.9637    1.0000 </r>
       <r>   -6.9624    1.0000 </r>
       <r>   -6.9060    1.0000 </r>
       <r>   -6.8138    1.0000 </r>
       <r>   -6.6982    1.0000 </r>
       <r>   -6.6163    1.0000 </r>
       <r>   -6.4548    1.0000 </r>
       <r>   -6.3848    1.0000 </r>
       <r>   -6.0161    1.0000 </r>
       <r>   -6.0111    1.0000 </r>
       <r>   -5.9595    1.0000 </r>
       <r>   -5.9174    1.0000 </r>
       <r>   -5.8654    1.0000 </r>
       <r>   -5.7583    1.0000 </r>
       <r>   -5.6337    1.0000 </r>
       <r>   -5.5908    1.0000 </r>
       <r>   -5.4913    1.0000 </r>
       <r>   -5.3289    1.0000 </r>
       <r>   -5.2607    1.0000 </r>
       <r>   -5.1946    1.0000 </r>
       <r>   -5.0710    1.0000 </r>
       <r>   -4.9482    1.0000 </r>
       <r>   -4.7284    1.0000 </r>
       <r>   -4.6939    1.0000 </r>
       <r>   -4.6794    1.0000 </r>
       <r>   -4.5406    1.0000 </r>
       <r>   -4.3141    1.0000 </r>
       <r>   -4.2120    1.0000 </r>
       <r>   -4.1130    1.0000 </r>
       <r>   -4.0884    1.0000 </r>
       <r>   -3.9546    1.0000 </r>
       <r>   -3.7546    1.0000 </r>
       <r>   -3.4742    1.0000 </r>
       <r>   -3.4732    1.0000 </r>
       <r>   -3.3286    1.0000 </r>
       <r>   -3.1793    1.0000 </r>
       <r>   -3.1659    1.0000 </r>
       <r>   -3.1096    1.0000 </r>
       <r>   -2.9909    1.0000 </r>
       <r>   -2.9894    1.0000 </r>
       <r>   -2.8580    1.0000 </r>
       <r>   -2.8436    1.0000 </r>
       <r>   -2.7783    1.0000 </r>
       <r>   -2.5368    1.0000 </r>
       <r>   -2.4706    1.0000 </r>
       <r>   -2.4528    1.0000 </r>
       <r>   -2.2398    1.0000 </r>
       <r>   -2.2098    1.0000 </r>
       <r>   -2.1606    1.0000 </r>
       <r>   -1.9558    1.0000 </r>
       <r>   -1.5255    1.0000 </r>
       <r>   -1.4729    1.0000 </r>
       <r>   -1.4326    1.0000 </r>
       <r>   -1.2425    1.0000 </r>
       <r>   -0.9606    1.0000 </r>
       <r>   -0.9577    1.0000 </r>
       <r>   -0.6290    1.0000 </r>
       <r>   -0.6169    1.0000 </r>
       <r>   -0.5431    1.0000 </r>
       <r>   -0.3752    1.0000 </r>
       <r>   -0.3470    1.0000 </r>
       <r>   -0.2421    1.0000 </r>
       <r>   -0.2404    1.0000 </r>
       <r>   -0.1754    1.0000 </r>
       <r>   -0.1498    1.0000 </r>
       <r>   -0.1009    1.0000 </r>
       <r>   -0.0798    1.0000 </r>
       <r>   -0.0119    1.0000 </r>
       <r>    0.0280    1.0000 </r>
       <r>    0.0981    1.0000 </r>
       <r>    0.1362    1.0000 </r>
       <r>    0.1778    1.0000 </r>
       <r>    0.3017    1.0000 </r>
       <r>    0.3696    1.0000 </r>
       <r>    0.4036    1.0000 </r>
       <r>    0.4291    1.0000 </r>
       <r>    0.5098    1.0000 </r>
       <r>    0.5629    1.0000 </r>
       <r>    0.5653    1.0000 </r>
       <r>    0.6662    1.0000 </r>
       <r>    0.6702    1.0000 </r>
       <r>    0.7347    1.0000 </r>
       <r>    0.7454    1.0000 </r>
       <r>    0.8221    1.0000 </r>
       <r>    0.8394    1.0000 </r>
       <r>    0.8963    1.0000 </r>
       <r>    0.9617    1.0000 </r>
       <r>    1.0207    1.0000 </r>
       <r>    1.0577    1.0000 </r>
       <r>    1.1028    1.0000 </r>
       <r>    1.1174    1.0000 </r>
       <r>    1.2025    1.0000 </r>
       <r>    1.2332    1.0000 </r>
       <r>    1.2589    1.0000 </r>
       <r>    1.3035    1.0000 </r>
       <r>    1.3344    1.0000 </r>
       <r>    1.3497    1.0000 </r>
       <r>    1.3689    1.0000 </r>
       <r>    1.5034    1.0000 </r>
       <r>    1.5506    1.0000 </r>
       <r>    1.5762    1.0000 </r>
       <r>    1.5872    1.0000 </r>
       <r>    1.6261    1.0000 </r>
       <r>    1.7222    1.0000 </r>
       <r>    1.7524    1.0000 </r>
       <r>    1.7976    1.0000 </r>
       <r>    1.8462    1.0000 </r>
       <r>    1.9776    1.0000 </r>
       <r>    1.9932    1.0000 </r>
       <r>    2.1217    1.0000 </r>
       <r>    2.1911    1.0000 </r>
       <r>    2.2447    1.0000 </r>
       <r>    2.2456    1.0000 </r>
       <r>    2.4151    1.0000 </r>
       <r>    2.4242    1.0000 </r>
       <r>    2.4794    1.0000 </r>
       <r>    2.5820    1.0000 </r>
       <r>    2.5951    1.0000 </r>
       <r>    2.6522    1.0000 </r>
       <r>    2.8109    1.0000 </r>
       <r>    2.8986    1.0000 </r>
       <r>    2.9321    1.0000 </r>
       <r>    3.0303    1.0000 </r>
       <r>    3.0307    1.0000 </r>
       <r>    3.1146    1.0000 </r>
       <r>    3.2436    1.0000 </r>
       <r>    3.3225    1.0000 </r>
       <r>    3.3334    1.0000 </r>
       <r>    3.3379    1.0000 </r>
       <r>    3.4121    1.0000 </r>
       <r>    3.5582    1.0000 </r>
       <r>    3.6020    0.9996 </r>
       <r>    3.6755    0.0000 </r>
       <r>    3.8550    0.0000 </r>
       <r>    3.9423    0.0000 </r>
       <r>    4.0465    0.0000 </r>
       <r>    4.0833    0.0000 </r>
       <r>    4.1299    0.0000 </r>
       <r>    4.2313    0.0000 </r>
       <r>    4.3556    0.0000 </r>
       <r>    4.3931    0.0000 </r>
       <r>    4.4381    0.0000 </r>
       <r>    4.4929    0.0000 </r>
       <r>    4.5283    0.0000 </r>
       <r>    4.5456    0.0000 </r>
       <r>    4.6682    0.0000 </r>
       <r>    4.7843    0.0000 </r>
       <r>    4.7959    0.0000 </r>
       <r>    4.9124    0.0000 </r>
       <r>    4.9516    0.0000 </r>
       <r>    5.0338    0.0000 </r>
       <r>    5.0676    0.0000 </r>
       <r>    5.1275    0.0000 </r>
       <r>    5.1653    0.0000 </r>
       <r>    5.2497    0.0000 </r>
       <r>    5.3248    0.0000 </r>
       <r>    5.4154    0.0000 </r>
       <r>    5.5033    0.0000 </r>
       <r>    5.5448    0.0000 </r>
       <r>    5.6045    0.0000 </r>
       <r>    5.6412    0.0000 </r>
       <r>    5.7231    0.0000 </r>
       <r>    5.8122    0.0000 </r>
      </set>
      <set comment="kpoint 3">
       <r>   -8.4330    1.0000 </r>
       <r>   -8.4330    1.0000 </r>
       <r>   -8.0164    1.0000 </r>
       <r>   -8.0164    1.0000 </r>
       <r>   -7.8995    1.0000 </r>
       <r>   -7.8995    1.0000 </r>
       <r>   -7.7452    1.0000 </r>
       <r>   -7.7452    1.0000 </r>
       <r>   -7.5109    1.0000 </r>
       <r>   -7.5109    1.0000 </r>
       <r>   -7.3517    1.0000 </r>
       <r>   -7.3517    1.0000 </r>
       <r>   -7.0491    1.0000 </r>
       <r>   -7.0491    1.0000 </r>
       <r>   -6.9616    1.0000 </r>
       <r>   -6.9616    1.0000 </r>
       <r>   -6.6110    1.0000 </r>
       <r>   -6.6110    1.0000 </r>
       <r>   -6.5429    1.0000 </r>
       <r>   -6.5429    1.0000 </r>
       <r>   -6.5197    1.0000 </r>
       <r>   -6.5197    1.0000 </r>
       <r>   -6.1770    1.0000 </r>
       <r>   -6.1770    1.0000 </r>
       <r>   -5.9141    1.0000 </r>
       <r>   -5.9141    1.0000 </r>
       <r>   -5.6662    1.0000 </r>
       <r>   -5.6662    1.0000 </r>
       <r>   -5.4429    1.0000 </r>
       <r>   -5.4429    1.0000 </r>
       <r>   -5.3066    1.0000 </r>
       <r>   -5.3066    1.0000 </r>
       <r>   -5.1765    1.0000 </r>
       <r>   -5.1765    1.0000 </r>
       <r>   -4.8947    1.0000 </r>
       <r>   -4.8947    1.0000 </r>
       <r>   -4.5709    1.0000 </r>
       <r>   -4.5709    1.0000 </r>
       <r>   -4.4592    1.0000 </r>
       <r>   -4.4592    1.0000 </r>
       <r>   -3.9718    1.0000 </r>
       <r>   -3.9718    1.0000 </r>
       <r>   -3.6767    1.0000 </r>
       <r>   -3.6767    1.0000 </r>
       <r>   -3.5895    1.0000 </r>
       <r>   -3.5895    1.0000 </r>
       <r>   -3.4792    1.0000 </r>
       <r>   -3.4792    1.0000 </r>
       <r>   -3.1111    1.0000 </r>
       <r>   -3.1111    1.0000 </r>
       <r>   -2.9594    1.0000 </r>
       <r>   -2.9594    1.0000 </r>
       <r>   -2.8856    1.0000 </r>
       <r>   -2.8856    1.0000 </r>
       <r>   -2.5833    1.0000 </r>
       <r>   -2.5833    1.0000 </r>
       <r>   -2.5148    1.0000 </r>
       <r>   -2.5148    1.0000 </r>
       <r>   -1.8729    1.0000 </r>
       <r>   -1.8729    1.0000 </r>
       <r>   -1.7939    1.0000 </r>
       <r>   -1.7939    1.0000 </r>
       <r>   -1.5425    1.0000 </r>
       <r>   -1.5424    1.0000 </r>
       <r>   -1.3381    1.0000 </r>
       <r>   -1.3381    1.0000 </r>
       <r>   -1.2102    1.0000 </r>
       <r>   -1.2102    1.0000 </r>
       <r>   -1.0234    1.0000 </r>
       <r>   -1.0234    1.0000 </r>
       <r>   -0.7474    1.0000 </r>
       <r>   -0.7474    1.0000 </r>
       <r>   -0.4799    1.0000 </r>
       <r>   -0.4799    1.0000 </r>
       <r>   -0.3875    1.0000 </r>
       <r>   -0.3875    1.0000 </r>
       <r>   -0.3023    1.0000 </r>
       <r>   -0.3023    1.0000 </r>
       <r>   -0.1778    1.0000 </r>
       <r>   -0.1778    1.0000 </r>
       <r>   -0.1000    1.0000 </r>
       <r>   -0.1000    1.0000 </r>
       <r>    0.0362    1.0000 </r>
       <r>    0.0362    1.0000 </r>
       <r>    0.1300    1.0000 </r>
       <r>    0.1300    1.0000 </r>
       <r>    0.1937    1.0000 </r>
       <r>    0.1937    1.0000 </r>
       <r>    0.2806    1.0000 </r>
       <r>    0.2806    1.0000 </r>
       <r>    0.3553    1.0000 </r>
       <r>    0.3553    1.0000 </r>
       <r>    0.5733    1.0000 </r>
       <r>    0.5733    1.0000 </r>
       <r>    0.6449    1.0000 </r>
       <r>    0.6449    1.0000 </r>
       <r>    0.7368    1.0000 </r>
       <r>    0.7368    1.0000 </r>
       <r>    0.7845    1.0000 </r>
       <r>    0.7845    1.0000 </r>
       <r>    0.9624    1.0000 </r>
       <r>    0.9624    1.0000 </r>
       <r>    1.0452    1.0000 </r>
       <r>    1.0452    1.0000 </r>
       <r>    1.1604    1.0000 </r>
       <r>    1.1604    1.0000 </r>
       <r>    1.2217    1.0000 </r>
       <r>    1.2217    1.0000 </r>
       <r>    1.3354    1.0000 </r>
       <r>    1.3354    1.0000 </r>
       <r>    1.3555    1.0000 </r>
       <r>    1.3555    1.0000 </r>
       <r>    1.3894    1.0000 </r>
       <r>    1.3894    1.0000 </r>
       <r>    1.6314    1.0000 </r>
       <r>    1.6314    1.0000 </r>
       <r>    1.6453    1.0000 </r>
       <r>    1.6453    1.0000 </r>
       <r>    1.7823    1.0000 </r>
       <r>    1.7823    1.0000 </r>
       <r>    1.9311    1.0000 </r>
       <r>    1.9311    1.0000 </r>
       <r>    2.0703    1.0000 </r>
       <r>    2.0703    1.0000 </r>
       <r>    2.1904    1.0000 </r>
       <r>    2.1904    1.0000 </r>
       <r>    2.3711    1.0000 </r>
       <r>    2.3711    1.0000 </r>
       <r>    2.5596    1.0000 </r>
       <r>    2.5596    1.0000 </r>
       <r>    2.6465    1.0000 </r>
       <r>    2.6465    1.0000 </r>
       <r>    2.7367    1.0000 </r>
       <r>    2.7367    1.0000 </r>
       <r>    2.9457    1.0000 </r>
       <r>    2.9457    1.0000 </r>
       <r>    3.0590    1.0000 </r>
       <r>    3.0590    1.0000 </r>
       <r>    3.1765    1.0000 </r>
       <r>    3.1765    1.0000 </r>
       <r>    3.3603    1.0000 </r>
       <r>    3.3603    1.0000 </r>
       <r>    3.4600    1.0000 </r>
       <r>    3.4600    1.0000 </r>
       <r>    3.6455    0.0025 </r>
       <r>    3.6455    0.0025 </r>
       <r>    3.7976    0.0000 </r>
       <r>    3.7976    0.0000 </r>
       <r>    3.9132    0.0000 </r>
       <r>    3.9132    0.0000 </r>
       <r>    4.0943    0.0000 </r>
       <r>    4.0943    0.0000 </r>
       <r>    4.2979    0.0000 </r>
       <r>    4.2979    0.0000 </r>
       <r>    4.4389    0.0000 </r>
       <r>    4.4389    0.0000 </r>
       <r>    4.5790    0.0000 </r>
       <r>    4.5790    0.0000 </r>
       <r>    4.6994    0.0000 </r>
       <r>    4.6994    0.0000 </r>
       <r>    4.7617    0.0000 </r>
       <r>    4.7617    0.0000 </r>
       <r>    4.9968    0.0000 </r>
       <r>    4.9968    0.0000 </r>
       <r>    5.1912    0.0000 </r>
       <r>    5.1912    0.0000 </r>
       <r>    5.3925    0.0000 </r>
       <r>    5.3925    0.0000 </r>
       <r>    5.4246    0.0000 </r>
       <r>    5.4246    0.0000 </r>
       <r>    5.5844    0.0000 </r>
       <r>    5.5844    0.0000 </r>
       <r>    5.6950    0.0000 </r>
       <r>    5.6950    0.0000 </r>
       <r>    5.9805    0.0000 </r>
       <r>    5.9940    0.0000 </r>
      </set>
      <set comment="kpoint 4">
       <r>   -8.8129    1.0000 </r>
       <r>   -8.6267    1.0000 </r>
       <r>   -8.1920    1.0000 </r>
       <r>   -7.9657    1.0000 </r>
       <r>   -7.8568    1.0000 </r>
       <r>   -7.7359    1.0000 </r>
       <r>   -7.7252    1.0000 </r>
       <r>   -7.6135    1.0000 </r>
       <r>   -7.4366    1.0000 </r>
       <r>   -7.4109    1.0000 </r>
       <r>   -7.3133    1.0000 </r>
       <r>   -7.2059    1.0000 </r>
       <r>   -6.9684    1.0000 </r>
       <r>   -6.9522    1.0000 </r>
       <r>   -6.9447    1.0000 </r>
       <r>   -6.8711    1.0000 </r>
       <r>   -6.6807    1.0000 </r>
       <r>   -6.6292    1.0000 </r>
       <r>   -6.5583    1.0000 </r>
       <r>   -6.3526    1.0000 </r>
       <r>   -6.0779    1.0000 </r>
       <r>   -6.0745    1.0000 </r>
       <r>   -5.9761    1.0000 </r>
       <r>   -5.9172    1.0000 </r>
       <r>   -5.8943    1.0000 </r>
       <r>   -5.8166    1.0000 </r>
       <r>   -5.7882    1.0000 </r>
       <r>   -5.6727    1.0000 </r>
       <r>   -5.6442    1.0000 </r>
       <r>   -5.5727    1.0000 </r>
       <r>   -5.3361    1.0000 </r>
       <r>   -5.1696    1.0000 </r>
       <r>   -5.1062    1.0000 </r>
       <r>   -4.9547    1.0000 </r>
       <r>   -4.9449    1.0000 </r>
       <r>   -4.8033    1.0000 </r>
       <r>   -4.7699    1.0000 </r>
       <r>   -4.6573    1.0000 </r>
       <r>   -4.5571    1.0000 </r>
       <r>   -4.3176    1.0000 </r>
       <r>   -4.2667    1.0000 </r>
       <r>   -4.2432    1.0000 </r>
       <r>   -4.1585    1.0000 </r>
       <r>   -4.0674    1.0000 </r>
       <r>   -3.7229    1.0000 </r>
       <r>   -3.7082    1.0000 </r>
       <r>   -3.5864    1.0000 </r>
       <r>   -3.5031    1.0000 </r>
       <r>   -3.4651    1.0000 </r>
       <r>   -3.4102    1.0000 </r>
       <r>   -3.3523    1.0000 </r>
       <r>   -3.3516    1.0000 </r>
       <r>   -2.9430    1.0000 </r>
       <r>   -2.8848    1.0000 </r>
       <r>   -2.7581    1.0000 </r>
       <r>   -2.7083    1.0000 </r>
       <r>   -2.6583    1.0000 </r>
       <r>   -2.6514    1.0000 </r>
       <r>   -2.5936    1.0000 </r>
       <r>   -2.5017    1.0000 </r>
       <r>   -2.2517    1.0000 </r>
       <r>   -2.1744    1.0000 </r>
       <r>   -2.0726    1.0000 </r>
       <r>   -1.9851    1.0000 </r>
       <r>   -1.5451    1.0000 </r>
       <r>   -1.4367    1.0000 </r>
       <r>   -1.1964    1.0000 </r>
       <r>   -1.1539    1.0000 </r>
       <r>   -0.8003    1.0000 </r>
       <r>   -0.7410    1.0000 </r>
       <r>   -0.5182    1.0000 </r>
       <r>   -0.3560    1.0000 </r>
       <r>   -0.3402    1.0000 </r>
       <r>   -0.2728    1.0000 </r>
       <r>   -0.2196    1.0000 </r>
       <r>   -0.1506    1.0000 </r>
       <r>   -0.1299    1.0000 </r>
       <r>   -0.0283    1.0000 </r>
       <r>    0.0222    1.0000 </r>
       <r>    0.0838    1.0000 </r>
       <r>    0.1740    1.0000 </r>
       <r>    0.2165    1.0000 </r>
       <r>    0.2462    1.0000 </r>
       <r>    0.2709    1.0000 </r>
       <r>    0.3171    1.0000 </r>
       <r>    0.3714    1.0000 </r>
       <r>    0.3934    1.0000 </r>
       <r>    0.4856    1.0000 </r>
       <r>    0.4929    1.0000 </r>
       <r>    0.5522    1.0000 </r>
       <r>    0.6343    1.0000 </r>
       <r>    0.6639    1.0000 </r>
       <r>    0.6670    1.0000 </r>
       <r>    0.8062    1.0000 </r>
       <r>    0.8208    1.0000 </r>
       <r>    0.9307    1.0000 </r>
       <r>    0.9697    1.0000 </r>
       <r>    1.0064    1.0000 </r>
       <r>    1.0409    1.0000 </r>
       <r>    1.1115    1.0000 </r>
       <r>    1.1129    1.0000 </r>
       <r>    1.1595    1.0000 </r>
       <r>    1.1837    1.0000 </r>
       <r>    1.1882    1.0000 </r>
       <r>    1.3176    1.0000 </r>
       <r>    1.3873    1.0000 </r>
       <r>    1.3918    1.0000 </r>
       <r>    1.4769    1.0000 </r>
       <r>    1.4913    1.0000 </r>
       <r>    1.5650    1.0000 </r>
       <r>    1.6239    1.0000 </r>
       <r>    1.6268    1.0000 </r>
       <r>    1.6834    1.0000 </r>
       <r>    1.7191    1.0000 </r>
       <r>    1.7704    1.0000 </r>
       <r>    1.8441    1.0000 </r>
       <r>    1.8653    1.0000 </r>
       <r>    1.8906    1.0000 </r>
       <r>    1.8950    1.0000 </r>
       <r>    1.9642    1.0000 </r>
       <r>    2.0034    1.0000 </r>
       <r>    2.0592    1.0000 </r>
       <r>    2.0928    1.0000 </r>
       <r>    2.1839    1.0000 </r>
       <r>    2.1973    1.0000 </r>
       <r>    2.2939    1.0000 </r>
       <r>    2.4168    1.0000 </r>
       <r>    2.4333    1.0000 </r>
       <r>    2.4733    1.0000 </r>
       <r>    2.5587    1.0000 </r>
       <r>    2.6664    1.0000 </r>
       <r>    2.7203    1.0000 </r>
       <r>    2.7377    1.0000 </r>
       <r>    2.8893    1.0000 </r>
       <r>    2.8910    1.0000 </r>
       <r>    3.0059    1.0000 </r>
       <r>    3.1482    1.0000 </r>
       <r>    3.1594    1.0000 </r>
       <r>    3.2570    1.0000 </r>
       <r>    3.3635    1.0000 </r>
       <r>    3.4333    1.0000 </r>
       <r>    3.4859    1.0000 </r>
       <r>    3.5599    1.0000 </r>
       <r>    3.6359    0.0735 </r>
       <r>    3.6465    0.0016 </r>
       <r>    3.7555    0.0000 </r>
       <r>    3.7882    0.0000 </r>
       <r>    3.8642    0.0000 </r>
       <r>    4.1088    0.0000 </r>
       <r>    4.1402    0.0000 </r>
       <r>    4.1867    0.0000 </r>
       <r>    4.2153    0.0000 </r>
       <r>    4.2318    0.0000 </r>
       <r>    4.3581    0.0000 </r>
       <r>    4.4489    0.0000 </r>
       <r>    4.4802    0.0000 </r>
       <r>    4.5590    0.0000 </r>
       <r>    4.6038    0.0000 </r>
       <r>    4.6259    0.0000 </r>
       <r>    4.6655    0.0000 </r>
       <r>    4.8370    0.0000 </r>
       <r>    4.8640    0.0000 </r>
       <r>    4.8786    0.0000 </r>
       <r>    4.9548    0.0000 </r>
       <r>    4.9644    0.0000 </r>
       <r>    5.0345    0.0000 </r>
       <r>    5.0802    0.0000 </r>
       <r>    5.1944    0.0000 </r>
       <r>    5.2578    0.0000 </r>
       <r>    5.2676    0.0000 </r>
       <r>    5.3122    0.0000 </r>
       <r>    5.4012    0.0000 </r>
       <r>    5.4381    0.0000 </r>
       <r>    5.4700    0.0000 </r>
       <r>    5.5008    0.0000 </r>
       <r>    5.5458    0.0000 </r>
      </set>
      <set comment="kpoint 5">
       <r>   -8.7025    1.0000 </r>
       <r>   -8.5110    1.0000 </r>
       <r>   -8.1003    1.0000 </r>
       <r>   -7.9684    1.0000 </r>
       <r>   -7.8736    1.0000 </r>
       <r>   -7.7567    1.0000 </r>
       <r>   -7.7151    1.0000 </r>
       <r>   -7.6084    1.0000 </r>
       <r>   -7.5112    1.0000 </r>
       <r>   -7.4957    1.0000 </r>
       <r>   -7.3195    1.0000 </r>
       <r>   -7.3055    1.0000 </r>
       <r>   -7.1135    1.0000 </r>
       <r>   -7.1020    1.0000 </r>
       <r>   -6.8728    1.0000 </r>
       <r>   -6.8418    1.0000 </r>
       <r>   -6.6456    1.0000 </r>
       <r>   -6.5790    1.0000 </r>
       <r>   -6.5709    1.0000 </r>
       <r>   -6.5115    1.0000 </r>
       <r>   -6.4656    1.0000 </r>
       <r>   -6.2238    1.0000 </r>
       <r>   -6.0013    1.0000 </r>
       <r>   -5.9759    1.0000 </r>
       <r>   -5.9250    1.0000 </r>
       <r>   -5.9004    1.0000 </r>
       <r>   -5.7284    1.0000 </r>
       <r>   -5.6802    1.0000 </r>
       <r>   -5.6210    1.0000 </r>
       <r>   -5.5485    1.0000 </r>
       <r>   -5.2770    1.0000 </r>
       <r>   -5.1068    1.0000 </r>
       <r>   -5.0978    1.0000 </r>
       <r>   -4.9585    1.0000 </r>
       <r>   -4.8869    1.0000 </r>
       <r>   -4.8637    1.0000 </r>
       <r>   -4.7654    1.0000 </r>
       <r>   -4.6164    1.0000 </r>
       <r>   -4.5642    1.0000 </r>
       <r>   -4.3641    1.0000 </r>
       <r>   -4.2158    1.0000 </r>
       <r>   -4.1030    1.0000 </r>
       <r>   -4.0039    1.0000 </r>
       <r>   -3.7250    1.0000 </r>
       <r>   -3.7239    1.0000 </r>
       <r>   -3.6002    1.0000 </r>
       <r>   -3.5138    1.0000 </r>
       <r>   -3.4870    1.0000 </r>
       <r>   -3.3484    1.0000 </r>
       <r>   -3.3080    1.0000 </r>
       <r>   -3.3033    1.0000 </r>
       <r>   -3.0389    1.0000 </r>
       <r>   -2.8674    1.0000 </r>
       <r>   -2.7900    1.0000 </r>
       <r>   -2.6629    1.0000 </r>
       <r>   -2.6189    1.0000 </r>
       <r>   -2.5299    1.0000 </r>
       <r>   -2.3802    1.0000 </r>
       <r>   -2.2899    1.0000 </r>
       <r>   -2.2842    1.0000 </r>
       <r>   -2.2400    1.0000 </r>
       <r>   -2.1441    1.0000 </r>
       <r>   -2.0559    1.0000 </r>
       <r>   -1.9241    1.0000 </r>
       <r>   -1.5847    1.0000 </r>
       <r>   -1.3031    1.0000 </r>
       <r>   -1.2116    1.0000 </r>
       <r>   -1.1240    1.0000 </r>
       <r>   -0.8017    1.0000 </r>
       <r>   -0.7350    1.0000 </r>
       <r>   -0.5438    1.0000 </r>
       <r>   -0.4925    1.0000 </r>
       <r>   -0.3636    1.0000 </r>
       <r>   -0.3026    1.0000 </r>
       <r>   -0.2739    1.0000 </r>
       <r>   -0.2020    1.0000 </r>
       <r>   -0.1124    1.0000 </r>
       <r>   -0.0945    1.0000 </r>
       <r>   -0.0306    1.0000 </r>
       <r>    0.0001    1.0000 </r>
       <r>    0.0917    1.0000 </r>
       <r>    0.1568    1.0000 </r>
       <r>    0.2119    1.0000 </r>
       <r>    0.2761    1.0000 </r>
       <r>    0.2909    1.0000 </r>
       <r>    0.3244    1.0000 </r>
       <r>    0.3749    1.0000 </r>
       <r>    0.3916    1.0000 </r>
       <r>    0.4580    1.0000 </r>
       <r>    0.4746    1.0000 </r>
       <r>    0.5245    1.0000 </r>
       <r>    0.5860    1.0000 </r>
       <r>    0.6118    1.0000 </r>
       <r>    0.6794    1.0000 </r>
       <r>    0.6874    1.0000 </r>
       <r>    0.7813    1.0000 </r>
       <r>    0.8260    1.0000 </r>
       <r>    0.8694    1.0000 </r>
       <r>    0.9276    1.0000 </r>
       <r>    0.9292    1.0000 </r>
       <r>    1.0056    1.0000 </r>
       <r>    1.0189    1.0000 </r>
       <r>    1.0352    1.0000 </r>
       <r>    1.0640    1.0000 </r>
       <r>    1.1468    1.0000 </r>
       <r>    1.2172    1.0000 </r>
       <r>    1.2708    1.0000 </r>
       <r>    1.3373    1.0000 </r>
       <r>    1.3404    1.0000 </r>
       <r>    1.3856    1.0000 </r>
       <r>    1.4368    1.0000 </r>
       <r>    1.4503    1.0000 </r>
       <r>    1.5295    1.0000 </r>
       <r>    1.5536    1.0000 </r>
       <r>    1.5763    1.0000 </r>
       <r>    1.6331    1.0000 </r>
       <r>    1.6801    1.0000 </r>
       <r>    1.7129    1.0000 </r>
       <r>    1.7378    1.0000 </r>
       <r>    1.7915    1.0000 </r>
       <r>    1.8222    1.0000 </r>
       <r>    1.8539    1.0000 </r>
       <r>    1.9471    1.0000 </r>
       <r>    2.0171    1.0000 </r>
       <r>    2.1401    1.0000 </r>
       <r>    2.1881    1.0000 </r>
       <r>    2.2403    1.0000 </r>
       <r>    2.3357    1.0000 </r>
       <r>    2.3759    1.0000 </r>
       <r>    2.4955    1.0000 </r>
       <r>    2.5948    1.0000 </r>
       <r>    2.6538    1.0000 </r>
       <r>    2.6585    1.0000 </r>
       <r>    2.9051    1.0000 </r>
       <r>    2.9607    1.0000 </r>
       <r>    3.0211    1.0000 </r>
       <r>    3.0717    1.0000 </r>
       <r>    3.0956    1.0000 </r>
       <r>    3.1850    1.0000 </r>
       <r>    3.3258    1.0000 </r>
       <r>    3.4232    1.0000 </r>
       <r>    3.5170    1.0000 </r>
       <r>    3.5919    1.0000 </r>
       <r>    3.6180    0.8620 </r>
       <r>    3.6509    0.0002 </r>
       <r>    3.7369    0.0000 </r>
       <r>    3.7770    0.0000 </r>
       <r>    3.9821    0.0000 </r>
       <r>    3.9828    0.0000 </r>
       <r>    4.2059    0.0000 </r>
       <r>    4.2471    0.0000 </r>
       <r>    4.2757    0.0000 </r>
       <r>    4.3092    0.0000 </r>
       <r>    4.4727    0.0000 </r>
       <r>    4.4909    0.0000 </r>
       <r>    4.5459    0.0000 </r>
       <r>    4.6740    0.0000 </r>
       <r>    4.7599    0.0000 </r>
       <r>    4.7880    0.0000 </r>
       <r>    4.8271    0.0000 </r>
       <r>    4.8671    0.0000 </r>
       <r>    4.9542    0.0000 </r>
       <r>    5.0052    0.0000 </r>
       <r>    5.0784    0.0000 </r>
       <r>    5.2262    0.0000 </r>
       <r>    5.2750    0.0000 </r>
       <r>    5.3184    0.0000 </r>
[...]
       <r>    -9.6084     0.0000     0.0000 </r>
       <r>    -9.5538     0.0000     0.0000 </r>
       <r>    -9.4992     0.0000     0.0000 </r>
       <r>    -9.4445     0.0000     0.0000 </r>
       <r>    -9.3899     0.0000     0.0000 </r>
       <r>    -9.3353     0.0000     0.0000 </r>
       <r>    -9.2807     0.0000     0.0000 </r>
       <r>    -9.2260     0.0000     0.0000 </r>
       <r>    -9.1714     0.0000     0.0000 </r>
       <r>    -9.1168     0.0000     0.0000 </r>
       <r>    -9.0621     0.0000     0.0000 </r>
       <r>    -9.0075     0.0000     0.0000 </r>
       <r>    -8.9529     0.0000     0.0000 </r>
       <r>    -8.8983     0.0000     0.0000 </r>
       <r>    -8.8436     2.1784     0.1190 </r>
       <r>    -8.7890     4.6325     0.3721 </r>
       <r>    -8.7344     6.3124     0.7169 </r>
       <r>    -8.6798     9.4655     1.2340 </r>
       <r>    -8.6251     4.8301     1.4978 </r>
       <r>    -8.5705     4.6163     1.7500 </r>
       <r>    -8.5159     0.1651     1.7590 </r>
       <r>    -8.4612    11.2753     2.3750 </r>
       <r>    -8.4066     5.4582     2.6731 </r>
       <r>    -8.3520    17.3959     3.6234 </r>
       <r>    -8.2974    11.9255     4.2749 </r>
       <r>    -8.2427     6.9577     4.6550 </r>
       <r>    -8.1881     7.1924     5.0479 </r>
       <r>    -8.1335    15.5349     5.8965 </r>
       <r>    -8.0788    15.4174     6.7387 </r>
       <r>    -8.0242     4.0119     6.9579 </r>
       <r>    -7.9696    17.0765     7.8907 </r>
       <r>    -7.9150    20.7843     9.0261 </r>
       <r>    -7.8603    10.5357     9.6017 </r>
       <r>    -7.8057    18.7349    10.6251 </r>
       <r>    -7.7511    10.1242    11.1782 </r>
       <r>    -7.6965    40.8939    13.4121 </r>
       <r>    -7.6418    13.4391    14.1463 </r>
       <r>    -7.5872    19.4117    15.2067 </r>
       <r>    -7.5326    12.3843    15.8832 </r>
       <r>    -7.4779    18.0195    16.8676 </r>
       <r>    -7.4233    23.0941    18.1292 </r>
       <r>    -7.3687    11.9597    18.7825 </r>
       <r>    -7.3141    20.7673    19.9170 </r>
       <r>    -7.2594    32.4492    21.6896 </r>
       <r>    -7.2048    12.8610    22.3922 </r>
       <r>    -7.1502    20.7077    23.5234 </r>
       <r>    -7.0956    16.4389    24.4214 </r>
       <r>    -7.0409    15.6857    25.2783 </r>
       <r>    -6.9863    26.6903    26.7363 </r>
       <r>    -6.9317    43.8188    29.1300 </r>
       <r>    -6.8770    20.0781    30.2268 </r>
       <r>    -6.8224    18.0525    31.2130 </r>
       <r>    -6.7678    13.2862    31.9388 </r>
       <r>    -6.7132    24.0311    33.2515 </r>
       <r>    -6.6585    15.4094    34.0933 </r>
       <r>    -6.6039    25.9461    35.5107 </r>
       <r>    -6.5493    29.1226    37.1016 </r>
       <r>    -6.4947    54.4516    40.0761 </r>
       <r>    -6.4400    14.5768    40.8725 </r>
       <r>    -6.3854    11.4515    41.4980 </r>
       <r>    -6.3308    15.9002    42.3666 </r>
       <r>    -6.2761     9.2730    42.8732 </r>
       <r>    -6.2215     7.4649    43.2810 </r>
       <r>    -6.1669    11.4859    43.9084 </r>
       <r>    -6.1123    24.1260    45.2263 </r>
       <r>    -6.0576    19.3505    46.2834 </r>
       <r>    -6.0030    11.4527    46.9091 </r>
       <r>    -5.9484    35.8150    48.8655 </r>
       <r>    -5.8937    37.2352    50.8996 </r>
       <r>    -5.8391    26.6816    52.3572 </r>
       <r>    -5.7845    15.1466    53.1846 </r>
       <r>    -5.7299    17.4674    54.1389 </r>
       <r>    -5.6752    19.3080    55.1936 </r>
       <r>    -5.6206    19.0705    56.2354 </r>
       <r>    -5.5660    17.0200    57.1651 </r>
       <r>    -5.5114    21.8342    58.3579 </r>
       <r>    -5.4567     9.4637    58.8749 </r>
       <r>    -5.4021     9.0533    59.3695 </r>
       <r>    -5.3475     7.6921    59.7897 </r>
       <r>    -5.2928    14.5568    60.5849 </r>
       <r>    -5.2382    18.7170    61.6074 </r>
       <r>    -5.1836    20.4508    62.7246 </r>
       <r>    -5.1290    18.7683    63.7499 </r>
       <r>    -5.0743    26.9507    65.2221 </r>
       <r>    -5.0197    10.7570    65.8098 </r>
       <r>    -4.9651     4.0173    66.0292 </r>
       <r>    -4.9105    22.6315    67.2655 </r>
       <r>    -4.8558    25.2510    68.6449 </r>
       <r>    -4.8012    12.8774    69.3484 </r>
       <r>    -4.7466    24.2837    70.6750 </r>
       <r>    -4.6919    25.3271    72.0585 </r>
       <r>    -4.6373    16.8819    72.9807 </r>
       <r>    -4.5827    27.2812    74.4710 </r>
       <r>    -4.5281    27.8197    75.9908 </r>
       <r>    -4.4734    11.6432    76.6268 </r>
       <r>    -4.4188    22.0772    77.8328 </r>
       <r>    -4.3642     4.7000    78.0896 </r>
       <r>    -4.3096    18.4452    79.0972 </r>
       <r>    -4.2549    19.7556    80.1764 </r>
       <r>    -4.2003    22.5354    81.4075 </r>
       <r>    -4.1457     8.1106    81.8506 </r>
       <r>    -4.0910    25.9052    83.2657 </r>
       <r>    -4.0364    24.2006    84.5877 </r>
       <r>    -3.9818    23.1873    85.8544 </r>
       <r>    -3.9272    13.2252    86.5769 </r>
       <r>    -3.8725     8.3527    87.0331 </r>
       <r>    -3.8179    11.6792    87.6712 </r>
       <r>    -3.7633     6.5273    88.0277 </r>
       <r>    -3.7086    31.4789    89.7473 </r>
       <r>    -3.6540    18.2149    90.7424 </r>
       <r>    -3.5994    14.3114    91.5242 </r>
       <r>    -3.5448    25.4109    92.9123 </r>
       <r>    -3.4901    17.4886    93.8677 </r>
       <r>    -3.4355    42.4348    96.1858 </r>
       <r>    -3.3809    18.9787    97.2225 </r>
       <r>    -3.3263    24.6638    98.5699 </r>
       <r>    -3.2716    25.8700    99.9831 </r>
       <r>    -3.2170    11.9839   100.6378 </r>
       <r>    -3.1624    13.6671   101.3844 </r>
       <r>    -3.1077     7.8217   101.8116 </r>
       <r>    -3.0531    22.1102   103.0195 </r>
       <r>    -2.9985    16.2811   103.9089 </r>
       <r>    -2.9439    24.0509   105.2227 </r>
       <r>    -2.8892    21.3454   106.3887 </r>
       <r>    -2.8346    25.7061   107.7930 </r>
       <r>    -2.7800    18.3444   108.7951 </r>
       <r>    -2.7254    17.8977   109.7728 </r>
       <r>    -2.6707    15.6100   110.6256 </r>
       <r>    -2.6161    11.8216   111.2714 </r>
       <r>    -2.5615    20.1251   112.3708 </r>
       <r>    -2.5068    28.2780   113.9155 </r>
       <r>    -2.4522    14.7547   114.7215 </r>
       <r>    -2.3976    17.3841   115.6712 </r>
       <r>    -2.3430    21.4998   116.8457 </r>
       <r>    -2.2883    16.1867   117.7299 </r>
       <r>    -2.2337    15.7523   118.5904 </r>
       <r>    -2.1791    20.5203   119.7114 </r>
       <r>    -2.1245    15.4682   120.5564 </r>
       <r>    -2.0698     7.9557   120.9910 </r>
       <r>    -2.0152    11.9229   121.6423 </r>
       <r>    -1.9606    17.1242   122.5778 </r>
       <r>    -1.9059    13.5527   123.3181 </r>
       <r>    -1.8513     9.5780   123.8414 </r>
       <r>    -1.7967     6.0734   124.1731 </r>
       <r>    -1.7421    27.8806   125.6962 </r>
       <r>    -1.6874    10.2711   126.2573 </r>
       <r>    -1.6328     8.3206   126.7118 </r>
       <r>    -1.5782    15.1668   127.5403 </r>
       <r>    -1.5235    18.6347   128.5583 </r>
       <r>    -1.4689    17.6188   129.5208 </r>
       <r>    -1.4143    12.2644   130.1908 </r>
       <r>    -1.3597    15.0362   131.0121 </r>
       <r>    -1.3050     9.5065   131.5315 </r>
       <r>    -1.2504    18.4333   132.5384 </r>
       <r>    -1.1958    16.3280   133.4304 </r>
       <r>    -1.1412    13.9495   134.1924 </r>
       <r>    -1.0865    12.9952   134.9023 </r>
       <r>    -1.0319    10.6451   135.4838 </r>
       <r>    -0.9773    13.8766   136.2419 </r>
       <r>    -0.9226    12.5536   136.9276 </r>
       <r>    -0.8680    19.6850   138.0030 </r>
       <r>    -0.8134     9.0894   138.4995 </r>
       <r>    -0.7588    11.8087   139.1446 </r>
       <r>    -0.7041    18.3930   140.1494 </r>
       <r>    -0.6495     9.1906   140.6514 </r>
       <r>    -0.5949    15.1463   141.4789 </r>
       <r>    -0.5403    21.9202   142.6763 </r>
       <r>    -0.4856    22.6419   143.9132 </r>
       <r>    -0.4310    24.1248   145.2310 </r>
       <r>    -0.3764    10.4889   145.8040 </r>
       <r>    -0.3217    45.9307   148.3131 </r>
       <r>    -0.2671    19.9322   149.4020 </r>
       <r>    -0.2125    35.2778   151.3292 </r>
       <r>    -0.1579    31.8123   153.0670 </r>
       <r>    -0.1032    34.8391   154.9702 </r>
       <r>    -0.0486    50.4334   157.7252 </r>
       <r>     0.0060    39.1411   159.8635 </r>
       <r>     0.0606    42.0349   162.1598 </r>
       <r>     0.1153    31.8670   163.9006 </r>
       <r>     0.1699    33.4012   165.7252 </r>
       <r>     0.2245    43.7974   168.1178 </r>
       <r>     0.2792    46.0900   170.6356 </r>
       <r>     0.3338    51.9589   173.4739 </r>
       <r>     0.3884    36.7076   175.4792 </r>
       <r>     0.4430    51.0546   178.2682 </r>
       <r>     0.4977    36.1389   180.2424 </r>
       <r>     0.5523    39.0523   182.3757 </r>
       <r>     0.6069    43.4202   184.7477 </r>
       <r>     0.6616    33.6953   186.5884 </r>
       <r>     0.7162    53.6197   189.5175 </r>
       <r>     0.7708    31.3828   191.2319 </r>
       <r>     0.8254    38.8380   193.3535 </r>
       <r>     0.8801    41.3156   195.6105 </r>
       <r>     0.9347    38.5953   197.7189 </r>
       <r>     0.9893    41.3215   199.9762 </r>
       <r>     1.0439    49.5045   202.6805 </r>
       <r>     1.0986    39.2983   204.8273 </r>
       <r>     1.1532    48.3656   207.4694 </r>
       <r>     1.2078    41.6144   209.7427 </r>
       <r>     1.2625    46.8390   212.3014 </r>
       <r>     1.3171    39.1979   214.4427 </r>
       <r>     1.3717    45.7545   216.9422 </r>
       <r>     1.4263    57.0012   220.0560 </r>
       <r>     1.4810    44.3804   222.4804 </r>
       <r>     1.5356    26.8983   223.9498 </r>
       <r>     1.5902    40.8133   226.1794 </r>
       <r>     1.6448    45.6952   228.6756 </r>
       <r>     1.6995    47.1395   231.2508 </r>
       <r>     1.7541    36.0890   233.2222 </r>
       <r>     1.8087    39.6690   235.3893 </r>
       <r>     1.8634    34.1773   237.2563 </r>
       <r>     1.9180    33.6560   239.0948 </r>
       <r>     1.9726    33.8550   240.9443 </r>
       <r>     2.0272    18.5592   241.9581 </r>
       <r>     2.0819    39.2424   244.1019 </r>
       <r>     2.1365    32.1200   245.8565 </r>
       <r>     2.1911    26.0336   247.2786 </r>
       <r>     2.2457    34.6579   249.1720 </r>
       <r>     2.3004    43.6514   251.5565 </r>
       <r>     2.3550    26.0889   252.9817 </r>
       <r>     2.4096    37.2413   255.0161 </r>
       <r>     2.4643    34.6590   256.9095 </r>
       <r>     2.5189    27.3150   258.4016 </r>
       <r>     2.5735    12.6606   259.0933 </r>
       <r>     2.6281    25.3884   260.4802 </r>
       <r>     2.6828    42.5489   262.8045 </r>
       <r>     2.7374    19.4407   263.8665 </r>
       <r>     2.7920    17.9353   264.8463 </r>
       <r>     2.8467    30.1096   266.4911 </r>
       <r>     2.9013    15.7776   267.3530 </r>
       <r>     2.9559    35.6535   269.3007 </r>
       <r>     3.0105    25.3840   270.6874 </r>
       <r>     3.0652    33.5240   272.5187 </r>
       <r>     3.1198    30.7934   274.2009 </r>
       <r>     3.1744    26.5235   275.6498 </r>
       <r>     3.2290    24.9936   277.0151 </r>
       <r>     3.2837    19.5679   278.0841 </r>
       <r>     3.3383    23.6563   279.3764 </r>
       <r>     3.3929    38.2913   281.4681 </r>
       <r>     3.4476    20.7160   282.5998 </r>
       <r>     3.5022    37.1155   284.6273 </r>
       <r>     3.5568    23.6501   285.9193 </r>
       <r>     3.6114    27.2625   287.4086 </r>
       <r>     3.6661    36.0906   289.3801 </r>
       <r>     3.7207    23.2672   290.6511 </r>
       <r>     3.7753    29.3162   292.2526 </r>
       <r>     3.8299    24.8519   293.6102 </r>
       <r>     3.8846    14.4009   294.3969 </r>
       <r>     3.9392    26.9364   295.8684 </r>
       <r>     3.9938    15.9379   296.7390 </r>
       <r>     4.0485    26.2391   298.1724 </r>
       <r>     4.1031    19.0093   299.2108 </r>
       <r>     4.1577    23.3356   300.4856 </r>
       <r>     4.2123    22.9263   301.7380 </r>
       <r>     4.2670    36.0996   303.7101 </r>
       <r>     4.3216    27.8906   305.2337 </r>
       <r>     4.3762    37.9262   307.3055 </r>
       <r>     4.4308    22.5005   308.5346 </r>
       <r>     4.4855    31.6571   310.2640 </r>
       <r>     4.5401    29.8838   311.8965 </r>
       <r>     4.5947    28.6859   313.4636 </r>
       <r>     4.6494    30.5004   315.1297 </r>
       <r>     4.7040    36.6648   317.1326 </r>
       <r>     4.7586    21.0701   318.2836 </r>
       <r>     4.8132    33.3019   320.1029 </r>
       <r>     4.8679    31.5939   321.8288 </r>
       <r>     4.9225    23.8977   323.1342 </r>
       <r>     4.9771    34.8764   325.0395 </r>
       <r>     5.0318    33.3067   326.8589 </r>
       <r>     5.0864    34.9001   328.7655 </r>
       <r>     5.1410    27.9150   330.2904 </r>
       <r>     5.1956    25.5383   331.6855 </r>
       <r>     5.2503    24.2278   333.0090 </r>
       <r>     5.3049    39.7744   335.1818 </r>
       <r>     5.3595    27.1961   336.6674 </r>
       <r>     5.4141    29.1393   338.2593 </r>
       <r>     5.4688    45.4718   340.7433 </r>
       <r>     5.5234    25.7036   342.1474 </r>
       <r>     5.5780    20.7639   343.2817 </r>
       <r>     5.6327    34.7957   345.1825 </r>
       <r>     5.6873    22.3597   346.4040 </r>
       <r>     5.7419    28.7790   347.9761 </r>
       <r>     5.7965    15.9113   348.8453 </r>
       <r>     5.8512    21.3496   350.0115 </r>
       <r>     5.9058    14.5777   350.8079 </r>
       <r>     5.9604     8.0925   351.2500 </r>
       <r>     6.0150     8.8498   351.7334 </r>
       <r>     6.0697     4.8796   352.0000 </r>
       <r>     6.1243     0.0000   352.0000 </r>
       <r>     6.1789     0.0000   352.0000 </r>
       <r>     6.2336     0.0000   352.0000 </r>
       <r>     6.2882     0.0000   352.0000 </r>
       <r>     6.3428     0.0000   352.0000 </r>
       <r>     6.3974     0.0000   352.0000 </r>
       <r>     6.4521     0.0000   352.0000 </r>
       <r>     6.5067     0.0000   352.0000 </r>
       <r>     6.5613     0.0000   352.0000 </r>
       <r>     6.6159     0.0000   352.0000 </r>
       <r>     6.6706     0.0000   352.0000 </r>
       <r>     6.7252     0.0000   352.0000 </r>
       <r>     6.7798     0.0000   352.0000 </r>
      </set>
     </set>
    </array>
   </total>
  </dos>
 </calculation>
 <structure name="finalpos" >
  <crystal>
   <varray name="basis" >
    <v>       8.00133800       0.00000000       0.00000000 </v>
    <v>       0.00000000      16.00267601       0.00000000 </v>
    <v>       0.00000000       0.00000000      13.26432228 </v>
   </varray>
   <i name="volume">   1698.40122681 </i>
   <varray name="rec_basis" >
    <v>       0.12497910       0.00000000       0.00000000 </v>
    <v>       0.00000000       0.06248955       0.00000000 </v>
    <v>       0.00000000       0.00000000       0.07539021 </v>
   </varray>
  </crystal>
  <varray name="positions" >
   <v>       0.00854173       0.99572915       0.00000000 </v>
   <v>       0.25854170       0.87072915       0.21327135 </v>
   <v>       0.50854170       0.74572915       0.42654276 </v>
   <v>       0.50854170       0.24572912       0.00000000 </v>
   <v>       0.75854164       0.12072913       0.21327135 </v>
   <v>       0.00854158       0.99572915       0.42654276 </v>
   <v>       0.00854174       0.49572909       0.00000000 </v>
   <v>       0.25854170       0.37072912       0.21327135 </v>
   <v>       0.50854170       0.24572912       0.42654276 </v>
   <v>       0.50854170       0.74572909       0.00000000 </v>
   <v>       0.75854164       0.62072909       0.21327135 </v>
   <v>       0.00854170       0.49572912       0.42654276 </v>
   <v>       0.00854170       0.12072916       0.10663567 </v>
   <v>       0.25854170       0.99572915       0.31990707 </v>
   <v>       0.50854170       0.87072915       0.53317845 </v>
   <v>       0.50854176       0.37072912       0.10663567 </v>
   <v>       0.75854170       0.24572915       0.31990707 </v>
   <v>       0.00854170       0.12072913       0.53317845 </v>
   <v>       0.00854158       0.62072909       0.10663567 </v>
   <v>       0.25854158       0.49572909       0.31990707 </v>
   <v>       0.50854158       0.37072906       0.53317845 </v>
   <v>       0.50854170       0.87072915       0.10663567 </v>
   <v>       0.75854170       0.74572915       0.31990707 </v>
   <v>       0.00854170       0.62072915       0.53317845 </v>
   <v>       0.50854170       0.99572915       0.00000000 </v>
   <v>       0.75854164       0.87072915       0.21327135 </v>
   <v>       0.00854158       0.74572921       0.42654276 </v>
   <v>       0.00854172       0.24572913       0.00000000 </v>
   <v>       0.25854170       0.12072913       0.21327135 </v>
   <v>       0.50854170       0.99572915       0.42654276 </v>
   <v>       0.50854170       0.49572915       0.00000000 </v>
   <v>       0.75854170       0.37072915       0.21327135 </v>
   <v>       0.00854170       0.24572916       0.42654276 </v>
   <v>       0.00854174       0.74572915       0.00000000 </v>
   <v>       0.25854167       0.62072915       0.21327135 </v>
   <v>       0.50854170       0.49572915       0.42654276 </v>
   <v>       0.50854170       0.12072913       0.10663567 </v>
   <v>       0.75854170       0.99572915       0.31990707 </v>
   <v>       0.00854170       0.87072915       0.53317845 </v>
   <v>       0.00854170       0.37072912       0.10663567 </v>
   <v>       0.25854158       0.24572912       0.31990707 </v>
   <v>       0.50854170       0.12072911       0.53317845 </v>
   <v>       0.50854170       0.62072909       0.10663567 </v>
   <v>       0.75854164       0.49572912       0.31990707 </v>
   <v>       0.00854170       0.37072909       0.53317845 </v>
   <v>       0.00854158       0.87072909       0.10663567 </v>
   <v>       0.25854158       0.74572909       0.31990707 </v>
   <v>       0.50854158       0.62072909       0.53317845 </v>
   <v>       0.13243531       0.97502607       0.64595544 </v>
   <v>       0.38243538       0.58613712       0.69420898 </v>
   <v>       0.63243538       0.19724822       0.74246252 </v>
   <v>       0.88243544       0.80835921       0.79071599 </v>
   <v>       0.13243550       0.41947025       0.83896953 </v>
   <v>       0.38243562       0.03058088       0.88722289 </v>
   <v>       0.88243538       0.72502613       0.64595544 </v>
   <v>       0.13243538       0.33613709       0.69420898 </v>
   <v>       0.38243538       0.94724822       0.74246246 </v>
   <v>       0.63243562       0.55835915       0.79071599 </v>
   <v>       0.88243550       0.16947013       0.83896941 </v>
   <v>       0.13243574       0.78058106       0.88722295 </v>
   <v>       0.38243538       0.72502613       0.64595544 </v>
   <v>       0.63243538       0.33613712       0.69420898 </v>
   <v>       0.88243544       0.94724822       0.74246246 </v>
   <v>       0.13243550       0.55835915       0.79071599 </v>
   <v>       0.38243550       0.16947013       0.83896941 </v>
   <v>       0.63243562       0.78058106       0.88722295 </v>
   <v>       0.63243532       0.97502607       0.64595544 </v>
   <v>       0.88243532       0.58613712       0.69420898 </v>
   <v>       0.13243538       0.19724822       0.74246252 </v>
   <v>       0.38243538       0.80835921       0.79071599 </v>
   <v>       0.63243574       0.41947013       0.83896941 </v>
   <v>       0.88243562       0.03058112       0.88722289 </v>
  </varray>
 </structure>
</modeling>
