<?xml version="1.0" encoding="ISO-8859-1"?>
<modeling>
 <generator>
  <i name="program" type="string">vasp </i>
  <i name="version" type="string">6.4.3  </i>
  <i name="subversion" type="string">19Mar24 (build Oct 22 2024 11:23:12) complex                          parallel </i>
  <i name="platform" type="string">LinuxIFC </i>
  <i name="date" type="string">2025 06 09 </i>
  <i name="time" type="string">03:29:38 </i>
 </generator>
 <incar>
  <i type="string" name="SYSTEM">Si and Ge interface calculation</i>
  <i type="int" name="ISTART">     0</i>
  <i type="logical" name="ADDGRID"> T  </i>
  <i type="int" name="ISPIN">     2</i>
  <i name="AMIX">      0.60000000</i>
  <i type="int" name="ICHARG">     2</i>
  <i type="int" name="NELM">   100</i>
  <i name="EDIFF">      0.00000010</i>
  <i name="ENCUT">    700.00000000</i>
  <i name="ENAUG">    900.00000000</i>
  <i type="int" name="NBANDS">   404</i>
  <i name="NUPDOWN">      1.00000000</i>
  <i name="NELECT">    672.00000000</i>
  <i type="string" name="LREAL">AUTO</i>
  <i type="int" name="ISMEAR">     0</i>
  <i name="SIGMA">      0.01000000</i>
  <i type="int" name="LMAXMIX">     6</i>
  <i type="logical" name="LWAVE"> F  </i>
  <i type="logical" name="LVTOT"> F  </i>
  <i type="logical" name="LVHAR"> T  </i>
  <i type="logical" name="LASPH"> T  </i>
  <i type="logical" name="LMIXTAU"> T  </i>
 </incar>
 <primitive_cell>
  <structure name="primitive_cell" >
   <crystal>
    <varray name="basis" >
     <v>      -0.00000034      -7.94761540      -0.00000003 </v>
     <v>      11.23962402       0.00000000       0.00000000 </v>
     <v>       0.00000000       0.00000000      25.80094147 </v>
    </varray>
    <i name="volume">   2304.75189147 </i>
    <varray name="rec_basis" >
     <v>       0.00000000      -0.12582390       0.00000000 </v>
     <v>       0.08897095      -0.00000000       0.00000000 </v>
     <v>       0.00000000      -0.00000000       0.03875828 </v>
    </varray>
   </crystal>
   <varray name="positions" >
    <v>       0.96404097       1.00000000       0.00000000 </v>
    <v>       0.46404090       0.99999989       0.08892228 </v>
    <v>       0.96404052       0.99999988       0.17784460 </v>
    <v>       0.46404030       0.99999977       0.26676690 </v>
    <v>       0.96404004       0.99999982       0.35568920 </v>
    <v>       0.46403994       0.99999972       0.44461155 </v>
    <v>       0.29737440       0.33333332       0.00000000 </v>
    <v>       0.79737403       0.33333334       0.08892228 </v>
    <v>       0.29737405       0.33333326       0.17784460 </v>
    <v>       0.79737355       0.33333322       0.26676691 </v>
    <v>       0.29737345       0.33333323       0.35568920 </v>
    <v>       0.79737284       0.33333310       0.44461155 </v>
    <v>       0.63070763       0.66666679       1.00000000 </v>
    <v>       0.13070767       0.66666663       0.08892229 </v>
    <v>       0.63070706       0.66666679       0.17784460 </v>
    <v>       0.13070720       0.66666657       0.26676687 </v>
    <v>       0.63070682       0.66666650       0.35568920 </v>
    <v>       0.13070648       0.66666651       0.44461155 </v>
    <v>       0.29737429       0.08333328       1.00000000 </v>
    <v>       0.79737403       0.08333327       0.08892231 </v>
    <v>       0.29737405       0.08333324       0.17784460 </v>
    <v>       0.79737379       0.08333312       0.26676691 </v>
    <v>       0.29737345       0.08333308       0.35568923 </v>
    <v>       0.79737284       0.08333307       0.44461152 </v>
    <v>       0.63070763       0.41666670       0.00000000 </v>
    <v>       0.13070767       0.41666657       0.08892229 </v>
    <v>       0.63070706       0.41666665       0.17784460 </v>
    <v>       0.13070708       0.41666651       0.26676690 </v>
    <v>       0.63070682       0.41666656       0.35568920 </v>
    <v>       0.13070672       0.41666645       0.44461152 </v>
    <v>       0.96404091       0.75000000       0.00000001 </v>
    <v>       0.46404090       0.74999989       0.08892229 </v>
    <v>       0.96404052       0.75000000       0.17784460 </v>
    <v>       0.46404042       0.74999977       0.26676687 </v>
    <v>       0.96404004       0.74999982       0.35568920 </v>
    <v>       0.46403994       0.74999972       0.44461152 </v>
    <v>       0.02472073       0.09678882       0.52848196 </v>
    <v>       0.77472060       0.84678882       0.60601157 </v>
    <v>       0.52472065       0.59678887       0.68354106 </v>
    <v>       0.27472023       0.34678895       0.76107049 </v>
    <v>       0.02472073       0.09678882       0.83860004 </v>
    <v>       0.77472063       0.84678882       0.91612953 </v>
    <v>       0.02472073       0.59678882       0.52848196 </v>
    <v>       0.77472060       0.34678888       0.60601157 </v>
    <v>       0.52472065       0.09678887       0.68354106 </v>
    <v>       0.27472023       0.84678889       0.76107049 </v>
    <v>       0.02472073       0.59678888       0.83860004 </v>
    <v>       0.77472063       0.34678888       0.91612953 </v>
    <v>       0.52472062       0.09678887       0.52848196 </v>
    <v>       0.27472071       0.84678877       0.60601157 </v>
    <v>       0.02472073       0.59678882       0.68354106 </v>
    <v>       0.77472039       0.34678900       0.76107049 </v>
    <v>       0.52472053       0.09678887       0.83860010 </v>
    <v>       0.27472071       0.84678877       0.91612953 </v>
    <v>       0.52472062       0.59678887       0.52848196 </v>
    <v>       0.27472071       0.34678883       0.60601157 </v>
    <v>       0.02472073       0.09678882       0.68354106 </v>
    <v>       0.77472039       0.84678894       0.76107049 </v>
    <v>       0.52472053       0.59678893       0.83860010 </v>
    <v>       0.27472071       0.34678883       0.91612953 </v>
    <v>       0.77472060       0.47178888       0.52848196 </v>
    <v>       0.52472059       0.22178887       0.60601157 </v>
    <v>       0.27472071       0.97178883       0.68354106 </v>
    <v>       0.02472049       0.72178888       0.76107049 </v>
    <v>       0.77472051       0.47178888       0.83860010 </v>
    <v>       0.52472089       0.22178882       0.91612953 </v>
    <v>       0.77472060       0.97178894       0.52848196 </v>
    <v>       0.52472059       0.72178887       0.60601157 </v>
    <v>       0.27472071       0.47178889       0.68354106 </v>
    <v>       0.02472049       0.22178894       0.76107049 </v>
    <v>       0.77472051       0.97178894       0.83860010 </v>
    <v>       0.52472089       0.72178887       0.91612953 </v>
    <v>       0.27472059       0.47178883       0.52848196 </v>
    <v>       0.02472073       0.22178882       0.60601157 </v>
    <v>       0.77472054       0.97178888       0.68354106 </v>
    <v>       0.52472041       0.72178893       0.76107049 </v>
    <v>       0.27472071       0.47178883       0.83860004 </v>
    <v>       0.02472073       0.22178878       0.91612953 </v>
    <v>       0.27472059       0.97178889       0.52848196 </v>
    <v>       0.02472073       0.72178882       0.60601157 </v>
    <v>       0.77472054       0.47178894       0.68354106 </v>
    <v>       0.52472041       0.22178899       0.76107049 </v>
    <v>       0.27472071       0.97178889       0.83860004 </v>
    <v>       0.02472073       0.72178882       0.91612953 </v>
   </varray>
  </structure>
  <varray name="primitive_index" >
   <v type="int" >        1 </v>
   <v type="int" >       20 </v>
   <v type="int" >       21 </v>
   <v type="int" >        4 </v>
   <v type="int" >        5 </v>
   <v type="int" >       24 </v>
   <v type="int" >       25 </v>
   <v type="int" >       26 </v>
   <v type="int" >        9 </v>
   <v type="int" >       10 </v>
   <v type="int" >       29 </v>
   <v type="int" >       30 </v>
   <v type="int" >       31 </v>
   <v type="int" >       14 </v>
   <v type="int" >       15 </v>
   <v type="int" >       34 </v>
   <v type="int" >       35 </v>
   <v type="int" >       18 </v>
   <v type="int" >       55 </v>
   <v type="int" >       56 </v>
   <v type="int" >       39 </v>
   <v type="int" >       40 </v>
   <v type="int" >       59 </v>
   <v type="int" >       60 </v>
   <v type="int" >       61 </v>
   <v type="int" >       44 </v>
   <v type="int" >       45 </v>
   <v type="int" >       64 </v>
   <v type="int" >       65 </v>
   <v type="int" >       48 </v>
   <v type="int" >       49 </v>
   <v type="int" >       68 </v>
   <v type="int" >       69 </v>
   <v type="int" >       52 </v>
   <v type="int" >       53 </v>
   <v type="int" >       72 </v>
   <v type="int" >       85 </v>
   <v type="int" >       74 </v>
   <v type="int" >       87 </v>
   <v type="int" >       88 </v>
   <v type="int" >       77 </v>
   <v type="int" >       90 </v>
   <v type="int" >       91 </v>
   <v type="int" >       80 </v>
   <v type="int" >       93 </v>
   <v type="int" >       94 </v>
   <v type="int" >       83 </v>
   <v type="int" >       96 </v>
   <v type="int" >      109 </v>
   <v type="int" >      110 </v>
   <v type="int" >       99 </v>
   <v type="int" >      112 </v>
   <v type="int" >      101 </v>
   <v type="int" >      102 </v>
   <v type="int" >      115 </v>
   <v type="int" >      116 </v>
   <v type="int" >      105 </v>
   <v type="int" >      118 </v>
   <v type="int" >      107 </v>
   <v type="int" >      108 </v>
   <v type="int" >      133 </v>
   <v type="int" >      122 </v>
   <v type="int" >      123 </v>
   <v type="int" >      136 </v>
   <v type="int" >      125 </v>
   <v type="int" >      138 </v>
   <v type="int" >      139 </v>
   <v type="int" >      128 </v>
   <v type="int" >      129 </v>
   <v type="int" >      142 </v>
   <v type="int" >      131 </v>
   <v type="int" >      144 </v>
   <v type="int" >      145 </v>
   <v type="int" >      158 </v>
   <v type="int" >      147 </v>
   <v type="int" >      160 </v>
   <v type="int" >      161 </v>
   <v type="int" >      150 </v>
   <v type="int" >      151 </v>
   <v type="int" >      164 </v>
   <v type="int" >      153 </v>
   <v type="int" >      166 </v>
   <v type="int" >      167 </v>
   <v type="int" >      156 </v>
  </varray>
 </primitive_cell>
 <kpoints>
  <generation param="Gamma">
   <v type="int" name="divisions">       3        2        1 </v>
   <v name="usershift">      0.00000000       0.00000000       0.00000000 </v>
   <v name="genvec1">      0.33333333       0.00000000       0.00000000 </v>
   <v name="genvec2">      0.00000000       0.50000000       0.00000000 </v>
   <v name="genvec3">      0.00000000       0.00000000       1.00000000 </v>
   <v name="shift">      0.00000000       0.00000000       0.00000000 </v>
  </generation>
  <varray name="kpointlist" >
   <v>       0.00000000       0.00000000       0.00000000 </v>
   <v>       0.33333333       0.00000000       0.00000000 </v>
   <v>       0.00000000       0.50000000       0.00000000 </v>
   <v>       0.33333333       0.50000000       0.00000000 </v>
  </varray>
  <varray name="weights" >
   <v>       0.16666667 </v>
   <v>       0.33333333 </v>
   <v>       0.16666667 </v>
   <v>       0.33333333 </v>
  </varray>
 </kpoints>
 <parameters>
  <separator name="general" >
   <i type="string" name="SYSTEM">Si and Ge interface calculation</i>
   <i type="logical" name="LCOMPAT"> F  </i>
  </separator>
  <separator name="electronic" >
   <i type="string" name="PREC">normal</i>
   <i name="ENMAX">    700.00000000</i>
   <i name="ENAUG">    900.00000000</i>
   <i name="EDIFF">      0.00000010</i>
   <i type="int" name="IALGO">    38</i>
   <i type="int" name="IWAVPR">    10</i>
   <i type="int" name="NBANDS">   404</i>
   <i type="int" name="NBANDSLOW">    -1</i>
   <i type="int" name="NBANDSHIGH">    -1</i>
   <i name="NELECT">    672.00000000</i>
   <i type="int" name="TURBO">     0</i>
   <i type="int" name="IRESTART">     0</i>
   <i type="int" name="NREBOOT">     0</i>
   <i type="int" name="NMIN">     0</i>
   <i name="EREF">      0.00000000</i>
   <separator name="electronic smearing" >
    <i type="int" name="ISMEAR">     0</i>
    <i name="SIGMA">      0.01000000</i>
    <i name="KSPACING">      0.50000000</i>
    <i type="logical" name="KGAMMA"> T  </i>
    <i type="logical" name="KBLOWUP"> T  </i>
   </separator>
   <separator name="electronic projectors" >
    <i type="logical" name="LREAL"> T  </i>
    <v name="ROPT">     -0.00050000     -0.00050000</v>
    <i type="int" name="LMAXPAW">  -100</i>
    <i type="int" name="LMAXMIX">     6</i>
    <i type="logical" name="NLSPLINE"> F  </i>
   </separator>
   <separator name="electronic startup" >
    <i type="int" name="ISTART">     0</i>
    <i type="int" name="ICHARG">     2</i>
    <i type="int" name="INIWAV">     1</i>
   </separator>
   <separator name="electronic spin" >
    <i type="int" name="ISPIN">     2</i>
    <i type="logical" name="LNONCOLLINEAR"> F  </i>
    <v name="MAGMOM">      0.00595238      0.00595238      0.00595238      0.00595238      0.00595238      0.00595238      0.00595238      0.00595238      0.00595238      0.00595238      0.00595238      0.00595238      0.00595238      0.00595238      0.00595238      0.00595238      0.00595238      0.00595238      0.00595238      0.00595238
      0.00595238      0.00595238      0.00595238      0.00595238      0.00595238      0.00595238      0.00595238      0.00595238      0.00595238      0.00595238      0.00595238      0.00595238      0.00595238      0.00595238      0.00595238      0.00595238      0.00595238      0.00595238      0.00595238      0.00595238
      0.00595238      0.00595238      0.00595238      0.00595238      0.00595238      0.00595238      0.00595238      0.00595238      0.00595238      0.00595238      0.00595238      0.00595238      0.00595238      0.00595238      0.00595238      0.00595238      0.00595238      0.00595238      0.00595238      0.00595238
      0.00595238      0.00595238      0.00595238      0.00595238      0.00595238      0.00595238      0.00595238      0.00595238      0.00595238      0.00595238      0.00595238      0.00595238      0.00595238      0.00595238      0.00595238      0.00595238      0.00595238      0.00595238      0.00595238      0.00595238
      0.00595238      0.00595238      0.00595238      0.00595238      0.00595238      0.00595238      0.00595238      0.00595238      0.00595238      0.00595238      0.00595238      0.00595238      0.00595238      0.00595238      0.00595238      0.00595238      0.00595238      0.00595238      0.00595238      0.00595238
      0.00595238      0.00595238      0.00595238      0.00595238      0.00595238      0.00595238      0.00595238      0.00595238      0.00595238      0.00595238      0.00595238      0.00595238      0.00595238      0.00595238      0.00595238      0.00595238      0.00595238      0.00595238      0.00595238      0.00595238
      0.00595238      0.00595238      0.00595238      0.00595238      0.00595238      0.00595238      0.00595238      0.00595238      0.00595238      0.00595238      0.00595238      0.00595238      0.00595238      0.00595238      0.00595238      0.00595238      0.00595238      0.00595238      0.00595238      0.00595238
      0.00595238      0.00595238      0.00595238      0.00595238      0.00595238      0.00595238      0.00595238      0.00595238      0.00595238      0.00595238      0.00595238      0.00595238      0.00595238      0.00595238      0.00595238      0.00595238      0.00595238      0.00595238      0.00595238      0.00595238
      0.00595238      0.00595238      0.00595238      0.00595238      0.00595238      0.00595238      0.00595238      0.00595238</v>
    <i name="NUPDOWN">      1.00000000</i>
    <i type="logical" name="LSORBIT"> F  </i>
    <v name="SAXIS">      0.00000000      0.00000000      1.00000000</v>
    <i type="logical" name="LSPIRAL"> F  </i>
    <v name="QSPIRAL">      0.00000000      0.00000000      0.00000000</v>
    <i type="logical" name="LZEROZ"> F  </i>
   </separator>
   <separator name="electronic exchange-correlation" >
    <i type="logical" name="LASPH"> T  </i>
   </separator>
   <separator name="electronic convergence" >
    <i type="int" name="NELM">   100</i>
    <i type="int" name="NELMDL">    -5</i>
    <i type="int" name="NELMIN">     2</i>
    <i name="ENINI">    700.00000000</i>
    <separator name="electronic convergence detail" >
     <i type="logical" name="LDIAG"> T  </i>
     <i type="logical" name="LSUBROT"> F  </i>
     <i name="WEIMIN">      0.00000000</i>
     <i name="EBREAK">      0.00000000</i>
     <i name="DEPER">      0.30000000</i>
     <i type="int" name="NRMM">     4</i>
     <i name="TIME">      0.40000000</i>
    </separator>
   </separator>
   <separator name="electronic mixer" >
    <i name="AMIX">      0.60000000</i>
    <i name="BMIX">      1.00000000</i>
    <i name="AMIN">      0.10000000</i>
    <i name="AMIX_MAG">      2.40000000</i>
    <i name="BMIX_MAG">      1.00000000</i>
    <separator name="electronic mixer details" >
     <i type="int" name="IMIX">     4</i>
     <i type="logical" name="MIXFIRST"> F  </i>
     <i type="int" name="MAXMIX">   -45</i>
     <i name="WC">    100.00000000</i>
     <i type="int" name="INIMIX">     1</i>
     <i type="int" name="MIXPRE">     1</i>
     <i type="int" name="MREMOVE">     5</i>
    </separator>
   </separator>
   <separator name="electronic dipolcorrection" >
    <i type="logical" name="LDIPOL"> F  </i>
    <i type="logical" name="LMONO"> F  </i>
    <i type="int" name="IDIPOL">     0</i>
    <i name="EPSILON">      1.00000000</i>
    <v name="DIPOL">   -100.00000000   -100.00000000   -100.00000000</v>
    <i name="EFIELD">      0.00000000</i>
    <i type="logical" name="LVACPOTAV"> F  </i>
   </separator>
  </separator>
  <separator name="grids" >
   <i type="int" name="NGX">    80</i>
   <i type="int" name="NGY">   108</i>
   <i type="int" name="NGZ">   168</i>
   <i type="int" name="NGXF">   160</i>
   <i type="int" name="NGYF">   216</i>
   <i type="int" name="NGZF">   336</i>
   <i type="logical" name="ADDGRID"> T  </i>
  </separator>
  <separator name="ionic" >
   <i type="int" name="NSW">     0</i>
   <i type="int" name="IBRION">    -1</i>
   <i type="int" name="MDALGO">     0</i>
   <i type="int" name="ISIF">     2</i>
   <i name="PSTRESS">      0.00000000</i>
   <i name="EDIFFG">      0.00000100</i>
   <i type="int" name="NFREE">     0</i>
   <i name="POTIM">      0.50000000</i>
   <i name="SMASS">     -3.00000000</i>
   <i name="SCALEE">      1.00000000</i>
  </separator>
  <separator name="ionic md" >
   <i name="TEBEG">      0.00010000</i>
   <i name="TEEND">      0.00010000</i>
   <i type="int" name="NBLOCK">     1</i>
   <i type="int" name="KBLOCK">     1</i>
   <i type="int" name="NPACO">   256</i>
   <i name="APACO">     10.00000000</i>
  </separator>
  <separator name="symmetry" >
   <i type="int" name="ISYM">     2</i>
   <i name="SYMPREC">      0.00001000</i>
  </separator>
  <separator name="dos" >
   <i type="int" name="LORBIT">     0</i>
   <v name="RWIGS">     -1.00000000     -1.00000000</v>
   <i type="int" name="NEDOS">   301</i>
   <i name="EMIN">     10.00000000</i>
   <i name="EMAX">    -10.00000000</i>
   <i name="EFERMI">      0.00000000</i>
  </separator>
  <separator name="writing" >
   <i type="int" name="NWRITE">     2</i>
   <i type="logical" name="LWAVE"> F  </i>
   <i type="logical" name="LDOWNSAMPLE"> F  </i>
   <i type="logical" name="LCHARG"> T  </i>
   <i type="logical" name="LPARD"> F  </i>
   <i type="logical" name="LVTOT"> F  </i>
   <i type="logical" name="LVHAR"> T  </i>
   <i type="logical" name="LELF"> F  </i>
   <i type="logical" name="LOPTICS"> F  </i>
   <v name="STM">      0.00000000      0.00000000      0.00000000      0.00000000      0.00000000      0.00000000      0.00000000</v>
  </separator>
  <separator name="performance" >
   <i type="int" name="NPAR">     4</i>
   <i type="int" name="NSIM">     4</i>
   <i type="int" name="NBLK">    -1</i>
   <i type="logical" name="LPLANE"> T  </i>
   <i type="logical" name="LSCALAPACK"> T  </i>
   <i type="logical" name="LSCAAWARE"> F  </i>
   <i type="logical" name="LSCALU"> F  </i>
   <i type="logical" name="LASYNC"> F  </i>
   <i type="logical" name="LORBITALREAL"> F  </i>
  </separator>
  <separator name="miscellaneous" >
   <i type="int" name="IDIOT">     3</i>
   <i type="int" name="PHON_NSTRUCT">    -1</i>
   <i type="logical" name="LMUSIC"> F  </i>
   <v name="POMASS">    118.71000000     72.61000000</v>
   <v name="DARWINR">      0.00000000      0.00000000</v>
   <v name="DARWINV">      1.00000000      1.00000000</v>
   <i type="logical" name="LCORR"> T  </i>
  </separator>
  <i type="logical" name="GGA_COMPAT"> T  </i>
  <i type="logical" name="LBERRY"> F  </i>
  <i type="int" name="ICORELEVEL">     0</i>
  <i type="logical" name="LDAU"> F  </i>
  <i type="int" name="I_CONSTRAINED_M">     0</i>
  <separator name="electronic exchange-correlation" >
   <i type="string" name="GGA    ">PE</i>
   <i type="string" name="XC_C">1</i>
   <i type="int" name="VOSKOWN">     0</i>
   <i type="logical" name="LHFCALC"> F  </i>
   <i type="string" name="PRECFOCK"></i>
   <i type="logical" name="LSYMGRAD"> F  </i>
   <i type="logical" name="LHFONE"> F  </i>
   <i type="logical" name="LRHFCALC"> F  </i>
   <i type="logical" name="LTHOMAS"> F  </i>
   <i type="logical" name="LMODELHF"> F  </i>
   <i type="logical" name="LFOCKACE"> F  </i>
   <i name="ENCUT4O">     -1.00000000</i>
   <i type="int" name="EXXOEP">     0</i>
   <i type="int" name="FOURORBIT">     0</i>
   <i name="AEXX">      0.00000000</i>
   <i name="HFALPHA">      0.00000000</i>
   <i name="MCALPHA">      0.00000000</i>
   <i name="ALDAX">      1.00000000</i>
   <i name="AGGAX">      1.00000000</i>
   <i name="AMGGAX">      1.00000000</i>
   <i name="ALDAC">      1.00000000</i>
   <i name="AGGAC">      1.00000000</i>
   <i name="AMGGAC">      1.00000000</i>
   <i type="int" name="NKREDX">     1</i>
   <i type="int" name="NKREDY">     1</i>
   <i type="int" name="NKREDZ">     1</i>
   <i type="logical" name="SHIFTRED"> F  </i>
   <i type="logical" name="ODDONLY"> F  </i>
   <i type="logical" name="EVENONLY"> F  </i>
   <i type="int" name="LMAXFOCK">     0</i>
   <i type="int" name="NMAXFOCKAE">     0</i>
   <i type="logical" name="LFOCKAEDFT"> F  </i>
   <i name="HFSCREEN">      0.00000000</i>
   <i name="HFSCREENC">      0.00000000</i>
   <i type="int" name="NBANDSGWLOW">     0</i>
  </separator>
  <separator name="vdW DFT" >
   <i type="logical" name="LUSE_VDW"> F  </i>
   <i type="int" name="IVDW_NL">    -1</i>
   <i type="logical" name="LSPIN_VDW"> F  </i>
   <i name="ZAB_VDW">     -0.84910000</i>
   <i name="GAMMA_VDW">      1.39626340</i>
   <i name="ALPHA_VDW">      0.00000000</i>
   <i name="PARAM1">      0.12340000</i>
   <i name="PARAM2">      1.00000000</i>
   <i name="BPARAM">      6.30000000</i>
   <i name="CPARAM">      0.00930000</i>
  </separator>
  <separator name="model GW" >
   <i type="int" name="MODEL_GW">     0</i>
   <i name="MODEL_EPS0">     16.46251200</i>
   <i name="MODEL_ALPHA">      1.00000000</i>
  </separator>
  <separator name="linear response parameters" >
   <i type="logical" name="LEPSILON"> F  </i>
   <i type="logical" name="LRPA"> F  </i>
   <i type="logical" name="LNABLA"> F  </i>
   <i type="logical" name="LVEL"> F  </i>
   <i name="CSHIFT">      0.10000000</i>
   <i name="OMEGAMAX">     -1.00000000</i>
   <i name="DEG_THRESHOLD">      0.00200000</i>
   <i name="RTIME">     -0.10000000</i>
   <i name="WPLASMAI">      0.00000000</i>
   <v name="DFIELD">      0.00000000      0.00000000      0.00000000</v>
   <v name="WPLASMA">      0.00000000      0.00000000      0.00000000      0.00000000      0.00000000      0.00000000      0.00000000      0.00000000      0.00000000</v>
  </separator>
  <separator name="orbital magnetization" >
   <i type="logical" name="NUCIND"> F  </i>
   <v name="MAGPOS">      0.00000000      0.00000000      0.00000000</v>
   <i type="logical" name="LNICSALL"> T  </i>
   <i type="logical" name="ORBITALMAG"> F  </i>
   <i type="logical" name="LMAGBLOCH"> F  </i>
   <i type="logical" name="LCHIMAG"> F  </i>
   <i type="logical" name="LGAUGE"> T  </i>
   <i type="int" name="MAGATOM">     0</i>
   <v name="MAGDIPOL">      0.00000000      0.00000000      0.00000000</v>
   <v name="AVECCONST">      0.00000000      0.00000000      0.00000000</v>
  </separator>
  <separator name="response functions" >
   <i type="logical" name="LALL_IN_ONE"> F  </i>
   <i type="int" name="IALL_IN_ONE">    -1</i>
   <i type="int" name="NBANDS_WAVE">    -1</i>
   <i type="logical" name="LFINITE_TEMPERATURE"> F  </i>
   <i type="logical" name="LADDER"> F  </i>
   <i type="logical" name="LRPAFORCE"> F  </i>
   <i type="logical" name="LFXC"> F  </i>
   <i type="logical" name="LHARTREE"> T  </i>
   <i type="int" name="IBSE">     0</i>
   <v type="int" name="KPOINT">    -1     0     0     0</v>
   <i type="logical" name="LTCTC"> F  </i>
   <i type="logical" name="LTCTE"> F  </i>
   <i type="logical" name="LTETE"> F  </i>
   <i type="logical" name="LTRIPLET"> F  </i>
   <i type="logical" name="LFXCEPS"> F  </i>
   <i type="logical" name="LFXHEG"> F  </i>
   <i type="int" name="NATURALO">     2</i>
   <i type="logical" name="LHOLEGF"> F  </i>
   <i type="logical" name="L2ORDER"> F  </i>
   <i type="logical" name="LDMP1"> F  </i>
   <i type="logical" name="LMP2LT"> F  </i>
   <i type="logical" name="LSMP2LT"> F  </i>
   <i type="logical" name="LGWLF"> F  </i>
   <i name="ENCUTGW">     -1.60000002</i>
   <i name="ENCUTGWSOFT">     -1.60000002</i>
   <i name="ENCUTLF">     -1.00000000</i>
   <i type="logical" name="ESF_SPLINES"> F  </i>
   <i name="ESF_CONV">      0.01000000</i>
   <i type="int" name="ESF_NINTER">    15</i>
   <i type="int" name="LMAXMP2">    -1</i>
   <i name="SCISSOR">      0.00000000</i>
   <i type="int" name="NOMEGA">     0</i>
   <i type="int" name="NOMEGAR">     0</i>
   <i type="int" name="NBANDSGW">    -1</i>
   <i type="int" name="NBANDSO">    -1</i>
   <i type="int" name="NBANDSV">    -1</i>
   <i type="int" name="NELMGW">     1</i>
   <i type="int" name="NELMHF">     1</i>
   <i type="int" name="DIM">     3</i>
   <i type="int" name="IESPILON">     4</i>
   <i type="int" name="ANTIRES">     0</i>
   <i name="OMEGAMAX">    -30.00000000</i>
   <i name="OMEGAMIN">    -30.00000000</i>
   <i name="OMEGATL">   -200.00000000</i>
   <i type="int" name="OMEGAGRID">     0</i>
   <i name="CSHIFT">     -0.10000000</i>
   <i type="logical" name="LSELFENERGY"> F  </i>
   <i type="logical" name="LSPECTRAL"> F  </i>
   <i type="logical" name="LSPECTRALGW"> F  </i>
   <i type="logical" name="LSINGLES"> F  </i>
   <i type="logical" name="LFERMIGW"> F  </i>
   <i type="logical" name="ODDONLYGW"> F  </i>
   <i type="logical" name="EVENONLYGW"> F  </i>
   <i type="int" name="NKREDLFX">     1</i>
   <i type="int" name="NKREDLFY">     1</i>
   <i type="int" name="NKREDLFZ">     1</i>
   <i type="int" name="MAXMEM">  2800</i>
   <i type="int" name="TELESCOPE">     0</i>
   <i type="int" name="NTAUPAR">    -1</i>
   <i type="int" name="NOMEGAPAR">    -1</i>
   <i name="DAMP_NEWTON">      0.80000001</i>
   <i name="LAMBDA">      1.00000000</i>
  </separator>
  <separator name="External order field" >
   <i name="OFIELD_KAPPA">      0.00000000</i>
   <v name="OFIELD_K">      0.00000000      0.00000000      0.00000000</v>
   <i name="OFIELD_Q6_NEAR">      0.00000000</i>
   <i name="OFIELD_Q6_FAR">      0.00000000</i>
   <i name="OFIELD_A">      0.00000000</i>
  </separator>
  <separator name="optional k-points parameters" >
   <i type="int" name="KPOINTS_OPT_MODE">     1</i>
   <i type="logical" name="LKPOINTS_OPT"> F  </i>
  </separator>
 </parameters>
 <atominfo>
  <atoms>     168 </atoms>
  <types>       2 </types>
  <array name="atoms" >
   <dimension dim="1">ion</dimension>
   <field type="string">element</field>
   <field type="int">atomtype</field>
   <set>
    <rc><c>Sn</c><c>   1</c></rc>
    <rc><c>Sn</c><c>   1</c></rc>
    <rc><c>Sn</c><c>   1</c></rc>
    <rc><c>Sn</c><c>   1</c></rc>
    <rc><c>Sn</c><c>   1</c></rc>
    <rc><c>Sn</c><c>   1</c></rc>
    <rc><c>Sn</c><c>   1</c></rc>
    <rc><c>Sn</c><c>   1</c></rc>
    <rc><c>Sn</c><c>   1</c></rc>
    <rc><c>Sn</c><c>   1</c></rc>
    <rc><c>Sn</c><c>   1</c></rc>
    <rc><c>Sn</c><c>   1</c></rc>
    <rc><c>Sn</c><c>   1</c></rc>
    <rc><c>Sn</c><c>   1</c></rc>
    <rc><c>Sn</c><c>   1</c></rc>
    <rc><c>Sn</c><c>   1</c></rc>
    <rc><c>Sn</c><c>   1</c></rc>
    <rc><c>Sn</c><c>   1</c></rc>
    <rc><c>Sn</c><c>   1</c></rc>
    <rc><c>Sn</c><c>   1</c></rc>
    <rc><c>Sn</c><c>   1</c></rc>
    <rc><c>Sn</c><c>   1</c></rc>
    <rc><c>Sn</c><c>   1</c></rc>
    <rc><c>Sn</c><c>   1</c></rc>
    <rc><c>Sn</c><c>   1</c></rc>
    <rc><c>Sn</c><c>   1</c></rc>
    <rc><c>Sn</c><c>   1</c></rc>
    <rc><c>Sn</c><c>   1</c></rc>
    <rc><c>Sn</c><c>   1</c></rc>
    <rc><c>Sn</c><c>   1</c></rc>
    <rc><c>Sn</c><c>   1</c></rc>
    <rc><c>Sn</c><c>   1</c></rc>
    <rc><c>Sn</c><c>   1</c></rc>
    <rc><c>Sn</c><c>   1</c></rc>
    <rc><c>Sn</c><c>   1</c></rc>
    <rc><c>Sn</c><c>   1</c></rc>
    <rc><c>Sn</c><c>   1</c></rc>
    <rc><c>Sn</c><c>   1</c></rc>
    <rc><c>Sn</c><c>   1</c></rc>
    <rc><c>Sn</c><c>   1</c></rc>
    <rc><c>Sn</c><c>   1</c></rc>
    <rc><c>Sn</c><c>   1</c></rc>
    <rc><c>Sn</c><c>   1</c></rc>
    <rc><c>Sn</c><c>   1</c></rc>
    <rc><c>Sn</c><c>   1</c></rc>
    <rc><c>Sn</c><c>   1</c></rc>
    <rc><c>Sn</c><c>   1</c></rc>
    <rc><c>Sn</c><c>   1</c></rc>
    <rc><c>Sn</c><c>   1</c></rc>
    <rc><c>Sn</c><c>   1</c></rc>
    <rc><c>Sn</c><c>   1</c></rc>
    <rc><c>Sn</c><c>   1</c></rc>
    <rc><c>Sn</c><c>   1</c></rc>
    <rc><c>Sn</c><c>   1</c></rc>
    <rc><c>Sn</c><c>   1</c></rc>
    <rc><c>Sn</c><c>   1</c></rc>
    <rc><c>Sn</c><c>   1</c></rc>
    <rc><c>Sn</c><c>   1</c></rc>
    <rc><c>Sn</c><c>   1</c></rc>
    <rc><c>Sn</c><c>   1</c></rc>
    <rc><c>Sn</c><c>   1</c></rc>
    <rc><c>Sn</c><c>   1</c></rc>
    <rc><c>Sn</c><c>   1</c></rc>
    <rc><c>Sn</c><c>   1</c></rc>
    <rc><c>Sn</c><c>   1</c></rc>
    <rc><c>Sn</c><c>   1</c></rc>
    <rc><c>Sn</c><c>   1</c></rc>
    <rc><c>Sn</c><c>   1</c></rc>
    <rc><c>Sn</c><c>   1</c></rc>
    <rc><c>Sn</c><c>   1</c></rc>
    <rc><c>Sn</c><c>   1</c></rc>
    <rc><c>Sn</c><c>   1</c></rc>
    <rc><c>Ge</c><c>   2</c></rc>
    <rc><c>Ge</c><c>   2</c></rc>
    <rc><c>Ge</c><c>   2</c></rc>
    <rc><c>Ge</c><c>   2</c></rc>
    <rc><c>Ge</c><c>   2</c></rc>
    <rc><c>Ge</c><c>   2</c></rc>
    <rc><c>Ge</c><c>   2</c></rc>
    <rc><c>Ge</c><c>   2</c></rc>
    <rc><c>Ge</c><c>   2</c></rc>
    <rc><c>Ge</c><c>   2</c></rc>
    <rc><c>Ge</c><c>   2</c></rc>
    <rc><c>Ge</c><c>   2</c></rc>
    <rc><c>Ge</c><c>   2</c></rc>
    <rc><c>Ge</c><c>   2</c></rc>
    <rc><c>Ge</c><c>   2</c></rc>
    <rc><c>Ge</c><c>   2</c></rc>
    <rc><c>Ge</c><c>   2</c></rc>
    <rc><c>Ge</c><c>   2</c></rc>
    <rc><c>Ge</c><c>   2</c></rc>
    <rc><c>Ge</c><c>   2</c></rc>
    <rc><c>Ge</c><c>   2</c></rc>
    <rc><c>Ge</c><c>   2</c></rc>
    <rc><c>Ge</c><c>   2</c></rc>
    <rc><c>Ge</c><c>   2</c></rc>
    <rc><c>Ge</c><c>   2</c></rc>
    <rc><c>Ge</c><c>   2</c></rc>
    <rc><c>Ge</c><c>   2</c></rc>
    <rc><c>Ge</c><c>   2</c></rc>
    <rc><c>Ge</c><c>   2</c></rc>
    <rc><c>Ge</c><c>   2</c></rc>
    <rc><c>Ge</c><c>   2</c></rc>
    <rc><c>Ge</c><c>   2</c></rc>
    <rc><c>Ge</c><c>   2</c></rc>
    <rc><c>Ge</c><c>   2</c></rc>
    <rc><c>Ge</c><c>   2</c></rc>
    <rc><c>Ge</c><c>   2</c></rc>
    <rc><c>Ge</c><c>   2</c></rc>
    <rc><c>Ge</c><c>   2</c></rc>
    <rc><c>Ge</c><c>   2</c></rc>
    <rc><c>Ge</c><c>   2</c></rc>
    <rc><c>Ge</c><c>   2</c></rc>
    <rc><c>Ge</c><c>   2</c></rc>
    <rc><c>Ge</c><c>   2</c></rc>
    <rc><c>Ge</c><c>   2</c></rc>
    <rc><c>Ge</c><c>   2</c></rc>
    <rc><c>Ge</c><c>   2</c></rc>
    <rc><c>Ge</c><c>   2</c></rc>
    <rc><c>Ge</c><c>   2</c></rc>
    <rc><c>Ge</c><c>   2</c></rc>
    <rc><c>Ge</c><c>   2</c></rc>
    <rc><c>Ge</c><c>   2</c></rc>
    <rc><c>Ge</c><c>   2</c></rc>
    <rc><c>Ge</c><c>   2</c></rc>
    <rc><c>Ge</c><c>   2</c></rc>
    <rc><c>Ge</c><c>   2</c></rc>
    <rc><c>Ge</c><c>   2</c></rc>
    <rc><c>Ge</c><c>   2</c></rc>
    <rc><c>Ge</c><c>   2</c></rc>
    <rc><c>Ge</c><c>   2</c></rc>
    <rc><c>Ge</c><c>   2</c></rc>
    <rc><c>Ge</c><c>   2</c></rc>
    <rc><c>Ge</c><c>   2</c></rc>
    <rc><c>Ge</c><c>   2</c></rc>
    <rc><c>Ge</c><c>   2</c></rc>
    <rc><c>Ge</c><c>   2</c></rc>
    <rc><c>Ge</c><c>   2</c></rc>
    <rc><c>Ge</c><c>   2</c></rc>
    <rc><c>Ge</c><c>   2</c></rc>
    <rc><c>Ge</c><c>   2</c></rc>
    <rc><c>Ge</c><c>   2</c></rc>
    <rc><c>Ge</c><c>   2</c></rc>
    <rc><c>Ge</c><c>   2</c></rc>
    <rc><c>Ge</c><c>   2</c></rc>
    <rc><c>Ge</c><c>   2</c></rc>
    <rc><c>Ge</c><c>   2</c></rc>
    <rc><c>Ge</c><c>   2</c></rc>
    <rc><c>Ge</c><c>   2</c></rc>
    <rc><c>Ge</c><c>   2</c></rc>
    <rc><c>Ge</c><c>   2</c></rc>
    <rc><c>Ge</c><c>   2</c></rc>
    <rc><c>Ge</c><c>   2</c></rc>
    <rc><c>Ge</c><c>   2</c></rc>
    <rc><c>Ge</c><c>   2</c></rc>
    <rc><c>Ge</c><c>   2</c></rc>
    <rc><c>Ge</c><c>   2</c></rc>
    <rc><c>Ge</c><c>   2</c></rc>
    <rc><c>Ge</c><c>   2</c></rc>
    <rc><c>Ge</c><c>   2</c></rc>
    <rc><c>Ge</c><c>   2</c></rc>
    <rc><c>Ge</c><c>   2</c></rc>
    <rc><c>Ge</c><c>   2</c></rc>
    <rc><c>Ge</c><c>   2</c></rc>
    <rc><c>Ge</c><c>   2</c></rc>
    <rc><c>Ge</c><c>   2</c></rc>
    <rc><c>Ge</c><c>   2</c></rc>
    <rc><c>Ge</c><c>   2</c></rc>
   </set>
  </array>
  <array name="atomtypes" >
   <dimension dim="1">type</dimension>
   <field type="int">atomspertype</field>
   <field type="string">element</field>
   <field>mass</field>
   <field>valence</field>
   <field type="string">pseudopotential</field>
   <set>
    <rc><c>  72</c><c>Sn</c><c>    118.71000000</c><c>      4.00000000</c><c>  PAW_PBE Sn 08Apr2002                  </c></rc>
    <rc><c>  96</c><c>Ge</c><c>     72.61000000</c><c>      4.00000000</c><c>  PAW_PBE Ge 05Jan2001                  </c></rc>
   </set>
  </array>
 </atominfo>
 <structure name="initialpos" >
  <crystal>
   <varray name="basis" >
    <v>      11.23962402       0.00000000       0.00000000 </v>
    <v>       0.00000000      15.89522934       0.00000000 </v>
    <v>       0.00000000       0.00000000      25.80094147 </v>
   </varray>
   <i name="volume">   4609.50335886 </i>
   <varray name="rec_basis" >
    <v>       0.08897095       0.00000000       0.00000000 </v>
    <v>       0.00000000       0.06291196       0.00000000 </v>
    <v>       0.00000000       0.00000000       0.03875828 </v>
   </varray>
  </crystal>
  <varray name="positions" >
   <v>       0.00000000       0.01797952       0.00000000 </v>
   <v>       0.99999994       0.26797959       0.08892229 </v>
   <v>       0.99999988       0.51797974       0.17784460 </v>
   <v>       0.99999982       0.76797992       0.26676691 </v>
   <v>       0.99999982       0.01797998       0.35568920 </v>
   <v>       0.99999976       0.26798010       0.44461155 </v>
   <v>       0.33333337       0.35131288       0.00000000 </v>
   <v>       0.33333331       0.60131288       0.08892229 </v>
   <v>       0.33333331       0.85131305       0.17784460 </v>
   <v>       0.33333322       0.10131323       0.26676691 </v>
   <v>       0.33333322       0.35131335       0.35568920 </v>
   <v>       0.33333316       0.60131347       0.44461155 </v>
   <v>       0.66666675       0.68464625       0.00000000 </v>
   <v>       0.66666669       0.93464625       0.08892229 </v>
   <v>       0.66666681       0.18464649       0.17784460 </v>
   <v>       0.66666651       0.43464649       0.26676691 </v>
   <v>       0.66666657       0.68464661       0.35568920 </v>
   <v>       0.66666657       0.93464685       0.44461155 </v>
   <v>       0.00000003       0.51797956       0.00000000 </v>
   <v>       0.99999994       0.76797962       0.08892229 </v>
   <v>       0.99999988       0.01797974       0.17784460 </v>
   <v>       0.99999988       0.26797986       0.26676688 </v>
   <v>       0.99999982       0.51797998       0.35568920 </v>
   <v>       0.99999976       0.76798010       0.44461155 </v>
   <v>       0.33333337       0.85131288       0.00000000 </v>
   <v>       0.33333334       0.10131300       0.08892229 </v>
   <v>       0.33333337       0.35131323       0.17784460 </v>
   <v>       0.33333325       0.60131323       0.26676688 </v>
   <v>       0.33333328       0.85131335       0.35568920 </v>
   <v>       0.33333311       0.10131359       0.44461155 </v>
   <v>       0.66666681       0.18464620       0.00000000 </v>
   <v>       0.66666663       0.43464625       0.08892229 </v>
   <v>       0.66666669       0.68464643       0.17784460 </v>
   <v>       0.66666663       0.93464649       0.26676688 </v>
   <v>       0.66666651       0.18464661       0.35568920 </v>
   <v>       0.66666657       0.43464673       0.44461152 </v>
   <v>       0.08333332       0.35131285       0.00000000 </v>
   <v>       0.08333325       0.60131288       0.08892229 </v>
   <v>       0.08333329       0.85131305       0.17784460 </v>
   <v>       0.08333313       0.10131311       0.26676691 </v>
   <v>       0.08333313       0.35131323       0.35568920 </v>
   <v>       0.08333313       0.60131335       0.44461152 </v>
   <v>       0.41666672       0.68464619       0.00000000 </v>
   <v>       0.41666663       0.93464625       0.08892229 </v>
   <v>       0.41666666       0.18464649       0.17784460 </v>
   <v>       0.41666660       0.43464661       0.26676688 </v>
   <v>       0.41666639       0.68464661       0.35568920 </v>
   <v>       0.41666651       0.93464673       0.44461152 </v>
   <v>       0.75000000       0.01797955       0.00000001 </v>
   <v>       0.75000000       0.26797959       0.08892230 </v>
   <v>       0.74999994       0.51797974       0.17784460 </v>
   <v>       0.74999982       0.76797986       0.26676688 </v>
   <v>       0.74999982       0.01797998       0.35568920 </v>
   <v>       0.74999982       0.26798010       0.44461152 </v>
   <v>       0.08333334       0.85131294       0.00000000 </v>
   <v>       0.08333328       0.10131300       0.08892231 </v>
   <v>       0.08333322       0.35131311       0.17784458 </v>
   <v>       0.08333325       0.60131347       0.26676691 </v>
   <v>       0.08333313       0.85131335       0.35568923 </v>
   <v>       0.08333307       0.10131359       0.44461152 </v>
   <v>       0.41666672       0.18464620       0.00000000 </v>
   <v>       0.41666666       0.43464625       0.08892229 </v>
   <v>       0.41666657       0.68464643       0.17784460 </v>
   <v>       0.41666657       0.93464655       0.26676691 </v>
   <v>       0.41666657       0.18464661       0.35568920 </v>
   <v>       0.41666645       0.43464673       0.44461152 </v>
   <v>       0.75000000       0.51797950       0.00000000 </v>
   <v>       0.74999994       0.76797962       0.08892229 </v>
   <v>       0.75000000       0.01797974       0.17784460 </v>
   <v>       0.74999988       0.26797986       0.26676691 </v>
   <v>       0.74999982       0.51797986       0.35568920 </v>
   <v>       0.74999976       0.76798010       0.44461152 </v>
   <v>       0.09678888       0.48763973       0.52848196 </v>
   <v>       0.84678882       0.11263971       0.60601157 </v>
   <v>       0.59678888       0.73763973       0.68354106 </v>
   <v>       0.34678900       0.36263982       0.76107049 </v>
   <v>       0.09678888       0.98763973       0.83860004 </v>
   <v>       0.84678882       0.61263973       0.91612953 </v>
   <v>       0.59678888       0.48763973       0.52848196 </v>
   <v>       0.34678888       0.11263971       0.60601157 </v>
   <v>       0.09678888       0.73763973       0.68354106 </v>
   <v>       0.84678894       0.36263982       0.76107049 </v>
   <v>       0.59678894       0.98763973       0.83860004 </v>
   <v>       0.34678888       0.61263973       0.91612953 </v>
   <v>       0.09678888       0.98763973       0.52848196 </v>
   <v>       0.84678882       0.61263973       0.60601157 </v>
   <v>       0.59678888       0.23763969       0.68354106 </v>
   <v>       0.34678900       0.86263996       0.76107049 </v>
   <v>       0.09678888       0.48763969       0.83860010 </v>
   <v>       0.84678882       0.11263969       0.91612953 </v>
   <v>       0.59678888       0.98763973       0.52848196 </v>
   <v>       0.34678888       0.61263973       0.60601157 </v>
   <v>       0.09678888       0.23763969       0.68354106 </v>
   <v>       0.84678894       0.86263996       0.76107049 </v>
   <v>       0.59678894       0.48763969       0.83860010 </v>
   <v>       0.34678888       0.11263969       0.91612953 </v>
   <v>       0.09678888       0.73763973       0.52848196 </v>
   <v>       0.84678882       0.36263969       0.60601157 </v>
   <v>       0.59678888       0.98763973       0.68354106 </v>
   <v>       0.34678900       0.61263984       0.76107049 </v>
   <v>       0.09678888       0.23763976       0.83860010 </v>
   <v>       0.84678882       0.86263973       0.91612953 </v>
   <v>       0.59678888       0.73763973       0.52848196 </v>
   <v>       0.34678888       0.36263969       0.60601157 </v>
   <v>       0.09678888       0.98763973       0.68354106 </v>
   <v>       0.84678894       0.61263984       0.76107049 </v>
   <v>       0.59678894       0.23763976       0.83860010 </v>
   <v>       0.34678888       0.86263973       0.91612953 </v>
   <v>       0.09678888       0.23763971       0.52848196 </v>
   <v>       0.84678882       0.86263973       0.60601157 </v>
   <v>       0.59678888       0.48763969       0.68354106 </v>
   <v>       0.34678900       0.11263982       0.76107049 </v>
   <v>       0.09678888       0.73763984       0.83860004 </v>
   <v>       0.84678882       0.36263969       0.91612953 </v>
   <v>       0.59678888       0.23763971       0.52848196 </v>
   <v>       0.34678888       0.86263973       0.60601157 </v>
   <v>       0.09678888       0.48763969       0.68354106 </v>
   <v>       0.84678894       0.11263982       0.76107049 </v>
   <v>       0.59678894       0.73763984       0.83860004 </v>
   <v>       0.34678888       0.36263969       0.91612953 </v>
   <v>       0.47178888       0.61263978       0.52848196 </v>
   <v>       0.22178888       0.23763973       0.60601157 </v>
   <v>       0.97178888       0.86263973       0.68354106 </v>
   <v>       0.72178894       0.48763982       0.76107049 </v>
   <v>       0.47178888       0.11263975       0.83860010 </v>
   <v>       0.22178884       0.73763973       0.91612953 </v>
   <v>       0.97178894       0.61263978       0.52848196 </v>
   <v>       0.72178888       0.23763973       0.60601157 </v>
   <v>       0.47178894       0.86263973       0.68354106 </v>
   <v>       0.22178900       0.48763982       0.76107049 </v>
   <v>       0.97178894       0.11263975       0.83860010 </v>
   <v>       0.72178888       0.73763973       0.91612953 </v>
   <v>       0.47178888       0.11263971       0.52848196 </v>
   <v>       0.22178888       0.73763973       0.60601157 </v>
   <v>       0.97178888       0.36263969       0.68354106 </v>
   <v>       0.72178894       0.98763984       0.76107049 </v>
   <v>       0.47178888       0.61263984       0.83860004 </v>
   <v>       0.22178884       0.23763958       0.91612953 </v>
   <v>       0.97178894       0.11263971       0.52848196 </v>
   <v>       0.72178888       0.73763973       0.60601157 </v>
   <v>       0.47178894       0.36263969       0.68354106 </v>
   <v>       0.22178900       0.98763984       0.76107049 </v>
   <v>       0.97178894       0.61263984       0.83860004 </v>
   <v>       0.72178888       0.23763958       0.91612953 </v>
   <v>       0.47178888       0.86263978       0.52848196 </v>
   <v>       0.22178888       0.48763976       0.60601157 </v>
   <v>       0.97178888       0.11263974       0.68354106 </v>
   <v>       0.72178894       0.73763990       0.76107049 </v>
   <v>       0.47178888       0.36263982       0.83860004 </v>
   <v>       0.22178884       0.98763973       0.91612953 </v>
   <v>       0.97178894       0.86263978       0.52848196 </v>
   <v>       0.72178888       0.48763976       0.60601157 </v>
   <v>       0.47178894       0.11263974       0.68354106 </v>
   <v>       0.22178900       0.73763990       0.76107049 </v>
   <v>       0.97178894       0.36263982       0.83860004 </v>
   <v>       0.72178888       0.98763973       0.91612953 </v>
   <v>       0.47178888       0.36263969       0.52848196 </v>
   <v>       0.22178888       0.98763973       0.60601157 </v>
   <v>       0.97178888       0.61263973       0.68354106 </v>
   <v>       0.72178894       0.23763982       0.76107049 </v>
   <v>       0.47178888       0.86263973       0.83860004 </v>
   <v>       0.22178884       0.48763969       0.91612953 </v>
   <v>       0.97178894       0.36263969       0.52848196 </v>
   <v>       0.72178888       0.98763973       0.60601157 </v>
   <v>       0.47178894       0.61263973       0.68354106 </v>
   <v>       0.22178900       0.23763982       0.76107049 </v>
   <v>       0.97178894       0.86263973       0.83860004 </v>
   <v>       0.72178888       0.48763969       0.91612953 </v>
  </varray>
 </structure>
 <calculation>
  <scstep>
   <time name="dav">   35.29   35.60</time>
   <time name="total">   38.26   38.58</time>
   <energy>
    <i name="alphaZ">    997.00452252 </i>
    <i name="ewald"> -11699.83898719 </i>
    <i name="hartreedc">  -6568.09026431 </i>
    <i name="XCdc">  -9236.96301359 </i>
    <i name="pawpsdc">  22099.84193803 </i>
    <i name="pawaedc"> -11791.56227843 </i>
    <i name="eentropy">     -0.00150551 </i>
    <i name="bandstr">   2800.21380361 </i>
    <i name="atom">  16853.79812076 </i>
    <i name="e_fr_energy">   3454.40233589 </i>
    <i name="e_wo_entrp">   3454.40384140 </i>
    <i name="e_0_energy">   3454.40308865 </i>
   </energy>
  </scstep>
  <scstep>
   <time name="dav">   40.22   40.57</time>
   <time name="total">   40.22   40.57</time>
   <energy>
    <i name="e_fr_energy">   -262.66697223 </i>
    <i name="e_wo_entrp">   -262.66456262 </i>
    <i name="e_0_energy">   -262.66576742 </i>
   </energy>
  </scstep>
  <scstep>
   <time name="dav">   41.57   41.93</time>
   <time name="total">   41.57   41.93</time>
   <energy>
    <i name="e_fr_energy">   -669.60151204 </i>
    <i name="e_wo_entrp">   -669.59988330 </i>
    <i name="e_0_energy">   -669.60069767 </i>
   </energy>
  </scstep>
  <scstep>
   <time name="dav">   41.18   41.53</time>
   <time name="total">   41.18   41.53</time>
   <energy>
    <i name="e_fr_energy">   -685.82576520 </i>
    <i name="e_wo_entrp">   -685.82318357 </i>
    <i name="e_0_energy">   -685.82447439 </i>
   </energy>
  </scstep>
  <scstep>
   <time name="dav">   44.19   44.57</time>
   <time name="total">   46.44   46.86</time>
   <energy>
    <i name="e_fr_energy">   -686.48572335 </i>
    <i name="e_wo_entrp">   -686.48317907 </i>
    <i name="e_0_energy">   -686.48445121 </i>
   </energy>
  </scstep>
  <scstep>
   <time name="dav">   50.81   51.26</time>
   <time name="total">   56.01   56.50</time>
   <energy>
    <i name="e_fr_energy">   -677.19912252 </i>
    <i name="e_wo_entrp">   -677.19627563 </i>
    <i name="e_0_energy">   -677.19769908 </i>
   </energy>
  </scstep>
  <scstep>
   <time name="dav">   47.43   47.85</time>
   <time name="total">   52.70   53.16</time>
   <energy>
    <i name="e_fr_energy">   -680.17343396 </i>
    <i name="e_wo_entrp">   -680.17106640 </i>
    <i name="e_0_energy">   -680.17225018 </i>
   </energy>
  </scstep>
  <scstep>
   <time name="dav">   51.95   52.41</time>
   <time name="total">   57.20   57.70</time>
   <energy>
    <i name="e_fr_energy">   -675.49660169 </i>
    <i name="e_wo_entrp">   -675.49415254 </i>
    <i name="e_0_energy">   -675.49537711 </i>
   </energy>
  </scstep>
  <scstep>
   <time name="dav">   42.98   43.37</time>
   <time name="total">   48.22   48.64</time>
   <energy>
    <i name="e_fr_energy">   -675.01677104 </i>
    <i name="e_wo_entrp">   -675.01448480 </i>
    <i name="e_0_energy">   -675.01562792 </i>
   </energy>
  </scstep>
  <scstep>
   <time name="dav">   39.09   39.44</time>
   <time name="total">   44.37   44.75</time>
   <energy>
    <i name="e_fr_energy">   -674.99590152 </i>
    <i name="e_wo_entrp">   -674.99412650 </i>
    <i name="e_0_energy">   -674.99501401 </i>
   </energy>
  </scstep>
  <scstep>
   <time name="dav">   42.56   42.93</time>
   <time name="total">   47.77   48.18</time>
   <energy>
    <i name="e_fr_energy">   -674.98752468 </i>
    <i name="e_wo_entrp">   -674.98511429 </i>
    <i name="e_0_energy">   -674.98631948 </i>
   </energy>
  </scstep>
  <scstep>
   <time name="dav">   39.98   40.34</time>
   <time name="total">   45.18   45.58</time>
   <energy>
    <i name="e_fr_energy">   -674.98935586 </i>
    <i name="e_wo_entrp">   -674.98745817 </i>
    <i name="e_0_energy">   -674.98840702 </i>
   </energy>
  </scstep>
  <scstep>
   <time name="dav">   39.33   39.67</time>
   <time name="total">   44.53   44.91</time>
   <energy>
    <i name="e_fr_energy">   -674.99058182 </i>
    <i name="e_wo_entrp">   -674.98865394 </i>
    <i name="e_0_energy">   -674.98961788 </i>
   </energy>
  </scstep>
  <scstep>
   <time name="dav">   40.31   40.67</time>
   <time name="total">   45.51   45.91</time>
   <energy>
    <i name="e_fr_energy">   -674.99091688 </i>
    <i name="e_wo_entrp">   -674.98893946 </i>
    <i name="e_0_energy">   -674.98992817 </i>
   </energy>
  </scstep>
  <scstep>
   <time name="dav">   40.54   40.89</time>
   <time name="total">   45.74   46.13</time>
   <energy>
    <i name="e_fr_energy">   -674.99098056 </i>
    <i name="e_wo_entrp">   -674.98904645 </i>
    <i name="e_0_energy">   -674.99001351 </i>
   </energy>
  </scstep>
  <scstep>
   <time name="dav">   38.39   38.73</time>
   <time name="total">   43.60   43.97</time>
   <energy>
    <i name="e_fr_energy">   -674.99104156 </i>
    <i name="e_wo_entrp">   -674.98911933 </i>
    <i name="e_0_energy">   -674.99008044 </i>
   </energy>
  </scstep>
  <scstep>
   <time name="dav">   39.07   39.41</time>
   <time name="total">   44.28   44.66</time>
   <energy>
    <i name="e_fr_energy">   -674.99105616 </i>
    <i name="e_wo_entrp">   -674.98912081 </i>
    <i name="e_0_energy">   -674.99008848 </i>
   </energy>
  </scstep>
  <scstep>
   <time name="dav">   40.71   41.07</time>
   <time name="total">   45.92   46.32</time>
   <energy>
    <i name="e_fr_energy">   -674.99105699 </i>
    <i name="e_wo_entrp">   -674.98912632 </i>
    <i name="e_0_energy">   -674.99009166 </i>
   </energy>
  </scstep>
  <scstep>
   <time name="dav">   41.16   41.52</time>
   <time name="total">   46.37   46.76</time>
   <energy>
    <i name="e_fr_energy">   -674.99105833 </i>
    <i name="e_wo_entrp">   -674.98913119 </i>
    <i name="e_0_energy">   -674.99009476 </i>
   </energy>
  </scstep>
  <scstep>
   <time name="dav">   40.09   40.44</time>
   <time name="total">   45.29   45.68</time>
   <energy>
    <i name="e_fr_energy">   -674.99106093 </i>
    <i name="e_wo_entrp">   -674.98913322 </i>
    <i name="e_0_energy">   -674.99009707 </i>
   </energy>
  </scstep>
  <scstep>
   <time name="dav">   39.93   40.28</time>
   <time name="total">   45.14   45.52</time>
   <energy>
    <i name="e_fr_energy">   -674.99106325 </i>
    <i name="e_wo_entrp">   -674.98913565 </i>
    <i name="e_0_energy">   -674.99009945 </i>
   </energy>
  </scstep>
  <scstep>
   <time name="dav">   39.78   40.12</time>
   <time name="total">   44.99   45.37</time>
   <energy>
    <i name="e_fr_energy">   -674.99106450 </i>
    <i name="e_wo_entrp">   -674.98914061 </i>
    <i name="e_0_energy">   -674.99010256 </i>
   </energy>
  </scstep>
  <scstep>
   <time name="dav">   35.39   35.70</time>
   <time name="total">   40.60   40.94</time>
   <energy>
    <i name="e_fr_energy">   -674.99106512 </i>
    <i name="e_wo_entrp">   -674.98914002 </i>
    <i name="e_0_energy">   -674.99010257 </i>
   </energy>
  </scstep>
  <scstep>
   <time name="dav">   27.90   28.14</time>
   <time name="total">   33.11   33.38</time>
   <energy>
    <i name="e_fr_energy">   -674.99106562 </i>
    <i name="e_wo_entrp">   -674.98913930 </i>
    <i name="e_0_energy">   -674.99010246 </i>
   </energy>
  </scstep>
  <scstep>
   <time name="dav">   25.12   25.34</time>
   <time name="total">   30.32   30.58</time>
   <energy>
    <i name="e_fr_energy">   -674.99106585 </i>
    <i name="e_wo_entrp">   -674.98913979 </i>
    <i name="e_0_energy">   -674.99010282 </i>
   </energy>
  </scstep>
  <scstep>
   <time name="dav">   24.74   24.95</time>
   <time name="total">   27.69   27.92</time>
   <energy>
    <i name="alphaZ">    997.00452252 </i>
    <i name="ewald"> -11699.83898719 </i>
    <i name="hartreedc">  -6828.28855950 </i>
    <i name="XCdc">  -9183.17496329 </i>
    <i name="pawpsdc">  44664.01502808 </i>
    <i name="pawaedc"> -34400.10255835 </i>
    <i name="eentropy">     -0.00192588 </i>
    <i name="bandstr">  -1078.40174302 </i>
    <i name="atom">  16853.79812076 </i>
    <i name="e_fr_energy">   -674.99106587 </i>
    <i name="e_wo_entrp">   -674.98913999 </i>
    <i name="e_0_energy">   -674.99010293 </i>
   </energy>
  </scstep>
  <structure>
   <crystal>
    <varray name="basis" >
     <v>      11.23962402       0.00000000       0.00000000 </v>
     <v>       0.00000000      15.89522934       0.00000000 </v>
     <v>       0.00000000       0.00000000      25.80094147 </v>
    </varray>
    <i name="volume">   4609.50335886 </i>
    <varray name="rec_basis" >
     <v>       0.08897095       0.00000000       0.00000000 </v>
     <v>       0.00000000       0.06291196       0.00000000 </v>
     <v>       0.00000000       0.00000000       0.03875828 </v>
    </varray>
   </crystal>
   <varray name="positions" >
    <v>       0.00000000       0.01797952       0.00000000 </v>
    <v>       0.99999994       0.26797959       0.08892229 </v>
    <v>       0.99999988       0.51797974       0.17784460 </v>
    <v>       0.99999982       0.76797992       0.26676691 </v>
    <v>       0.99999982       0.01797998       0.35568920 </v>
    <v>       0.99999976       0.26798010       0.44461155 </v>
    <v>       0.33333337       0.35131288       0.00000000 </v>
    <v>       0.33333331       0.60131288       0.08892229 </v>
    <v>       0.33333331       0.85131305       0.17784460 </v>
    <v>       0.33333322       0.10131323       0.26676691 </v>
    <v>       0.33333322       0.35131335       0.35568920 </v>
    <v>       0.33333316       0.60131347       0.44461155 </v>
    <v>       0.66666675       0.68464625       0.00000000 </v>
    <v>       0.66666669       0.93464625       0.08892229 </v>
    <v>       0.66666681       0.18464649       0.17784460 </v>
    <v>       0.66666651       0.43464649       0.26676691 </v>
    <v>       0.66666657       0.68464661       0.35568920 </v>
    <v>       0.66666657       0.93464685       0.44461155 </v>
    <v>       0.00000003       0.51797956       0.00000000 </v>
    <v>       0.99999994       0.76797962       0.08892229 </v>
    <v>       0.99999988       0.01797974       0.17784460 </v>
    <v>       0.99999988       0.26797986       0.26676688 </v>
    <v>       0.99999982       0.51797998       0.35568920 </v>
    <v>       0.99999976       0.76798010       0.44461155 </v>
    <v>       0.33333337       0.85131288       0.00000000 </v>
    <v>       0.33333334       0.10131300       0.08892229 </v>
    <v>       0.33333337       0.35131323       0.17784460 </v>
    <v>       0.33333325       0.60131323       0.26676688 </v>
    <v>       0.33333328       0.85131335       0.35568920 </v>
    <v>       0.33333311       0.10131359       0.44461155 </v>
    <v>       0.66666681       0.18464620       0.00000000 </v>
    <v>       0.66666663       0.43464625       0.08892229 </v>
    <v>       0.66666669       0.68464643       0.17784460 </v>
    <v>       0.66666663       0.93464649       0.26676688 </v>
    <v>       0.66666651       0.18464661       0.35568920 </v>
    <v>       0.66666657       0.43464673       0.44461152 </v>
    <v>       0.08333332       0.35131285       0.00000000 </v>
    <v>       0.08333325       0.60131288       0.08892229 </v>
    <v>       0.08333329       0.85131305       0.17784460 </v>
    <v>       0.08333313       0.10131311       0.26676691 </v>
    <v>       0.08333313       0.35131323       0.35568920 </v>
    <v>       0.08333313       0.60131335       0.44461152 </v>
    <v>       0.41666672       0.68464619       0.00000000 </v>
    <v>       0.41666663       0.93464625       0.08892229 </v>
    <v>       0.41666666       0.18464649       0.17784460 </v>
    <v>       0.41666660       0.43464661       0.26676688 </v>
    <v>       0.41666639       0.68464661       0.35568920 </v>
    <v>       0.41666651       0.93464673       0.44461152 </v>
    <v>       0.75000000       0.01797955       0.00000001 </v>
    <v>       0.75000000       0.26797959       0.08892230 </v>
    <v>       0.74999994       0.51797974       0.17784460 </v>
    <v>       0.74999982       0.76797986       0.26676688 </v>
    <v>       0.74999982       0.01797998       0.35568920 </v>
    <v>       0.74999982       0.26798010       0.44461152 </v>
    <v>       0.08333334       0.85131294       0.00000000 </v>
    <v>       0.08333328       0.10131300       0.08892231 </v>
    <v>       0.08333322       0.35131311       0.17784458 </v>
    <v>       0.08333325       0.60131347       0.26676691 </v>
    <v>       0.08333313       0.85131335       0.35568923 </v>
    <v>       0.08333307       0.10131359       0.44461152 </v>
    <v>       0.41666672       0.18464620       0.00000000 </v>
    <v>       0.41666666       0.43464625       0.08892229 </v>
    <v>       0.41666657       0.68464643       0.17784460 </v>
    <v>       0.41666657       0.93464655       0.26676691 </v>
    <v>       0.41666657       0.18464661       0.35568920 </v>
    <v>       0.41666645       0.43464673       0.44461152 </v>
    <v>       0.75000000       0.51797950       0.00000000 </v>
    <v>       0.74999994       0.76797962       0.08892229 </v>
    <v>       0.75000000       0.01797974       0.17784460 </v>
    <v>       0.74999988       0.26797986       0.26676691 </v>
    <v>       0.74999982       0.51797986       0.35568920 </v>
    <v>       0.74999976       0.76798010       0.44461152 </v>
    <v>       0.09678888       0.48763973       0.52848196 </v>
    <v>       0.84678882       0.11263971       0.60601157 </v>
    <v>       0.59678888       0.73763973       0.68354106 </v>
    <v>       0.34678900       0.36263982       0.76107049 </v>
    <v>       0.09678888       0.98763973       0.83860004 </v>
    <v>       0.84678882       0.61263973       0.91612953 </v>
    <v>       0.59678888       0.48763973       0.52848196 </v>
    <v>       0.34678888       0.11263971       0.60601157 </v>
    <v>       0.09678888       0.73763973       0.68354106 </v>
    <v>       0.84678894       0.36263982       0.76107049 </v>
    <v>       0.59678894       0.98763973       0.83860004 </v>
    <v>       0.34678888       0.61263973       0.91612953 </v>
    <v>       0.09678888       0.98763973       0.52848196 </v>
    <v>       0.84678882       0.61263973       0.60601157 </v>
    <v>       0.59678888       0.23763969       0.68354106 </v>
    <v>       0.34678900       0.86263996       0.76107049 </v>
    <v>       0.09678888       0.48763969       0.83860010 </v>
    <v>       0.84678882       0.11263969       0.91612953 </v>
    <v>       0.59678888       0.98763973       0.52848196 </v>
    <v>       0.34678888       0.61263973       0.60601157 </v>
    <v>       0.09678888       0.23763969       0.68354106 </v>
    <v>       0.84678894       0.86263996       0.76107049 </v>
    <v>       0.59678894       0.48763969       0.83860010 </v>
    <v>       0.34678888       0.11263969       0.91612953 </v>
    <v>       0.09678888       0.73763973       0.52848196 </v>
    <v>       0.84678882       0.36263969       0.60601157 </v>
    <v>       0.59678888       0.98763973       0.68354106 </v>
    <v>       0.34678900       0.61263984       0.76107049 </v>
    <v>       0.09678888       0.23763976       0.83860010 </v>
    <v>       0.84678882       0.86263973       0.91612953 </v>
    <v>       0.59678888       0.73763973       0.52848196 </v>
    <v>       0.34678888       0.36263969       0.60601157 </v>
    <v>       0.09678888       0.98763973       0.68354106 </v>
    <v>       0.84678894       0.61263984       0.76107049 </v>
    <v>       0.59678894       0.23763976       0.83860010 </v>
    <v>       0.34678888       0.86263973       0.91612953 </v>
    <v>       0.09678888       0.23763971       0.52848196 </v>
    <v>       0.84678882       0.86263973       0.60601157 </v>
    <v>       0.59678888       0.48763969       0.68354106 </v>
    <v>       0.34678900       0.11263982       0.76107049 </v>
    <v>       0.09678888       0.73763984       0.83860004 </v>
    <v>       0.84678882       0.36263969       0.91612953 </v>
    <v>       0.59678888       0.23763971       0.52848196 </v>
    <v>       0.34678888       0.86263973       0.60601157 </v>
    <v>       0.09678888       0.48763969       0.68354106 </v>
    <v>       0.84678894       0.11263982       0.76107049 </v>
    <v>       0.59678894       0.73763984       0.83860004 </v>
    <v>       0.34678888       0.36263969       0.91612953 </v>
    <v>       0.47178888       0.61263978       0.52848196 </v>
    <v>       0.22178888       0.23763973       0.60601157 </v>
    <v>       0.97178888       0.86263973       0.68354106 </v>
    <v>       0.72178894       0.48763982       0.76107049 </v>
    <v>       0.47178888       0.11263975       0.83860010 </v>
    <v>       0.22178884       0.73763973       0.91612953 </v>
    <v>       0.97178894       0.61263978       0.52848196 </v>
    <v>       0.72178888       0.23763973       0.60601157 </v>
    <v>       0.47178894       0.86263973       0.68354106 </v>
    <v>       0.22178900       0.48763982       0.76107049 </v>
    <v>       0.97178894       0.11263975       0.83860010 </v>
    <v>       0.72178888       0.73763973       0.91612953 </v>
    <v>       0.47178888       0.11263971       0.52848196 </v>
    <v>       0.22178888       0.73763973       0.60601157 </v>
    <v>       0.97178888       0.36263969       0.68354106 </v>
    <v>       0.72178894       0.98763984       0.76107049 </v>
    <v>       0.47178888       0.61263984       0.83860004 </v>
    <v>       0.22178884       0.23763958       0.91612953 </v>
    <v>       0.97178894       0.11263971       0.52848196 </v>
    <v>       0.72178888       0.73763973       0.60601157 </v>
    <v>       0.47178894       0.36263969       0.68354106 </v>
    <v>       0.22178900       0.98763984       0.76107049 </v>
    <v>       0.97178894       0.61263984       0.83860004 </v>
    <v>       0.72178888       0.23763958       0.91612953 </v>
    <v>       0.47178888       0.86263978       0.52848196 </v>
    <v>       0.22178888       0.48763976       0.60601157 </v>
    <v>       0.97178888       0.11263974       0.68354106 </v>
    <v>       0.72178894       0.73763990       0.76107049 </v>
    <v>       0.47178888       0.36263982       0.83860004 </v>
    <v>       0.22178884       0.98763973       0.91612953 </v>
    <v>       0.97178894       0.86263978       0.52848196 </v>
    <v>       0.72178888       0.48763976       0.60601157 </v>
    <v>       0.47178894       0.11263974       0.68354106 </v>
    <v>       0.22178900       0.73763990       0.76107049 </v>
    <v>       0.97178894       0.36263982       0.83860004 </v>
    <v>       0.72178888       0.98763973       0.91612953 </v>
    <v>       0.47178888       0.36263969       0.52848196 </v>
    <v>       0.22178888       0.98763973       0.60601157 </v>
    <v>       0.97178888       0.61263973       0.68354106 </v>
    <v>       0.72178894       0.23763982       0.76107049 </v>
    <v>       0.47178888       0.86263973       0.83860004 </v>
    <v>       0.22178884       0.48763969       0.91612953 </v>
    <v>       0.97178894       0.36263969       0.52848196 </v>
    <v>       0.72178888       0.98763973       0.60601157 </v>
    <v>       0.47178894       0.61263973       0.68354106 </v>
    <v>       0.22178900       0.23763982       0.76107049 </v>
    <v>       0.97178894       0.86263973       0.83860004 </v>
    <v>       0.72178888       0.48763969       0.91612953 </v>
   </varray>
  </structure>
  <varray name="forces" >
   <v>       0.59894104       0.50609512      -0.61793549 </v>
   <v>      -0.06829657      -0.05169036       0.07544342 </v>
   <v>      -0.02093003      -0.03852193      -0.01738870 </v>
   <v>      -0.05538670       0.00446479       0.01888999 </v>
   <v>      -0.06527361      -0.09598417      -0.18941809 </v>
   <v>      -0.80921458       1.09884795      -2.65184298 </v>
   <v>       0.40186742      -0.35084542       7.57914112 </v>
   <v>       0.01704319      -0.05540903      -0.07402518 </v>
   <v>       0.03033227      -0.00748759      -0.00834099 </v>
   <v>       0.00371058       0.00301402       0.01868303 </v>
   <v>      -0.03867866      -0.06423287       0.14136865 </v>
   <v>       0.23653405       0.10300800       0.19328517 </v>
   <v>      -1.05395798      -0.29544294       2.62114562 </v>
   <v>       0.00065454      -0.05349919       0.10551619 </v>
   <v>      -0.01363897       0.02119675      -0.02013639 </v>
   <v>       0.01854439      -0.01720564       0.00341153 </v>
   <v>      -0.03654798      -0.00075266      -0.08863246 </v>
   <v>       1.10099644      -0.08212394      -2.02720798 </v>
   <v>       0.59894104       0.50609512      -0.61793549 </v>
   <v>      -0.06829657      -0.05169036       0.07544342 </v>
   <v>      -0.02093003      -0.03852193      -0.01738870 </v>
   <v>      -0.05538670       0.00446479       0.01888999 </v>
   <v>      -0.06527361      -0.09598417      -0.18941809 </v>
   <v>      -0.80921458       1.09884795      -2.65184298 </v>
   <v>       0.40186742      -0.35084542       7.57914112 </v>
   <v>       0.01704319      -0.05540903      -0.07402518 </v>
   <v>       0.03033227      -0.00748759      -0.00834099 </v>
   <v>       0.00371058       0.00301402       0.01868303 </v>
   <v>      -0.03867866      -0.06423287       0.14136865 </v>
   <v>       0.23653405       0.10300800       0.19328517 </v>
   <v>      -1.05395798      -0.29544294       2.62114562 </v>
   <v>       0.00065454      -0.05349919       0.10551619 </v>
   <v>      -0.01363897       0.02119675      -0.02013639 </v>
   <v>       0.01854439      -0.01720564       0.00341153 </v>
   <v>      -0.03654798      -0.00075266      -0.08863246 </v>
   <v>       1.10099644      -0.08212394      -2.02720798 </v>
   <v>      -0.70853164      -0.74342522      -0.60032620 </v>
   <v>       0.09248756       0.09687633       0.04581182 </v>
   <v>       0.01421361       0.01115178       0.00835738 </v>
   <v>       0.04814510      -0.01868535       0.00105882 </v>
   <v>       0.10932918       0.12568511      -0.11500791 </v>
   <v>       0.66774301      -1.26571764      -1.76931575 </v>
   <v>       0.48343571      -0.46997399       1.13936234 </v>
   <v>       0.02337483       0.03429607       0.01882853 </v>
   <v>      -0.00905473      -0.03638446       0.00680557 </v>
   <v>      -0.04194435      -0.01804322      -0.01679205 </v>
   <v>       0.03400534       0.02713037      -0.10938160 </v>
   <v>      -1.02344319      -0.32039002      -1.70872507 </v>
   <v>      -0.34989070       0.54849452       6.00651848 </v>
   <v>       0.00972086       0.05636243      -0.03342304 </v>
   <v>      -0.02425055      -0.02256799      -0.01108897 </v>
   <v>      -0.00323295      -0.03046753      -0.00590209 </v>
   <v>       0.05084212       0.09550261       0.15028647 </v>
   <v>      -0.71974960      -0.36697614       0.55105979 </v>
   <v>      -0.70853164      -0.74342522      -0.60032620 </v>
   <v>       0.09248756       0.09687633       0.04581182 </v>
   <v>       0.01421361       0.01115178       0.00835738 </v>
   <v>       0.04814510      -0.01868535       0.00105882 </v>
   <v>       0.10932918       0.12568511      -0.11500791 </v>
   <v>       0.66774301      -1.26571764      -1.76931575 </v>
   <v>       0.48343571      -0.46997399       1.13936234 </v>
   <v>       0.02337483       0.03429607       0.01882853 </v>
   <v>      -0.00905473      -0.03638446       0.00680557 </v>
   <v>      -0.04194435      -0.01804322      -0.01679205 </v>
   <v>       0.03400534       0.02713037      -0.10938160 </v>
   <v>      -1.02344319      -0.32039002      -1.70872507 </v>
   <v>      -0.34989070       0.54849452       6.00651848 </v>
   <v>       0.00972086       0.05636243      -0.03342304 </v>
   <v>      -0.02425055      -0.02256799      -0.01108897 </v>
   <v>      -0.00323295      -0.03046753      -0.00590209 </v>
   <v>       0.05084212       0.09550261       0.15028647 </v>
   <v>      -0.71974960      -0.36697614       0.55105979 </v>
   <v>       0.49344534      -0.29853064      -0.07837374 </v>
   <v>      -0.27953318      -0.01704286      -0.13123865 </v>
   <v>       0.01928568       0.00988559       0.04114370 </v>
   <v>       0.01907390       0.01773072      -0.07990889 </v>
   <v>      -0.03163020       0.20015090      -0.03398315 </v>
   <v>       1.60339707       0.20916492      -0.95464605 </v>
   <v>       0.47553990       0.65297048       2.05960241 </v>
   <v>       0.12574027      -0.01829865       0.13648711 </v>
   <v>      -0.05408857       0.02208574      -0.05832629 </v>
   <v>       0.02935791       0.03865700       0.06044867 </v>
   <v>      -0.08289503      -0.00072121       0.17229584 </v>
   <v>      -0.07119783      -0.24065098      -0.11705583 </v>
   <v>       0.49344534      -0.29853064      -0.07837374 </v>
   <v>      -0.27953318      -0.01704286      -0.13123865 </v>
   <v>       0.01928568       0.00988559       0.04114370 </v>
   <v>       0.01907390       0.01773072      -0.07990889 </v>
   <v>      -0.03163020       0.20015090      -0.03398315 </v>
   <v>       1.60339707       0.20916492      -0.95464605 </v>
   <v>       0.47553990       0.65297048       2.05960241 </v>
   <v>       0.12574027      -0.01829865       0.13648711 </v>
   <v>      -0.05408857       0.02208574      -0.05832629 </v>
   <v>       0.02935791       0.03865700       0.06044867 </v>
   <v>      -0.08289503      -0.00072121       0.17229584 </v>
   <v>      -0.07119783      -0.24065098      -0.11705583 </v>
   <v>       1.52225346      -0.19915440       2.45862863 </v>
   <v>      -0.18033871      -0.04044893      -0.10511174 </v>
   <v>       0.02180049       0.03016188       0.05876728 </v>
   <v>       0.02806208       0.00761360      -0.03848583 </v>
   <v>      -0.10682207       0.11454050      -0.06649985 </v>
   <v>       1.00691036      -0.22275963       0.26055319 </v>
   <v>       0.70581164      -0.06490030      -0.62404194 </v>
   <v>       0.04521878      -0.03125204       0.03435323 </v>
   <v>       0.02085861       0.02299978      -0.05670897 </v>
   <v>       0.00965364       0.05530149       0.06113475 </v>
   <v>       0.01819522      -0.09674282      -0.01555517 </v>
   <v>       0.84488179       0.98275540      -7.27499636 </v>
   <v>       1.52225346      -0.19915440       2.45862863 </v>
   <v>      -0.18033871      -0.04044893      -0.10511174 </v>
   <v>       0.02180049       0.03016188       0.05876728 </v>
   <v>       0.02806208       0.00761360      -0.03848583 </v>
   <v>      -0.10682207       0.11454050      -0.06649985 </v>
   <v>       1.00691036      -0.22275963       0.26055319 </v>
   <v>       0.70581164      -0.06490030      -0.62404194 </v>
   <v>       0.04521878      -0.03125204       0.03435323 </v>
   <v>       0.02085861       0.02299978      -0.05670897 </v>
   <v>       0.00965364       0.05530149       0.06113475 </v>
   <v>       0.01819522      -0.09674282      -0.01555517 </v>
   <v>       0.84488179       0.98275540      -7.27499636 </v>
   <v>      -0.27023492       0.35237584      -0.20511069 </v>
   <v>       0.33079136       0.10580248      -0.15240990 </v>
   <v>       0.01629879      -0.01494534      -0.11439358 </v>
   <v>       0.00153263      -0.00135704      -0.04596714 </v>
   <v>      -0.04025060       0.07268556      -0.04000038 </v>
   <v>      -1.44491563       0.09057044      -0.38507862 </v>
   <v>      -1.42509770      -0.17578865       1.71698165 </v>
   <v>      -0.16377729       0.03805449       0.14066478 </v>
   <v>      -0.00974110      -0.04802769       0.02082628 </v>
   <v>      -0.01716382      -0.01907243       0.08600027 </v>
   <v>       0.17457540      -0.10266794      -0.09087395 </v>
   <v>       0.68846218       1.00554889      -1.76449704 </v>
   <v>      -0.27023492       0.35237584      -0.20511069 </v>
   <v>       0.33079136       0.10580248      -0.15240990 </v>
   <v>       0.01629879      -0.01494534      -0.11439358 </v>
   <v>       0.00153263      -0.00135704      -0.04596714 </v>
   <v>      -0.04025060       0.07268556      -0.04000038 </v>
   <v>      -1.44491563       0.09057044      -0.38507862 </v>
   <v>      -1.42509770      -0.17578865       1.71698165 </v>
   <v>      -0.16377729       0.03805449       0.14066478 </v>
   <v>      -0.00974110      -0.04802769       0.02082628 </v>
   <v>      -0.01716382      -0.01907243       0.08600027 </v>
   <v>       0.17457540      -0.10266794      -0.09087395 </v>
   <v>       0.68846218       1.00554889      -1.76449704 </v>
   <v>      -0.55787343      -0.42413549       1.12222811 </v>
   <v>       0.07353583      -0.03272205      -0.13428189 </v>
   <v>       0.02999181      -0.01587046      -0.07506055 </v>
   <v>      -0.01412174      -0.01591982      -0.02102154 </v>
   <v>       0.06214077       0.08450829       0.22690359 </v>
   <v>      -0.93930425       0.40251169       0.08926982 </v>
   <v>      -0.39847148       0.83871986       0.41596832 </v>
   <v>      -0.03433419       0.13513439       0.02897584 </v>
   <v>      -0.01703949       0.00884629       0.00429538 </v>
   <v>      -0.01531550      -0.05157778       0.07319623 </v>
   <v>      -0.03217520      -0.14822888      -0.01957456 </v>
   <v>      -1.08039145      -1.54425872      -5.20560575 </v>
   <v>      -0.55787343      -0.42413549       1.12222811 </v>
   <v>       0.07353583      -0.03272205      -0.13428189 </v>
   <v>       0.02999181      -0.01587046      -0.07506055 </v>
   <v>      -0.01412174      -0.01591982      -0.02102154 </v>
   <v>       0.06214077       0.08450829       0.22690359 </v>
   <v>      -0.93930425       0.40251169       0.08926982 </v>
   <v>      -0.39847148       0.83871986       0.41596832 </v>
   <v>      -0.03433419       0.13513439       0.02897584 </v>
   <v>      -0.01703949       0.00884629       0.00429538 </v>
   <v>      -0.01531550      -0.05157778       0.07319623 </v>
   <v>      -0.03217520      -0.14822888      -0.01957456 </v>
   <v>      -1.08039145      -1.54425872      -5.20560575 </v>
  </varray>
  <varray name="stress" >
   <v>      51.95487699       3.00433289       0.10424863 </v>
   <v>       3.00433042      54.05820641       0.03503071 </v>
   <v>       0.10424997       0.03503064      75.28035967 </v>
  </varray>
  <energy>
   <i name="e_fr_energy">   -674.99106587 </i>
   <i name="e_wo_entrp">   -674.98913999 </i>
   <i name="e_0_energy">   -674.99010293 </i>
  </energy>
  <time name="totalsc"> 1219.59 1231.06</time>
  <eigenvalues>
   <array>
    <dimension dim="1">band</dimension>
    <dimension dim="2">kpoint</dimension>
    <dimension dim="3">spin</dimension>
    <field>eigene</field>
    <field>occ</field>
    <set>
     <set comment="spin 1">
      <set comment="kpoint 1">
       <r>   -9.1042    1.0000 </r>
       <r>   -8.8005    1.0000 </r>
       <r>   -8.6124    1.0000 </r>
       <r>   -8.6091    1.0000 </r>
       <r>   -8.3973    1.0000 </r>
       <r>   -8.3936    1.0000 </r>
       <r>   -8.3554    1.0000 </r>
       <r>   -8.3410    1.0000 </r>
       <r>   -8.2388    1.0000 </r>
       <r>   -8.0916    1.0000 </r>
       <r>   -7.9778    1.0000 </r>
       <r>   -7.9372    1.0000 </r>
       <r>   -7.9220    1.0000 </r>
       <r>   -7.7465    1.0000 </r>
       <r>   -7.7015    1.0000 </r>
       <r>   -7.6028    1.0000 </r>
       <r>   -7.5924    1.0000 </r>
       <r>   -7.5605    1.0000 </r>
       <r>   -7.4843    1.0000 </r>
       <r>   -7.4366    1.0000 </r>
       <r>   -7.4259    1.0000 </r>
       <r>   -7.4143    1.0000 </r>
       <r>   -7.2837    1.0000 </r>
       <r>   -7.2272    1.0000 </r>
       <r>   -7.1520    1.0000 </r>
       <r>   -7.1293    1.0000 </r>
       <r>   -7.0116    1.0000 </r>
       <r>   -6.9926    1.0000 </r>
       <r>   -6.9474    1.0000 </r>
       <r>   -6.9319    1.0000 </r>
       <r>   -6.9185    1.0000 </r>
       <r>   -6.8870    1.0000 </r>
       <r>   -6.8691    1.0000 </r>
       <r>   -6.7400    1.0000 </r>
       <r>   -6.7381    1.0000 </r>
       <r>   -6.6834    1.0000 </r>
       <r>   -6.6562    1.0000 </r>
       <r>   -6.6010    1.0000 </r>
       <r>   -6.4786    1.0000 </r>
       <r>   -6.3558    1.0000 </r>
       <r>   -6.3473    1.0000 </r>
       <r>   -6.3402    1.0000 </r>
       <r>   -6.2571    1.0000 </r>
       <r>   -6.1904    1.0000 </r>
       <r>   -6.1200    1.0000 </r>
       <r>   -5.9589    1.0000 </r>
       <r>   -5.9342    1.0000 </r>
       <r>   -5.9313    1.0000 </r>
       <r>   -5.8809    1.0000 </r>
       <r>   -5.8624    1.0000 </r>
       <r>   -5.7811    1.0000 </r>
       <r>   -5.7760    1.0000 </r>
       <r>   -5.6641    1.0000 </r>
       <r>   -5.6312    1.0000 </r>
       <r>   -5.5193    1.0000 </r>
       <r>   -5.5130    1.0000 </r>
       <r>   -5.5109    1.0000 </r>
       <r>   -5.4791    1.0000 </r>
       <r>   -5.4524    1.0000 </r>
       <r>   -5.3965    1.0000 </r>
       <r>   -5.3894    1.0000 </r>
       <r>   -5.3772    1.0000 </r>
       <r>   -5.3735    1.0000 </r>
       <r>   -5.3612    1.0000 </r>
       <r>   -5.3548    1.0000 </r>
       <r>   -5.2342    1.0000 </r>
       <r>   -5.2155    1.0000 </r>
       <r>   -5.1984    1.0000 </r>
       <r>   -5.1560    1.0000 </r>
       <r>   -5.1217    1.0000 </r>
       <r>   -5.0935    1.0000 </r>
       <r>   -5.0809    1.0000 </r>
       <r>   -5.0751    1.0000 </r>
       <r>   -5.0479    1.0000 </r>
       <r>   -5.0411    1.0000 </r>
       <r>   -5.0038    1.0000 </r>
       <r>   -4.9233    1.0000 </r>
       <r>   -4.8906    1.0000 </r>
       <r>   -4.8675    1.0000 </r>
       <r>   -4.8221    1.0000 </r>
       <r>   -4.7932    1.0000 </r>
       <r>   -4.7353    1.0000 </r>
       <r>   -4.7240    1.0000 </r>
       <r>   -4.7143    1.0000 </r>
       <r>   -4.6161    1.0000 </r>
       <r>   -4.5960    1.0000 </r>
       <r>   -4.5398    1.0000 </r>
       <r>   -4.5034    1.0000 </r>
       <r>   -4.4551    1.0000 </r>
       <r>   -4.4211    1.0000 </r>
       <r>   -4.4168    1.0000 </r>
       <r>   -4.3893    1.0000 </r>
       <r>   -4.3398    1.0000 </r>
       <r>   -4.3369    1.0000 </r>
       <r>   -4.1122    1.0000 </r>
       <r>   -4.0905    1.0000 </r>
       <r>   -4.0894    1.0000 </r>
       <r>   -4.0786    1.0000 </r>
       <r>   -4.0607    1.0000 </r>
       <r>   -3.8981    1.0000 </r>
       <r>   -3.8868    1.0000 </r>
       <r>   -3.8407    1.0000 </r>
       <r>   -3.8323    1.0000 </r>
       <r>   -3.8172    1.0000 </r>
[...]
       <r>    -3.0907    32.6351   238.5345 </r>
       <r>    -3.0362    36.9367   240.5471 </r>
       <r>    -2.9817    36.6913   242.5464 </r>
       <r>    -2.9272    76.4473   246.7119 </r>
       <r>    -2.8727    64.1623   250.2080 </r>
       <r>    -2.8182    38.6767   252.3155 </r>
       <r>    -2.7637    59.2087   255.5417 </r>
       <r>    -2.7092    15.6454   256.3942 </r>
       <r>    -2.6548    58.7878   259.5975 </r>
       <r>    -2.6003    37.8895   261.6620 </r>
       <r>    -2.5458    61.8573   265.0325 </r>
       <r>    -2.4913    68.6615   268.7738 </r>
       <r>    -2.4368    48.5624   271.4199 </r>
       <r>    -2.3823    55.8989   274.4657 </r>
       <r>    -2.3278    52.6012   277.3319 </r>
       <r>    -2.2733    27.6341   278.8376 </r>
       <r>    -2.2189    51.0706   281.6204 </r>
       <r>    -2.1644    41.1728   283.8638 </r>
       <r>    -2.1099    38.0074   285.9348 </r>
       <r>    -2.0554    29.5116   287.5428 </r>
       <r>    -2.0009    21.8053   288.7310 </r>
       <r>    -1.9464    41.6030   290.9979 </r>
       <r>    -1.8919    18.5012   292.0060 </r>
       <r>    -1.8374    30.6382   293.6754 </r>
       <r>    -1.7829    36.9769   295.6902 </r>
       <r>    -1.7285    48.4252   298.3289 </r>
       <r>    -1.6740    30.0113   299.9642 </r>
       <r>    -1.6195    43.6037   302.3401 </r>
       <r>    -1.5650    36.0133   304.3024 </r>
       <r>    -1.5105    23.8425   305.6016 </r>
       <r>    -1.4560    30.9571   307.2884 </r>
       <r>    -1.4015    50.8131   310.0572 </r>
       <r>    -1.3470    33.3044   311.8719 </r>
       <r>    -1.2925     6.5193   312.2271 </r>
       <r>    -1.2381    17.0336   313.1552 </r>
       <r>    -1.1836    15.5038   314.0000 </r>
       <r>    -1.1291     0.4739   314.0258 </r>
       <r>    -1.0746    31.1328   315.7222 </r>
       <r>    -1.0201    17.3588   316.6681 </r>
       <r>    -0.9656    12.3199   317.3394 </r>
       <r>    -0.9111    12.1599   318.0019 </r>
       <r>    -0.8566    28.4765   319.5536 </r>
       <r>    -0.8022    32.3851   321.3182 </r>
       <r>    -0.7477    12.8415   322.0179 </r>
       <r>    -0.6932    26.7254   323.4741 </r>
       <r>    -0.6387    25.5652   324.8671 </r>
       <r>    -0.5842    70.8331   328.7267 </r>
       <r>    -0.5297    72.3509   332.6690 </r>
       <r>    -0.4752    46.7334   335.2154 </r>
       <r>    -0.4207    69.5252   339.0038 </r>
       <r>    -0.3662    73.7535   343.0225 </r>
       <r>    -0.3118    35.6097   344.9628 </r>
       <r>    -0.2573   106.2179   350.7505 </r>
       <r>    -0.2028    70.8153   354.6091 </r>
       <r>    -0.1483    65.2806   358.1661 </r>
       <r>    -0.0938    69.1826   361.9358 </r>
       <r>    -0.0393    62.8765   365.3618 </r>
       <r>     0.0152    71.1910   369.2409 </r>
       <r>     0.0697    68.5319   372.9751 </r>
       <r>     0.1242    74.7419   377.0477 </r>
       <r>     0.1786    81.9453   381.5129 </r>
       <r>     0.2331    79.3274   385.8353 </r>
       <r>     0.2876    97.3938   391.1421 </r>
       <r>     0.3421    92.9070   396.2045 </r>
       <r>     0.3966    85.6729   400.8727 </r>
       <r>     0.4511   111.6680   406.9573 </r>
       <r>     0.5056   104.5185   412.6524 </r>
       <r>     0.5601    92.0385   417.6675 </r>
       <r>     0.6145   126.7413   424.5735 </r>
       <r>     0.6690   117.7440   430.9891 </r>
       <r>     0.7235   164.0504   439.9280 </r>
       <r>     0.7780   150.7286   448.1411 </r>
       <r>     0.8325    61.7918   451.5081 </r>
       <r>     0.8870   129.9190   458.5872 </r>
       <r>     0.9415    85.6990   463.2568 </r>
       <r>     0.9960   121.3676   469.8700 </r>
       <r>     1.0505    87.2182   474.6225 </r>
       <r>     1.1049    52.3002   477.4722 </r>
       <r>     1.1594   127.2820   484.4076 </r>
       <r>     1.2139   122.1753   491.0648 </r>
       <r>     1.2684   104.7404   496.7720 </r>
       <r>     1.3229   144.6507   504.6538 </r>
       <r>     1.3774   125.4762   511.4909 </r>
       <r>     1.4319    84.2590   516.0821 </r>
       <r>     1.4864   126.0326   522.9494 </r>
       <r>     1.5409   111.8537   529.0441 </r>
       <r>     1.5953   119.6758   535.5652 </r>
       <r>     1.6498    98.9594   540.9573 </r>
       <r>     1.7043   118.3136   547.4041 </r>
       <r>     1.7588   102.7793   553.0044 </r>
       <r>     1.8133   109.1823   558.9537 </r>
       <r>     1.8678   126.5019   565.8466 </r>
       <r>     1.9223    93.0183   570.9150 </r>
       <r>     1.9768    78.1939   575.1757 </r>
       <r>     2.0312    96.9755   580.4597 </r>
       <r>     2.0857    86.6949   585.1837 </r>
       <r>     2.1402    92.2571   590.2106 </r>
       <r>     2.1947    86.3081   594.9135 </r>
       <r>     2.2492    89.1980   599.7738 </r>
       <r>     2.3037    87.7112   604.5530 </r>
       <r>     2.3582    86.9422   609.2904 </r>
       <r>     2.4127    58.9923   612.5048 </r>
       <r>     2.4672    74.9765   616.5902 </r>
       <r>     2.5216    62.4356   619.9922 </r>
       <r>     2.5761   110.8926   626.0345 </r>
       <r>     2.6306    56.4253   629.1091 </r>
       <r>     2.6851    64.1297   632.6034 </r>
       <r>     2.7396    73.3614   636.6008 </r>
       <r>     2.7941    82.0367   641.0709 </r>
       <r>     2.8486    28.5842   642.6284 </r>
       <r>     2.9031    80.5675   647.0184 </r>
       <r>     2.9576    47.1693   649.5886 </r>
       <r>     3.0120    44.3168   652.0033 </r>
       <r>     3.0665    43.1805   654.3562 </r>
       <r>     3.1210    44.6324   656.7882 </r>
       <r>     3.1755    37.6507   658.8398 </r>
       <r>     3.2300    46.7525   661.3873 </r>
       <r>     3.2845    46.7090   663.9324 </r>
       <r>     3.3390    49.3118   666.6193 </r>
       <r>     3.3935    35.4761   668.5524 </r>
       <r>     3.4479    37.0648   670.5720 </r>
       <r>     3.5024    19.7767   671.6496 </r>
       <r>     3.5569    29.9802   673.2832 </r>
       <r>     3.6114    19.6761   674.3553 </r>
       <r>     3.6659    50.5118   677.1076 </r>
       <r>     3.7204    34.6391   678.9950 </r>
       <r>     3.7749    53.8504   681.9293 </r>
       <r>     3.8294    25.4398   683.3154 </r>
       <r>     3.8839     4.0360   683.5354 </r>
       <r>     3.9383     8.5549   684.0015 </r>
       <r>     3.9928    31.0576   685.6938 </r>
       <r>     4.0473    11.7375   686.3333 </r>
       <r>     4.1018    14.0463   687.0987 </r>
       <r>     4.1563    33.8680   688.9441 </r>
       <r>     4.2108    15.7531   689.8025 </r>
       <r>     4.2653    62.5942   693.2131 </r>
       <r>     4.3198    29.8493   694.8396 </r>
       <r>     4.3743    14.7288   695.6421 </r>
       <r>     4.4287    45.7964   698.1375 </r>
       <r>     4.4832    33.6673   699.9720 </r>
       <r>     4.5377    78.0349   704.2240 </r>
       <r>     4.5922    83.6765   708.7835 </r>
       <r>     4.6467    53.1545   711.6798 </r>
       <r>     4.7012    51.6748   714.4955 </r>
       <r>     4.7557    70.7518   718.3507 </r>
       <r>     4.8102    92.5203   723.3919 </r>
       <r>     4.8646    82.0620   727.8634 </r>
       <r>     4.9191    63.2111   731.3077 </r>
       <r>     4.9736    97.6755   736.6299 </r>
       <r>     5.0281    70.6586   740.4800 </r>
       <r>     5.0826   116.2460   746.8141 </r>
       <r>     5.1371    97.5198   752.1279 </r>
       <r>     5.1916   104.1662   757.8038 </r>
       <r>     5.2461    82.7319   762.3118 </r>
       <r>     5.3006   109.9093   768.3006 </r>
       <r>     5.3550   102.9955   773.9126 </r>
       <r>     5.4095    90.9576   778.8688 </r>
       <r>     5.4640   102.2874   784.4423 </r>
       <r>     5.5185   119.4519   790.9511 </r>
       <r>     5.5730   122.8395   797.6445 </r>
       <r>     5.6275    83.1570   802.1756 </r>
       <r>     5.6820    53.0516   805.0664 </r>
       <r>     5.7365    39.9417   807.2428 </r>
       <r>     5.7910    13.8970   808.0000 </r>
       <r>     5.8454     0.0000   808.0000 </r>
       <r>     5.8999     0.0000   808.0000 </r>
       <r>     5.9544     0.0000   808.0000 </r>
       <r>     6.0089     0.0000   808.0000 </r>
       <r>     6.0634     0.0000   808.0000 </r>
       <r>     6.1179     0.0000   808.0000 </r>
       <r>     6.1724     0.0000   808.0000 </r>
       <r>     6.2269     0.0000   808.0000 </r>
       <r>     6.2813     0.0000   808.0000 </r>
       <r>     6.3358     0.0000   808.0000 </r>
       <r>     6.3903     0.0000   808.0000 </r>
       <r>     6.4448     0.0000   808.0000 </r>
       <r>     6.4993     0.0000   808.0000 </r>
      </set>
     </set>
    </array>
   </total>
  </dos>
 </calculation>
 <structure name="finalpos" >
  <crystal>
   <varray name="basis" >
    <v>      11.23962402       0.00000000       0.00000000 </v>
    <v>       0.00000000      15.89522934       0.00000000 </v>
    <v>       0.00000000       0.00000000      25.80094147 </v>
   </varray>
   <i name="volume">   4609.50335886 </i>
   <varray name="rec_basis" >
    <v>       0.08897095       0.00000000       0.00000000 </v>
    <v>       0.00000000       0.06291196       0.00000000 </v>
    <v>       0.00000000       0.00000000       0.03875828 </v>
   </varray>
  </crystal>
  <varray name="positions" >
   <v>       0.00000000       0.01797952       0.00000000 </v>
   <v>       0.99999994       0.26797959       0.08892229 </v>
   <v>       0.99999988       0.51797974       0.17784460 </v>
   <v>       0.99999982       0.76797992       0.26676691 </v>
   <v>       0.99999982       0.01797998       0.35568920 </v>
   <v>       0.99999976       0.26798010       0.44461155 </v>
   <v>       0.33333337       0.35131288       0.00000000 </v>
   <v>       0.33333331       0.60131288       0.08892229 </v>
   <v>       0.33333331       0.85131305       0.17784460 </v>
   <v>       0.33333322       0.10131323       0.26676691 </v>
   <v>       0.33333322       0.35131335       0.35568920 </v>
   <v>       0.33333316       0.60131347       0.44461155 </v>
   <v>       0.66666675       0.68464625       0.00000000 </v>
   <v>       0.66666669       0.93464625       0.08892229 </v>
   <v>       0.66666681       0.18464649       0.17784460 </v>
   <v>       0.66666651       0.43464649       0.26676691 </v>
   <v>       0.66666657       0.68464661       0.35568920 </v>
   <v>       0.66666657       0.93464685       0.44461155 </v>
   <v>       0.00000003       0.51797956       0.00000000 </v>
   <v>       0.99999994       0.76797962       0.08892229 </v>
   <v>       0.99999988       0.01797974       0.17784460 </v>
   <v>       0.99999988       0.26797986       0.26676688 </v>
   <v>       0.99999982       0.51797998       0.35568920 </v>
   <v>       0.99999976       0.76798010       0.44461155 </v>
   <v>       0.33333337       0.85131288       0.00000000 </v>
   <v>       0.33333334       0.10131300       0.08892229 </v>
   <v>       0.33333337       0.35131323       0.17784460 </v>
   <v>       0.33333325       0.60131323       0.26676688 </v>
   <v>       0.33333328       0.85131335       0.35568920 </v>
   <v>       0.33333311       0.10131359       0.44461155 </v>
   <v>       0.66666681       0.18464620       0.00000000 </v>
   <v>       0.66666663       0.43464625       0.08892229 </v>
   <v>       0.66666669       0.68464643       0.17784460 </v>
   <v>       0.66666663       0.93464649       0.26676688 </v>
   <v>       0.66666651       0.18464661       0.35568920 </v>
   <v>       0.66666657       0.43464673       0.44461152 </v>
   <v>       0.08333332       0.35131285       0.00000000 </v>
   <v>       0.08333325       0.60131288       0.08892229 </v>
   <v>       0.08333329       0.85131305       0.17784460 </v>
   <v>       0.08333313       0.10131311       0.26676691 </v>
   <v>       0.08333313       0.35131323       0.35568920 </v>
   <v>       0.08333313       0.60131335       0.44461152 </v>
   <v>       0.41666672       0.68464619       0.00000000 </v>
   <v>       0.41666663       0.93464625       0.08892229 </v>
   <v>       0.41666666       0.18464649       0.17784460 </v>
   <v>       0.41666660       0.43464661       0.26676688 </v>
   <v>       0.41666639       0.68464661       0.35568920 </v>
   <v>       0.41666651       0.93464673       0.44461152 </v>
   <v>       0.75000000       0.01797955       0.00000001 </v>
   <v>       0.75000000       0.26797959       0.08892230 </v>
   <v>       0.74999994       0.51797974       0.17784460 </v>
   <v>       0.74999982       0.76797986       0.26676688 </v>
   <v>       0.74999982       0.01797998       0.35568920 </v>
   <v>       0.74999982       0.26798010       0.44461152 </v>
   <v>       0.08333334       0.85131294       0.00000000 </v>
   <v>       0.08333328       0.10131300       0.08892231 </v>
   <v>       0.08333322       0.35131311       0.17784458 </v>
   <v>       0.08333325       0.60131347       0.26676691 </v>
   <v>       0.08333313       0.85131335       0.35568923 </v>
   <v>       0.08333307       0.10131359       0.44461152 </v>
   <v>       0.41666672       0.18464620       0.00000000 </v>
   <v>       0.41666666       0.43464625       0.08892229 </v>
   <v>       0.41666657       0.68464643       0.17784460 </v>
   <v>       0.41666657       0.93464655       0.26676691 </v>
   <v>       0.41666657       0.18464661       0.35568920 </v>
   <v>       0.41666645       0.43464673       0.44461152 </v>
   <v>       0.75000000       0.51797950       0.00000000 </v>
   <v>       0.74999994       0.76797962       0.08892229 </v>
   <v>       0.75000000       0.01797974       0.17784460 </v>
   <v>       0.74999988       0.26797986       0.26676691 </v>
   <v>       0.74999982       0.51797986       0.35568920 </v>
   <v>       0.74999976       0.76798010       0.44461152 </v>
   <v>       0.09678888       0.48763973       0.52848196 </v>
   <v>       0.84678882       0.11263971       0.60601157 </v>
   <v>       0.59678888       0.73763973       0.68354106 </v>
   <v>       0.34678900       0.36263982       0.76107049 </v>
   <v>       0.09678888       0.98763973       0.83860004 </v>
   <v>       0.84678882       0.61263973       0.91612953 </v>
   <v>       0.59678888       0.48763973       0.52848196 </v>
   <v>       0.34678888       0.11263971       0.60601157 </v>
   <v>       0.09678888       0.73763973       0.68354106 </v>
   <v>       0.84678894       0.36263982       0.76107049 </v>
   <v>       0.59678894       0.98763973       0.83860004 </v>
   <v>       0.34678888       0.61263973       0.91612953 </v>
   <v>       0.09678888       0.98763973       0.52848196 </v>
   <v>       0.84678882       0.61263973       0.60601157 </v>
   <v>       0.59678888       0.23763969       0.68354106 </v>
   <v>       0.34678900       0.86263996       0.76107049 </v>
   <v>       0.09678888       0.48763969       0.83860010 </v>
   <v>       0.84678882       0.11263969       0.91612953 </v>
   <v>       0.59678888       0.98763973       0.52848196 </v>
   <v>       0.34678888       0.61263973       0.60601157 </v>
   <v>       0.09678888       0.23763969       0.68354106 </v>
   <v>       0.84678894       0.86263996       0.76107049 </v>
   <v>       0.59678894       0.48763969       0.83860010 </v>
   <v>       0.34678888       0.11263969       0.91612953 </v>
   <v>       0.09678888       0.73763973       0.52848196 </v>
   <v>       0.84678882       0.36263969       0.60601157 </v>
   <v>       0.59678888       0.98763973       0.68354106 </v>
   <v>       0.34678900       0.61263984       0.76107049 </v>
   <v>       0.09678888       0.23763976       0.83860010 </v>
   <v>       0.84678882       0.86263973       0.91612953 </v>
   <v>       0.59678888       0.73763973       0.52848196 </v>
   <v>       0.34678888       0.36263969       0.60601157 </v>
   <v>       0.09678888       0.98763973       0.68354106 </v>
   <v>       0.84678894       0.61263984       0.76107049 </v>
   <v>       0.59678894       0.23763976       0.83860010 </v>
   <v>       0.34678888       0.86263973       0.91612953 </v>
   <v>       0.09678888       0.23763971       0.52848196 </v>
   <v>       0.84678882       0.86263973       0.60601157 </v>
   <v>       0.59678888       0.48763969       0.68354106 </v>
   <v>       0.34678900       0.11263982       0.76107049 </v>
   <v>       0.09678888       0.73763984       0.83860004 </v>
   <v>       0.84678882       0.36263969       0.91612953 </v>
   <v>       0.59678888       0.23763971       0.52848196 </v>
   <v>       0.34678888       0.86263973       0.60601157 </v>
   <v>       0.09678888       0.48763969       0.68354106 </v>
   <v>       0.84678894       0.11263982       0.76107049 </v>
   <v>       0.59678894       0.73763984       0.83860004 </v>
   <v>       0.34678888       0.36263969       0.91612953 </v>
   <v>       0.47178888       0.61263978       0.52848196 </v>
   <v>       0.22178888       0.23763973       0.60601157 </v>
   <v>       0.97178888       0.86263973       0.68354106 </v>
   <v>       0.72178894       0.48763982       0.76107049 </v>
   <v>       0.47178888       0.11263975       0.83860010 </v>
   <v>       0.22178884       0.73763973       0.91612953 </v>
   <v>       0.97178894       0.61263978       0.52848196 </v>
   <v>       0.72178888       0.23763973       0.60601157 </v>
   <v>       0.47178894       0.86263973       0.68354106 </v>
   <v>       0.22178900       0.48763982       0.76107049 </v>
   <v>       0.97178894       0.11263975       0.83860010 </v>
   <v>       0.72178888       0.73763973       0.91612953 </v>
   <v>       0.47178888       0.11263971       0.52848196 </v>
   <v>       0.22178888       0.73763973       0.60601157 </v>
   <v>       0.97178888       0.36263969       0.68354106 </v>
   <v>       0.72178894       0.98763984       0.76107049 </v>
   <v>       0.47178888       0.61263984       0.83860004 </v>
   <v>       0.22178884       0.23763958       0.91612953 </v>
   <v>       0.97178894       0.11263971       0.52848196 </v>
   <v>       0.72178888       0.73763973       0.60601157 </v>
   <v>       0.47178894       0.36263969       0.68354106 </v>
   <v>       0.22178900       0.98763984       0.76107049 </v>
   <v>       0.97178894       0.61263984       0.83860004 </v>
   <v>       0.72178888       0.23763958       0.91612953 </v>
   <v>       0.47178888       0.86263978       0.52848196 </v>
   <v>       0.22178888       0.48763976       0.60601157 </v>
   <v>       0.97178888       0.11263974       0.68354106 </v>
   <v>       0.72178894       0.73763990       0.76107049 </v>
   <v>       0.47178888       0.36263982       0.83860004 </v>
   <v>       0.22178884       0.98763973       0.91612953 </v>
   <v>       0.97178894       0.86263978       0.52848196 </v>
   <v>       0.72178888       0.48763976       0.60601157 </v>
   <v>       0.47178894       0.11263974       0.68354106 </v>
   <v>       0.22178900       0.73763990       0.76107049 </v>
   <v>       0.97178894       0.36263982       0.83860004 </v>
   <v>       0.72178888       0.98763973       0.91612953 </v>
   <v>       0.47178888       0.36263969       0.52848196 </v>
   <v>       0.22178888       0.98763973       0.60601157 </v>
   <v>       0.97178888       0.61263973       0.68354106 </v>
   <v>       0.72178894       0.23763982       0.76107049 </v>
   <v>       0.47178888       0.86263973       0.83860004 </v>
   <v>       0.22178884       0.48763969       0.91612953 </v>
   <v>       0.97178894       0.36263969       0.52848196 </v>
   <v>       0.72178888       0.98763973       0.60601157 </v>
   <v>       0.47178894       0.61263973       0.68354106 </v>
   <v>       0.22178900       0.23763982       0.76107049 </v>
   <v>       0.97178894       0.86263973       0.83860004 </v>
   <v>       0.72178888       0.48763969       0.91612953 </v>
  </varray>
 </structure>
</modeling>
