<?xml version="1.0" encoding="ISO-8859-1"?>
<modeling>
 <generator>
  <i name="program" type="string">vasp </i>
  <i name="version" type="string">6.4.3  </i>
  <i name="subversion" type="string">19Mar24 (build Oct 22 2024 11:23:12) complex                          parallel </i>
  <i name="platform" type="string">LinuxIFC </i>
  <i name="date" type="string">2025 06 07 </i>
  <i name="time" type="string">20:35:20 </i>
 </generator>
 <incar>
  <i type="string" name="SYSTEM">Si and Ge interface calculation</i>
  <i type="int" name="ISTART">     0</i>
  <i type="logical" name="ADDGRID"> T  </i>
  <i type="int" name="ISPIN">     2</i>
  <i name="AMIX">      0.60000000</i>
  <i type="int" name="ICHARG">     2</i>
  <i type="int" name="NELM">   100</i>
  <i name="EDIFF">      0.00000010</i>
  <i name="ENCUT">    700.00000000</i>
  <i name="ENAUG">    900.00000000</i>
  <i type="int" name="NBANDS">   288</i>
  <i name="NUPDOWN">      1.00000000</i>
  <i name="NELECT">    480.00000000</i>
  <i type="string" name="LREAL">AUTO</i>
  <i type="int" name="ISMEAR">     0</i>
  <i name="SIGMA">      0.01000000</i>
  <i type="int" name="LMAXMIX">     6</i>
  <i type="logical" name="LWAVE"> F  </i>
  <i type="logical" name="LVTOT"> F  </i>
  <i type="logical" name="LVHAR"> T  </i>
  <i type="logical" name="LASPH"> T  </i>
  <i type="logical" name="LMIXTAU"> T  </i>
 </incar>
 <primitive_cell>
  <structure name="primitive_cell" >
   <crystal>
    <varray name="basis" >
     <v>      -6.65158868      -0.00000088      -0.00000004 </v>
     <v>       0.00000000       0.00000000       7.00647449 </v>
     <v>      -0.00000071      14.87340729       0.00000004 </v>
    </varray>
    <i name="volume">    693.16304618 </i>
    <varray name="rec_basis" >
     <v>      -0.15034002      -0.00000001       0.00000000 </v>
     <v>      -0.00000000      -0.00000000       0.14272513 </v>
     <v>      -0.00000001       0.06723409       0.00000000 </v>
    </varray>
   </crystal>
   <varray name="positions" >
    <v>       0.98575431       0.99999999       0.98005647 </v>
    <v>       0.81908776       0.17332672       0.74672306 </v>
    <v>       0.65242126       0.34665345       0.51338972 </v>
    <v>       0.65242127       1.00000000       0.31338977 </v>
    <v>       0.48575478       0.17332663       0.08005643 </v>
    <v>       0.31908819       0.34665339       0.84672299 </v>
    <v>       0.31908789       0.00000000       0.64672307 </v>
    <v>       0.15242134       0.17332673       0.41338970 </v>
    <v>       0.98575478       0.34665346       0.18005631 </v>
    <v>       0.31908799       0.08666317       0.94672319 </v>
    <v>       0.15242131       0.25998988       0.71338978 </v>
    <v>       0.98575512       0.43331653       0.48005655 </v>
    <v>       0.98575471       0.08666319       0.28005655 </v>
    <v>       0.81908816       0.25998992       0.04672315 </v>
    <v>       0.65242161       0.43331659       0.81338977 </v>
    <v>       0.65242065       0.08666320       0.61338973 </v>
    <v>       0.48575412       0.25998988       0.38005636 </v>
    <v>       0.31908759       0.43331652       0.14672298 </v>
    <v>       0.26740579       0.80203228       0.05034257 </v>
    <v>       0.26740634       0.57436830       0.65034280 </v>
    <v>       0.76740582       0.68820029       0.35034266 </v>
    <v>       0.83883458       0.80203229       0.19319979 </v>
    <v>       0.83883459       0.57436829       0.79319984 </v>
    <v>       0.33883493       0.68820029       0.49319985 </v>
    <v>       0.41026284       0.80203228       0.33605683 </v>
    <v>       0.41026321       0.57436829       0.93605694 </v>
    <v>       0.91026299       0.68820028       0.63605692 </v>
    <v>       0.98169163       0.80203228       0.47891411 </v>
    <v>       0.98169215       0.57436830       0.07891428 </v>
    <v>       0.48169196       0.68820029       0.77891426 </v>
    <v>       0.55312054       0.80203229       0.62177127 </v>
    <v>       0.55312061       0.57436829       0.22177132 </v>
    <v>       0.05312022       0.68820028       0.92177124 </v>
    <v>       0.12454856       0.80203228       0.76462837 </v>
    <v>       0.12454926       0.57436830       0.36462854 </v>
    <v>       0.62454901       0.68820029       0.06462846 </v>
    <v>       0.69597764       0.80203229       0.90748553 </v>
    <v>       0.69597772       0.57436829       0.50748564 </v>
    <v>       0.19597792       0.68820029       0.20748568 </v>
    <v>       0.62454878       0.85894816       0.36462851 </v>
    <v>       0.62454933       0.63128417       0.96462868 </v>
    <v>       0.12454893       0.74511622       0.66462847 </v>
    <v>       0.91026347       0.85894805       0.93605703 </v>
    <v>       0.91026372       0.63128417       0.53605702 </v>
    <v>       0.41026327       0.74511610       0.23605700 </v>
    <v>       0.48169179       0.85894816       0.07891431 </v>
    <v>       0.48169246       0.63128418       0.67891448 </v>
    <v>       0.98169218       0.74511623       0.37891439 </v>
    <v>       0.05312054       0.85894805       0.22177150 </v>
    <v>       0.05312060       0.63128417       0.82177146 </v>
    <v>       0.55312038       0.74511622       0.52177143 </v>
    <v>       0.19597757       0.85894817       0.50748561 </v>
    <v>       0.19597782       0.63128417       0.10748566 </v>
    <v>       0.69597789       0.74511623       0.80748563 </v>
    <v>       0.76740601       0.85894816       0.65034283 </v>
    <v>       0.76740662       0.63128417       0.25034306 </v>
    <v>       0.26740634       0.74511610       0.95034285 </v>
    <v>       0.33883504       0.85894817       0.79319993 </v>
    <v>       0.33883541       0.63128418       0.39320010 </v>
    <v>       0.83883525       0.74511611       0.09320007 </v>
   </varray>
  </structure>
  <varray name="primitive_index" >
   <v type="int" >        1 </v>
   <v type="int" >        2 </v>
   <v type="int" >        3 </v>
   <v type="int" >       25 </v>
   <v type="int" >       26 </v>
   <v type="int" >       27 </v>
   <v type="int" >       19 </v>
   <v type="int" >       20 </v>
   <v type="int" >       21 </v>
   <v type="int" >       34 </v>
   <v type="int" >       35 </v>
   <v type="int" >       12 </v>
   <v type="int" >       28 </v>
   <v type="int" >       29 </v>
   <v type="int" >       30 </v>
   <v type="int" >       16 </v>
   <v type="int" >       17 </v>
   <v type="int" >       18 </v>
   <v type="int" >       88 </v>
   <v type="int" >       38 </v>
   <v type="int" >       90 </v>
   <v type="int" >       91 </v>
   <v type="int" >       92 </v>
   <v type="int" >       93 </v>
   <v type="int" >       43 </v>
   <v type="int" >       44 </v>
   <v type="int" >       45 </v>
   <v type="int" >       94 </v>
   <v type="int" >       47 </v>
   <v type="int" >       48 </v>
   <v type="int" >       97 </v>
   <v type="int" >       98 </v>
   <v type="int" >       99 </v>
   <v type="int" >       52 </v>
   <v type="int" >       83 </v>
   <v type="int" >       84 </v>
   <v type="int" >       55 </v>
   <v type="int" >       56 </v>
   <v type="int" >       57 </v>
   <v type="int" >      106 </v>
   <v type="int" >       59 </v>
   <v type="int" >      108 </v>
   <v type="int" >      115 </v>
   <v type="int" >      116 </v>
   <v type="int" >      117 </v>
   <v type="int" >       64 </v>
   <v type="int" >      101 </v>
   <v type="int" >      102 </v>
   <v type="int" >       67 </v>
   <v type="int" >       68 </v>
   <v type="int" >       69 </v>
   <v type="int" >      118 </v>
   <v type="int" >      119 </v>
   <v type="int" >      120 </v>
   <v type="int" >       73 </v>
   <v type="int" >      110 </v>
   <v type="int" >       75 </v>
   <v type="int" >       76 </v>
   <v type="int" >       77 </v>
   <v type="int" >       78 </v>
  </varray>
 </primitive_cell>
 <kpoints>
  <generation param="Gamma">
   <v type="int" name="divisions">       3        2        4 </v>
   <v name="usershift">      0.00000000       0.00000000       0.00000000 </v>
   <v name="genvec1">      0.33333333       0.00000000       0.00000000 </v>
   <v name="genvec2">      0.00000000       0.50000000       0.00000000 </v>
   <v name="genvec3">      0.00000000       0.00000000       0.25000000 </v>
   <v name="shift">      0.00000000       0.00000000       0.00000000 </v>
  </generation>
  <varray name="kpointlist" >
   <v>       0.00000000       0.00000000       0.00000000 </v>
   <v>       0.33333333       0.00000000       0.00000000 </v>
   <v>       0.00000000       0.50000000       0.00000000 </v>
   <v>       0.33333333       0.50000000       0.00000000 </v>
   <v>       0.00000000       0.00000000       0.25000000 </v>
   <v>       0.33333333       0.00000000       0.25000000 </v>
   <v>      -0.33333333      -0.00000000       0.25000000 </v>
   <v>       0.00000000       0.50000000       0.25000000 </v>
   <v>       0.33333333       0.50000000       0.25000000 </v>
   <v>      -0.33333333       0.50000000       0.25000000 </v>
   <v>       0.00000000       0.00000000       0.50000000 </v>
   <v>       0.33333333       0.00000000       0.50000000 </v>
   <v>       0.00000000       0.50000000       0.50000000 </v>
   <v>       0.33333333       0.50000000       0.50000000 </v>
  </varray>
  <varray name="weights" >
   <v>       0.04166667 </v>
   <v>       0.08333333 </v>
   <v>       0.04166667 </v>
   <v>       0.08333333 </v>
   <v>       0.08333333 </v>
   <v>       0.08333333 </v>
   <v>       0.08333333 </v>
   <v>       0.08333333 </v>
   <v>       0.08333333 </v>
   <v>       0.08333333 </v>
   <v>       0.04166667 </v>
   <v>       0.08333333 </v>
   <v>       0.04166667 </v>
   <v>       0.08333333 </v>
  </varray>
 </kpoints>
 <parameters>
  <separator name="general" >
   <i type="string" name="SYSTEM">Si and Ge interface calculation</i>
   <i type="logical" name="LCOMPAT"> F  </i>
  </separator>
  <separator name="electronic" >
   <i type="string" name="PREC">normal</i>
   <i name="ENMAX">    700.00000000</i>
   <i name="ENAUG">    900.00000000</i>
   <i name="EDIFF">      0.00000010</i>
   <i type="int" name="IALGO">    38</i>
   <i type="int" name="IWAVPR">    10</i>
   <i type="int" name="NBANDS">   288</i>
   <i type="int" name="NBANDSLOW">    -1</i>
   <i type="int" name="NBANDSHIGH">    -1</i>
   <i name="NELECT">    480.00000000</i>
   <i type="int" name="TURBO">     0</i>
   <i type="int" name="IRESTART">     0</i>
   <i type="int" name="NREBOOT">     0</i>
   <i type="int" name="NMIN">     0</i>
   <i name="EREF">      0.00000000</i>
   <separator name="electronic smearing" >
    <i type="int" name="ISMEAR">     0</i>
    <i name="SIGMA">      0.01000000</i>
    <i name="KSPACING">      0.50000000</i>
    <i type="logical" name="KGAMMA"> T  </i>
    <i type="logical" name="KBLOWUP"> F  </i>
   </separator>
   <separator name="electronic projectors" >
    <i type="logical" name="LREAL"> T  </i>
    <v name="ROPT">     -0.00050000     -0.00050000</v>
    <i type="int" name="LMAXPAW">  -100</i>
    <i type="int" name="LMAXMIX">     6</i>
    <i type="logical" name="NLSPLINE"> F  </i>
   </separator>
   <separator name="electronic startup" >
    <i type="int" name="ISTART">     0</i>
    <i type="int" name="ICHARG">     2</i>
    <i type="int" name="INIWAV">     1</i>
   </separator>
   <separator name="electronic spin" >
    <i type="int" name="ISPIN">     2</i>
    <i type="logical" name="LNONCOLLINEAR"> F  </i>
    <v name="MAGMOM">      0.00833333      0.00833333      0.00833333      0.00833333      0.00833333      0.00833333      0.00833333      0.00833333      0.00833333      0.00833333      0.00833333      0.00833333      0.00833333      0.00833333      0.00833333      0.00833333      0.00833333      0.00833333      0.00833333      0.00833333
      0.00833333      0.00833333      0.00833333      0.00833333      0.00833333      0.00833333      0.00833333      0.00833333      0.00833333      0.00833333      0.00833333      0.00833333      0.00833333      0.00833333      0.00833333      0.00833333      0.00833333      0.00833333      0.00833333      0.00833333
      0.00833333      0.00833333      0.00833333      0.00833333      0.00833333      0.00833333      0.00833333      0.00833333      0.00833333      0.00833333      0.00833333      0.00833333      0.00833333      0.00833333      0.00833333      0.00833333      0.00833333      0.00833333      0.00833333      0.00833333
      0.00833333      0.00833333      0.00833333      0.00833333      0.00833333      0.00833333      0.00833333      0.00833333      0.00833333      0.00833333      0.00833333      0.00833333      0.00833333      0.00833333      0.00833333      0.00833333      0.00833333      0.00833333      0.00833333      0.00833333
      0.00833333      0.00833333      0.00833333      0.00833333      0.00833333      0.00833333      0.00833333      0.00833333      0.00833333      0.00833333      0.00833333      0.00833333      0.00833333      0.00833333      0.00833333      0.00833333      0.00833333      0.00833333      0.00833333      0.00833333
      0.00833333      0.00833333      0.00833333      0.00833333      0.00833333      0.00833333      0.00833333      0.00833333      0.00833333      0.00833333      0.00833333      0.00833333      0.00833333      0.00833333      0.00833333      0.00833333      0.00833333      0.00833333      0.00833333      0.00833333
</v>
    <i name="NUPDOWN">      1.00000000</i>
    <i type="logical" name="LSORBIT"> F  </i>
    <v name="SAXIS">      0.00000000      0.00000000      1.00000000</v>
    <i type="logical" name="LSPIRAL"> F  </i>
    <v name="QSPIRAL">      0.00000000      0.00000000      0.00000000</v>
    <i type="logical" name="LZEROZ"> F  </i>
   </separator>
   <separator name="electronic exchange-correlation" >
    <i type="logical" name="LASPH"> T  </i>
   </separator>
   <separator name="electronic convergence" >
    <i type="int" name="NELM">   100</i>
    <i type="int" name="NELMDL">    -5</i>
    <i type="int" name="NELMIN">     2</i>
    <i name="ENINI">    700.00000000</i>
    <separator name="electronic convergence detail" >
     <i type="logical" name="LDIAG"> T  </i>
     <i type="logical" name="LSUBROT"> F  </i>
     <i name="WEIMIN">      0.00000000</i>
     <i name="EBREAK">      0.00000000</i>
     <i name="DEPER">      0.30000000</i>
     <i type="int" name="NRMM">     4</i>
     <i name="TIME">      0.40000000</i>
    </separator>
   </separator>
   <separator name="electronic mixer" >
    <i name="AMIX">      0.60000000</i>
    <i name="BMIX">      1.00000000</i>
    <i name="AMIN">      0.10000000</i>
    <i name="AMIX_MAG">      2.40000000</i>
    <i name="BMIX_MAG">      1.00000000</i>
    <separator name="electronic mixer details" >
     <i type="int" name="IMIX">     4</i>
     <i type="logical" name="MIXFIRST"> F  </i>
     <i type="int" name="MAXMIX">   -45</i>
     <i name="WC">    100.00000000</i>
     <i type="int" name="INIMIX">     1</i>
     <i type="int" name="MIXPRE">     1</i>
     <i type="int" name="MREMOVE">     5</i>
    </separator>
   </separator>
   <separator name="electronic dipolcorrection" >
    <i type="logical" name="LDIPOL"> F  </i>
    <i type="logical" name="LMONO"> F  </i>
    <i type="int" name="IDIPOL">     0</i>
    <i name="EPSILON">      1.00000000</i>
    <v name="DIPOL">   -100.00000000   -100.00000000   -100.00000000</v>
    <i name="EFIELD">      0.00000000</i>
    <i type="logical" name="LVACPOTAV"> F  </i>
   </separator>
  </separator>
  <separator name="grids" >
   <i type="int" name="NGX">    90</i>
   <i type="int" name="NGY">   108</i>
   <i type="int" name="NGZ">    48</i>
   <i type="int" name="NGXF">   180</i>
   <i type="int" name="NGYF">   216</i>
   <i type="int" name="NGZF">    96</i>
   <i type="logical" name="ADDGRID"> T  </i>
  </separator>
  <separator name="ionic" >
   <i type="int" name="NSW">     0</i>
   <i type="int" name="IBRION">    -1</i>
   <i type="int" name="MDALGO">     0</i>
   <i type="int" name="ISIF">     2</i>
   <i name="PSTRESS">      0.00000000</i>
   <i name="EDIFFG">      0.00000100</i>
   <i type="int" name="NFREE">     0</i>
   <i name="POTIM">      0.50000000</i>
   <i name="SMASS">     -3.00000000</i>
   <i name="SCALEE">      1.00000000</i>
  </separator>
  <separator name="ionic md" >
   <i name="TEBEG">      0.00010000</i>
   <i name="TEEND">      0.00010000</i>
   <i type="int" name="NBLOCK">     1</i>
   <i type="int" name="KBLOCK">     1</i>
   <i type="int" name="NPACO">   256</i>
   <i name="APACO">     10.00000000</i>
  </separator>
  <separator name="symmetry" >
   <i type="int" name="ISYM">     2</i>
   <i name="SYMPREC">      0.00001000</i>
  </separator>
  <separator name="dos" >
   <i type="int" name="LORBIT">     0</i>
   <v name="RWIGS">     -1.00000000     -1.00000000</v>
   <i type="int" name="NEDOS">   301</i>
   <i name="EMIN">     10.00000000</i>
   <i name="EMAX">    -10.00000000</i>
   <i name="EFERMI">      0.00000000</i>
  </separator>
  <separator name="writing" >
   <i type="int" name="NWRITE">     2</i>
   <i type="logical" name="LWAVE"> F  </i>
   <i type="logical" name="LDOWNSAMPLE"> F  </i>
   <i type="logical" name="LCHARG"> T  </i>
   <i type="logical" name="LPARD"> F  </i>
   <i type="logical" name="LVTOT"> F  </i>
   <i type="logical" name="LVHAR"> T  </i>
   <i type="logical" name="LELF"> F  </i>
   <i type="logical" name="LOPTICS"> F  </i>
   <v name="STM">      0.00000000      0.00000000      0.00000000      0.00000000      0.00000000      0.00000000      0.00000000</v>
  </separator>
  <separator name="performance" >
   <i type="int" name="NPAR">     4</i>
   <i type="int" name="NSIM">     4</i>
   <i type="int" name="NBLK">    -1</i>
   <i type="logical" name="LPLANE"> T  </i>
   <i type="logical" name="LSCALAPACK"> T  </i>
   <i type="logical" name="LSCAAWARE"> F  </i>
   <i type="logical" name="LSCALU"> F  </i>
   <i type="logical" name="LASYNC"> F  </i>
   <i type="logical" name="LORBITALREAL"> F  </i>
  </separator>
  <separator name="miscellaneous" >
   <i type="int" name="IDIOT">     3</i>
   <i type="int" name="PHON_NSTRUCT">    -1</i>
   <i type="logical" name="LMUSIC"> F  </i>
   <v name="POMASS">     28.08500000     12.01100000</v>
   <v name="DARWINR">      0.00000000      0.00000000</v>
   <v name="DARWINV">      1.00000000      1.00000000</v>
   <i type="logical" name="LCORR"> T  </i>
  </separator>
  <i type="logical" name="GGA_COMPAT"> T  </i>
  <i type="logical" name="LBERRY"> F  </i>
  <i type="int" name="ICORELEVEL">     0</i>
  <i type="logical" name="LDAU"> F  </i>
  <i type="int" name="I_CONSTRAINED_M">     0</i>
  <separator name="electronic exchange-correlation" >
   <i type="string" name="GGA    ">PE</i>
   <i type="string" name="XC_C">1</i>
   <i type="int" name="VOSKOWN">     0</i>
   <i type="logical" name="LHFCALC"> F  </i>
   <i type="string" name="PRECFOCK"></i>
   <i type="logical" name="LSYMGRAD"> F  </i>
   <i type="logical" name="LHFONE"> F  </i>
   <i type="logical" name="LRHFCALC"> F  </i>
   <i type="logical" name="LTHOMAS"> F  </i>
   <i type="logical" name="LMODELHF"> F  </i>
   <i type="logical" name="LFOCKACE"> F  </i>
   <i name="ENCUT4O">     -1.00000000</i>
   <i type="int" name="EXXOEP">     0</i>
   <i type="int" name="FOURORBIT">     0</i>
   <i name="AEXX">      0.00000000</i>
   <i name="HFALPHA">      0.00000000</i>
   <i name="MCALPHA">      0.00000000</i>
   <i name="ALDAX">      1.00000000</i>
   <i name="AGGAX">      1.00000000</i>
   <i name="AMGGAX">      1.00000000</i>
   <i name="ALDAC">      1.00000000</i>
   <i name="AGGAC">      1.00000000</i>
   <i name="AMGGAC">      1.00000000</i>
   <i type="int" name="NKREDX">     1</i>
   <i type="int" name="NKREDY">     1</i>
   <i type="int" name="NKREDZ">     1</i>
   <i type="logical" name="SHIFTRED"> F  </i>
   <i type="logical" name="ODDONLY"> F  </i>
   <i type="logical" name="EVENONLY"> F  </i>
   <i type="int" name="LMAXFOCK">     0</i>
   <i type="int" name="NMAXFOCKAE">     0</i>
   <i type="logical" name="LFOCKAEDFT"> F  </i>
   <i name="HFSCREEN">      0.00000000</i>
   <i name="HFSCREENC">      0.00000000</i>
   <i type="int" name="NBANDSGWLOW">     0</i>
  </separator>
  <separator name="vdW DFT" >
   <i type="logical" name="LUSE_VDW"> F  </i>
   <i type="int" name="IVDW_NL">    -1</i>
   <i type="logical" name="LSPIN_VDW"> F  </i>
   <i name="ZAB_VDW">     -0.84910000</i>
   <i name="GAMMA_VDW">      1.39626340</i>
   <i name="ALPHA_VDW">      0.00000000</i>
   <i name="PARAM1">      0.12340000</i>
   <i name="PARAM2">      1.00000000</i>
   <i name="BPARAM">      6.30000000</i>
   <i name="CPARAM">      0.00930000</i>
  </separator>
  <separator name="model GW" >
   <i type="int" name="MODEL_GW">     0</i>
   <i name="MODEL_EPS0">      6.93163129</i>
   <i name="MODEL_ALPHA">      1.00000000</i>
  </separator>
  <separator name="linear response parameters" >
   <i type="logical" name="LEPSILON"> F  </i>
   <i type="logical" name="LRPA"> F  </i>
   <i type="logical" name="LNABLA"> F  </i>
   <i type="logical" name="LVEL"> F  </i>
   <i name="CSHIFT">      0.10000000</i>
   <i name="OMEGAMAX">     -1.00000000</i>
   <i name="DEG_THRESHOLD">      0.00200000</i>
   <i name="RTIME">     -0.10000000</i>
   <i name="WPLASMAI">      0.00000000</i>
   <v name="DFIELD">      0.00000000      0.00000000      0.00000000</v>
   <v name="WPLASMA">      0.00000000      0.00000000      0.00000000      0.00000000      0.00000000      0.00000000      0.00000000      0.00000000      0.00000000</v>
  </separator>
  <separator name="orbital magnetization" >
   <i type="logical" name="NUCIND"> F  </i>
   <v name="MAGPOS">      0.00000000      0.00000000      0.00000000</v>
   <i type="logical" name="LNICSALL"> T  </i>
   <i type="logical" name="ORBITALMAG"> F  </i>
   <i type="logical" name="LMAGBLOCH"> F  </i>
   <i type="logical" name="LCHIMAG"> F  </i>
   <i type="logical" name="LGAUGE"> T  </i>
   <i type="int" name="MAGATOM">     0</i>
   <v name="MAGDIPOL">      0.00000000      0.00000000      0.00000000</v>
   <v name="AVECCONST">      0.00000000      0.00000000      0.00000000</v>
  </separator>
  <separator name="response functions" >
   <i type="logical" name="LALL_IN_ONE"> F  </i>
   <i type="int" name="IALL_IN_ONE">    -1</i>
   <i type="int" name="NBANDS_WAVE">    -1</i>
   <i type="logical" name="LFINITE_TEMPERATURE"> F  </i>
   <i type="logical" name="LADDER"> F  </i>
   <i type="logical" name="LRPAFORCE"> F  </i>
   <i type="logical" name="LFXC"> F  </i>
   <i type="logical" name="LHARTREE"> T  </i>
   <i type="int" name="IBSE">     0</i>
   <v type="int" name="KPOINT">    -1     0     0     0</v>
   <i type="logical" name="LTCTC"> F  </i>
   <i type="logical" name="LTCTE"> F  </i>
   <i type="logical" name="LTETE"> F  </i>
   <i type="logical" name="LTRIPLET"> F  </i>
   <i type="logical" name="LFXCEPS"> F  </i>
   <i type="logical" name="LFXHEG"> F  </i>
   <i type="int" name="NATURALO">     2</i>
   <i type="logical" name="LHOLEGF"> F  </i>
   <i type="logical" name="L2ORDER"> F  </i>
   <i type="logical" name="LDMP1"> F  </i>
   <i type="logical" name="LMP2LT"> F  </i>
   <i type="logical" name="LSMP2LT"> F  </i>
   <i type="logical" name="LGWLF"> F  </i>
   <i name="ENCUTGW">     -1.60000002</i>
   <i name="ENCUTGWSOFT">     -1.60000002</i>
   <i name="ENCUTLF">     -1.00000000</i>
   <i type="logical" name="ESF_SPLINES"> F  </i>
   <i name="ESF_CONV">      0.01000000</i>
   <i type="int" name="ESF_NINTER">    15</i>
   <i type="int" name="LMAXMP2">    -1</i>
   <i name="SCISSOR">      0.00000000</i>
   <i type="int" name="NOMEGA">     0</i>
   <i type="int" name="NOMEGAR">     0</i>
   <i type="int" name="NBANDSGW">    -1</i>
   <i type="int" name="NBANDSO">    -1</i>
   <i type="int" name="NBANDSV">    -1</i>
   <i type="int" name="NELMGW">     1</i>
   <i type="int" name="NELMHF">     1</i>
   <i type="int" name="DIM">     3</i>
   <i type="int" name="IESPILON">     4</i>
   <i type="int" name="ANTIRES">     0</i>
   <i name="OMEGAMAX">    -30.00000000</i>
   <i name="OMEGAMIN">    -30.00000000</i>
   <i name="OMEGATL">   -200.00000000</i>
   <i type="int" name="OMEGAGRID">     0</i>
   <i name="CSHIFT">     -0.10000000</i>
   <i type="logical" name="LSELFENERGY"> F  </i>
   <i type="logical" name="LSPECTRAL"> F  </i>
   <i type="logical" name="LSPECTRALGW"> F  </i>
   <i type="logical" name="LSINGLES"> F  </i>
   <i type="logical" name="LFERMIGW"> F  </i>
   <i type="logical" name="ODDONLYGW"> F  </i>
   <i type="logical" name="EVENONLYGW"> F  </i>
   <i type="int" name="NKREDLFX">     1</i>
   <i type="int" name="NKREDLFY">     1</i>
   <i type="int" name="NKREDLFZ">     1</i>
   <i type="int" name="MAXMEM">  2800</i>
   <i type="int" name="TELESCOPE">     0</i>
   <i type="int" name="NTAUPAR">    -1</i>
   <i type="int" name="NOMEGAPAR">    -1</i>
   <i name="DAMP_NEWTON">      0.80000001</i>
   <i name="LAMBDA">      1.00000000</i>
  </separator>
  <separator name="External order field" >
   <i name="OFIELD_KAPPA">      0.00000000</i>
   <v name="OFIELD_K">      0.00000000      0.00000000      0.00000000</v>
   <i name="OFIELD_Q6_NEAR">      0.00000000</i>
   <i name="OFIELD_Q6_FAR">      0.00000000</i>
   <i name="OFIELD_A">      0.00000000</i>
  </separator>
  <separator name="optional k-points parameters" >
   <i type="int" name="KPOINTS_OPT_MODE">     1</i>
   <i type="logical" name="LKPOINTS_OPT"> F  </i>
  </separator>
 </parameters>
 <atominfo>
  <atoms>     120 </atoms>
  <types>       2 </types>
  <array name="atoms" >
   <dimension dim="1">ion</dimension>
   <field type="string">element</field>
   <field type="int">atomtype</field>
   <set>
    <rc><c>Si</c><c>   1</c></rc>
    <rc><c>Si</c><c>   1</c></rc>
    <rc><c>Si</c><c>   1</c></rc>
    <rc><c>Si</c><c>   1</c></rc>
    <rc><c>Si</c><c>   1</c></rc>
    <rc><c>Si</c><c>   1</c></rc>
    <rc><c>Si</c><c>   1</c></rc>
    <rc><c>Si</c><c>   1</c></rc>
    <rc><c>Si</c><c>   1</c></rc>
    <rc><c>Si</c><c>   1</c></rc>
    <rc><c>Si</c><c>   1</c></rc>
    <rc><c>Si</c><c>   1</c></rc>
    <rc><c>Si</c><c>   1</c></rc>
    <rc><c>Si</c><c>   1</c></rc>
    <rc><c>Si</c><c>   1</c></rc>
    <rc><c>Si</c><c>   1</c></rc>
    <rc><c>Si</c><c>   1</c></rc>
    <rc><c>Si</c><c>   1</c></rc>
    <rc><c>Si</c><c>   1</c></rc>
    <rc><c>Si</c><c>   1</c></rc>
    <rc><c>Si</c><c>   1</c></rc>
    <rc><c>Si</c><c>   1</c></rc>
    <rc><c>Si</c><c>   1</c></rc>
    <rc><c>Si</c><c>   1</c></rc>
    <rc><c>Si</c><c>   1</c></rc>
    <rc><c>Si</c><c>   1</c></rc>
    <rc><c>Si</c><c>   1</c></rc>
    <rc><c>Si</c><c>   1</c></rc>
    <rc><c>Si</c><c>   1</c></rc>
    <rc><c>Si</c><c>   1</c></rc>
    <rc><c>Si</c><c>   1</c></rc>
    <rc><c>Si</c><c>   1</c></rc>
    <rc><c>Si</c><c>   1</c></rc>
    <rc><c>Si</c><c>   1</c></rc>
    <rc><c>Si</c><c>   1</c></rc>
    <rc><c>Si</c><c>   1</c></rc>
    <rc><c>C </c><c>   2</c></rc>
    <rc><c>C </c><c>   2</c></rc>
    <rc><c>C </c><c>   2</c></rc>
    <rc><c>C </c><c>   2</c></rc>
    <rc><c>C </c><c>   2</c></rc>
    <rc><c>C </c><c>   2</c></rc>
    <rc><c>C </c><c>   2</c></rc>
    <rc><c>C </c><c>   2</c></rc>
    <rc><c>C </c><c>   2</c></rc>
    <rc><c>C </c><c>   2</c></rc>
    <rc><c>C </c><c>   2</c></rc>
    <rc><c>C </c><c>   2</c></rc>
    <rc><c>C </c><c>   2</c></rc>
    <rc><c>C </c><c>   2</c></rc>
    <rc><c>C </c><c>   2</c></rc>
    <rc><c>C </c><c>   2</c></rc>
    <rc><c>C </c><c>   2</c></rc>
    <rc><c>C </c><c>   2</c></rc>
    <rc><c>C </c><c>   2</c></rc>
    <rc><c>C </c><c>   2</c></rc>
    <rc><c>C </c><c>   2</c></rc>
    <rc><c>C </c><c>   2</c></rc>
    <rc><c>C </c><c>   2</c></rc>
    <rc><c>C </c><c>   2</c></rc>
    <rc><c>C </c><c>   2</c></rc>
    <rc><c>C </c><c>   2</c></rc>
    <rc><c>C </c><c>   2</c></rc>
    <rc><c>C </c><c>   2</c></rc>
    <rc><c>C </c><c>   2</c></rc>
    <rc><c>C </c><c>   2</c></rc>
    <rc><c>C </c><c>   2</c></rc>
    <rc><c>C </c><c>   2</c></rc>
    <rc><c>C </c><c>   2</c></rc>
    <rc><c>C </c><c>   2</c></rc>
    <rc><c>C </c><c>   2</c></rc>
    <rc><c>C </c><c>   2</c></rc>
    <rc><c>C </c><c>   2</c></rc>
    <rc><c>C </c><c>   2</c></rc>
    <rc><c>C </c><c>   2</c></rc>
    <rc><c>C </c><c>   2</c></rc>
    <rc><c>C </c><c>   2</c></rc>
    <rc><c>C </c><c>   2</c></rc>
    <rc><c>C </c><c>   2</c></rc>
    <rc><c>C </c><c>   2</c></rc>
    <rc><c>C </c><c>   2</c></rc>
    <rc><c>C </c><c>   2</c></rc>
    <rc><c>C </c><c>   2</c></rc>
    <rc><c>C </c><c>   2</c></rc>
    <rc><c>C </c><c>   2</c></rc>
    <rc><c>C </c><c>   2</c></rc>
    <rc><c>C </c><c>   2</c></rc>
    <rc><c>C </c><c>   2</c></rc>
    <rc><c>C </c><c>   2</c></rc>
    <rc><c>C </c><c>   2</c></rc>
    <rc><c>C </c><c>   2</c></rc>
    <rc><c>C </c><c>   2</c></rc>
    <rc><c>C </c><c>   2</c></rc>
    <rc><c>C </c><c>   2</c></rc>
    <rc><c>C </c><c>   2</c></rc>
    <rc><c>C </c><c>   2</c></rc>
    <rc><c>C </c><c>   2</c></rc>
    <rc><c>C </c><c>   2</c></rc>
    <rc><c>C </c><c>   2</c></rc>
    <rc><c>C </c><c>   2</c></rc>
    <rc><c>C </c><c>   2</c></rc>
    <rc><c>C </c><c>   2</c></rc>
    <rc><c>C </c><c>   2</c></rc>
    <rc><c>C </c><c>   2</c></rc>
    <rc><c>C </c><c>   2</c></rc>
    <rc><c>C </c><c>   2</c></rc>
    <rc><c>C </c><c>   2</c></rc>
    <rc><c>C </c><c>   2</c></rc>
    <rc><c>C </c><c>   2</c></rc>
    <rc><c>C </c><c>   2</c></rc>
    <rc><c>C </c><c>   2</c></rc>
    <rc><c>C </c><c>   2</c></rc>
    <rc><c>C </c><c>   2</c></rc>
    <rc><c>C </c><c>   2</c></rc>
    <rc><c>C </c><c>   2</c></rc>
    <rc><c>C </c><c>   2</c></rc>
    <rc><c>C </c><c>   2</c></rc>
    <rc><c>C </c><c>   2</c></rc>
    <rc><c>C </c><c>   2</c></rc>
    <rc><c>C </c><c>   2</c></rc>
   </set>
  </array>
  <array name="atomtypes" >
   <dimension dim="1">type</dimension>
   <field type="int">atomspertype</field>
   <field type="string">element</field>
   <field>mass</field>
   <field>valence</field>
   <field type="string">pseudopotential</field>
   <set>
    <rc><c>  36</c><c>Si</c><c>     28.08500000</c><c>      4.00000000</c><c>  PAW_PBE Si 05Jan2001                  </c></rc>
    <rc><c>  84</c><c>C </c><c>     12.01100000</c><c>      4.00000000</c><c>  PAW_PBE C 08Apr2002                   </c></rc>
   </set>
  </array>
 </atominfo>
 <structure name="initialpos" >
  <crystal>
   <varray name="basis" >
    <v>      13.30317974       0.00000000       0.00000000 </v>
    <v>      -6.65158939      14.87340641       0.00000000 </v>
    <v>       0.00000000       0.00000000       7.00647449 </v>
   </varray>
   <i name="volume">   1386.32625871 </i>
   <varray name="rec_basis" >
    <v>       0.07517000       0.03361704       0.00000000 </v>
    <v>       0.00000000       0.06723409       0.00000000 </v>
    <v>       0.00000000       0.00000000       0.14272513 </v>
   </varray>
  </crystal>
  <varray name="positions" >
   <v>       0.99715096       0.98005658       0.00000000 </v>
   <v>       0.96381754       0.74672317       0.17332673 </v>
   <v>       0.93048412       0.51338983       0.34665346 </v>
   <v>       0.33048421       0.31338987       0.00000000 </v>
   <v>       0.29715079       0.08005647       0.17332673 </v>
   <v>       0.26381737       0.84672308       0.34665346 </v>
   <v>       0.66381747       0.64672315       0.00000000 </v>
   <v>       0.63048405       0.41338971       0.17332673 </v>
   <v>       0.59715062       0.18005633       0.34665346 </v>
   <v>       0.31381753       0.94672334       0.08666318 </v>
   <v>       0.28048411       0.71338999       0.25998992 </v>
   <v>       0.24715069       0.48005658       0.43331653 </v>
   <v>       0.64715082       0.28005657       0.08666318 </v>
   <v>       0.61381739       0.04672319       0.25998989 </v>
   <v>       0.58048397       0.81338978       0.43331659 </v>
   <v>       0.98048443       0.61338985       0.08666321 </v>
   <v>       0.94715101       0.38005647       0.25998989 </v>
   <v>       0.91381758       0.14672309       0.43331653 </v>
   <v>       0.16381757       0.64672309       0.00000000 </v>
   <v>       0.13048416       0.41338971       0.17332673 </v>
   <v>       0.09715075       0.18005632       0.34665346 </v>
   <v>       0.49715090       0.98005664       0.00000001 </v>
   <v>       0.46381742       0.74672317       0.17332664 </v>
   <v>       0.43048406       0.51338983       0.34665340 </v>
   <v>       0.83048415       0.31338987       0.00000001 </v>
   <v>       0.79715073       0.08005653       0.17332664 </v>
   <v>       0.76381731       0.84672308       0.34665340 </v>
   <v>       0.14715090       0.28005657       0.08666319 </v>
   <v>       0.11381748       0.04672317       0.25998992 </v>
   <v>       0.08048407       0.81338978       0.43331659 </v>
   <v>       0.48048422       0.61338991       0.08666319 </v>
   <v>       0.44715083       0.38005653       0.25998989 </v>
   <v>       0.41381741       0.14672317       0.43331659 </v>
   <v>       0.81381750       0.94672328       0.08666318 </v>
   <v>       0.78048414       0.71338987       0.25998989 </v>
   <v>       0.74715072       0.48005646       0.43331659 </v>
   <v>       0.39146835       0.05034280       0.80203229 </v>
   <v>       0.19146821       0.65034282       0.57436830 </v>
   <v>       0.29146826       0.35034278       0.68820030 </v>
   <v>       0.67718267       0.19319987       0.80203229 </v>
   <v>       0.47718245       0.79319996       0.57436830 </v>
   <v>       0.57718259       0.49319991       0.68820030 </v>
   <v>       0.96289688       0.33605695       0.80203229 </v>
   <v>       0.76289678       0.93605703       0.57436830 </v>
   <v>       0.86289686       0.63605702       0.68820030 </v>
   <v>       0.24861121       0.47891420       0.80203229 </v>
   <v>       0.04861106       0.07891429       0.57436830 </v>
   <v>       0.14861113       0.77891427       0.68820030 </v>
   <v>       0.53432548       0.62177134       0.80203229 </v>
   <v>       0.33432531       0.22177145       0.57436830 </v>
   <v>       0.43432540       0.92177141       0.68820030 </v>
   <v>       0.82003981       0.76462847       0.80203229 </v>
   <v>       0.62003958       0.36462858       0.57436830 </v>
   <v>       0.72003967       0.06462860       0.68820030 </v>
   <v>       0.10575394       0.90748555       0.80203229 </v>
   <v>       0.90575385       0.50748575       0.57436830 </v>
   <v>       0.00575388       0.20748568       0.68820030 </v>
   <v>       0.37003979       0.36462855       0.85894817 </v>
   <v>       0.17003965       0.96462870       0.63128418 </v>
   <v>       0.27003974       0.66462868       0.74511612 </v>
   <v>       0.51289689       0.93605709       0.85894817 </v>
   <v>       0.31289673       0.53605717       0.63128418 </v>
   <v>       0.41289678       0.23605713       0.74511612 </v>
   <v>       0.79861116       0.07891440       0.85894817 </v>
   <v>       0.59861094       0.67891449       0.63128418 </v>
   <v>       0.69861102       0.37891442       0.74511623 </v>
   <v>       0.08432547       0.22177151       0.85894805 </v>
   <v>       0.88432532       0.82177156       0.63128418 </v>
   <v>       0.98432541       0.52177155       0.74511623 </v>
   <v>       0.65575409       0.50748563       0.85894817 </v>
   <v>       0.45575392       0.10748577       0.63128418 </v>
   <v>       0.55575401       0.80748564       0.74511612 </v>
   <v>       0.94146830       0.65034294       0.85894817 </v>
   <v>       0.74146813       0.25034302       0.63128418 </v>
   <v>       0.84146816       0.95034295       0.74511612 </v>
   <v>       0.22718242       0.79319996       0.85894817 </v>
   <v>       0.02718234       0.39320010       0.63128418 </v>
   <v>       0.12718239       0.09320009       0.74511612 </v>
   <v>       0.46289694       0.33605692       0.80203229 </v>
   <v>       0.26289672       0.93605709       0.57436830 </v>
   <v>       0.36289683       0.63605702       0.68820030 </v>
   <v>       0.32003975       0.76462847       0.80203229 </v>
   <v>       0.12003963       0.36462855       0.57436830 </v>
   <v>       0.22003970       0.06462848       0.68820030 </v>
   <v>       0.60575402       0.90748555       0.80203229 </v>
   <v>       0.40575385       0.50748569       0.57436830 </v>
   <v>       0.50575393       0.20748565       0.68820030 </v>
   <v>       0.89146829       0.05034268       0.80203229 </v>
   <v>       0.69146812       0.65034276       0.57436830 </v>
   <v>       0.79146832       0.35034275       0.68820030 </v>
   <v>       0.17718258       0.19319981       0.80203229 </v>
   <v>       0.97718251       0.79319996       0.57436830 </v>
   <v>       0.07718245       0.49319986       0.68820030 </v>
   <v>       0.74861115       0.47891420       0.80203229 </v>
   <v>       0.54861099       0.07891429       0.57436830 </v>
   <v>       0.64861113       0.77891421       0.68820030 </v>
   <v>       0.03432536       0.62177128       0.80203229 </v>
   <v>       0.83432525       0.22177142       0.57436830 </v>
   <v>       0.93432540       0.92177135       0.68820030 </v>
   <v>       0.29861116       0.07891440       0.85894817 </v>
   <v>       0.09861100       0.67891449       0.63128418 </v>
   <v>       0.19861108       0.37891442       0.74511623 </v>
   <v>       0.58432549       0.22177148       0.85894817 </v>
   <v>       0.38432530       0.82177156       0.63128418 </v>
   <v>       0.48432541       0.52177155       0.74511623 </v>
   <v>       0.87003976       0.36462861       0.85894817 </v>
   <v>       0.67003959       0.96462870       0.63128418 </v>
   <v>       0.77003968       0.66462857       0.74511623 </v>
   <v>       0.44146833       0.65034300       0.85894817 </v>
   <v>       0.24146819       0.25034308       0.63128418 </v>
   <v>       0.34146821       0.95034301       0.74511612 </v>
   <v>       0.72718263       0.79320008       0.85894805 </v>
   <v>       0.52718246       0.39320016       0.63128418 </v>
   <v>       0.62718248       0.09320009       0.74511623 </v>
   <v>       0.01289678       0.93605703       0.85894805 </v>
   <v>       0.81289655       0.53605711       0.63128418 </v>
   <v>       0.91289675       0.23605710       0.74511612 </v>
   <v>       0.15575400       0.50748563       0.85894817 </v>
   <v>       0.95575380       0.10748577       0.63128418 </v>
   <v>       0.05575386       0.80748564       0.74511623 </v>
  </varray>
 </structure>
 <calculation>
  <scstep>
   <time name="dav">   23.60   23.81</time>
   <time name="total">   24.24   24.45</time>
   <energy>
    <i name="alphaZ">    702.18941336 </i>
    <i name="ewald"> -10813.95677735 </i>
    <i name="hartreedc">  -6781.80053317 </i>
    <i name="XCdc">    765.25341962 </i>
    <i name="pawpsdc">  12288.30765307 </i>
    <i name="pawaedc"> -11702.77953025 </i>
    <i name="eentropy">     -0.00135106 </i>
    <i name="bandstr">   1888.49159799 </i>
    <i name="atom">  16071.23009607 </i>
    <i name="e_fr_energy">   2416.93398828 </i>
    <i name="e_wo_entrp">   2416.93533935 </i>
    <i name="e_0_energy">   2416.93466382 </i>
   </energy>
  </scstep>
  <scstep>
   <time name="dav">   27.60   27.88</time>
   <time name="total">   27.61   27.89</time>
   <energy>
    <i name="e_fr_energy">   -536.49286786 </i>
    <i name="e_wo_entrp">   -536.49200328 </i>
    <i name="e_0_energy">   -536.49243557 </i>
   </energy>
  </scstep>
  <scstep>
   <time name="dav">   27.68   27.92</time>
   <time name="total">   27.68   27.93</time>
   <energy>
    <i name="e_fr_energy">   -835.15578036 </i>
    <i name="e_wo_entrp">   -835.15434712 </i>
    <i name="e_0_energy">   -835.15506374 </i>
   </energy>
  </scstep>
  <scstep>
   <time name="dav">   28.21   28.45</time>
   <time name="total">   28.21   28.45</time>
   <energy>
    <i name="e_fr_energy">   -848.53110900 </i>
    <i name="e_wo_entrp">   -848.52910116 </i>
    <i name="e_0_energy">   -848.53010508 </i>
   </energy>
  </scstep>
  <scstep>
   <time name="dav">   29.25   29.55</time>
   <time name="total">   30.26   30.57</time>
   <energy>
    <i name="e_fr_energy">   -849.11849765 </i>
    <i name="e_wo_entrp">   -849.11648735 </i>
    <i name="e_0_energy">   -849.11749250 </i>
   </energy>
  </scstep>
  <scstep>
   <time name="dav">   29.14   29.42</time>
   <time name="total">   30.77   31.05</time>
   <energy>
    <i name="e_fr_energy">   -802.66776032 </i>
    <i name="e_wo_entrp">   -802.66653986 </i>
    <i name="e_0_energy">   -802.66715009 </i>
   </energy>
  </scstep>
  <scstep>
   <time name="dav">   27.94   28.20</time>
   <time name="total">   29.57   29.84</time>
   <energy>
    <i name="e_fr_energy">   -784.20435491 </i>
    <i name="e_wo_entrp">   -784.20248919 </i>
    <i name="e_0_energy">   -784.20342205 </i>
   </energy>
  </scstep>
  <scstep>
   <time name="dav">   29.10   29.36</time>
   <time name="total">   30.73   31.00</time>
   <energy>
    <i name="e_fr_energy">   -786.85874758 </i>
    <i name="e_wo_entrp">   -786.85667632 </i>
    <i name="e_0_energy">   -786.85771195 </i>
   </energy>
  </scstep>
  <scstep>
   <time name="dav">   28.51   28.76</time>
   <time name="total">   30.14   30.40</time>
   <energy>
    <i name="e_fr_energy">   -784.17771424 </i>
    <i name="e_wo_entrp">   -784.17559311 </i>
    <i name="e_0_energy">   -784.17665368 </i>
   </energy>
  </scstep>
  <scstep>
   <time name="dav">   27.84   28.08</time>
   <time name="total">   29.47   29.73</time>
   <energy>
    <i name="e_fr_energy">   -783.92439399 </i>
    <i name="e_wo_entrp">   -783.92245042 </i>
    <i name="e_0_energy">   -783.92342221 </i>
   </energy>
  </scstep>
  <scstep>
   <time name="dav">   27.79   28.03</time>
   <time name="total">   29.42   29.68</time>
   <energy>
    <i name="e_fr_energy">   -783.85246082 </i>
    <i name="e_wo_entrp">   -783.85015903 </i>
    <i name="e_0_energy">   -783.85130992 </i>
   </energy>
  </scstep>
  <scstep>
   <time name="dav">   27.01   27.29</time>
   <time name="total">   28.64   28.93</time>
   <energy>
    <i name="e_fr_energy">   -783.85500562 </i>
    <i name="e_wo_entrp">   -783.85308297 </i>
    <i name="e_0_energy">   -783.85404430 </i>
   </energy>
  </scstep>
  <scstep>
   <time name="dav">   27.92   28.21</time>
   <time name="total">   29.54   29.84</time>
   <energy>
    <i name="e_fr_energy">   -783.85646635 </i>
    <i name="e_wo_entrp">   -783.85425730 </i>
    <i name="e_0_energy">   -783.85536183 </i>
   </energy>
  </scstep>
  <scstep>
   <time name="dav">   27.93   28.19</time>
   <time name="total">   29.57   29.83</time>
   <energy>
    <i name="e_fr_energy">   -783.85013226 </i>
    <i name="e_wo_entrp">   -783.84815131 </i>
    <i name="e_0_energy">   -783.84914178 </i>
   </energy>
  </scstep>
  <scstep>
   <time name="dav">   28.07   28.32</time>
   <time name="total">   29.70   29.96</time>
   <energy>
    <i name="e_fr_energy">   -783.84854137 </i>
    <i name="e_wo_entrp">   -783.84654383 </i>
    <i name="e_0_energy">   -783.84754260 </i>
   </energy>
  </scstep>
  <scstep>
   <time name="dav">   27.04   27.28</time>
   <time name="total">   28.66   28.91</time>
   <energy>
    <i name="e_fr_energy">   -783.84846802 </i>
    <i name="e_wo_entrp">   -783.84657307 </i>
    <i name="e_0_energy">   -783.84752055 </i>
   </energy>
  </scstep>
  <scstep>
   <time name="dav">   27.87   28.13</time>
   <time name="total">   29.50   29.76</time>
   <energy>
    <i name="e_fr_energy">   -783.84856000 </i>
    <i name="e_wo_entrp">   -783.84666850 </i>
    <i name="e_0_energy">   -783.84761425 </i>
   </energy>
  </scstep>
  <scstep>
   <time name="dav">   28.45   28.74</time>
   <time name="total">   30.07   30.38</time>
   <energy>
    <i name="e_fr_energy">   -783.84875066 </i>
    <i name="e_wo_entrp">   -783.84693135 </i>
    <i name="e_0_energy">   -783.84784100 </i>
   </energy>
  </scstep>
  <scstep>
   <time name="dav">   29.19   29.48</time>
   <time name="total">   30.81   31.12</time>
   <energy>
    <i name="e_fr_energy">   -783.84888377 </i>
    <i name="e_wo_entrp">   -783.84709687 </i>
    <i name="e_0_energy">   -783.84799032 </i>
   </energy>
  </scstep>
  <scstep>
   <time name="dav">   28.65   28.93</time>
   <time name="total">   30.27   30.57</time>
   <energy>
    <i name="e_fr_energy">   -783.84898409 </i>
    <i name="e_wo_entrp">   -783.84723370 </i>
    <i name="e_0_energy">   -783.84810889 </i>
   </energy>
  </scstep>
  <scstep>
   <time name="dav">   29.80   30.11</time>
   <time name="total">   31.42   31.74</time>
   <energy>
    <i name="e_fr_energy">   -783.84907098 </i>
    <i name="e_wo_entrp">   -783.84736060 </i>
    <i name="e_0_energy">   -783.84821579 </i>
   </energy>
  </scstep>
  <scstep>
   <time name="dav">   29.47   29.72</time>
   <time name="total">   31.09   31.36</time>
   <energy>
    <i name="e_fr_energy">   -783.84910737 </i>
    <i name="e_wo_entrp">   -783.84742177 </i>
    <i name="e_0_energy">   -783.84826457 </i>
   </energy>
  </scstep>
  <scstep>
   <time name="dav">   28.80   29.07</time>
   <time name="total">   30.42   30.70</time>
   <energy>
    <i name="e_fr_energy">   -783.84912012 </i>
    <i name="e_wo_entrp">   -783.84745298 </i>
    <i name="e_0_energy">   -783.84828655 </i>
   </energy>
  </scstep>
  <scstep>
   <time name="dav">   27.11   27.35</time>
   <time name="total">   28.73   28.99</time>
   <energy>
    <i name="e_fr_energy">   -783.84912210 </i>
    <i name="e_wo_entrp">   -783.84745872 </i>
    <i name="e_0_energy">   -783.84829041 </i>
   </energy>
  </scstep>
  <scstep>
   <time name="dav">   26.71   26.97</time>
   <time name="total">   28.34   28.60</time>
   <energy>
    <i name="e_fr_energy">   -783.84912249 </i>
    <i name="e_wo_entrp">   -783.84746028 </i>
    <i name="e_0_energy">   -783.84829138 </i>
   </energy>
  </scstep>
  <scstep>
   <time name="dav">   22.24   22.43</time>
   <time name="total">   22.85   23.06</time>
   <energy>
    <i name="alphaZ">    702.18941336 </i>
    <i name="ewald"> -10813.95677735 </i>
    <i name="hartreedc">  -7433.60519069 </i>
    <i name="XCdc">    805.58780321 </i>
    <i name="pawpsdc">  43192.51285883 </i>
    <i name="pawaedc"> -42617.33666272 </i>
    <i name="eentropy">     -0.00166197 </i>
    <i name="bandstr">   -690.46900132 </i>
    <i name="atom">  16071.23009607 </i>
    <i name="e_fr_energy">   -783.84912257 </i>
    <i name="e_wo_entrp">   -783.84746061 </i>
    <i name="e_0_energy">   -783.84829159 </i>
   </energy>
  </scstep>
  <structure>
   <crystal>
    <varray name="basis" >
     <v>      13.30317974       0.00000000       0.00000000 </v>
     <v>      -6.65158939      14.87340641       0.00000000 </v>
     <v>       0.00000000       0.00000000       7.00647449 </v>
    </varray>
    <i name="volume">   1386.32625871 </i>
    <varray name="rec_basis" >
     <v>       0.07517000       0.03361704       0.00000000 </v>
     <v>       0.00000000       0.06723409       0.00000000 </v>
     <v>       0.00000000       0.00000000       0.14272513 </v>
    </varray>
   </crystal>
   <varray name="positions" >
    <v>       0.99715096       0.98005658       0.00000000 </v>
    <v>       0.96381754       0.74672317       0.17332673 </v>
    <v>       0.93048412       0.51338983       0.34665346 </v>
    <v>       0.33048421       0.31338987       0.00000000 </v>
    <v>       0.29715079       0.08005647       0.17332673 </v>
    <v>       0.26381737       0.84672308       0.34665346 </v>
    <v>       0.66381747       0.64672315       0.00000000 </v>
    <v>       0.63048405       0.41338971       0.17332673 </v>
    <v>       0.59715062       0.18005633       0.34665346 </v>
    <v>       0.31381753       0.94672334       0.08666318 </v>
    <v>       0.28048411       0.71338999       0.25998992 </v>
    <v>       0.24715069       0.48005658       0.43331653 </v>
    <v>       0.64715082       0.28005657       0.08666318 </v>
    <v>       0.61381739       0.04672319       0.25998989 </v>
    <v>       0.58048397       0.81338978       0.43331659 </v>
    <v>       0.98048443       0.61338985       0.08666321 </v>
    <v>       0.94715101       0.38005647       0.25998989 </v>
    <v>       0.91381758       0.14672309       0.43331653 </v>
    <v>       0.16381757       0.64672309       0.00000000 </v>
    <v>       0.13048416       0.41338971       0.17332673 </v>
    <v>       0.09715075       0.18005632       0.34665346 </v>
    <v>       0.49715090       0.98005664       0.00000001 </v>
    <v>       0.46381742       0.74672317       0.17332664 </v>
    <v>       0.43048406       0.51338983       0.34665340 </v>
    <v>       0.83048415       0.31338987       0.00000001 </v>
    <v>       0.79715073       0.08005653       0.17332664 </v>
    <v>       0.76381731       0.84672308       0.34665340 </v>
    <v>       0.14715090       0.28005657       0.08666319 </v>
    <v>       0.11381748       0.04672317       0.25998992 </v>
    <v>       0.08048407       0.81338978       0.43331659 </v>
    <v>       0.48048422       0.61338991       0.08666319 </v>
    <v>       0.44715083       0.38005653       0.25998989 </v>
    <v>       0.41381741       0.14672317       0.43331659 </v>
    <v>       0.81381750       0.94672328       0.08666318 </v>
    <v>       0.78048414       0.71338987       0.25998989 </v>
    <v>       0.74715072       0.48005646       0.43331659 </v>
    <v>       0.39146835       0.05034280       0.80203229 </v>
    <v>       0.19146821       0.65034282       0.57436830 </v>
    <v>       0.29146826       0.35034278       0.68820030 </v>
    <v>       0.67718267       0.19319987       0.80203229 </v>
    <v>       0.47718245       0.79319996       0.57436830 </v>
    <v>       0.57718259       0.49319991       0.68820030 </v>
    <v>       0.96289688       0.33605695       0.80203229 </v>
    <v>       0.76289678       0.93605703       0.57436830 </v>
    <v>       0.86289686       0.63605702       0.68820030 </v>
    <v>       0.24861121       0.47891420       0.80203229 </v>
    <v>       0.04861106       0.07891429       0.57436830 </v>
    <v>       0.14861113       0.77891427       0.68820030 </v>
    <v>       0.53432548       0.62177134       0.80203229 </v>
    <v>       0.33432531       0.22177145       0.57436830 </v>
    <v>       0.43432540       0.92177141       0.68820030 </v>
    <v>       0.82003981       0.76462847       0.80203229 </v>
    <v>       0.62003958       0.36462858       0.57436830 </v>
    <v>       0.72003967       0.06462860       0.68820030 </v>
    <v>       0.10575394       0.90748555       0.80203229 </v>
    <v>       0.90575385       0.50748575       0.57436830 </v>
    <v>       0.00575388       0.20748568       0.68820030 </v>
    <v>       0.37003979       0.36462855       0.85894817 </v>
    <v>       0.17003965       0.96462870       0.63128418 </v>
    <v>       0.27003974       0.66462868       0.74511612 </v>
    <v>       0.51289689       0.93605709       0.85894817 </v>
    <v>       0.31289673       0.53605717       0.63128418 </v>
    <v>       0.41289678       0.23605713       0.74511612 </v>
    <v>       0.79861116       0.07891440       0.85894817 </v>
    <v>       0.59861094       0.67891449       0.63128418 </v>
    <v>       0.69861102       0.37891442       0.74511623 </v>
    <v>       0.08432547       0.22177151       0.85894805 </v>
    <v>       0.88432532       0.82177156       0.63128418 </v>
    <v>       0.98432541       0.52177155       0.74511623 </v>
    <v>       0.65575409       0.50748563       0.85894817 </v>
    <v>       0.45575392       0.10748577       0.63128418 </v>
    <v>       0.55575401       0.80748564       0.74511612 </v>
    <v>       0.94146830       0.65034294       0.85894817 </v>
    <v>       0.74146813       0.25034302       0.63128418 </v>
    <v>       0.84146816       0.95034295       0.74511612 </v>
    <v>       0.22718242       0.79319996       0.85894817 </v>
    <v>       0.02718234       0.39320010       0.63128418 </v>
    <v>       0.12718239       0.09320009       0.74511612 </v>
    <v>       0.46289694       0.33605692       0.80203229 </v>
    <v>       0.26289672       0.93605709       0.57436830 </v>
    <v>       0.36289683       0.63605702       0.68820030 </v>
    <v>       0.32003975       0.76462847       0.80203229 </v>
    <v>       0.12003963       0.36462855       0.57436830 </v>
    <v>       0.22003970       0.06462848       0.68820030 </v>
    <v>       0.60575402       0.90748555       0.80203229 </v>
    <v>       0.40575385       0.50748569       0.57436830 </v>
    <v>       0.50575393       0.20748565       0.68820030 </v>
    <v>       0.89146829       0.05034268       0.80203229 </v>
    <v>       0.69146812       0.65034276       0.57436830 </v>
    <v>       0.79146832       0.35034275       0.68820030 </v>
    <v>       0.17718258       0.19319981       0.80203229 </v>
    <v>       0.97718251       0.79319996       0.57436830 </v>
    <v>       0.07718245       0.49319986       0.68820030 </v>
    <v>       0.74861115       0.47891420       0.80203229 </v>
    <v>       0.54861099       0.07891429       0.57436830 </v>
    <v>       0.64861113       0.77891421       0.68820030 </v>
    <v>       0.03432536       0.62177128       0.80203229 </v>
    <v>       0.83432525       0.22177142       0.57436830 </v>
    <v>       0.93432540       0.92177135       0.68820030 </v>
    <v>       0.29861116       0.07891440       0.85894817 </v>
    <v>       0.09861100       0.67891449       0.63128418 </v>
    <v>       0.19861108       0.37891442       0.74511623 </v>
    <v>       0.58432549       0.22177148       0.85894817 </v>
    <v>       0.38432530       0.82177156       0.63128418 </v>
    <v>       0.48432541       0.52177155       0.74511623 </v>
    <v>       0.87003976       0.36462861       0.85894817 </v>
    <v>       0.67003959       0.96462870       0.63128418 </v>
    <v>       0.77003968       0.66462857       0.74511623 </v>
    <v>       0.44146833       0.65034300       0.85894817 </v>
    <v>       0.24146819       0.25034308       0.63128418 </v>
    <v>       0.34146821       0.95034301       0.74511612 </v>
    <v>       0.72718263       0.79320008       0.85894805 </v>
    <v>       0.52718246       0.39320016       0.63128418 </v>
    <v>       0.62718248       0.09320009       0.74511623 </v>
    <v>       0.01289678       0.93605703       0.85894805 </v>
    <v>       0.81289655       0.53605711       0.63128418 </v>
    <v>       0.91289675       0.23605710       0.74511612 </v>
    <v>       0.15575400       0.50748563       0.85894817 </v>
    <v>       0.95575380       0.10748577       0.63128418 </v>
    <v>       0.05575386       0.80748564       0.74511623 </v>
   </varray>
  </structure>
  <varray name="forces" >
   <v>     -16.14869594      20.76438314      31.16389336 </v>
   <v>       0.01972650      -0.26011463      -0.79988635 </v>
   <v>       0.97500522      -1.11977425      -6.38666955 </v>
   <v>      -7.49076652     -26.98180507      36.86994199 </v>
   <v>      -0.88678598      -0.72653838      -1.97874383 </v>
   <v>      -0.38969817       1.43083539       1.73095527 </v>
   <v>       0.51225734      -0.60834151      -1.70084687 </v>
   <v>      -1.11339607       0.65327173      -0.84617311 </v>
   <v>       0.87393020       0.23308258       0.76698289 </v>
   <v>      -0.26337835      -1.21480344      -0.45912768 </v>
   <v>      -0.42359447      -0.95750512       1.69487741 </v>
   <v>      -2.56925720      -3.25709812      -4.28923642 </v>
   <v>      -0.47747986       0.42942428      -0.43700493 </v>
   <v>      -0.61143882       0.20979555       0.80422920 </v>
   <v>       4.43724991       0.56997397      -4.88759242 </v>
   <v>      -1.02000004       0.24671729       1.39517633 </v>
   <v>       0.85508399      -0.18534027       0.99898358 </v>
   <v>      -3.90652513       2.21648999      -3.25910887 </v>
   <v>       0.51225734      -0.60834151      -1.70084687 </v>
   <v>      -1.11339607       0.65327173      -0.84617311 </v>
   <v>       0.87393020       0.23308258       0.76698289 </v>
   <v>     -16.14869594      20.76438314      31.16389336 </v>
   <v>       0.01972650      -0.26011463      -0.79988635 </v>
   <v>       0.97500522      -1.11977425      -6.38666955 </v>
   <v>      -7.49076652     -26.98180507      36.86994199 </v>
   <v>      -0.88678598      -0.72653838      -1.97874383 </v>
   <v>      -0.38969817       1.43083539       1.73095527 </v>
   <v>      -0.47747986       0.42942428      -0.43700493 </v>
   <v>      -0.61143882       0.20979555       0.80422920 </v>
   <v>       4.43724991       0.56997397      -4.88759242 </v>
   <v>      -1.02000004       0.24671729       1.39517633 </v>
   <v>       0.85508399      -0.18534027       0.99898358 </v>
   <v>      -3.90652513       2.21648999      -3.25910887 </v>
   <v>      -0.26337835      -1.21480344      -0.45912768 </v>
   <v>      -0.42359447      -0.95750512       1.69487741 </v>
   <v>      -2.56925720      -3.25709812      -4.28923642 </v>
   <v>      -2.23475102      -0.35890236      -0.49488513 </v>
   <v>      -1.28560389       0.88097103       0.67667340 </v>
   <v>      -2.49024917      -0.58679225       2.78701249 </v>
   <v>      -2.64804519      -0.72295832      -1.48549190 </v>
   <v>      -5.89979256      -0.38635325       5.76935636 </v>
   <v>      -2.94215358      -0.64765845       3.74620394 </v>
   <v>      -1.75798915      -0.28222189      -2.93128239 </v>
   <v>       0.16950425       0.10906681       1.49361512 </v>
   <v>      -2.05635112      -0.55913514       4.40540260 </v>
   <v>      -3.79776525      -0.55078915       0.20449478 </v>
   <v>       0.47524210       0.58913116       1.90230293 </v>
   <v>      -2.32868757      -1.18912037       3.51635873 </v>
   <v>      -1.37935477      -0.04746224      -2.50020559 </v>
   <v>       0.74357723      -0.34110477       1.82845602 </v>
   <v>      -2.12575188      -1.22382414       2.61630463 </v>
   <v>      -3.21917684       1.12018655      -2.90551018 </v>
   <v>      -0.50047192       1.94283582       1.37281420 </v>
   <v>      -2.77297189      -0.60897915       4.01655697 </v>
   <v>      -3.22220760      -0.34122698      -2.38837190 </v>
   <v>      -0.63568710       0.77503387       8.38085073 </v>
   <v>      -1.19736709       0.89532893       5.72924040 </v>
   <v>       7.26239888      26.01679139     -37.89854079 </v>
   <v>       3.49350265      -0.36540100       2.00047645 </v>
   <v>       2.10849982       0.96584561      -2.82339133 </v>
   <v>      16.95265582     -20.74544250     -32.26117325 </v>
   <v>       3.20135288       3.84939855       4.26783538 </v>
   <v>       2.28744883       1.13283015      -2.87937239 </v>
   <v>       1.85459348       0.00718779      -0.79975741 </v>
   <v>       3.80815865       0.60581513       0.30390818 </v>
   <v>       2.76223235       0.61941205      -3.01465197 </v>
   <v>       1.08359437      -0.16984896      -2.37670262 </v>
   <v>       2.97023092       0.79997123       1.00854531 </v>
   <v>       2.27512412       0.01637968      -3.46776957 </v>
   <v>       1.35457188      -0.71038032      -0.33888732 </v>
   <v>       3.18077554      -2.24017626       3.29804779 </v>
   <v>       2.12220316       0.79373615      -1.47279063 </v>
   <v>       0.06830825      -0.65248805      -1.86438257 </v>
   <v>       2.76807707      -0.29413485      -0.49136593 </v>
   <v>       1.58736570       0.84004997      -4.09909719 </v>
   <v>       1.76953755      -1.94439662      -0.64702358 </v>
   <v>       3.29450080      -0.09652696       1.49175964 </v>
   <v>       2.52868463       1.66269899      -4.05621240 </v>
   <v>      -1.75798915      -0.28222189      -2.93128239 </v>
   <v>       0.16950425       0.10906681       1.49361512 </v>
   <v>      -2.05635112      -0.55913514       4.40540260 </v>
   <v>      -3.21917684       1.12018655      -2.90551018 </v>
   <v>      -0.50047192       1.94283582       1.37281420 </v>
   <v>      -2.77297189      -0.60897915       4.01655697 </v>
   <v>      -3.22220760      -0.34122698      -2.38837190 </v>
   <v>      -0.63568710       0.77503387       8.38085073 </v>
   <v>      -1.19736709       0.89532893       5.72924040 </v>
   <v>      -2.23475102      -0.35890236      -0.49488513 </v>
   <v>      -1.28560389       0.88097103       0.67667340 </v>
   <v>      -2.49024917      -0.58679225       2.78701249 </v>
   <v>      -2.64804519      -0.72295832      -1.48549190 </v>
   <v>      -5.89979256      -0.38635325       5.76935636 </v>
   <v>      -2.94215358      -0.64765845       3.74620394 </v>
   <v>      -3.79776525      -0.55078915       0.20449478 </v>
   <v>       0.47524210       0.58913116       1.90230293 </v>
   <v>      -2.32868757      -1.18912037       3.51635873 </v>
   <v>      -1.37935477      -0.04746224      -2.50020559 </v>
   <v>       0.74357723      -0.34110477       1.82845602 </v>
   <v>      -2.12575188      -1.22382414       2.61630463 </v>
   <v>       1.85459348       0.00718779      -0.79975741 </v>
   <v>       3.80815865       0.60581513       0.30390818 </v>
   <v>       2.76223235       0.61941205      -3.01465197 </v>
   <v>       1.08359437      -0.16984896      -2.37670262 </v>
   <v>       2.97023092       0.79997123       1.00854531 </v>
   <v>       2.27512412       0.01637968      -3.46776957 </v>
   <v>       7.26239888      26.01679139     -37.89854079 </v>
   <v>       3.49350265      -0.36540100       2.00047645 </v>
   <v>       2.10849982       0.96584561      -2.82339133 </v>
   <v>       0.06830825      -0.65248805      -1.86438257 </v>
   <v>       2.76807707      -0.29413485      -0.49136593 </v>
   <v>       1.58736570       0.84004997      -4.09909719 </v>
   <v>       1.76953755      -1.94439662      -0.64702358 </v>
   <v>       3.29450080      -0.09652696       1.49175964 </v>
   <v>       2.52868463       1.66269899      -4.05621240 </v>
   <v>      16.95265582     -20.74544250     -32.26117325 </v>
   <v>       3.20135288       3.84939855       4.26783538 </v>
   <v>       2.28744883       1.13283015      -2.87937239 </v>
   <v>       1.35457188      -0.71038032      -0.33888732 </v>
   <v>       3.18077554      -2.24017626       3.29804779 </v>
   <v>       2.12220316       0.79373615      -1.47279063 </v>
  </varray>
  <varray name="stress" >
   <v>     -24.31554841      17.67494997     -66.76847433 </v>
   <v>      17.67497015       7.26042673     -41.17181112 </v>
   <v>     -66.76849066     -41.17179577      53.90588264 </v>
  </varray>
  <energy>
   <i name="e_fr_energy">   -783.84912257 </i>
   <i name="e_wo_entrp">   -783.84746061 </i>
   <i name="e_0_energy">   -783.84829159 </i>
  </energy>
  <time name="totalsc">  787.12  794.62</time>
  <eigenvalues>
   <array>
    <dimension dim="1">band</dimension>
    <dimension dim="2">kpoint</dimension>
    <dimension dim="3">spin</dimension>
    <field>eigene</field>
    <field>occ</field>
    <set>
     <set comment="spin 1">
      <set comment="kpoint 1">
       <r>  -13.0177    1.0000 </r>
       <r>  -12.6110    1.0000 </r>
       <r>  -12.5609    1.0000 </r>
       <r>  -12.5071    1.0000 </r>
       <r>  -12.4130    1.0000 </r>
       <r>  -12.3259    1.0000 </r>
       <r>  -12.1378    1.0000 </r>
       <r>  -11.8481    1.0000 </r>
       <r>  -11.5597    1.0000 </r>
       <r>  -11.4550    1.0000 </r>
       <r>  -11.3902    1.0000 </r>
       <r>  -11.3624    1.0000 </r>
       <r>  -10.7401    1.0000 </r>
       <r>  -10.6888    1.0000 </r>
       <r>  -10.6596    1.0000 </r>
       <r>  -10.5262    1.0000 </r>
       <r>  -10.1815    1.0000 </r>
       <r>  -10.0171    1.0000 </r>
       <r>  -10.0133    1.0000 </r>
       <r>   -9.7735    1.0000 </r>
       <r>   -9.7714    1.0000 </r>
       <r>   -9.4491    1.0000 </r>
       <r>   -9.2338    1.0000 </r>
       <r>   -9.1776    1.0000 </r>
       <r>   -8.9351    1.0000 </r>
       <r>   -8.9043    1.0000 </r>
       <r>   -8.6932    1.0000 </r>
       <r>   -8.5051    1.0000 </r>
       <r>   -8.4753    1.0000 </r>
       <r>   -8.3738    1.0000 </r>
       <r>   -8.1664    1.0000 </r>
       <r>   -8.1319    1.0000 </r>
       <r>   -8.0653    1.0000 </r>
       <r>   -7.9979    1.0000 </r>
       <r>   -7.8987    1.0000 </r>
       <r>   -7.8780    1.0000 </r>
       <r>   -7.7257    1.0000 </r>
       <r>   -7.4604    1.0000 </r>
       <r>   -7.3349    1.0000 </r>
       <r>   -7.1042    1.0000 </r>
       <r>   -6.9730    1.0000 </r>
       <r>   -6.7753    1.0000 </r>
       <r>   -6.4994    1.0000 </r>
       <r>   -6.4381    1.0000 </r>
       <r>   -6.3928    1.0000 </r>
       <r>   -6.3717    1.0000 </r>
       <r>   -6.0083    1.0000 </r>
       <r>   -5.7937    1.0000 </r>
       <r>   -5.6365    1.0000 </r>
       <r>   -5.5928    1.0000 </r>
       <r>   -5.4704    1.0000 </r>
       <r>   -5.4655    1.0000 </r>
       <r>   -5.2743    1.0000 </r>
       <r>   -5.0981    1.0000 </r>
       <r>   -5.0336    1.0000 </r>
       <r>   -5.0275    1.0000 </r>
       <r>   -4.9801    1.0000 </r>
       <r>   -4.9748    1.0000 </r>
       <r>   -4.7397    1.0000 </r>
       <r>   -4.6336    1.0000 </r>
       <r>   -4.5642    1.0000 </r>
       <r>   -4.4554    1.0000 </r>
       <r>   -4.4282    1.0000 </r>
       <r>   -4.4068    1.0000 </r>
       <r>   -4.2830    1.0000 </r>
       <r>   -4.2269    1.0000 </r>
       <r>   -4.0619    1.0000 </r>
       <r>   -3.9960    1.0000 </r>
       <r>   -3.9301    1.0000 </r>
       <r>   -3.8446    1.0000 </r>
       <r>   -3.7902    1.0000 </r>
       <r>   -3.6351    1.0000 </r>
       <r>   -3.5773    1.0000 </r>
       <r>   -3.5707    1.0000 </r>
       <r>   -3.4971    1.0000 </r>
       <r>   -3.4354    1.0000 </r>
       <r>   -3.3730    1.0000 </r>
       <r>   -3.2331    1.0000 </r>
       <r>   -3.1576    1.0000 </r>
       <r>   -3.1020    1.0000 </r>
       <r>   -3.0431    1.0000 </r>
       <r>   -3.0132    1.0000 </r>
       <r>   -2.9743    1.0000 </r>
       <r>   -2.8444    1.0000 </r>
       <r>   -2.8341    1.0000 </r>
       <r>   -2.7739    1.0000 </r>
       <r>   -2.7675    1.0000 </r>
       <r>   -2.7309    1.0000 </r>
       <r>   -2.6992    1.0000 </r>
       <r>   -2.6018    1.0000 </r>
       <r>   -2.4733    1.0000 </r>
       <r>   -2.3113    1.0000 </r>
       <r>   -2.3006    1.0000 </r>
       <r>   -2.2213    1.0000 </r>
       <r>   -2.1532    1.0000 </r>
       <r>   -2.1363    1.0000 </r>
       <r>   -2.0260    1.0000 </r>
       <r>   -1.9469    1.0000 </r>
       <r>   -1.9186    1.0000 </r>
       <r>   -1.7968    1.0000 </r>
       <r>   -1.7195    1.0000 </r>
       <r>   -1.6624    1.0000 </r>
       <r>   -1.5636    1.0000 </r>
       <r>   -1.5339    1.0000 </r>
       <r>   -1.3121    1.0000 </r>
       <r>   -1.3105    1.0000 </r>
       <r>   -1.2511    1.0000 </r>
       <r>   -1.1982    1.0000 </r>
       <r>   -1.1180    1.0000 </r>
       <r>   -1.0518    1.0000 </r>
       <r>   -0.9577    1.0000 </r>
       <r>   -0.9450    1.0000 </r>
       <r>   -0.8870    1.0000 </r>
       <r>   -0.8473    1.0000 </r>
       <r>   -0.7251    1.0000 </r>
       <r>   -0.7222    1.0000 </r>
       <r>   -0.6949    1.0000 </r>
       <r>   -0.6692    1.0000 </r>
       <r>   -0.5557    1.0000 </r>
       <r>   -0.5474    1.0000 </r>
       <r>   -0.4607    1.0000 </r>
       <r>   -0.4244    1.0000 </r>
       <r>   -0.3479    1.0000 </r>
       <r>   -0.3039    1.0000 </r>
       <r>   -0.2988    1.0000 </r>
       <r>   -0.2553    1.0000 </r>
       <r>   -0.1585    1.0000 </r>
       <r>   -0.0545    1.0000 </r>
       <r>    0.0436    1.0000 </r>
       <r>    0.0712    1.0000 </r>
       <r>    0.0849    1.0000 </r>
       <r>    0.1233    1.0000 </r>
       <r>    0.1353    1.0000 </r>
       <r>    0.1906    1.0000 </r>
       <r>    0.3643    1.0000 </r>
       <r>    0.3709    1.0000 </r>
       <r>    0.4608    1.0000 </r>
       <r>    0.5074    1.0000 </r>
       <r>    0.5323    1.0000 </r>
       <r>    0.5339    1.0000 </r>
       <r>    0.6339    1.0000 </r>
       <r>    0.6746    1.0000 </r>
       <r>    0.6897    1.0000 </r>
       <r>    0.7033    1.0000 </r>
       <r>    0.7218    1.0000 </r>
       <r>    0.8280    1.0000 </r>
       <r>    0.9702    1.0000 </r>
       <r>    0.9721    1.0000 </r>
       <r>    0.9982    1.0000 </r>
       <r>    1.0346    1.0000 </r>
       <r>    1.1066    1.0000 </r>
       <r>    1.1283    1.0000 </r>
       <r>    1.2240    1.0000 </r>
       <r>    1.2373    1.0000 </r>
       <r>    1.3430    1.0000 </r>
       <r>    1.3686    1.0000 </r>
       <r>    1.4581    1.0000 </r>
       <r>    1.5203    1.0000 </r>
       <r>    1.5207    1.0000 </r>
       <r>    1.5614    1.0000 </r>
       <r>    1.5784    1.0000 </r>
       <r>    1.7183    1.0000 </r>
       <r>    1.7283    1.0000 </r>
       <r>    1.8463    1.0000 </r>
       <r>    1.8646    1.0000 </r>
       <r>    1.9227    1.0000 </r>
       <r>    1.9699    1.0000 </r>
       <r>    2.0336    1.0000 </r>
       <r>    2.0727    1.0000 </r>
       <r>    2.0832    1.0000 </r>
       <r>    2.1200    1.0000 </r>
       <r>    2.2323    1.0000 </r>
       <r>    2.2598    1.0000 </r>
       <r>    2.2705    1.0000 </r>
       <r>    2.3684    1.0000 </r>
       <r>    2.3970    1.0000 </r>
       <r>    2.4944    1.0000 </r>
       <r>    2.5223    1.0000 </r>
       <r>    2.5686    1.0000 </r>
       <r>    2.6550    1.0000 </r>
       <r>    2.6792    1.0000 </r>
       <r>    2.6922    1.0000 </r>
       <r>    2.7014    1.0000 </r>
       <r>    2.7546    1.0000 </r>
       <r>    2.8709    1.0000 </r>
       <r>    2.9007    1.0000 </r>
       <r>    2.9359    1.0000 </r>
       <r>    2.9961    1.0000 </r>
       <r>    3.0168    1.0000 </r>
       <r>    3.0237    1.0000 </r>
       <r>    3.0790    1.0000 </r>
       <r>    3.1246    1.0000 </r>
       <r>    3.2116    1.0000 </r>
       <r>    3.2725    1.0000 </r>
       <r>    3.2960    1.0000 </r>
       <r>    3.3708    1.0000 </r>
       <r>    3.3995    1.0000 </r>
       <r>    3.4605    1.0000 </r>
       <r>    3.5027    1.0000 </r>
       <r>    3.6007    1.0000 </r>
       <r>    3.6161    1.0000 </r>
       <r>    3.6249    1.0000 </r>
       <r>    3.7026    1.0000 </r>
       <r>    3.7393    1.0000 </r>
       <r>    3.7872    1.0000 </r>
       <r>    3.8007    1.0000 </r>
       <r>    3.9310    1.0000 </r>
       <r>    3.9324    1.0000 </r>
       <r>    3.9873    1.0000 </r>
       <r>    3.9921    1.0000 </r>
       <r>    4.0813    1.0000 </r>
       <r>    4.0857    1.0000 </r>
       <r>    4.2856    1.0000 </r>
       <r>    4.2910    1.0000 </r>
       <r>    4.3730    1.0000 </r>
       <r>    4.4444    1.0000 </r>
       <r>    4.4913    1.0000 </r>
       <r>    4.5396    1.0000 </r>
       <r>    4.5724    1.0000 </r>
       <r>    4.6518    1.0000 </r>
       <r>    4.6977    1.0000 </r>
       <r>    4.7167    1.0000 </r>
       <r>    4.7783    1.0000 </r>
       <r>    4.8164    1.0000 </r>
       <r>    4.8524    1.0000 </r>
       <r>    4.9487    1.0000 </r>
       <r>    5.0180    1.0000 </r>
       <r>    5.0354    1.0000 </r>
       <r>    5.0517    1.0000 </r>
       <r>    5.0646    1.0000 </r>
       <r>    5.1594    1.0000 </r>
       <r>    5.1682    1.0000 </r>
       <r>    5.2264    1.0000 </r>
       <r>    5.3815    1.0000 </r>
       <r>    5.3819    1.0000 </r>
       <r>    5.4372    1.0000 </r>
       <r>    5.5230    1.0000 </r>
       <r>    5.5391    1.0000 </r>
       <r>    5.5915    1.0000 </r>
       <r>    5.6713    0.9905 </r>
       <r>    5.7085    0.0018 </r>
       <r>    5.7426    0.0000 </r>
       <r>    5.7495    0.0000 </r>
       <r>    5.8059    0.0000 </r>
       <r>    5.9045    0.0000 </r>
       <r>    5.9485    0.0000 </r>
       <r>    5.9965    0.0000 </r>
       <r>    6.0045    0.0000 </r>
       <r>    6.0099    0.0000 </r>
       <r>    6.0952    0.0000 </r>
       <r>    6.1242    0.0000 </r>
       <r>    6.1246    0.0000 </r>
       <r>    6.2337    0.0000 </r>
       <r>    6.2937    0.0000 </r>
       <r>    6.3720    0.0000 </r>
       <r>    6.4130    0.0000 </r>
       <r>    6.4630    0.0000 </r>
       <r>    6.5222    0.0000 </r>
       <r>    6.6043    0.0000 </r>
       <r>    6.6203    0.0000 </r>
       <r>    6.6820    0.0000 </r>
       <r>    6.7691    0.0000 </r>
       <r>    6.8561    0.0000 </r>
       <r>    6.8583    0.0000 </r>
       <r>    6.9317    0.0000 </r>
       <r>    6.9989    0.0000 </r>
       <r>    7.0431    0.0000 </r>
       <r>    7.1339    0.0000 </r>
       <r>    7.2013    0.0000 </r>
       <r>    7.2308    0.0000 </r>
       <r>    7.2697    0.0000 </r>
       <r>    7.3690    0.0000 </r>
       <r>    7.4654    0.0000 </r>
       <r>    7.4675    0.0000 </r>
       <r>    7.6286    0.0000 </r>
       <r>    7.6624    0.0000 </r>
       <r>    7.6901    0.0000 </r>
       <r>    7.7382    0.0000 </r>
       <r>    7.7567    0.0000 </r>
       <r>    7.7769    0.0000 </r>
       <r>    7.8310    0.0000 </r>
       <r>    7.8746    0.0000 </r>
       <r>    7.9346    0.0000 </r>
       <r>    7.9645    0.0000 </r>
       <r>    7.9958    0.0000 </r>
       <r>    8.0004    0.0000 </r>
       <r>    8.1044    0.0000 </r>
       <r>    8.1225    0.0000 </r>
      </set>
      <set comment="kpoint 2">
       <r>  -12.9428    1.0000 </r>
       <r>  -12.7262    1.0000 </r>
       <r>  -12.6564    1.0000 </r>
       <r>  -12.5881    1.0000 </r>
       <r>  -12.3867    1.0000 </r>
       <r>  -12.1597    1.0000 </r>
       <r>  -11.9121    1.0000 </r>
       <r>  -11.8267    1.0000 </r>
       <r>  -11.7017    1.0000 </r>
       <r>  -11.5183    1.0000 </r>
       <r>  -11.4747    1.0000 </r>
       <r>  -11.0699    1.0000 </r>
       <r>  -11.0260    1.0000 </r>
       <r>  -10.9369    1.0000 </r>
       <r>  -10.5991    1.0000 </r>
       <r>  -10.4608    1.0000 </r>
       <r>  -10.2306    1.0000 </r>
       <r>  -10.0918    1.0000 </r>
       <r>   -9.8450    1.0000 </r>
       <r>   -9.6550    1.0000 </r>
       <r>   -9.6248    1.0000 </r>
       <r>   -9.3989    1.0000 </r>
       <r>   -9.1286    1.0000 </r>
       <r>   -9.0838    1.0000 </r>
       <r>   -9.0397    1.0000 </r>
       <r>   -8.8968    1.0000 </r>
       <r>   -8.7561    1.0000 </r>
       <r>   -8.5063    1.0000 </r>
       <r>   -8.4612    1.0000 </r>
       <r>   -8.4299    1.0000 </r>
       <r>   -8.2862    1.0000 </r>
       <r>   -8.1929    1.0000 </r>
       <r>   -8.1544    1.0000 </r>
       <r>   -7.9633    1.0000 </r>
       <r>   -7.9219    1.0000 </r>
       <r>   -7.8553    1.0000 </r>
       <r>   -7.6502    1.0000 </r>
       <r>   -7.6082    1.0000 </r>
       <r>   -7.4788    1.0000 </r>
       <r>   -7.2783    1.0000 </r>
       <r>   -7.0582    1.0000 </r>
       <r>   -6.7095    1.0000 </r>
       <r>   -6.3712    1.0000 </r>
       <r>   -6.2370    1.0000 </r>
       <r>   -6.2269    1.0000 </r>
       <r>   -6.0459    1.0000 </r>
       <r>   -5.9867    1.0000 </r>
       <r>   -5.6556    1.0000 </r>
       <r>   -5.6411    1.0000 </r>
       <r>   -5.5950    1.0000 </r>
       <r>   -5.5140    1.0000 </r>
       <r>   -5.3491    1.0000 </r>
       <r>   -5.2795    1.0000 </r>
       <r>   -5.2473    1.0000 </r>
       <r>   -5.1511    1.0000 </r>
       <r>   -5.0616    1.0000 </r>
       <r>   -5.0064    1.0000 </r>
       <r>   -4.9303    1.0000 </r>
       <r>   -4.8557    1.0000 </r>
       <r>   -4.7045    1.0000 </r>
       <r>   -4.6833    1.0000 </r>
       <r>   -4.6771    1.0000 </r>
       <r>   -4.4513    1.0000 </r>
       <r>   -4.3272    1.0000 </r>
       <r>   -4.2972    1.0000 </r>
       <r>   -4.1445    1.0000 </r>
       <r>   -4.0464    1.0000 </r>
       <r>   -4.0319    1.0000 </r>
       <r>   -3.9062    1.0000 </r>
       <r>   -3.8176    1.0000 </r>
       <r>   -3.7649    1.0000 </r>
       <r>   -3.7627    1.0000 </r>
       <r>   -3.6477    1.0000 </r>
       <r>   -3.6172    1.0000 </r>
       <r>   -3.5106    1.0000 </r>
       <r>   -3.3781    1.0000 </r>
       <r>   -3.3671    1.0000 </r>
       <r>   -3.3268    1.0000 </r>
       <r>   -3.1673    1.0000 </r>
       <r>   -3.1443    1.0000 </r>
       <r>   -3.1418    1.0000 </r>
       <r>   -3.0282    1.0000 </r>
       <r>   -2.9463    1.0000 </r>
       <r>   -2.8816    1.0000 </r>
       <r>   -2.7723    1.0000 </r>
       <r>   -2.6830    1.0000 </r>
       <r>   -2.6684    1.0000 </r>
       <r>   -2.5884    1.0000 </r>
       <r>   -2.5303    1.0000 </r>
       <r>   -2.4822    1.0000 </r>
       <r>   -2.3902    1.0000 </r>
       <r>   -2.3632    1.0000 </r>
       <r>   -2.2815    1.0000 </r>
       <r>   -2.2156    1.0000 </r>
       <r>   -2.1981    1.0000 </r>
       <r>   -2.1654    1.0000 </r>
       <r>   -2.1071    1.0000 </r>
       <r>   -1.8335    1.0000 </r>
       <r>   -1.8301    1.0000 </r>
       <r>   -1.7751    1.0000 </r>
       <r>   -1.7663    1.0000 </r>
       <r>   -1.5495    1.0000 </r>
       <r>   -1.4959    1.0000 </r>
       <r>   -1.4465    1.0000 </r>
       <r>   -1.3970    1.0000 </r>
       <r>   -1.3364    1.0000 </r>
       <r>   -1.2619    1.0000 </r>
       <r>   -1.2162    1.0000 </r>
       <r>   -1.2117    1.0000 </r>
       <r>   -1.1458    1.0000 </r>
       <r>   -1.0179    1.0000 </r>
       <r>   -0.9608    1.0000 </r>
       <r>   -0.9042    1.0000 </r>
       <r>   -0.9008    1.0000 </r>
       <r>   -0.8407    1.0000 </r>
       <r>   -0.8086    1.0000 </r>
       <r>   -0.7159    1.0000 </r>
       <r>   -0.6629    1.0000 </r>
       <r>   -0.6024    1.0000 </r>
       <r>   -0.5307    1.0000 </r>
       <r>   -0.4411    1.0000 </r>
       <r>   -0.4410    1.0000 </r>
       <r>   -0.3196    1.0000 </r>
       <r>   -0.3142    1.0000 </r>
       <r>   -0.1769    1.0000 </r>
       <r>   -0.1571    1.0000 </r>
       <r>   -0.1040    1.0000 </r>
       <r>   -0.0522    1.0000 </r>
       <r>    0.0059    1.0000 </r>
       <r>    0.0485    1.0000 </r>
       <r>    0.1261    1.0000 </r>
       <r>    0.1630    1.0000 </r>
       <r>    0.1981    1.0000 </r>
       <r>    0.2487    1.0000 </r>
       <r>    0.2940    1.0000 </r>
       <r>    0.3550    1.0000 </r>
       <r>    0.4450    1.0000 </r>
       <r>    0.4591    1.0000 </r>
       <r>    0.4730    1.0000 </r>
       <r>    0.5605    1.0000 </r>
       <r>    0.5942    1.0000 </r>
       <r>    0.5951    1.0000 </r>
       <r>    0.6772    1.0000 </r>
       <r>    0.6883    1.0000 </r>
       <r>    0.6935    1.0000 </r>
       <r>    0.7511    1.0000 </r>
       <r>    0.8812    1.0000 </r>
       <r>    0.9219    1.0000 </r>
       <r>    0.9963    1.0000 </r>
       <r>    1.0301    1.0000 </r>
       <r>    1.1613    1.0000 </r>
       <r>    1.2218    1.0000 </r>
       <r>    1.2441    1.0000 </r>
       <r>    1.2857    1.0000 </r>
       <r>    1.3575    1.0000 </r>
       <r>    1.3588    1.0000 </r>
       <r>    1.4451    1.0000 </r>
       <r>    1.4467    1.0000 </r>
       <r>    1.5768    1.0000 </r>
       <r>    1.6126    1.0000 </r>
       <r>    1.6889    1.0000 </r>
       <r>    1.7041    1.0000 </r>
       <r>    1.7426    1.0000 </r>
       <r>    1.7932    1.0000 </r>
       <r>    1.9121    1.0000 </r>
       <r>    1.9484    1.0000 </r>
       <r>    1.9497    1.0000 </r>
       <r>    1.9952    1.0000 </r>
       <r>    2.0644    1.0000 </r>
       <r>    2.0719    1.0000 </r>
       <r>    2.1654    1.0000 </r>
       <r>    2.1870    1.0000 </r>
       <r>    2.2700    1.0000 </r>
       <r>    2.2991    1.0000 </r>
[...]
       <r>    -9.2004     4.9085    45.3874 </r>
       <r>    -9.1215    13.2053    46.4603 </r>
       <r>    -9.0426    12.3356    47.5475 </r>
       <r>    -8.9636    12.2728    48.5735 </r>
       <r>    -8.8847    31.1639    51.0480 </r>
       <r>    -8.8058     1.6894    51.3704 </r>
       <r>    -8.7269    22.3474    53.1343 </r>
       <r>    -8.6479    17.0932    54.5311 </r>
       <r>    -8.5690     4.6091    55.0000 </r>
       <r>    -8.4901    11.8305    55.9338 </r>
       <r>    -8.4111    30.5294    58.4335 </r>
       <r>    -8.3322     6.2738    59.0171 </r>
       <r>    -8.2533    29.3974    61.3374 </r>
       <r>    -8.1744    17.5667    62.7309 </r>
       <r>    -8.0954    22.5025    64.5329 </r>
       <r>    -8.0165    18.1166    66.0132 </r>
       <r>    -7.9376    31.9131    68.6027 </r>
       <r>    -7.8586    26.3199    70.7922 </r>
       <r>    -7.7797    10.3198    71.6481 </r>
       <r>    -7.7008    16.7006    72.9965 </r>
       <r>    -7.6219    15.8903    74.2543 </r>
       <r>    -7.5429    12.0790    75.2691 </r>
       <r>    -7.4640    12.8336    76.3468 </r>
       <r>    -7.3851    18.2401    77.8439 </r>
       <r>    -7.3061     7.8156    78.4618 </r>
       <r>    -7.2272    11.2474    79.4070 </r>
       <r>    -7.1483     5.4514    79.8617 </r>
       <r>    -7.0694    12.6411    80.9977 </r>
       <r>    -6.9904     8.4429    81.6668 </r>
       <r>    -6.9115     6.4459    82.1756 </r>
       <r>    -6.8326    10.3443    83.0000 </r>
       <r>    -6.7537     7.4166    83.5854 </r>
       <r>    -6.6747     8.4076    84.3303 </r>
       <r>    -6.5958     0.0000    84.3333 </r>
       <r>    -6.5169     1.6829    84.4662 </r>
       <r>    -6.4379    18.1372    85.9316 </r>
       <r>    -6.3590    11.4869    86.8674 </r>
       <r>    -6.2801     8.7945    87.6667 </r>
       <r>    -6.2012    24.3179    89.5860 </r>
       <r>    -6.1222     7.4945    90.2513 </r>
       <r>    -6.0433     6.3217    90.7503 </r>
       <r>    -5.9644    19.9783    92.3356 </r>
       <r>    -5.8854    10.2159    93.1732 </r>
       <r>    -5.8065    13.6249    94.2502 </r>
       <r>    -5.7276    12.0818    95.2039 </r>
       <r>    -5.6487    13.0136    96.2783 </r>
       <r>    -5.5697    27.2174    98.4265 </r>
       <r>    -5.4908    19.2145   100.1004 </r>
       <r>    -5.4119    23.2449   102.0197 </r>
       <r>    -5.3330    22.5902   103.8665 </r>
       <r>    -5.2540    19.3420   105.5214 </r>
       <r>    -5.1751    21.7854   107.2911 </r>
       <r>    -5.0962    17.2781   108.6985 </r>
       <r>    -5.0172    23.7430   110.6116 </r>
       <r>    -4.9383    27.4467   112.8013 </r>
       <r>    -4.8594    20.9638   114.5543 </r>
       <r>    -4.7805    19.3920   116.1214 </r>
       <r>    -4.7015    30.9906   118.6274 </r>
       <r>    -4.6226    30.8489   121.1183 </r>
       <r>    -4.5437    19.6786   122.7089 </r>
       <r>    -4.4647    15.1196   123.9074 </r>
       <r>    -4.3858    30.8650   126.3577 </r>
       <r>    -4.3069    20.7044   128.0559 </r>
       <r>    -4.2280    20.1603   129.6978 </r>
       <r>    -4.1490    19.6641   131.3096 </r>
       <r>    -4.0701    23.7967   133.2267 </r>
       <r>    -3.9912    31.2817   135.7122 </r>
       <r>    -3.9123    29.6836   138.1229 </r>
       <r>    -3.8333    21.2854   139.8534 </r>
       <r>    -3.7544    24.1076   141.7565 </r>
       <r>    -3.6755    23.5063   143.6954 </r>
       <r>    -3.5965    33.8291   146.3765 </r>
       <r>    -3.5176    28.8429   148.7809 </r>
       <r>    -3.4387    33.8384   151.4822 </r>
       <r>    -3.3598    28.3695   153.8463 </r>
       <r>    -3.2808    28.7467   156.1651 </r>
       <r>    -3.2019    23.9990   158.0606 </r>
       <r>    -3.1230    29.0318   160.3527 </r>
       <r>    -3.0440    24.2276   162.3081 </r>
       <r>    -2.9651    19.9150   163.8855 </r>
       <r>    -2.8862    17.0988   165.3081 </r>
       <r>    -2.8073    32.7343   167.9270 </r>
       <r>    -2.7283    22.0613   169.7025 </r>
       <r>    -2.6494    35.9630   172.5577 </r>
       <r>    -2.5705    25.9123   174.6475 </r>
       <r>    -2.4916    21.0934   176.3472 </r>
       <r>    -2.4126    24.0404   178.3145 </r>
       <r>    -2.3337    32.1392   180.8792 </r>
       <r>    -2.2548    22.9415   182.7957 </r>
       <r>    -2.1758    31.2026   185.4415 </r>
       <r>    -2.0969    28.1075   187.7509 </r>
       <r>    -2.0180    26.0913   189.9267 </r>
       <r>    -1.9391    24.2566   191.9553 </r>
       <r>    -1.8601    25.4989   193.9802 </r>
       <r>    -1.7812    33.7550   196.6693 </r>
       <r>    -1.7023    25.4576   198.7866 </r>
       <r>    -1.6233    27.1183   201.0685 </r>
       <r>    -1.5444    25.5704   203.1272 </r>
       <r>    -1.4655    34.3124   205.8762 </r>
       <r>    -1.3866    32.6154   208.5014 </r>
       <r>    -1.3076    36.2694   211.4668 </r>
       <r>    -1.2287    28.9217   213.8564 </r>
       <r>    -1.1498    40.5966   217.1547 </r>
       <r>    -1.0708    32.5352   219.7486 </r>
       <r>    -0.9919    28.3458   222.0713 </r>
       <r>    -0.9130    31.7106   224.6681 </r>
       <r>    -0.8341    26.9097   226.8295 </r>
       <r>    -0.7551    26.4259   229.0319 </r>
       <r>    -0.6762    43.7090   232.5437 </r>
       <r>    -0.5973    35.1653   235.3666 </r>
       <r>    -0.5184    32.7762   238.0026 </r>
       <r>    -0.4394    41.7839   241.5045 </r>
       <r>    -0.3605    39.4923   244.8013 </r>
       <r>    -0.2816    44.5526   248.3719 </r>
       <r>    -0.2026    38.0260   251.5643 </r>
       <r>    -0.1237    33.7674   254.3631 </r>
       <r>    -0.0448    39.6493   257.6259 </r>
       <r>     0.0341    32.2264   260.2702 </r>
       <r>     0.1131    36.3240   263.1538 </r>
       <r>     0.1920    40.3349   266.4691 </r>
       <r>     0.2709    37.0782   269.4772 </r>
       <r>     0.3499    30.2431   272.0021 </r>
       <r>     0.4288    36.3664   274.9273 </r>
       <r>     0.5077    37.4579   277.8905 </r>
       <r>     0.5866    36.9203   280.8056 </r>
       <r>     0.6656    39.5977   284.0212 </r>
       <r>     0.7445    48.3500   287.9094 </r>
       <r>     0.8234    26.8993   290.1070 </r>
       <r>     0.9023    38.1057   293.1763 </r>
       <r>     0.9813    27.6001   295.4986 </r>
       <r>     1.0602    39.8758   298.7888 </r>
       <r>     1.1391    33.8539   301.4651 </r>
       <r>     1.2181    45.4838   305.0827 </r>
       <r>     1.2970    37.7826   308.1103 </r>
       <r>     1.3759    36.9213   311.2260 </r>
       <r>     1.4548    41.9271   314.7111 </r>
       <r>     1.5338    31.6707   317.3313 </r>
       <r>     1.6127    34.7584   320.1500 </r>
       <r>     1.6916    46.5093   323.8604 </r>
       <r>     1.7706    37.6766   326.9110 </r>
       <r>     1.8495    40.2978   330.1786 </r>
       <r>     1.9284    41.0871   333.4890 </r>
       <r>     2.0073    47.2154   337.2753 </r>
       <r>     2.0863    40.6140   340.6183 </r>
       <r>     2.1652    34.9053   343.4590 </r>
       <r>     2.2441    43.3542   346.9613 </r>
       <r>     2.3230    35.2352   349.8392 </r>
       <r>     2.4020    42.2273   353.1966 </r>
       <r>     2.4809    32.6207   355.8498 </r>
       <r>     2.5598    45.1685   359.5478 </r>
       <r>     2.6388    37.8906   362.6628 </r>
       <r>     2.7177    52.2014   366.9877 </r>
       <r>     2.7966    44.1332   370.5360 </r>
       <r>     2.8755    34.4718   373.3214 </r>
       <r>     2.9545    46.0351   376.9594 </r>
       <r>     3.0334    39.6856   380.1729 </r>
       <r>     3.1123    29.3157   382.5876 </r>
       <r>     3.1913    34.4199   385.3057 </r>
       <r>     3.2702    43.6966   388.8021 </r>
       <r>     3.3491    30.2034   391.3372 </r>
       <r>     3.4280    35.3354   394.1540 </r>
       <r>     3.5070    37.8874   397.1481 </r>
       <r>     3.5859    42.2169   400.5563 </r>
       <r>     3.6648    43.8395   404.0524 </r>
       <r>     3.7437    39.3937   407.2686 </r>
       <r>     3.8227    36.5357   410.3267 </r>
       <r>     3.9016    36.7968   413.3389 </r>
       <r>     3.9805    43.5998   416.9618 </r>
       <r>     4.0595    37.4001   420.0446 </r>
       <r>     4.1384    34.1542   422.9075 </r>
       <r>     4.2173    37.9184   425.9942 </r>
       <r>     4.2962    41.2495   429.2915 </r>
       <r>     4.3752    34.1197   432.0197 </r>
       <r>     4.4541    39.2121   435.2595 </r>
       <r>     4.5330    26.9872   437.4275 </r>
       <r>     4.6120    29.9093   439.9440 </r>
       <r>     4.6909    33.3907   442.6181 </r>
       <r>     4.7698    41.3788   445.8976 </r>
       <r>     4.8487    32.9423   448.7018 </r>
       <r>     4.9277    32.0733   451.3327 </r>
       <r>     5.0066    45.5287   454.9853 </r>
       <r>     5.0855    37.8639   458.0211 </r>
       <r>     5.1644    38.1574   461.0627 </r>
       <r>     5.2434    39.2681   464.2875 </r>
       <r>     5.3223    34.4568   467.1225 </r>
       <r>     5.4012    37.2321   470.1214 </r>
       <r>     5.4802    34.4828   473.0156 </r>
       <r>     5.5591    32.1153   475.6501 </r>
       <r>     5.6380    31.1234   478.1427 </r>
       <r>     5.7169    26.9110   480.3820 </r>
       <r>     5.7959    38.4977   483.4255 </r>
       <r>     5.8748    32.5908   486.2192 </r>
       <r>     5.9537    28.1562   488.4497 </r>
       <r>     6.0327    42.2515   491.8518 </r>
       <r>     6.1116    45.7540   495.5605 </r>
       <r>     6.1905    35.7576   498.4354 </r>
       <r>     6.2694    43.4680   501.9556 </r>
       <r>     6.3484    34.2947   504.7473 </r>
       <r>     6.4273    37.3211   507.7461 </r>
       <r>     6.5062    30.2084   510.1457 </r>
       <r>     6.5852    33.1249   512.7671 </r>
       <r>     6.6641    40.0243   516.0516 </r>
       <r>     6.7430    44.8357   519.6474 </r>
       <r>     6.8219    21.2304   521.4233 </r>
       <r>     6.9009    27.9743   523.7438 </r>
       <r>     6.9798    33.6716   526.6124 </r>
       <r>     7.0587    34.0773   529.3826 </r>
       <r>     7.1376    35.9899   532.3006 </r>
       <r>     7.2166    46.0080   536.0222 </r>
       <r>     7.2955    26.3745   538.2370 </r>
       <r>     7.3744    31.0829   540.7599 </r>
       <r>     7.4534    32.1764   543.3427 </r>
       <r>     7.5323    34.9916   546.1333 </r>
       <r>     7.6112    40.5998   549.4048 </r>
       <r>     7.6901    29.5023   551.8305 </r>
       <r>     7.7691    36.5473   554.7725 </r>
       <r>     7.8480    31.6986   557.3753 </r>
       <r>     7.9269    38.0033   560.4698 </r>
       <r>     8.0059    29.5926   562.8671 </r>
       <r>     8.0848    39.2028   565.9663 </r>
       <r>     8.1637    35.0266   568.7456 </r>
       <r>     8.2426    33.5953   571.4188 </r>
       <r>     8.3216    28.3100   573.7174 </r>
       <r>     8.4005    10.3700   574.6106 </r>
       <r>     8.4794    12.6144   575.6062 </r>
       <r>     8.5583     4.2231   576.0000 </r>
       <r>     8.6373     0.0000   576.0000 </r>
       <r>     8.7162     0.0000   576.0000 </r>
       <r>     8.7951     0.0000   576.0000 </r>
       <r>     8.8741     0.0000   576.0000 </r>
       <r>     8.9530     0.0000   576.0000 </r>
       <r>     9.0319     0.0000   576.0000 </r>
       <r>     9.1108     0.0000   576.0000 </r>
       <r>     9.1898     0.0000   576.0000 </r>
       <r>     9.2687     0.0000   576.0000 </r>
       <r>     9.3476     0.0000   576.0000 </r>
       <r>     9.4266     0.0000   576.0000 </r>
       <r>     9.5055     0.0000   576.0000 </r>
       <r>     9.5844     0.0000   576.0000 </r>
      </set>
     </set>
    </array>
   </total>
  </dos>
 </calculation>
 <structure name="finalpos" >
  <crystal>
   <varray name="basis" >
    <v>      13.30317974       0.00000000       0.00000000 </v>
    <v>      -6.65158939      14.87340641       0.00000000 </v>
    <v>       0.00000000       0.00000000       7.00647449 </v>
   </varray>
   <i name="volume">   1386.32625871 </i>
   <varray name="rec_basis" >
    <v>       0.07517000       0.03361704       0.00000000 </v>
    <v>       0.00000000       0.06723409       0.00000000 </v>
    <v>       0.00000000       0.00000000       0.14272513 </v>
   </varray>
  </crystal>
  <varray name="positions" >
   <v>       0.99715096       0.98005658       0.00000000 </v>
   <v>       0.96381754       0.74672317       0.17332673 </v>
   <v>       0.93048412       0.51338983       0.34665346 </v>
   <v>       0.33048421       0.31338987       0.00000000 </v>
   <v>       0.29715079       0.08005647       0.17332673 </v>
   <v>       0.26381737       0.84672308       0.34665346 </v>
   <v>       0.66381747       0.64672315       0.00000000 </v>
   <v>       0.63048405       0.41338971       0.17332673 </v>
   <v>       0.59715062       0.18005633       0.34665346 </v>
   <v>       0.31381753       0.94672334       0.08666318 </v>
   <v>       0.28048411       0.71338999       0.25998992 </v>
   <v>       0.24715069       0.48005658       0.43331653 </v>
   <v>       0.64715082       0.28005657       0.08666318 </v>
   <v>       0.61381739       0.04672319       0.25998989 </v>
   <v>       0.58048397       0.81338978       0.43331659 </v>
   <v>       0.98048443       0.61338985       0.08666321 </v>
   <v>       0.94715101       0.38005647       0.25998989 </v>
   <v>       0.91381758       0.14672309       0.43331653 </v>
   <v>       0.16381757       0.64672309       0.00000000 </v>
   <v>       0.13048416       0.41338971       0.17332673 </v>
   <v>       0.09715075       0.18005632       0.34665346 </v>
   <v>       0.49715090       0.98005664       0.00000001 </v>
   <v>       0.46381742       0.74672317       0.17332664 </v>
   <v>       0.43048406       0.51338983       0.34665340 </v>
   <v>       0.83048415       0.31338987       0.00000001 </v>
   <v>       0.79715073       0.08005653       0.17332664 </v>
   <v>       0.76381731       0.84672308       0.34665340 </v>
   <v>       0.14715090       0.28005657       0.08666319 </v>
   <v>       0.11381748       0.04672317       0.25998992 </v>
   <v>       0.08048407       0.81338978       0.43331659 </v>
   <v>       0.48048422       0.61338991       0.08666319 </v>
   <v>       0.44715083       0.38005653       0.25998989 </v>
   <v>       0.41381741       0.14672317       0.43331659 </v>
   <v>       0.81381750       0.94672328       0.08666318 </v>
   <v>       0.78048414       0.71338987       0.25998989 </v>
   <v>       0.74715072       0.48005646       0.43331659 </v>
   <v>       0.39146835       0.05034280       0.80203229 </v>
   <v>       0.19146821       0.65034282       0.57436830 </v>
   <v>       0.29146826       0.35034278       0.68820030 </v>
   <v>       0.67718267       0.19319987       0.80203229 </v>
   <v>       0.47718245       0.79319996       0.57436830 </v>
   <v>       0.57718259       0.49319991       0.68820030 </v>
   <v>       0.96289688       0.33605695       0.80203229 </v>
   <v>       0.76289678       0.93605703       0.57436830 </v>
   <v>       0.86289686       0.63605702       0.68820030 </v>
   <v>       0.24861121       0.47891420       0.80203229 </v>
   <v>       0.04861106       0.07891429       0.57436830 </v>
   <v>       0.14861113       0.77891427       0.68820030 </v>
   <v>       0.53432548       0.62177134       0.80203229 </v>
   <v>       0.33432531       0.22177145       0.57436830 </v>
   <v>       0.43432540       0.92177141       0.68820030 </v>
   <v>       0.82003981       0.76462847       0.80203229 </v>
   <v>       0.62003958       0.36462858       0.57436830 </v>
   <v>       0.72003967       0.06462860       0.68820030 </v>
   <v>       0.10575394       0.90748555       0.80203229 </v>
   <v>       0.90575385       0.50748575       0.57436830 </v>
   <v>       0.00575388       0.20748568       0.68820030 </v>
   <v>       0.37003979       0.36462855       0.85894817 </v>
   <v>       0.17003965       0.96462870       0.63128418 </v>
   <v>       0.27003974       0.66462868       0.74511612 </v>
   <v>       0.51289689       0.93605709       0.85894817 </v>
   <v>       0.31289673       0.53605717       0.63128418 </v>
   <v>       0.41289678       0.23605713       0.74511612 </v>
   <v>       0.79861116       0.07891440       0.85894817 </v>
   <v>       0.59861094       0.67891449       0.63128418 </v>
   <v>       0.69861102       0.37891442       0.74511623 </v>
   <v>       0.08432547       0.22177151       0.85894805 </v>
   <v>       0.88432532       0.82177156       0.63128418 </v>
   <v>       0.98432541       0.52177155       0.74511623 </v>
   <v>       0.65575409       0.50748563       0.85894817 </v>
   <v>       0.45575392       0.10748577       0.63128418 </v>
   <v>       0.55575401       0.80748564       0.74511612 </v>
   <v>       0.94146830       0.65034294       0.85894817 </v>
   <v>       0.74146813       0.25034302       0.63128418 </v>
   <v>       0.84146816       0.95034295       0.74511612 </v>
   <v>       0.22718242       0.79319996       0.85894817 </v>
   <v>       0.02718234       0.39320010       0.63128418 </v>
   <v>       0.12718239       0.09320009       0.74511612 </v>
   <v>       0.46289694       0.33605692       0.80203229 </v>
   <v>       0.26289672       0.93605709       0.57436830 </v>
   <v>       0.36289683       0.63605702       0.68820030 </v>
   <v>       0.32003975       0.76462847       0.80203229 </v>
   <v>       0.12003963       0.36462855       0.57436830 </v>
   <v>       0.22003970       0.06462848       0.68820030 </v>
   <v>       0.60575402       0.90748555       0.80203229 </v>
   <v>       0.40575385       0.50748569       0.57436830 </v>
   <v>       0.50575393       0.20748565       0.68820030 </v>
   <v>       0.89146829       0.05034268       0.80203229 </v>
   <v>       0.69146812       0.65034276       0.57436830 </v>
   <v>       0.79146832       0.35034275       0.68820030 </v>
   <v>       0.17718258       0.19319981       0.80203229 </v>
   <v>       0.97718251       0.79319996       0.57436830 </v>
   <v>       0.07718245       0.49319986       0.68820030 </v>
   <v>       0.74861115       0.47891420       0.80203229 </v>
   <v>       0.54861099       0.07891429       0.57436830 </v>
   <v>       0.64861113       0.77891421       0.68820030 </v>
   <v>       0.03432536       0.62177128       0.80203229 </v>
   <v>       0.83432525       0.22177142       0.57436830 </v>
   <v>       0.93432540       0.92177135       0.68820030 </v>
   <v>       0.29861116       0.07891440       0.85894817 </v>
   <v>       0.09861100       0.67891449       0.63128418 </v>
   <v>       0.19861108       0.37891442       0.74511623 </v>
   <v>       0.58432549       0.22177148       0.85894817 </v>
   <v>       0.38432530       0.82177156       0.63128418 </v>
   <v>       0.48432541       0.52177155       0.74511623 </v>
   <v>       0.87003976       0.36462861       0.85894817 </v>
   <v>       0.67003959       0.96462870       0.63128418 </v>
   <v>       0.77003968       0.66462857       0.74511623 </v>
   <v>       0.44146833       0.65034300       0.85894817 </v>
   <v>       0.24146819       0.25034308       0.63128418 </v>
   <v>       0.34146821       0.95034301       0.74511612 </v>
   <v>       0.72718263       0.79320008       0.85894805 </v>
   <v>       0.52718246       0.39320016       0.63128418 </v>
   <v>       0.62718248       0.09320009       0.74511623 </v>
   <v>       0.01289678       0.93605703       0.85894805 </v>
   <v>       0.81289655       0.53605711       0.63128418 </v>
   <v>       0.91289675       0.23605710       0.74511612 </v>
   <v>       0.15575400       0.50748563       0.85894817 </v>
   <v>       0.95575380       0.10748577       0.63128418 </v>
   <v>       0.05575386       0.80748564       0.74511623 </v>
  </varray>
 </structure>
</modeling>
