 168 168   0   0
  0.2802175E+02  0.1600268E-08  0.1959920E-08  0.2599766E-08  0.5000000E-15
  1.000000000000000E-004
  CAR 
 Si and Ge interface calculation         
      6.20713006     -9.88696593  301      3.33617636      1.00000000
     -9.887  0.0000E+00  0.0000E+00  0.0000E+00  0.0000E+00
     -9.833  0.0000E+00  0.0000E+00  0.0000E+00  0.0000E+00
     -9.780  0.0000E+00  0.0000E+00  0.0000E+00  0.0000E+00
     -9.726  0.0000E+00  0.0000E+00  0.0000E+00  0.0000E+00
     -9.672  0.0000E+00  0.0000E+00  0.0000E+00  0.0000E+00
     -9.619  0.0000E+00  0.0000E+00  0.0000E+00  0.0000E+00
     -9.565  0.0000E+00  0.0000E+00  0.0000E+00  0.0000E+00
     -9.511  0.0000E+00  0.0000E+00  0.0000E+00  0.0000E+00
     -9.458  0.0000E+00  0.0000E+00  0.0000E+00  0.0000E+00
     -9.404  0.0000E+00  0.0000E+00  0.0000E+00  0.0000E+00
     -9.350  0.0000E+00  0.0000E+00  0.0000E+00  0.0000E+00
     -9.297  0.0000E+00  0.0000E+00  0.0000E+00  0.0000E+00
     -9.243  0.0000E+00  0.0000E+00  0.0000E+00  0.0000E+00
     -9.190  0.2857E-05  0.1163E-06  0.1532E-06  0.6237E-08
     -9.136  0.4130E+01  0.4078E+01  0.2216E+00  0.2188E+00
     -9.082  0.8249E+01  0.8124E+01  0.6641E+00  0.6546E+00
     -9.029  0.8323E+01  0.8447E+01  0.1111E+01  0.1108E+01
     -8.975  0.1654E+02  0.1642E+02  0.1998E+01  0.1989E+01
     -8.921  0.8204E+01  0.8025E+01  0.2438E+01  0.2419E+01
     -8.868  0.1232E+00  0.4738E+00  0.2445E+01  0.2444E+01
     -8.814  0.2001E+02  0.1849E+02  0.3518E+01  0.3436E+01
     -8.760  0.1659E+02  0.1576E+02  0.4408E+01  0.4282E+01
     -8.707  0.1900E+02  0.1991E+02  0.5428E+01  0.5350E+01
     -8.653  0.2148E+02  0.1855E+02  0.6580E+01  0.6345E+01
     -8.599  0.3484E+02  0.3442E+02  0.8449E+01  0.8191E+01
     -8.546  0.1651E+02  0.2129E+02  0.9334E+01  0.9333E+01
     -8.492  0.2400E+02  0.2197E+02  0.1062E+02  0.1051E+02
     -8.438  0.2995E+02  0.2957E+02  0.1223E+02  0.1210E+02
     -8.385  0.3138E+02  0.3071E+02  0.1391E+02  0.1375E+02
     -8.331  0.1967E+02  0.2001E+02  0.1497E+02  0.1482E+02
     -8.278  0.2759E+02  0.2976E+02  0.1645E+02  0.1642E+02
     -8.224  0.3023E+02  0.2877E+02  0.1807E+02  0.1796E+02
     -8.170  0.1559E+02  0.1357E+02  0.1891E+02  0.1869E+02
     -8.117  0.3031E+02  0.3003E+02  0.2053E+02  0.2030E+02
     -8.063  0.3826E+02  0.3702E+02  0.2258E+02  0.2228E+02
     -8.009  0.2135E+02  0.2478E+02  0.2373E+02  0.2361E+02
     -7.956  0.2577E+02  0.2767E+02  0.2511E+02  0.2510E+02
     -7.902  0.8938E+01  0.8703E+01  0.2559E+02  0.2556E+02
     -7.848  0.2143E+02  0.1925E+02  0.2674E+02  0.2660E+02
     -7.795  0.3589E+02  0.3856E+02  0.2867E+02  0.2867E+02
     -7.741  0.1232E+02  0.1141E+02  0.2933E+02  0.2928E+02
     -7.687  0.2423E+02  0.2196E+02  0.3063E+02  0.3046E+02
     -7.634  0.4756E+02  0.4586E+02  0.3318E+02  0.3292E+02
     -7.580  0.3565E+02  0.3382E+02  0.3509E+02  0.3473E+02
     -7.526  0.1862E+02  0.2212E+02  0.3609E+02  0.3592E+02
     -7.473  0.4911E+02  0.4990E+02  0.3873E+02  0.3859E+02
     -7.419  0.3690E+02  0.3666E+02  0.4070E+02  0.4056E+02
     -7.366  0.1155E+02  0.1387E+02  0.4132E+02  0.4130E+02
     -7.312  0.2484E+02  0.2458E+02  0.4266E+02  0.4262E+02
     -7.258  0.3526E+02  0.3392E+02  0.4455E+02  0.4444E+02
     -7.205  0.5803E+02  0.5497E+02  0.4766E+02  0.4739E+02
     -7.151  0.5139E+02  0.4761E+02  0.5042E+02  0.4995E+02
     -7.097  0.5702E+02  0.5849E+02  0.5348E+02  0.5308E+02
     -7.044  0.3747E+02  0.3630E+02  0.5549E+02  0.5503E+02
     -6.990  0.3953E+02  0.4377E+02  0.5761E+02  0.5738E+02
     -6.936  0.4734E+02  0.4917E+02  0.6015E+02  0.6002E+02
     -6.883  0.1621E+02  0.1598E+02  0.6102E+02  0.6087E+02
     -6.829  0.3456E+02  0.3223E+02  0.6287E+02  0.6260E+02
     -6.775  0.6100E+02  0.5975E+02  0.6614E+02  0.6581E+02
     -6.722  0.4696E+02  0.4767E+02  0.6866E+02  0.6837E+02
     -6.668  0.6728E+02  0.6550E+02  0.7227E+02  0.7188E+02
     -6.614  0.4005E+02  0.4563E+02  0.7442E+02  0.7433E+02
     -6.561  0.2942E+02  0.2884E+02  0.7600E+02  0.7588E+02
     -6.507  0.3481E+02  0.3145E+02  0.7787E+02  0.7756E+02
     -6.454  0.6751E+02  0.6801E+02  0.8149E+02  0.8121E+02
     -6.400  0.5491E+02  0.5922E+02  0.8443E+02  0.8439E+02
     -6.346  0.2779E+02  0.2672E+02  0.8593E+02  0.8582E+02
     -6.293  0.5868E+02  0.5726E+02  0.8907E+02  0.8889E+02
     -6.239  0.7990E+02  0.7321E+02  0.9336E+02  0.9282E+02
     -6.185  0.3950E+02  0.4615E+02  0.9548E+02  0.9530E+02
     -6.132  0.4626E+02  0.4656E+02  0.9796E+02  0.9779E+02
     -6.078  0.5089E+02  0.5202E+02  0.1007E+03  0.1006E+03
     -6.024  0.5931E+02  0.5884E+02  0.1039E+03  0.1037E+03
     -5.971  0.3261E+02  0.3083E+02  0.1056E+03  0.1054E+03
     -5.917  0.4848E+02  0.4745E+02  0.1082E+03  0.1079E+03
     -5.863  0.2700E+02  0.3099E+02  0.1097E+03  0.1096E+03
     -5.810  0.4734E+02  0.4831E+02  0.1122E+03  0.1122E+03
     -5.756  0.2386E+01  0.1670E+01  0.1123E+03  0.1123E+03
     -5.703  0.3069E+02  0.2997E+02  0.1140E+03  0.1139E+03
     -5.649  0.5868E+02  0.5696E+02  0.1171E+03  0.1169E+03
     -5.595  0.6860E+02  0.6558E+02  0.1208E+03  0.1205E+03
     -5.542  0.4965E+02  0.4818E+02  0.1235E+03  0.1231E+03
     -5.488  0.6751E+02  0.7121E+02  0.1271E+03  0.1269E+03
     -5.434  0.5561E+02  0.5862E+02  0.1301E+03  0.1300E+03
     -5.381  0.4732E+02  0.4163E+02  0.1326E+03  0.1322E+03
     -5.327  0.3911E+02  0.4176E+02  0.1347E+03  0.1345E+03
     -5.273  0.6323E+02  0.6265E+02  0.1381E+03  0.1379E+03
     -5.220  0.4884E+02  0.4886E+02  0.1407E+03  0.1405E+03
     -5.166  0.4328E+02  0.4188E+02  0.1431E+03  0.1427E+03
     -5.112  0.5361E+02  0.5654E+02  0.1459E+03  0.1458E+03
     -5.059  0.5263E+02  0.5270E+02  0.1488E+03  0.1486E+03
     -5.005  0.7220E+02  0.7005E+02  0.1526E+03  0.1523E+03
     -4.951  0.5928E+02  0.6407E+02  0.1558E+03  0.1558E+03
     -4.898  0.3166E+02  0.2913E+02  0.1575E+03  0.1573E+03
     -4.844  0.3664E+02  0.3491E+02  0.1595E+03  0.1592E+03
     -4.791  0.4796E+02  0.4885E+02  0.1620E+03  0.1618E+03
     -4.737  0.3333E+02  0.3372E+02  0.1638E+03  0.1636E+03
     -4.683  0.6397E+02  0.6323E+02  0.1673E+03  0.1670E+03
     -4.630  0.4829E+02  0.4619E+02  0.1699E+03  0.1695E+03
     -4.576  0.6191E+02  0.6054E+02  0.1732E+03  0.1728E+03
     -4.522  0.1960E+02  0.2732E+02  0.1742E+03  0.1742E+03
     -4.469  0.3720E+02  0.3396E+02  0.1762E+03  0.1760E+03
     -4.415  0.3939E+02  0.3809E+02  0.1783E+03  0.1781E+03
     -4.361  0.6011E+02  0.6065E+02  0.1816E+03  0.1813E+03
     -4.308  0.4995E+02  0.5030E+02  0.1842E+03  0.1840E+03
     -4.254  0.3036E+02  0.3177E+02  0.1859E+03  0.1857E+03
     -4.200  0.5099E+02  0.4580E+02  0.1886E+03  0.1882E+03
     -4.147  0.6125E+02  0.6526E+02  0.1919E+03  0.1917E+03
     -4.093  0.8975E+02  0.8662E+02  0.1967E+03  0.1963E+03
     -4.039  0.4415E+02  0.4611E+02  0.1991E+03  0.1988E+03
     -3.986  0.4490E+02  0.4522E+02  0.2015E+03  0.2012E+03
     -3.932  0.5966E+02  0.5770E+02  0.2047E+03  0.2043E+03
     -3.879  0.3473E+02  0.3633E+02  0.2065E+03  0.2063E+03
     -3.825  0.5604E+02  0.6029E+02  0.2096E+03  0.2095E+03
     -3.771  0.4203E+02  0.3548E+02  0.2118E+03  0.2114E+03
     -3.718  0.7353E+02  0.7917E+02  0.2158E+03  0.2157E+03
     -3.664  0.4533E+02  0.3918E+02  0.2182E+03  0.2178E+03
     -3.610  0.6304E+02  0.6436E+02  0.2216E+03  0.2212E+03
     -3.557  0.6400E+02  0.6056E+02  0.2250E+03  0.2245E+03
     -3.503  0.3650E+02  0.4251E+02  0.2270E+03  0.2268E+03
     -3.449  0.4536E+02  0.4447E+02  0.2294E+03  0.2291E+03
     -3.396  0.4306E+02  0.4004E+02  0.2317E+03  0.2313E+03
     -3.342  0.6993E+02  0.7602E+02  0.2355E+03  0.2354E+03
     -3.288  0.2926E+02  0.2866E+02  0.2370E+03  0.2369E+03
     -3.235  0.3576E+02  0.3702E+02  0.2389E+03  0.2389E+03
     -3.181  0.4363E+02  0.4190E+02  0.2413E+03  0.2411E+03
     -3.127  0.5758E+02  0.5729E+02  0.2444E+03  0.2442E+03
     -3.074  0.4216E+02  0.4080E+02  0.2466E+03  0.2464E+03
     -3.020  0.3770E+02  0.4123E+02  0.2487E+03  0.2486E+03
     -2.967  0.4426E+02  0.4240E+02  0.2510E+03  0.2509E+03
     -2.913  0.5000E+02  0.4923E+02  0.2537E+03  0.2535E+03
     -2.859  0.7197E+02  0.6960E+02  0.2576E+03  0.2573E+03
     -2.806  0.6856E+02  0.6904E+02  0.2613E+03  0.2610E+03
     -2.752  0.5072E+02  0.5286E+02  0.2640E+03  0.2638E+03
     -2.698  0.5321E+02  0.5489E+02  0.2668E+03  0.2668E+03
     -2.645  0.7498E+02  0.6784E+02  0.2708E+03  0.2704E+03
     -2.591  0.4153E+02  0.4499E+02  0.2731E+03  0.2728E+03
     -2.537  0.3606E+02  0.3669E+02  0.2750E+03  0.2748E+03
     -2.484  0.5987E+02  0.6257E+02  0.2782E+03  0.2781E+03
     -2.430  0.4662E+02  0.4739E+02  0.2807E+03  0.2807E+03
     -2.376  0.2308E+02  0.2186E+02  0.2820E+03  0.2818E+03
     -2.323  0.3060E+02  0.3209E+02  0.2836E+03  0.2836E+03
     -2.269  0.3582E+02  0.3185E+02  0.2855E+03  0.2853E+03
     -2.215  0.4614E+02  0.5073E+02  0.2880E+03  0.2880E+03
     -2.162  0.1242E+02  0.7915E+01  0.2887E+03  0.2884E+03
     -2.108  0.5745E+02  0.5421E+02  0.2917E+03  0.2913E+03
     -2.055  0.6307E+02  0.6602E+02  0.2951E+03  0.2949E+03
     -2.001  0.1183E+02  0.1606E+02  0.2958E+03  0.2957E+03
     -1.947  0.1219E+02  0.1202E+02  0.2964E+03  0.2964E+03
     -1.894  0.9186E+01  0.9120E+01  0.2969E+03  0.2969E+03
     -1.840  0.4931E+02  0.4641E+02  0.2996E+03  0.2994E+03
     -1.786  0.5078E+02  0.5083E+02  0.3023E+03  0.3021E+03
     -1.733  0.2375E+02  0.2173E+02  0.3036E+03  0.3032E+03
     -1.679  0.4505E+02  0.4987E+02  0.3060E+03  0.3059E+03
     -1.625  0.9071E+01  0.9711E+01  0.3065E+03  0.3064E+03
     -1.572  0.3726E+02  0.3087E+02  0.3085E+03  0.3081E+03
     -1.518  0.2046E+02  0.2709E+02  0.3096E+03  0.3096E+03
     -1.464  0.2523E+02  0.2489E+02  0.3109E+03  0.3109E+03
     -1.411  0.2893E+02  0.2638E+02  0.3125E+03  0.3123E+03
     -1.357  0.3173E+02  0.3333E+02  0.3142E+03  0.3141E+03
     -1.303  0.2601E+02  0.2709E+02  0.3156E+03  0.3155E+03
     -1.250  0.7959E+01  0.6236E+01  0.3160E+03  0.3159E+03
     -1.196  0.8521E+01  0.1034E+02  0.3164E+03  0.3164E+03
     -1.143  0.1605E+02  0.1370E+02  0.3173E+03  0.3172E+03
     -1.089  0.1265E+02  0.1336E+02  0.3180E+03  0.3179E+03
     -1.035  0.1659E+02  0.1599E+02  0.3189E+03  0.3187E+03
     -0.982  0.2634E+02  0.2567E+02  0.3203E+03  0.3201E+03
     -0.928  0.3326E+02  0.3139E+02  0.3221E+03  0.3218E+03
     -0.874  0.1179E+02  0.1615E+02  0.3227E+03  0.3227E+03
     -0.821  0.2687E+02  0.2397E+02  0.3241E+03  0.3240E+03
     -0.767  0.2263E+02  0.2571E+02  0.3254E+03  0.3253E+03
     -0.713  0.3152E+02  0.2693E+02  0.3270E+03  0.3268E+03
     -0.660  0.6587E+02  0.6280E+02  0.3306E+03  0.3302E+03
     -0.606  0.6633E+02  0.7283E+02  0.3341E+03  0.3341E+03
     -0.552  0.5817E+02  0.5300E+02  0.3373E+03  0.3369E+03
     -0.499  0.6624E+02  0.6475E+02  0.3408E+03  0.3404E+03
     -0.445  0.7244E+02  0.7314E+02  0.3447E+03  0.3443E+03
     -0.391  0.7158E+02  0.7549E+02  0.3485E+03  0.3484E+03
     -0.338  0.8012E+02  0.7806E+02  0.3528E+03  0.3525E+03
     -0.284  0.8268E+02  0.8119E+02  0.3573E+03  0.3569E+03
     -0.231  0.6161E+02  0.5880E+02  0.3606E+03  0.3600E+03
     -0.177  0.6397E+02  0.6550E+02  0.3640E+03  0.3636E+03
     -0.123  0.7356E+02  0.7213E+02  0.3680E+03  0.3674E+03
     -0.070  0.7589E+02  0.8029E+02  0.3720E+03  0.3717E+03
     -0.016  0.6753E+02  0.6608E+02  0.3757E+03  0.3753E+03
      0.038  0.6209E+02  0.6272E+02  0.3790E+03  0.3786E+03
      0.091  0.1031E+03  0.9749E+02  0.3845E+03  0.3839E+03
      0.145  0.7662E+02  0.8504E+02  0.3886E+03  0.3884E+03
      0.199  0.9239E+02  0.8732E+02  0.3936E+03  0.3931E+03
      0.252  0.1038E+03  0.9987E+02  0.3992E+03  0.3985E+03
      0.306  0.1193E+03  0.1199E+03  0.4056E+03  0.4049E+03
      0.360  0.1205E+03  0.1262E+03  0.4120E+03  0.4117E+03
      0.413  0.1113E+03  0.1084E+03  0.4180E+03  0.4175E+03
      0.467  0.1482E+03  0.1463E+03  0.4259E+03  0.4253E+03
      0.521  0.1382E+03  0.1375E+03  0.4334E+03  0.4327E+03
      0.574  0.1083E+03  0.1080E+03  0.4392E+03  0.4385E+03
      0.628  0.1193E+03  0.1207E+03  0.4456E+03  0.4450E+03
      0.681  0.1136E+03  0.1143E+03  0.4517E+03  0.4511E+03
      0.735  0.8849E+02  0.9220E+02  0.4564E+03  0.4561E+03
      0.789  0.1321E+03  0.1295E+03  0.4635E+03  0.4630E+03
      0.842  0.9104E+02  0.9078E+02  0.4684E+03  0.4679E+03
      0.896  0.1145E+03  0.1120E+03  0.4745E+03  0.4739E+03
      0.950  0.9232E+02  0.9354E+02  0.4795E+03  0.4789E+03
      1.003  0.1183E+03  0.1209E+03  0.4858E+03  0.4854E+03
      1.057  0.1262E+03  0.1277E+03  0.4926E+03  0.4923E+03
      1.111  0.8456E+02  0.8309E+02  0.4971E+03  0.4967E+03
      1.164  0.1230E+03  0.1199E+03  0.5037E+03  0.5032E+03
      1.218  0.1032E+03  0.1029E+03  0.5093E+03  0.5087E+03
      1.272  0.1370E+03  0.1392E+03  0.5166E+03  0.5161E+03
      1.325  0.1080E+03  0.1096E+03  0.5224E+03  0.5220E+03
      1.379  0.1132E+03  0.1121E+03  0.5285E+03  0.5280E+03
      1.433  0.1128E+03  0.1102E+03  0.5345E+03  0.5339E+03
      1.486  0.1206E+03  0.1244E+03  0.5410E+03  0.5406E+03
      1.540  0.8740E+02  0.8499E+02  0.5457E+03  0.5452E+03
      1.593  0.1173E+03  0.1147E+03  0.5520E+03  0.5513E+03
      1.647  0.1047E+03  0.1057E+03  0.5576E+03  0.5570E+03
      1.701  0.9986E+02  0.9922E+02  0.5630E+03  0.5623E+03
      1.754  0.9691E+02  0.1010E+03  0.5682E+03  0.5677E+03
      1.808  0.8015E+02  0.8077E+02  0.5725E+03  0.5721E+03
      1.862  0.8840E+02  0.8626E+02  0.5772E+03  0.5767E+03
      1.915  0.8530E+02  0.8556E+02  0.5818E+03  0.5813E+03
      1.969  0.9144E+02  0.9384E+02  0.5867E+03  0.5863E+03
      2.023  0.8933E+02  0.8799E+02  0.5915E+03  0.5910E+03
      2.076  0.7223E+02  0.6884E+02  0.5953E+03  0.5947E+03
      2.130  0.5277E+02  0.5394E+02  0.5982E+03  0.5976E+03
      2.184  0.6284E+02  0.6471E+02  0.6015E+03  0.6011E+03
      2.237  0.6505E+02  0.6715E+02  0.6050E+03  0.6047E+03
      2.291  0.5494E+02  0.5009E+02  0.6080E+03  0.6074E+03
      2.345  0.4775E+02  0.5499E+02  0.6105E+03  0.6103E+03
      2.398  0.4494E+02  0.4367E+02  0.6130E+03  0.6127E+03
      2.452  0.8675E+02  0.8309E+02  0.6176E+03  0.6171E+03
      2.505  0.3392E+02  0.3382E+02  0.6194E+03  0.6190E+03
      2.559  0.7392E+02  0.7539E+02  0.6234E+03  0.6230E+03
      2.613  0.6999E+02  0.6882E+02  0.6271E+03  0.6267E+03
      2.666  0.7082E+02  0.7015E+02  0.6309E+03  0.6305E+03
      2.720  0.4764E+02  0.4367E+02  0.6335E+03  0.6328E+03
      2.774  0.5531E+02  0.5868E+02  0.6365E+03  0.6359E+03
      2.827  0.4657E+02  0.4518E+02  0.6390E+03  0.6384E+03
      2.881  0.7367E+02  0.7359E+02  0.6429E+03  0.6423E+03
      2.935  0.6354E+02  0.6030E+02  0.6463E+03  0.6456E+03
      2.988  0.6631E+02  0.6761E+02  0.6499E+03  0.6492E+03
      3.042  0.7824E+02  0.7374E+02  0.6541E+03  0.6531E+03
      3.096  0.4755E+02  0.6206E+02  0.6566E+03  0.6565E+03
      3.149  0.7614E+02  0.6069E+02  0.6607E+03  0.6597E+03
      3.203  0.4897E+02  0.6330E+02  0.6633E+03  0.6631E+03
      3.257  0.6172E+02  0.4730E+02  0.6667E+03  0.6657E+03
      3.310  0.5957E+02  0.5774E+02  0.6699E+03  0.6688E+03
      3.364  0.5249E+02  0.7016E+02  0.6727E+03  0.6725E+03
      3.417  0.4601E+02  0.3930E+02  0.6751E+03  0.6746E+03
      3.471  0.5346E+02  0.5339E+02  0.6780E+03  0.6775E+03
      3.525  0.3606E+02  0.3971E+02  0.6799E+03  0.6796E+03
      3.578  0.6994E+02  0.5834E+02  0.6837E+03  0.6827E+03
      3.632  0.5000E+02  0.6319E+02  0.6864E+03  0.6861E+03
      3.686  0.5732E+02  0.4686E+02  0.6894E+03  0.6887E+03
      3.739  0.4099E+02  0.4300E+02  0.6916E+03  0.6910E+03
      3.793  0.3029E+02  0.3643E+02  0.6933E+03  0.6929E+03
      3.847  0.5072E+02  0.5572E+02  0.6960E+03  0.6959E+03
      3.900  0.3526E+02  0.2932E+02  0.6979E+03  0.6975E+03
      3.954  0.4973E+02  0.5087E+02  0.7006E+03  0.7002E+03
      4.008  0.3443E+02  0.3267E+02  0.7024E+03  0.7020E+03
      4.061  0.5939E+02  0.5580E+02  0.7056E+03  0.7050E+03
      4.115  0.4693E+02  0.5581E+02  0.7081E+03  0.7079E+03
      4.169  0.5419E+02  0.5038E+02  0.7110E+03  0.7106E+03
      4.222  0.5433E+02  0.5286E+02  0.7139E+03  0.7135E+03
      4.276  0.5000E+02  0.5514E+02  0.7166E+03  0.7164E+03
      4.329  0.4017E+02  0.3731E+02  0.7188E+03  0.7184E+03
      4.383  0.5512E+02  0.4964E+02  0.7217E+03  0.7211E+03
      4.437  0.6002E+02  0.6308E+02  0.7249E+03  0.7245E+03
      4.490  0.4341E+02  0.4692E+02  0.7273E+03  0.7270E+03
      4.544  0.2867E+02  0.3055E+02  0.7288E+03  0.7286E+03
      4.598  0.6847E+02  0.6615E+02  0.7325E+03  0.7322E+03
      4.651  0.5280E+02  0.5147E+02  0.7353E+03  0.7350E+03
      4.705  0.5665E+02  0.6074E+02  0.7384E+03  0.7382E+03
      4.759  0.7045E+02  0.6346E+02  0.7421E+03  0.7416E+03
      4.812  0.9042E+02  0.9272E+02  0.7470E+03  0.7466E+03
      4.866  0.1080E+03  0.1078E+03  0.7528E+03  0.7524E+03
      4.920  0.8287E+02  0.8242E+02  0.7572E+03  0.7568E+03
      4.973  0.1071E+03  0.1062E+03  0.7630E+03  0.7625E+03
      5.027  0.1151E+03  0.1141E+03  0.7691E+03  0.7686E+03
      5.081  0.1316E+03  0.1347E+03  0.7762E+03  0.7758E+03
      5.134  0.6803E+02  0.6311E+02  0.7799E+03  0.7792E+03
      5.188  0.9458E+02  0.9609E+02  0.7849E+03  0.7844E+03
      5.241  0.9335E+02  0.9670E+02  0.7899E+03  0.7896E+03
      5.295  0.1084E+03  0.1089E+03  0.7958E+03  0.7954E+03
      5.349  0.8991E+02  0.9407E+02  0.8006E+03  0.8005E+03
      5.402  0.8011E+02  0.7073E+02  0.8049E+03  0.8043E+03
      5.456  0.4297E+02  0.5130E+02  0.8072E+03  0.8070E+03
      5.510  0.1530E+02  0.1844E+02  0.8080E+03  0.8080E+03
      5.563  0.0000E+00  0.0000E+00  0.8080E+03  0.8080E+03
      5.617  0.0000E+00  0.0000E+00  0.8080E+03  0.8080E+03
      5.671  0.0000E+00  0.0000E+00  0.8080E+03  0.8080E+03
      5.724  0.0000E+00  0.0000E+00  0.8080E+03  0.8080E+03
      5.778  0.0000E+00  0.0000E+00  0.8080E+03  0.8080E+03
      5.832  0.0000E+00  0.0000E+00  0.8080E+03  0.8080E+03
      5.885  0.0000E+00  0.0000E+00  0.8080E+03  0.8080E+03
      5.939  0.0000E+00  0.0000E+00  0.8080E+03  0.8080E+03
      5.993  0.0000E+00  0.0000E+00  0.8080E+03  0.8080E+03
      6.046  0.0000E+00  0.0000E+00  0.8080E+03  0.8080E+03
      6.100  0.0000E+00  0.0000E+00  0.8080E+03  0.8080E+03
      6.153  0.0000E+00  0.0000E+00  0.8080E+03  0.8080E+03
      6.207  0.0000E+00  0.0000E+00  0.8080E+03  0.8080E+03
