  96  96   0   0
  0.2243693E+02  0.1265123E-08  0.1265123E-08  0.1373516E-08  0.5000000E-15
  1.000000000000000E-004
  CAR 
 Si and Ge interface calculation         
      6.52232554    -11.54295182  301      3.72013911      1.00000000
    -11.543  0.0000E+00  0.0000E+00  0.0000E+00  0.0000E+00
    -11.483  0.0000E+00  0.0000E+00  0.0000E+00  0.0000E+00
    -11.423  0.0000E+00  0.0000E+00  0.0000E+00  0.0000E+00
    -11.362  0.0000E+00  0.0000E+00  0.0000E+00  0.0000E+00
    -11.302  0.0000E+00  0.0000E+00  0.0000E+00  0.0000E+00
    -11.242  0.0000E+00  0.0000E+00  0.0000E+00  0.0000E+00
    -11.182  0.0000E+00  0.0000E+00  0.0000E+00  0.0000E+00
    -11.121  0.0000E+00  0.0000E+00  0.0000E+00  0.0000E+00
    -11.061  0.0000E+00  0.0000E+00  0.0000E+00  0.0000E+00
    -11.001  0.0000E+00  0.0000E+00  0.0000E+00  0.0000E+00
    -10.941  0.0000E+00  0.0000E+00  0.0000E+00  0.0000E+00
    -10.881  0.0000E+00  0.0000E+00  0.0000E+00  0.0000E+00
    -10.820  0.0000E+00  0.0000E+00  0.0000E+00  0.0000E+00
    -10.760  0.2231E-06  0.9580E-11  0.1343E-07  0.5769E-12
    -10.700  0.3311E+02  0.2951E+02  0.1994E+01  0.1777E+01
    -10.640  0.7865E-01  0.3698E+01  0.2000E+01  0.2000E+01
    -10.579  0.0000E+00  0.0000E+00  0.2000E+01  0.2000E+01
    -10.519  0.0000E+00  0.0000E+00  0.2000E+01  0.2000E+01
    -10.459  0.0000E+00  0.0000E+00  0.2000E+01  0.2000E+01
    -10.399  0.0000E+00  0.0000E+00  0.2000E+01  0.2000E+01
    -10.339  0.1929E-03  0.1727E-05  0.2000E+01  0.2000E+01
    -10.278  0.1108E+02  0.1101E+02  0.2667E+01  0.2663E+01
    -10.218  0.2213E+02  0.2219E+02  0.4000E+01  0.4000E+01
    -10.158  0.1860E-11  0.4097E-15  0.4000E+01  0.4000E+01
    -10.098  0.1147E+02  0.4921E+01  0.4691E+01  0.4296E+01
    -10.038  0.1643E+02  0.1753E+02  0.5680E+01  0.5352E+01
     -9.977  0.2745E+02  0.3290E+02  0.7333E+01  0.7333E+01
     -9.917  0.0000E+00  0.0000E+00  0.7333E+01  0.7333E+01
     -9.857  0.3264E+01  0.8709E+00  0.7530E+01  0.7386E+01
     -9.797  0.1888E+02  0.2127E+02  0.8667E+01  0.8667E+01
     -9.736  0.0000E+00  0.0000E+00  0.8667E+01  0.8667E+01
     -9.676  0.0000E+00  0.0000E+00  0.8667E+01  0.8667E+01
     -9.616  0.0000E+00  0.0000E+00  0.8667E+01  0.8667E+01
     -9.556  0.1509E+00  0.7338E-02  0.8676E+01  0.8667E+01
     -9.496  0.2199E+02  0.2213E+02  0.1000E+02  0.1000E+02
     -9.435  0.0000E+00  0.0000E+00  0.1000E+02  0.1000E+02
     -9.375  0.0000E+00  0.0000E+00  0.1000E+02  0.1000E+02
     -9.315  0.0000E+00  0.0000E+00  0.1000E+02  0.1000E+02
     -9.255  0.8429E-01  0.3144E-02  0.1001E+02  0.1000E+02
     -9.194  0.2206E+02  0.2214E+02  0.1133E+02  0.1133E+02
     -9.134  0.8352E-06  0.3266E-08  0.1133E+02  0.1133E+02
     -9.074  0.1106E+02  0.1085E+02  0.1200E+02  0.1199E+02
     -9.014  0.1909E-10  0.2180E+00  0.1200E+02  0.1200E+02
     -8.954  0.1430E+02  0.4212E+01  0.1286E+02  0.1225E+02
     -8.893  0.2102E+02  0.2973E+02  0.1413E+02  0.1404E+02
     -8.833  0.3050E+02  0.2951E+02  0.1596E+02  0.1582E+02
     -8.773  0.6007E+00  0.2978E+01  0.1600E+02  0.1600E+02
     -8.713  0.0000E+00  0.0000E+00  0.1600E+02  0.1600E+02
     -8.653  0.1814E+01  0.1520E+00  0.1611E+02  0.1601E+02
     -8.592  0.2219E+02  0.1962E+02  0.1745E+02  0.1719E+02
     -8.532  0.1019E+02  0.1350E+02  0.1806E+02  0.1800E+02
     -8.472  0.2369E+02  0.2270E+02  0.1949E+02  0.1937E+02
     -8.412  0.1801E+02  0.1825E+02  0.2057E+02  0.2047E+02
     -8.351  0.2564E+02  0.2544E+02  0.2211E+02  0.2200E+02
     -8.291  0.1191E+02  0.1195E+02  0.2283E+02  0.2272E+02
     -8.231  0.1024E+02  0.1175E+02  0.2345E+02  0.2343E+02
     -8.171  0.1451E+02  0.1359E+02  0.2432E+02  0.2425E+02
     -8.111  0.1249E+02  0.1034E+02  0.2507E+02  0.2487E+02
     -8.050  0.3506E+02  0.3092E+02  0.2719E+02  0.2673E+02
     -7.990  0.2856E+02  0.3473E+02  0.2891E+02  0.2882E+02
     -7.930  0.2396E+02  0.2075E+02  0.3035E+02  0.3007E+02
     -7.870  0.2091E+02  0.2294E+02  0.3161E+02  0.3145E+02
     -7.809  0.1055E+02  0.1076E+02  0.3224E+02  0.3210E+02
     -7.749  0.8882E+01  0.1119E+02  0.3278E+02  0.3278E+02
     -7.689  0.2682E+02  0.2250E+02  0.3439E+02  0.3413E+02
     -7.629  0.2018E+02  0.2365E+02  0.3561E+02  0.3556E+02
     -7.569  0.3473E+02  0.2931E+02  0.3770E+02  0.3732E+02
     -7.508  0.1868E+02  0.2198E+02  0.3883E+02  0.3864E+02
     -7.448  0.1587E+02  0.1700E+02  0.3978E+02  0.3967E+02
     -7.388  0.2300E+02  0.2098E+02  0.4117E+02  0.4093E+02
     -7.328  0.2813E+02  0.3005E+02  0.4286E+02  0.4274E+02
     -7.268  0.3152E+02  0.2698E+02  0.4476E+02  0.4437E+02
     -7.207  0.1684E+02  0.2260E+02  0.4577E+02  0.4573E+02
     -7.147  0.1518E+02  0.1426E+02  0.4669E+02  0.4659E+02
     -7.087  0.2378E+02  0.1738E+02  0.4812E+02  0.4763E+02
     -7.027  0.3429E+02  0.3694E+02  0.5018E+02  0.4986E+02
     -6.966  0.2942E+02  0.2763E+02  0.5196E+02  0.5152E+02
     -6.906  0.2826E+02  0.2866E+02  0.5366E+02  0.5325E+02
     -6.846  0.3287E+02  0.3506E+02  0.5564E+02  0.5536E+02
     -6.786  0.3687E+02  0.3538E+02  0.5786E+02  0.5749E+02
     -6.726  0.3228E+02  0.3416E+02  0.5980E+02  0.5955E+02
     -6.665  0.1507E+02  0.1705E+02  0.6071E+02  0.6057E+02
     -6.605  0.2520E+02  0.2131E+02  0.6223E+02  0.6186E+02
     -6.545  0.3484E+02  0.3593E+02  0.6432E+02  0.6402E+02
     -6.485  0.2707E+02  0.3023E+02  0.6595E+02  0.6584E+02
     -6.424  0.3789E+02  0.3230E+02  0.6824E+02  0.6779E+02
     -6.364  0.2814E+02  0.3053E+02  0.6993E+02  0.6963E+02
     -6.304  0.2361E+02  0.2467E+02  0.7135E+02  0.7111E+02
     -6.244  0.2458E+02  0.2406E+02  0.7283E+02  0.7256E+02
     -6.184  0.2086E+02  0.2340E+02  0.7409E+02  0.7397E+02
     -6.123  0.2978E+02  0.2774E+02  0.7588E+02  0.7564E+02
     -6.063  0.2553E+02  0.2295E+02  0.7742E+02  0.7702E+02
     -6.003  0.2733E+02  0.2730E+02  0.7906E+02  0.7867E+02
     -5.943  0.2460E+02  0.2886E+02  0.8055E+02  0.8040E+02
     -5.882  0.3567E+02  0.3290E+02  0.8269E+02  0.8238E+02
     -5.822  0.2463E+02  0.2563E+02  0.8418E+02  0.8393E+02
     -5.762  0.1864E+02  0.1503E+02  0.8530E+02  0.8483E+02
     -5.702  0.1253E+02  0.1675E+02  0.8605E+02  0.8584E+02
     -5.642  0.2025E+02  0.1886E+02  0.8727E+02  0.8698E+02
     -5.581  0.2481E+02  0.2503E+02  0.8877E+02  0.8849E+02
     -5.521  0.2175E+02  0.2355E+02  0.9008E+02  0.8990E+02
     -5.461  0.2062E+02  0.1883E+02  0.9132E+02  0.9104E+02
     -5.401  0.2466E+02  0.2747E+02  0.9281E+02  0.9269E+02
     -5.341  0.1915E+02  0.1991E+02  0.9396E+02  0.9389E+02
     -5.280  0.2016E+02  0.1677E+02  0.9517E+02  0.9490E+02
     -5.220  0.3340E+02  0.3101E+02  0.9718E+02  0.9677E+02
     -5.160  0.2227E+02  0.2289E+02  0.9853E+02  0.9815E+02
     -5.100  0.1715E+02  0.2290E+02  0.9956E+02  0.9953E+02
     -5.039  0.1833E+02  0.1697E+02  0.1007E+03  0.1005E+03
     -4.979  0.2097E+02  0.1979E+02  0.1019E+03  0.1017E+03
     -4.919  0.1369E+02  0.1461E+02  0.1027E+03  0.1026E+03
     -4.859  0.2531E+02  0.2353E+02  0.1043E+03  0.1040E+03
     -4.799  0.1946E+02  0.2148E+02  0.1054E+03  0.1053E+03
     -4.738  0.3184E+02  0.2839E+02  0.1074E+03  0.1070E+03
     -4.678  0.3584E+02  0.3722E+02  0.1095E+03  0.1093E+03
     -4.618  0.2423E+02  0.2288E+02  0.1110E+03  0.1107E+03
     -4.558  0.2235E+02  0.2620E+02  0.1123E+03  0.1122E+03
     -4.497  0.2448E+02  0.2087E+02  0.1138E+03  0.1135E+03
     -4.437  0.1220E+02  0.1522E+02  0.1145E+03  0.1144E+03
     -4.377  0.2970E+02  0.2664E+02  0.1163E+03  0.1160E+03
     -4.317  0.2219E+02  0.2224E+02  0.1177E+03  0.1174E+03
     -4.257  0.2527E+02  0.2795E+02  0.1192E+03  0.1190E+03
     -4.196  0.3154E+02  0.2765E+02  0.1211E+03  0.1207E+03
     -4.136  0.1861E+02  0.2362E+02  0.1222E+03  0.1221E+03
     -4.076  0.2181E+02  0.1946E+02  0.1235E+03  0.1233E+03
     -4.016  0.1511E+02  0.1625E+02  0.1244E+03  0.1243E+03
     -3.956  0.2406E+02  0.2274E+02  0.1259E+03  0.1256E+03
     -3.895  0.2200E+02  0.2138E+02  0.1272E+03  0.1269E+03
     -3.835  0.1651E+02  0.1964E+02  0.1282E+03  0.1281E+03
     -3.775  0.2071E+02  0.1804E+02  0.1294E+03  0.1292E+03
     -3.715  0.2114E+02  0.2099E+02  0.1307E+03  0.1305E+03
     -3.654  0.2855E+02  0.2651E+02  0.1324E+03  0.1321E+03
     -3.594  0.1726E+02  0.2096E+02  0.1335E+03  0.1333E+03
     -3.534  0.2762E+02  0.2437E+02  0.1351E+03  0.1348E+03
     -3.474  0.3519E+02  0.3450E+02  0.1373E+03  0.1369E+03
     -3.414  0.3067E+02  0.3006E+02  0.1391E+03  0.1387E+03
     -3.353  0.2974E+02  0.2858E+02  0.1409E+03  0.1404E+03
     -3.293  0.2967E+02  0.3452E+02  0.1427E+03  0.1425E+03
     -3.233  0.2762E+02  0.2575E+02  0.1443E+03  0.1440E+03
     -3.173  0.2203E+02  0.2454E+02  0.1457E+03  0.1455E+03
     -3.112  0.3122E+02  0.3242E+02  0.1476E+03  0.1475E+03
     -3.052  0.1602E+02  0.1264E+02  0.1485E+03  0.1482E+03
     -2.992  0.2828E+02  0.2901E+02  0.1502E+03  0.1500E+03
     -2.932  0.3376E+02  0.3310E+02  0.1523E+03  0.1520E+03
     -2.872  0.2815E+02  0.2301E+02  0.1539E+03  0.1533E+03
     -2.811  0.2729E+02  0.3224E+02  0.1556E+03  0.1553E+03
     -2.751  0.2979E+02  0.2632E+02  0.1574E+03  0.1569E+03
     -2.691  0.4112E+02  0.4270E+02  0.1599E+03  0.1594E+03
     -2.631  0.3575E+02  0.3794E+02  0.1620E+03  0.1617E+03
     -2.571  0.2937E+02  0.3069E+02  0.1638E+03  0.1636E+03
     -2.510  0.3584E+02  0.3617E+02  0.1659E+03  0.1658E+03
     -2.450  0.3184E+02  0.2891E+02  0.1679E+03  0.1675E+03
     -2.390  0.3208E+02  0.3176E+02  0.1698E+03  0.1694E+03
     -2.330  0.3053E+02  0.3370E+02  0.1716E+03  0.1714E+03
     -2.269  0.3733E+02  0.3352E+02  0.1739E+03  0.1735E+03
     -2.209  0.1976E+02  0.2293E+02  0.1751E+03  0.1748E+03
     -2.149  0.2334E+02  0.2658E+02  0.1765E+03  0.1764E+03
     -2.089  0.3197E+02  0.2988E+02  0.1784E+03  0.1782E+03
     -2.029  0.2995E+02  0.2541E+02  0.1802E+03  0.1798E+03
     -1.968  0.2561E+02  0.2944E+02  0.1817E+03  0.1815E+03
     -1.908  0.2316E+02  0.2370E+02  0.1831E+03  0.1830E+03
     -1.848  0.1522E+02  0.1357E+02  0.1841E+03  0.1838E+03
     -1.788  0.2762E+02  0.2795E+02  0.1857E+03  0.1855E+03
     -1.727  0.3079E+02  0.2986E+02  0.1876E+03  0.1873E+03
     -1.667  0.3080E+02  0.3023E+02  0.1894E+03  0.1891E+03
     -1.607  0.3037E+02  0.3294E+02  0.1913E+03  0.1911E+03
     -1.547  0.2526E+02  0.2682E+02  0.1928E+03  0.1927E+03
     -1.487  0.1790E+02  0.1562E+02  0.1939E+03  0.1936E+03
     -1.426  0.1740E+02  0.2089E+02  0.1949E+03  0.1949E+03
     -1.366  0.1427E+02  0.1328E+02  0.1958E+03  0.1957E+03
     -1.306  0.1494E+02  0.1356E+02  0.1967E+03  0.1965E+03
     -1.246  0.2935E+02  0.2869E+02  0.1984E+03  0.1982E+03
     -1.186  0.2385E+02  0.2367E+02  0.1999E+03  0.1997E+03
     -1.125  0.1668E+02  0.1770E+02  0.2009E+03  0.2007E+03
     -1.065  0.1502E+02  0.1729E+02  0.2018E+03  0.2018E+03
     -1.005  0.7461E+01  0.6621E+01  0.2022E+03  0.2022E+03
     -0.945  0.1486E+02  0.1317E+02  0.2031E+03  0.2030E+03
     -0.884  0.1862E+02  0.1986E+02  0.2042E+03  0.2042E+03
     -0.824  0.3025E+02  0.2636E+02  0.2061E+03  0.2057E+03
     -0.764  0.3311E+02  0.3544E+02  0.2081E+03  0.2079E+03
     -0.704  0.2612E+02  0.2736E+02  0.2096E+03  0.2095E+03
     -0.644  0.4352E+02  0.4308E+02  0.2123E+03  0.2121E+03
     -0.583  0.3160E+02  0.2986E+02  0.2142E+03  0.2139E+03
     -0.523  0.3971E+02  0.3602E+02  0.2165E+03  0.2161E+03
     -0.463  0.4291E+02  0.4507E+02  0.2191E+03  0.2188E+03
     -0.403  0.2813E+02  0.2988E+02  0.2208E+03  0.2206E+03
     -0.342  0.3552E+02  0.3396E+02  0.2230E+03  0.2226E+03
     -0.282  0.3976E+02  0.4118E+02  0.2254E+03  0.2251E+03
     -0.222  0.2904E+02  0.2794E+02  0.2271E+03  0.2268E+03
     -0.162  0.2992E+02  0.3038E+02  0.2289E+03  0.2286E+03
     -0.102  0.3741E+02  0.3508E+02  0.2312E+03  0.2307E+03
     -0.041  0.1931E+02  0.2513E+02  0.2323E+03  0.2323E+03
      0.019  0.1966E+02  0.1620E+02  0.2335E+03  0.2332E+03
      0.079  0.4403E+02  0.4184E+02  0.2362E+03  0.2358E+03
      0.139  0.1716E+02  0.2117E+02  0.2372E+03  0.2370E+03
      0.199  0.5685E+02  0.5075E+02  0.2406E+03  0.2401E+03
      0.260  0.2186E+02  0.2814E+02  0.2419E+03  0.2418E+03
      0.320  0.3376E+02  0.3082E+02  0.2440E+03  0.2436E+03
      0.380  0.4446E+02  0.4411E+02  0.2466E+03  0.2463E+03
      0.440  0.3798E+02  0.3640E+02  0.2489E+03  0.2485E+03
      0.501  0.4669E+02  0.4882E+02  0.2517E+03  0.2514E+03
      0.561  0.4129E+02  0.4317E+02  0.2542E+03  0.2540E+03
      0.621  0.3923E+02  0.3867E+02  0.2566E+03  0.2564E+03
      0.681  0.5154E+02  0.4763E+02  0.2597E+03  0.2592E+03
      0.741  0.5194E+02  0.5278E+02  0.2628E+03  0.2624E+03
      0.802  0.4983E+02  0.4395E+02  0.2658E+03  0.2651E+03
      0.862  0.4967E+02  0.5570E+02  0.2688E+03  0.2684E+03
      0.922  0.4471E+02  0.4502E+02  0.2715E+03  0.2711E+03
      0.982  0.4359E+02  0.4324E+02  0.2741E+03  0.2737E+03
      1.043  0.4555E+02  0.3963E+02  0.2769E+03  0.2761E+03
      1.103  0.5338E+02  0.5602E+02  0.2801E+03  0.2795E+03
      1.163  0.3124E+02  0.3595E+02  0.2820E+03  0.2816E+03
      1.223  0.4214E+02  0.4155E+02  0.2845E+03  0.2841E+03
      1.283  0.4740E+02  0.4430E+02  0.2874E+03  0.2868E+03
      1.344  0.4149E+02  0.4270E+02  0.2899E+03  0.2894E+03
      1.404  0.5322E+02  0.5438E+02  0.2931E+03  0.2927E+03
      1.464  0.3719E+02  0.3880E+02  0.2953E+03  0.2950E+03
      1.524  0.4664E+02  0.4362E+02  0.2981E+03  0.2976E+03
      1.584  0.3483E+02  0.3639E+02  0.3002E+03  0.2998E+03
      1.645  0.4396E+02  0.4435E+02  0.3029E+03  0.3025E+03
      1.705  0.3415E+02  0.3385E+02  0.3049E+03  0.3045E+03
      1.765  0.3141E+02  0.3610E+02  0.3068E+03  0.3067E+03
      1.825  0.3261E+02  0.2825E+02  0.3088E+03  0.3084E+03
      1.886  0.4673E+02  0.4973E+02  0.3116E+03  0.3114E+03
      1.946  0.2961E+02  0.3046E+02  0.3134E+03  0.3132E+03
      2.006  0.4383E+02  0.4073E+02  0.3160E+03  0.3157E+03
      2.066  0.4870E+02  0.4712E+02  0.3189E+03  0.3185E+03
      2.126  0.4748E+02  0.4531E+02  0.3218E+03  0.3213E+03
      2.187  0.2244E+02  0.2729E+02  0.3232E+03  0.3229E+03
      2.247  0.3554E+02  0.3622E+02  0.3253E+03  0.3251E+03
      2.307  0.2603E+02  0.2452E+02  0.3269E+03  0.3266E+03
      2.367  0.3693E+02  0.3866E+02  0.3291E+03  0.3289E+03
      2.428  0.4260E+02  0.4157E+02  0.3317E+03  0.3314E+03
      2.488  0.4672E+02  0.4249E+02  0.3345E+03  0.3339E+03
      2.548  0.4100E+02  0.3878E+02  0.3369E+03  0.3363E+03
      2.608  0.4584E+02  0.5153E+02  0.3397E+03  0.3394E+03
      2.668  0.3542E+02  0.3554E+02  0.3418E+03  0.3415E+03
      2.729  0.3889E+02  0.3546E+02  0.3442E+03  0.3437E+03
      2.789  0.3375E+02  0.3094E+02  0.3462E+03  0.3455E+03
      2.849  0.3200E+02  0.3874E+02  0.3481E+03  0.3479E+03
      2.909  0.4061E+02  0.3506E+02  0.3506E+03  0.3500E+03
      2.969  0.3867E+02  0.3541E+02  0.3529E+03  0.3521E+03
      3.030  0.3867E+02  0.4212E+02  0.3552E+03  0.3546E+03
      3.090  0.4859E+02  0.5230E+02  0.3582E+03  0.3578E+03
      3.150  0.3168E+02  0.2476E+02  0.3601E+03  0.3593E+03
      3.210  0.4050E+02  0.4302E+02  0.3625E+03  0.3619E+03
      3.271  0.4097E+02  0.4070E+02  0.3650E+03  0.3643E+03
      3.331  0.2545E+02  0.3204E+02  0.3665E+03  0.3662E+03
      3.391  0.4854E+02  0.4486E+02  0.3694E+03  0.3689E+03
      3.451  0.4665E+02  0.4757E+02  0.3722E+03  0.3718E+03
      3.511  0.3210E+02  0.3173E+02  0.3742E+03  0.3737E+03
      3.572  0.4429E+02  0.4216E+02  0.3768E+03  0.3763E+03
      3.632  0.5387E+02  0.5331E+02  0.3801E+03  0.3795E+03
      3.692  0.3987E+02  0.3970E+02  0.3825E+03  0.3819E+03
      3.752  0.4776E+02  0.4495E+02  0.3854E+03  0.3846E+03
      3.813  0.5246E+02  0.5486E+02  0.3885E+03  0.3879E+03
      3.873  0.3416E+02  0.3007E+02  0.3906E+03  0.3897E+03
      3.933  0.4171E+02  0.4404E+02  0.3931E+03  0.3923E+03
      3.993  0.4608E+02  0.4655E+02  0.3959E+03  0.3951E+03
      4.053  0.4302E+02  0.4845E+02  0.3985E+03  0.3981E+03
      4.114  0.4082E+02  0.3834E+02  0.4009E+03  0.4004E+03
      4.174  0.4420E+02  0.3721E+02  0.4036E+03  0.4026E+03
      4.234  0.6267E+02  0.5676E+02  0.4074E+03  0.4060E+03
      4.294  0.3334E+02  0.4230E+02  0.4094E+03  0.4086E+03
      4.354  0.3871E+02  0.4058E+02  0.4117E+03  0.4110E+03
      4.415  0.5201E+02  0.5187E+02  0.4148E+03  0.4141E+03
      4.475  0.3578E+02  0.3518E+02  0.4170E+03  0.4163E+03
      4.535  0.3641E+02  0.3995E+02  0.4192E+03  0.4187E+03
      4.595  0.4202E+02  0.4022E+02  0.4217E+03  0.4211E+03
      4.656  0.2738E+02  0.3294E+02  0.4234E+03  0.4231E+03
      4.716  0.3797E+02  0.3352E+02  0.4256E+03  0.4251E+03
      4.776  0.5306E+02  0.5395E+02  0.4288E+03  0.4283E+03
      4.836  0.2940E+02  0.2926E+02  0.4306E+03  0.4301E+03
      4.896  0.4224E+02  0.4320E+02  0.4331E+03  0.4327E+03
      4.957  0.3637E+02  0.3741E+02  0.4353E+03  0.4350E+03
      5.017  0.4887E+02  0.4424E+02  0.4383E+03  0.4376E+03
      5.077  0.4127E+02  0.4454E+02  0.4408E+03  0.4403E+03
      5.137  0.3281E+02  0.3382E+02  0.4427E+03  0.4423E+03
      5.198  0.4393E+02  0.4407E+02  0.4454E+03  0.4450E+03
      5.258  0.5357E+02  0.4623E+02  0.4486E+03  0.4478E+03
      5.318  0.3275E+02  0.4194E+02  0.4506E+03  0.4503E+03
      5.378  0.3694E+02  0.3474E+02  0.4528E+03  0.4524E+03
      5.438  0.4160E+02  0.4280E+02  0.4553E+03  0.4550E+03
      5.499  0.3647E+02  0.3664E+02  0.4575E+03  0.4572E+03
      5.559  0.4838E+02  0.4756E+02  0.4604E+03  0.4600E+03
      5.619  0.3883E+02  0.4329E+02  0.4628E+03  0.4627E+03
      5.679  0.1713E+02  0.1973E+02  0.4638E+03  0.4638E+03
      5.739  0.3369E+01  0.2643E+01  0.4640E+03  0.4640E+03
      5.800  0.0000E+00  0.0000E+00  0.4640E+03  0.4640E+03
      5.860  0.0000E+00  0.0000E+00  0.4640E+03  0.4640E+03
      5.920  0.0000E+00  0.0000E+00  0.4640E+03  0.4640E+03
      5.980  0.0000E+00  0.0000E+00  0.4640E+03  0.4640E+03
      6.041  0.0000E+00  0.0000E+00  0.4640E+03  0.4640E+03
      6.101  0.0000E+00  0.0000E+00  0.4640E+03  0.4640E+03
      6.161  0.0000E+00  0.0000E+00  0.4640E+03  0.4640E+03
      6.221  0.0000E+00  0.0000E+00  0.4640E+03  0.4640E+03
      6.281  0.0000E+00  0.0000E+00  0.4640E+03  0.4640E+03
      6.342  0.0000E+00  0.0000E+00  0.4640E+03  0.4640E+03
      6.402  0.0000E+00  0.0000E+00  0.4640E+03  0.4640E+03
      6.462  0.0000E+00  0.0000E+00  0.4640E+03  0.4640E+03
      6.522  0.0000E+00  0.0000E+00  0.4640E+03  0.4640E+03
