       N       E                     dE             d eps       ncg     rms          rms(c)
DAV:   1     0.467222265869E+04    0.46722E+04   -0.44325E+05 20352   0.167E+03
DAV:   2    -0.577313994845E+03   -0.52495E+04   -0.50689E+04 23968   0.202E+02
DAV:   3    -0.110982585191E+04   -0.53251E+03   -0.51407E+03 25952   0.587E+01
DAV:   4    -0.113221813174E+04   -0.22392E+02   -0.21916E+02 24704   0.129E+01
DAV:   5    -0.113323750665E+04   -0.10194E+01   -0.10102E+01 28704   0.273E+00    0.480E+01
DAV:   6    -0.110300509487E+04    0.30232E+02   -0.99966E+01 30824   0.131E+01    0.223E+01
DAV:   7    -0.110147996648E+04    0.15251E+01   -0.66848E+01 26024   0.111E+01    0.156E+01
DAV:   8    -0.109812898763E+04    0.33510E+01   -0.15320E+01 24632   0.520E+00    0.338E+00
DAV:   9    -0.109815671128E+04   -0.27724E-01   -0.45993E+00 25248   0.246E+00    0.258E+00
DAV:  10    -0.109798164261E+04    0.17507E+00   -0.14169E+00 24848   0.146E+00    0.156E+00
DAV:  11    -0.109795926198E+04    0.22381E-01   -0.32128E-01 24160   0.655E-01    0.102E+00
DAV:  12    -0.109795828778E+04    0.97420E-03   -0.77301E-02 24144   0.327E-01    0.686E-01
DAV:  13    -0.109795871004E+04   -0.42226E-03   -0.40379E-02 25120   0.238E-01    0.428E-01
DAV:  14    -0.109795581622E+04    0.28938E-02   -0.21229E-02 25848   0.173E-01    0.234E-01
DAV:  15    -0.109795537462E+04    0.44160E-03   -0.67003E-03 24304   0.984E-02    0.102E-01
DAV:  16    -0.109795532406E+04    0.50566E-04   -0.17324E-03 23696   0.518E-02    0.658E-02
DAV:  17    -0.109795531692E+04    0.71412E-05   -0.47613E-04 22624   0.248E-02    0.459E-02
DAV:  18    -0.109795533431E+04   -0.17394E-04   -0.13394E-04 23680   0.126E-02    0.210E-02
DAV:  19    -0.109795533182E+04    0.24965E-05   -0.53347E-05 25160   0.954E-03    0.127E-02
DAV:  20    -0.109795532827E+04    0.35482E-05   -0.18175E-05 25120   0.572E-03    0.936E-03
DAV:  21    -0.109795532831E+04   -0.40935E-07   -0.61770E-06 23960   0.272E-03    0.666E-03
DAV:  22    -0.109795532881E+04   -0.50219E-06   -0.17998E-06 23896   0.142E-03    0.300E-03
DAV:  23    -0.109795532943E+04   -0.61807E-06   -0.59273E-07 21992   0.759E-04    0.178E-03
DAV:  24    -0.109795532992E+04   -0.48855E-06   -0.19825E-07 13904   0.488E-04    0.122E-03
DAV:  25    -0.109795533023E+04   -0.31266E-06   -0.11215E-07 12232   0.368E-04    0.961E-04
DAV:  26    -0.109795533032E+04   -0.86446E-07   -0.59306E-08 11808   0.260E-04
   1 F= -.10979553E+04 E0= -.10979526E+04  d E =-.552058E-02  mag=     1.0000
