 120 120   0   0
  0.1318225E+02  0.1330318E-08  0.1629300E-08  0.7994753E-09  0.5000000E-15
  1.000000000000000E-004
  CAR 
 Si and Ge interface calculation         
      7.68056539    -14.87247559  301      4.34308098      1.00000000
    -14.872  0.0000E+00  0.0000E+00  0.0000E+00  0.0000E+00
    -14.797  0.0000E+00  0.0000E+00  0.0000E+00  0.0000E+00
    -14.722  0.0000E+00  0.0000E+00  0.0000E+00  0.0000E+00
    -14.647  0.0000E+00  0.0000E+00  0.0000E+00  0.0000E+00
    -14.572  0.0000E+00  0.0000E+00  0.0000E+00  0.0000E+00
    -14.497  0.0000E+00  0.0000E+00  0.0000E+00  0.0000E+00
    -14.421  0.0000E+00  0.0000E+00  0.0000E+00  0.0000E+00
    -14.346  0.0000E+00  0.0000E+00  0.0000E+00  0.0000E+00
    -14.271  0.0000E+00  0.0000E+00  0.0000E+00  0.0000E+00
    -14.196  0.0000E+00  0.0000E+00  0.0000E+00  0.0000E+00
    -14.121  0.0000E+00  0.0000E+00  0.0000E+00  0.0000E+00
    -14.046  0.0000E+00  0.0000E+00  0.0000E+00  0.0000E+00
    -13.970  0.0000E+00  0.0000E+00  0.0000E+00  0.0000E+00
    -13.895  0.1699E-10  0.1108E-14  0.1277E-11  0.8327E-16
    -13.820  0.4434E+01  0.4405E+01  0.3333E+00  0.3312E+00
    -13.745  0.1384E+02  0.1143E+02  0.1374E+01  0.1193E+01
    -13.670  0.1244E+02  0.1507E+02  0.2333E+01  0.2331E+01
    -13.594  0.1606E+01  0.1322E+00  0.2454E+01  0.2343E+01
    -13.519  0.2500E+02  0.2646E+02  0.4333E+01  0.4332E+01
    -13.444  0.8829E+01  0.8045E+01  0.4997E+01  0.4938E+01
    -13.369  0.1330E+02  0.1323E+02  0.6000E+01  0.5995E+01
    -13.294  0.8945E+01  0.8868E+01  0.6672E+01  0.6667E+01
    -13.219  0.1766E+02  0.1773E+02  0.8000E+01  0.8000E+01
    -13.143  0.5109E+01  0.4461E+01  0.8384E+01  0.8335E+01
    -13.068  0.1706E+02  0.1771E+02  0.9667E+01  0.9667E+01
    -12.993  0.1146E+02  0.9076E+01  0.1053E+02  0.1035E+02
    -12.918  0.1071E+02  0.1299E+02  0.1133E+02  0.1133E+02
    -12.843  0.2172E+02  0.1338E+02  0.1297E+02  0.1234E+02
    -12.768  0.2078E+02  0.2531E+02  0.1462E+02  0.1430E+02
    -12.692  0.4403E+01  0.8312E+01  0.1500E+02  0.1496E+02
    -12.617  0.2206E+02  0.2047E+02  0.1666E+02  0.1654E+02
    -12.542  0.4313E+01  0.8285E+00  0.1699E+02  0.1673E+02
    -12.467  0.1335E+02  0.1588E+02  0.1799E+02  0.1792E+02
    -12.392  0.8868E+01  0.8868E+01  0.1867E+02  0.1867E+02
    -12.316  0.1773E+02  0.1764E+02  0.2000E+02  0.1999E+02
    -12.241  0.2125E+02  0.1378E+02  0.2160E+02  0.2104E+02
    -12.166  0.5704E+01  0.1301E+02  0.2219E+02  0.2205E+02
    -12.091  0.1119E+02  0.1187E+02  0.2303E+02  0.2294E+02
    -12.016  0.1494E+02  0.1359E+02  0.2416E+02  0.2402E+02
    -11.941  0.6725E+01  0.6682E+01  0.2466E+02  0.2453E+02
    -11.865  0.3645E+01  0.4066E+01  0.2494E+02  0.2483E+02
    -11.790  0.4432E+01  0.6672E+01  0.2533E+02  0.2533E+02
    -11.715  0.1286E+02  0.5984E+01  0.2630E+02  0.2578E+02
    -11.640  0.2243E+02  0.2949E+02  0.2800E+02  0.2800E+02
    -11.565  0.0000E+00  0.0000E+00  0.2800E+02  0.2800E+02
    -11.490  0.6153E-16  0.0000E+00  0.2800E+02  0.2800E+02
    -11.414  0.4376E+01  0.3731E+01  0.2833E+02  0.2828E+02
    -11.339  0.8769E+01  0.7588E+01  0.2899E+02  0.2890E+02
    -11.264  0.3975E-08  0.1143E-11  0.2900E+02  0.2900E+02
    -11.189  0.8868E+01  0.8864E+01  0.2967E+02  0.2967E+02
    -11.114  0.3165E+01  0.6129E+00  0.2990E+02  0.2971E+02
    -11.038  0.3382E+02  0.3081E+02  0.3245E+02  0.3203E+02
    -10.963  0.2973E+02  0.2846E+02  0.3469E+02  0.3430E+02
    -10.888  0.2018E+02  0.2239E+02  0.3629E+02  0.3598E+02
    -10.813  0.9333E+01  0.1231E+02  0.3700E+02  0.3700E+02
    -10.738  0.1300E+02  0.9658E+01  0.3798E+02  0.3773E+02
    -10.663  0.1353E+02  0.1643E+02  0.3900E+02  0.3896E+02
    -10.587  0.8823E+01  0.7964E+01  0.3966E+02  0.3960E+02
    -10.512  0.4434E+01  0.4434E+01  0.4000E+02  0.4000E+02
    -10.437  0.1505E+02  0.1058E+02  0.4113E+02  0.4080E+02
    -10.362  0.1598E+02  0.2041E+02  0.4233E+02  0.4233E+02
    -10.287  0.8705E+01  0.7244E+01  0.4299E+02  0.4288E+02
    -10.212  0.8868E+01  0.8867E+01  0.4367E+02  0.4367E+02
    -10.136  0.0000E+00  0.0000E+00  0.4367E+02  0.4367E+02
    -10.061  0.8570E+01  0.6920E+01  0.4431E+02  0.4419E+02
     -9.986  0.1387E+02  0.1112E+02  0.4538E+02  0.4517E+02
     -9.911  0.1651E+02  0.1992E+02  0.4667E+02  0.4667E+02
     -9.836  0.1330E+02  0.1330E+02  0.4767E+02  0.4767E+02
     -9.760  0.1722E+02  0.6909E+01  0.4896E+02  0.4819E+02
     -9.685  0.6955E+01  0.1622E+02  0.4965E+02  0.4941E+02
     -9.610  0.1812E+02  0.2109E+02  0.5101E+02  0.5099E+02
     -9.535  0.1732E+02  0.1491E+02  0.5231E+02  0.5212E+02
     -9.460  0.2635E+02  0.2287E+02  0.5431E+02  0.5389E+02
     -9.385  0.1330E+02  0.1805E+02  0.5533E+02  0.5533E+02
     -9.309  0.1702E+02  0.4101E+01  0.5661E+02  0.5564E+02
     -9.234  0.2977E+02  0.4448E+02  0.5900E+02  0.5899E+02
     -9.159  0.9703E+01  0.8306E+01  0.5973E+02  0.5962E+02
     -9.084  0.3000E+02  0.2822E+02  0.6199E+02  0.6179E+02
     -9.009  0.3291E+02  0.2720E+02  0.6446E+02  0.6387E+02
     -8.934  0.1156E+02  0.1141E+02  0.6534E+02  0.6479E+02
     -8.858  0.1671E+02  0.2158E+02  0.6662E+02  0.6641E+02
     -8.783  0.2154E+02  0.2046E+02  0.6826E+02  0.6798E+02
     -8.708  0.6376E+01  0.8261E+01  0.6875E+02  0.6862E+02
     -8.633  0.1659E+02  0.1158E+02  0.7000E+02  0.6952E+02
     -8.558  0.1682E+02  0.2142E+02  0.7130E+02  0.7113E+02
     -8.482  0.2695E+02  0.2898E+02  0.7333E+02  0.7332E+02
     -8.407  0.1769E+02  0.1670E+02  0.7466E+02  0.7459E+02
     -8.332  0.1949E+02  0.1280E+02  0.7613E+02  0.7563E+02
     -8.257  0.1999E+02  0.2610E+02  0.7768E+02  0.7766E+02
     -8.182  0.1317E+02  0.1328E+02  0.7867E+02  0.7867E+02
     -8.107  0.1682E+02  0.1572E+02  0.7993E+02  0.7985E+02
     -8.031  0.1520E+02  0.1128E+02  0.8109E+02  0.8070E+02
     -7.956  0.6337E+01  0.8776E+01  0.8157E+02  0.8136E+02
     -7.881  0.1033E+01  0.4042E+01  0.8167E+02  0.8167E+02
     -7.806  0.4165E+01  0.2658E+01  0.8198E+02  0.8187E+02
     -7.731  0.1111E+02  0.8842E+01  0.8284E+02  0.8254E+02
     -7.656  0.1512E+01  0.6143E+01  0.8300E+02  0.8300E+02
     -7.580  0.0000E+00  0.0000E+00  0.8300E+02  0.8300E+02
     -7.505  0.9891E+01  0.4960E+01  0.8374E+02  0.8337E+02
     -7.430  0.3233E+01  0.8342E+01  0.8400E+02  0.8400E+02
     -7.355  0.3225E-04  0.2795E-06  0.8400E+02  0.8400E+02
     -7.280  0.4434E+01  0.4434E+01  0.8433E+02  0.8433E+02
     -7.204  0.1330E+02  0.1315E+02  0.8533E+02  0.8532E+02
     -7.129  0.1330E+02  0.1329E+02  0.8633E+02  0.8633E+02
     -7.054  0.4384E+01  0.4177E+01  0.8666E+02  0.8665E+02
     -6.979  0.1089E+02  0.9640E+01  0.8749E+02  0.8739E+02
     -6.904  0.9389E+01  0.8799E+01  0.8823E+02  0.8805E+02
     -6.829  0.5326E+01  0.8160E+01  0.8867E+02  0.8867E+02
     -6.753  0.3211E+01  0.1191E+01  0.8891E+02  0.8876E+02
     -6.678  0.1374E+02  0.1566E+02  0.8997E+02  0.8993E+02
     -6.603  0.6111E+01  0.2983E+01  0.9043E+02  0.9016E+02
     -6.528  0.1738E+02  0.2113E+02  0.9175E+02  0.9175E+02
     -6.453  0.1388E+02  0.1236E+02  0.9279E+02  0.9268E+02
     -6.377  0.1173E+02  0.1039E+02  0.9372E+02  0.9349E+02
     -6.302  0.4660E+02  0.4389E+02  0.9722E+02  0.9680E+02
     -6.227  0.2178E+02  0.2292E+02  0.9899E+02  0.9854E+02
     -6.152  0.2814E+02  0.3112E+02  0.1011E+03  0.1009E+03
     -6.077  0.3157E+02  0.3167E+02  0.1036E+03  0.1033E+03
     -6.002  0.1955E+02  0.2058E+02  0.1051E+03  0.1049E+03
     -5.926  0.2786E+02  0.2814E+02  0.1072E+03  0.1070E+03
     -5.851  0.2285E+02  0.2142E+02  0.1089E+03  0.1087E+03
     -5.776  0.2599E+02  0.2811E+02  0.1109E+03  0.1109E+03
     -5.701  0.2445E+02  0.2057E+02  0.1128E+03  0.1124E+03
     -5.626  0.2776E+02  0.2883E+02  0.1149E+03  0.1146E+03
     -5.551  0.3022E+02  0.3021E+02  0.1172E+03  0.1169E+03
     -5.475  0.2352E+02  0.2522E+02  0.1190E+03  0.1188E+03
     -5.400  0.3141E+02  0.2851E+02  0.1214E+03  0.1210E+03
     -5.325  0.1951E+02  0.2434E+02  0.1230E+03  0.1228E+03
     -5.250  0.3163E+02  0.2860E+02  0.1254E+03  0.1250E+03
     -5.175  0.2920E+02  0.2987E+02  0.1276E+03  0.1273E+03
     -5.099  0.2498E+02  0.2641E+02  0.1296E+03  0.1293E+03
     -5.024  0.4108E+02  0.4082E+02  0.1327E+03  0.1324E+03
     -4.949  0.2884E+02  0.2695E+02  0.1349E+03  0.1345E+03
     -4.874  0.3509E+02  0.3588E+02  0.1375E+03  0.1372E+03
     -4.799  0.2184E+02  0.2306E+02  0.1393E+03  0.1389E+03
     -4.724  0.2298E+02  0.2373E+02  0.1410E+03  0.1407E+03
     -4.648  0.3069E+02  0.3329E+02  0.1434E+03  0.1433E+03
     -4.573  0.2181E+02  0.1946E+02  0.1450E+03  0.1447E+03
     -4.498  0.3177E+02  0.3259E+02  0.1474E+03  0.1472E+03
     -4.423  0.2875E+02  0.2826E+02  0.1497E+03  0.1493E+03
     -4.348  0.2880E+02  0.2968E+02  0.1519E+03  0.1516E+03
     -4.273  0.3497E+02  0.3584E+02  0.1546E+03  0.1543E+03
     -4.197  0.2387E+02  0.2341E+02  0.1564E+03  0.1561E+03
     -4.122  0.3047E+02  0.2880E+02  0.1587E+03  0.1583E+03
     -4.047  0.3132E+02  0.3313E+02  0.1611E+03  0.1609E+03
     -3.972  0.3295E+02  0.3033E+02  0.1636E+03  0.1632E+03
     -3.897  0.2736E+02  0.2855E+02  0.1657E+03  0.1654E+03
     -3.821  0.3121E+02  0.3157E+02  0.1681E+03  0.1678E+03
     -3.746  0.2454E+02  0.2646E+02  0.1699E+03  0.1698E+03
     -3.671  0.2723E+02  0.2633E+02  0.1720E+03  0.1718E+03
     -3.596  0.2025E+02  0.2058E+02  0.1735E+03  0.1734E+03
     -3.521  0.3002E+02  0.2765E+02  0.1758E+03  0.1755E+03
     -3.446  0.2275E+02  0.2312E+02  0.1775E+03  0.1773E+03
     -3.370  0.3116E+02  0.2701E+02  0.1799E+03  0.1793E+03
     -3.295  0.2121E+02  0.2683E+02  0.1816E+03  0.1814E+03
     -3.220  0.1550E+02  0.1634E+02  0.1828E+03  0.1827E+03
     -3.145  0.3347E+02  0.2982E+02  0.1853E+03  0.1849E+03
     -3.070  0.2302E+02  0.2553E+02  0.1871E+03  0.1869E+03
     -2.995  0.1947E+02  0.2026E+02  0.1886E+03  0.1884E+03
     -2.919  0.3772E+02  0.3674E+02  0.1915E+03  0.1912E+03
     -2.844  0.2419E+02  0.2366E+02  0.1933E+03  0.1930E+03
     -2.769  0.2683E+02  0.2526E+02  0.1954E+03  0.1950E+03
     -2.694  0.2551E+02  0.2563E+02  0.1973E+03  0.1970E+03
     -2.619  0.3307E+02  0.3375E+02  0.1999E+03  0.1995E+03
     -2.543  0.3106E+02  0.3138E+02  0.2022E+03  0.2019E+03
     -2.468  0.2800E+02  0.2886E+02  0.2044E+03  0.2041E+03
     -2.393  0.3378E+02  0.3285E+02  0.2069E+03  0.2066E+03
     -2.318  0.2622E+02  0.2622E+02  0.2089E+03  0.2086E+03
     -2.243  0.3876E+02  0.3843E+02  0.2119E+03  0.2116E+03
     -2.168  0.2569E+02  0.2724E+02  0.2138E+03  0.2137E+03
     -2.092  0.3690E+02  0.3402E+02  0.2166E+03  0.2162E+03
     -2.017  0.2464E+02  0.2728E+02  0.2185E+03  0.2183E+03
     -1.942  0.3951E+02  0.3728E+02  0.2215E+03  0.2211E+03
     -1.867  0.4452E+02  0.4345E+02  0.2248E+03  0.2244E+03
     -1.792  0.3758E+02  0.4101E+02  0.2278E+03  0.2276E+03
     -1.717  0.3499E+02  0.3421E+02  0.2305E+03  0.2302E+03
     -1.641  0.3597E+02  0.3607E+02  0.2332E+03  0.2329E+03
     -1.566  0.3888E+02  0.3801E+02  0.2361E+03  0.2358E+03
     -1.491  0.4176E+02  0.4058E+02  0.2393E+03  0.2389E+03
     -1.416  0.2844E+02  0.2755E+02  0.2415E+03  0.2410E+03
     -1.341  0.4425E+02  0.4394E+02  0.2448E+03  0.2444E+03
     -1.265  0.3843E+02  0.3861E+02  0.2478E+03  0.2473E+03
     -1.190  0.3961E+02  0.4019E+02  0.2508E+03  0.2504E+03
     -1.115  0.3891E+02  0.3942E+02  0.2537E+03  0.2533E+03
     -1.040  0.4097E+02  0.3998E+02  0.2569E+03  0.2564E+03
     -0.965  0.3995E+02  0.4113E+02  0.2599E+03  0.2595E+03
     -0.890  0.3723E+02  0.3880E+02  0.2628E+03  0.2625E+03
     -0.814  0.4014E+02  0.3926E+02  0.2658E+03  0.2655E+03
     -0.739  0.3414E+02  0.3261E+02  0.2684E+03  0.2680E+03
     -0.664  0.3037E+02  0.3003E+02  0.2707E+03  0.2703E+03
     -0.589  0.4155E+02  0.3881E+02  0.2738E+03  0.2733E+03
     -0.514  0.2909E+02  0.3244E+02  0.2761E+03  0.2758E+03
     -0.439  0.3235E+02  0.3180E+02  0.2785E+03  0.2782E+03
     -0.363  0.3966E+02  0.3920E+02  0.2815E+03  0.2811E+03
     -0.288  0.2941E+02  0.3135E+02  0.2838E+03  0.2835E+03
     -0.213  0.3153E+02  0.3104E+02  0.2862E+03  0.2859E+03
     -0.138  0.2692E+02  0.2902E+02  0.2883E+03  0.2881E+03
     -0.063  0.3785E+02  0.3715E+02  0.2912E+03  0.2909E+03
      0.013  0.1842E+02  0.1820E+02  0.2926E+03  0.2923E+03
      0.088  0.5180E+02  0.5069E+02  0.2965E+03  0.2961E+03
      0.163  0.4663E+02  0.4812E+02  0.3000E+03  0.2998E+03
      0.238  0.3861E+02  0.3647E+02  0.3030E+03  0.3026E+03
      0.313  0.4054E+02  0.4144E+02  0.3061E+03  0.3057E+03
      0.388  0.4277E+02  0.4050E+02  0.3093E+03  0.3089E+03
      0.464  0.4358E+02  0.4212E+02  0.3126E+03  0.3121E+03
      0.539  0.3760E+02  0.4075E+02  0.3155E+03  0.3152E+03
      0.614  0.3703E+02  0.3917E+02  0.3183E+03  0.3181E+03
      0.689  0.2619E+02  0.2295E+02  0.3203E+03  0.3200E+03
      0.764  0.3661E+02  0.3107E+02  0.3231E+03  0.3224E+03
      0.839  0.3590E+02  0.4057E+02  0.3259E+03  0.3255E+03
      0.915  0.3084E+02  0.3076E+02  0.3282E+03  0.3278E+03
      0.990  0.4890E+02  0.4739E+02  0.3320E+03  0.3314E+03
      1.065  0.4336E+02  0.4457E+02  0.3353E+03  0.3348E+03
      1.140  0.3870E+02  0.4183E+02  0.3382E+03  0.3380E+03
      1.215  0.3619E+02  0.3508E+02  0.3410E+03  0.3407E+03
      1.291  0.4743E+02  0.4454E+02  0.3446E+03  0.3441E+03
      1.366  0.3781E+02  0.3948E+02  0.3475E+03  0.3471E+03
      1.441  0.4499E+02  0.4302E+02  0.3509E+03  0.3503E+03
      1.516  0.5233E+02  0.5379E+02  0.3548E+03  0.3544E+03
      1.591  0.3710E+02  0.3744E+02  0.3577E+03  0.3572E+03
      1.666  0.4389E+02  0.4422E+02  0.3611E+03  0.3606E+03
      1.742  0.4061E+02  0.3829E+02  0.3642E+03  0.3635E+03
      1.817  0.4218E+02  0.4369E+02  0.3674E+03  0.3669E+03
      1.892  0.5041E+02  0.4779E+02  0.3712E+03  0.3705E+03
      1.967  0.4059E+02  0.4145E+02  0.3743E+03  0.3737E+03
      2.042  0.4799E+02  0.4823E+02  0.3779E+03  0.3773E+03
      2.117  0.4843E+02  0.5042E+02  0.3816E+03  0.3812E+03
      2.193  0.5167E+02  0.4909E+02  0.3855E+03  0.3850E+03
      2.268  0.3412E+02  0.3183E+02  0.3882E+03  0.3874E+03
      2.343  0.4729E+02  0.5093E+02  0.3917E+03  0.3913E+03
      2.418  0.4589E+02  0.4516E+02  0.3952E+03  0.3947E+03
      2.493  0.3473E+02  0.3662E+02  0.3979E+03  0.3975E+03
      2.569  0.4840E+02  0.4426E+02  0.4015E+03  0.4009E+03
      2.644  0.5387E+02  0.5434E+02  0.4056E+03  0.4050E+03
      2.719  0.4866E+02  0.4702E+02  0.4093E+03  0.4086E+03
      2.794  0.4930E+02  0.4862E+02  0.4130E+03  0.4123E+03
      2.869  0.3352E+02  0.3203E+02  0.4156E+03  0.4148E+03
      2.944  0.4186E+02  0.4567E+02  0.4189E+03  0.4182E+03
      3.020  0.5348E+02  0.5014E+02  0.4229E+03  0.4220E+03
      3.095  0.4300E+02  0.4946E+02  0.4263E+03  0.4258E+03
      3.170  0.4703E+02  0.4429E+02  0.4299E+03  0.4291E+03
      3.245  0.4081E+02  0.4306E+02  0.4330E+03  0.4324E+03
      3.320  0.3938E+02  0.3690E+02  0.4360E+03  0.4352E+03
      3.395  0.4636E+02  0.4675E+02  0.4396E+03  0.4388E+03
      3.471  0.4016E+02  0.3881E+02  0.4427E+03  0.4418E+03
      3.546  0.3628E+02  0.4266E+02  0.4455E+03  0.4450E+03
      3.621  0.4395E+02  0.4463E+02  0.4489E+03  0.4483E+03
      3.696  0.4895E+02  0.4598E+02  0.4526E+03  0.4518E+03
      3.771  0.4425E+02  0.4344E+02  0.4559E+03  0.4551E+03
      3.847  0.4383E+02  0.4449E+02  0.4593E+03  0.4585E+03
      3.922  0.3597E+02  0.3555E+02  0.4620E+03  0.4612E+03
      3.997  0.3974E+02  0.3986E+02  0.4651E+03  0.4643E+03
      4.072  0.4630E+02  0.4701E+02  0.4686E+03  0.4678E+03
      4.147  0.4574E+02  0.4555E+02  0.4721E+03  0.4713E+03
      4.222  0.3786E+02  0.3814E+02  0.4750E+03  0.4742E+03
      4.298  0.4683E+02  0.4455E+02  0.4785E+03  0.4776E+03
      4.373  0.5171E+02  0.4337E+02  0.4825E+03  0.4809E+03
      4.448  0.3771E+02  0.4330E+02  0.4854E+03  0.4842E+03
      4.523  0.4636E+02  0.4765E+02  0.4890E+03  0.4878E+03
      4.598  0.5280E+02  0.4772E+02  0.4930E+03  0.4914E+03
      4.673  0.3455E+02  0.4234E+02  0.4957E+03  0.4946E+03
      4.749  0.5130E+02  0.5259E+02  0.4996E+03  0.4986E+03
      4.824  0.4903E+02  0.5039E+02  0.5033E+03  0.5025E+03
      4.899  0.4725E+02  0.4393E+02  0.5069E+03  0.5059E+03
      4.974  0.3859E+02  0.3920E+02  0.5099E+03  0.5088E+03
      5.049  0.5197E+02  0.4918E+02  0.5139E+03  0.5126E+03
      5.125  0.3838E+02  0.4369E+02  0.5168E+03  0.5159E+03
      5.200  0.3334E+02  0.3698E+02  0.5194E+03  0.5187E+03
      5.275  0.3671E+02  0.3365E+02  0.5222E+03  0.5213E+03
      5.350  0.4104E+02  0.4111E+02  0.5253E+03  0.5244E+03
      5.425  0.3720E+02  0.4091E+02  0.5281E+03  0.5275E+03
      5.500  0.4592E+02  0.4508E+02  0.5315E+03  0.5309E+03
      5.576  0.4535E+02  0.4300E+02  0.5350E+03  0.5342E+03
      5.651  0.3563E+02  0.3888E+02  0.5377E+03  0.5371E+03
      5.726  0.4139E+02  0.3891E+02  0.5408E+03  0.5401E+03
      5.801  0.4062E+02  0.3804E+02  0.5439E+03  0.5430E+03
      5.876  0.4393E+02  0.4355E+02  0.5472E+03  0.5463E+03
      5.951  0.3289E+02  0.3345E+02  0.5497E+03  0.5489E+03
      6.027  0.4528E+02  0.4666E+02  0.5532E+03  0.5524E+03
      6.102  0.4146E+02  0.3861E+02  0.5563E+03  0.5554E+03
      6.177  0.4407E+02  0.4825E+02  0.5596E+03  0.5590E+03
      6.252  0.4114E+02  0.3377E+02  0.5627E+03  0.5617E+03
      6.327  0.3792E+02  0.4112E+02  0.5657E+03  0.5648E+03
      6.403  0.3063E+02  0.3885E+02  0.5680E+03  0.5678E+03
      6.478  0.3805E+02  0.3386E+02  0.5709E+03  0.5703E+03
      6.553  0.2913E+02  0.2698E+02  0.5731E+03  0.5724E+03
      6.628  0.3304E+02  0.3574E+02  0.5757E+03  0.5751E+03
      6.703  0.4430E+01  0.1092E+02  0.5760E+03  0.5760E+03
      6.778  0.0000E+00  0.0000E+00  0.5760E+03  0.5760E+03
      6.854  0.0000E+00  0.0000E+00  0.5760E+03  0.5760E+03
      6.929  0.0000E+00  0.0000E+00  0.5760E+03  0.5760E+03
      7.004  0.0000E+00  0.0000E+00  0.5760E+03  0.5760E+03
      7.079  0.0000E+00  0.0000E+00  0.5760E+03  0.5760E+03
      7.154  0.0000E+00  0.0000E+00  0.5760E+03  0.5760E+03
      7.230  0.0000E+00  0.0000E+00  0.5760E+03  0.5760E+03
      7.305  0.0000E+00  0.0000E+00  0.5760E+03  0.5760E+03
      7.380  0.0000E+00  0.0000E+00  0.5760E+03  0.5760E+03
      7.455  0.0000E+00  0.0000E+00  0.5760E+03  0.5760E+03
      7.530  0.0000E+00  0.0000E+00  0.5760E+03  0.5760E+03
      7.605  0.0000E+00  0.0000E+00  0.5760E+03  0.5760E+03
      7.681  0.0000E+00  0.0000E+00  0.5760E+03  0.5760E+03
