<?xml version="1.0" encoding="ISO-8859-1"?>
<modeling>
 <generator>
  <i name="program" type="string">vasp </i>
  <i name="version" type="string">6.4.3  </i>
  <i name="subversion" type="string">19Mar24 (build Oct 22 2024 11:23:12) complex                          parallel </i>
  <i name="platform" type="string">LinuxIFC </i>
  <i name="date" type="string">2025 06 08 </i>
  <i name="time" type="string">16:37:05 </i>
 </generator>
 <incar>
  <i type="string" name="SYSTEM">Si and Ge interface calculation</i>
  <i type="int" name="ISTART">     0</i>
  <i type="logical" name="ADDGRID"> T  </i>
  <i type="int" name="ISPIN">     2</i>
  <i name="AMIX">      0.60000000</i>
  <i type="int" name="ICHARG">     2</i>
  <i type="int" name="NELM">   100</i>
  <i name="EDIFF">      0.00000010</i>
  <i name="ENCUT">    700.00000000</i>
  <i name="ENAUG">    900.00000000</i>
  <i type="int" name="NBANDS">   346</i>
  <i name="NUPDOWN">      1.00000000</i>
  <i name="NELECT">    576.00000000</i>
  <i type="string" name="LREAL">AUTO</i>
  <i type="int" name="ISMEAR">     0</i>
  <i name="SIGMA">      0.01000000</i>
  <i type="int" name="LMAXMIX">     6</i>
  <i type="logical" name="LWAVE"> F  </i>
  <i type="logical" name="LVTOT"> F  </i>
  <i type="logical" name="LVHAR"> T  </i>
  <i type="logical" name="LASPH"> T  </i>
  <i type="logical" name="LMIXTAU"> T  </i>
 </incar>
 <primitive_cell>
  <structure name="primitive_cell" >
   <crystal>
    <varray name="basis" >
     <v>      10.86200046       0.00000000       0.00000000 </v>
     <v>       0.00000000      16.29300118       0.00000000 </v>
     <v>       0.00000000       0.00000000      18.26014710 </v>
    </varray>
    <i name="volume">   3231.58197863 </i>
    <varray name="rec_basis" >
     <v>       0.09206407       0.00000000       0.00000000 </v>
     <v>       0.00000000       0.06137605       0.00000000 </v>
     <v>       0.00000000       0.00000000       0.05476407 </v>
    </varray>
   </crystal>
   <varray name="positions" >
    <v>       0.00000000       0.99406773       0.00000000 </v>
    <v>       0.00000000       0.82740104       0.14871185 </v>
    <v>       0.00000000       0.66073430       0.29742369 </v>
    <v>       0.50000000       0.99406773       0.00000000 </v>
    <v>       0.50000000       0.82740104       0.14871185 </v>
    <v>       0.50000000       0.66073430       0.29742369 </v>
    <v>       0.00000000       0.32740107       0.00000000 </v>
    <v>       0.00000000       0.16073438       0.14871185 </v>
    <v>       0.00000000       0.99406767       0.29742369 </v>
    <v>       0.50000000       0.32740107       0.00000000 </v>
    <v>       0.50000000       0.16073438       0.14871185 </v>
    <v>       0.50000000       0.99406767       0.29742369 </v>
    <v>       0.00000000       0.66073447       0.00000000 </v>
    <v>       0.00000000       0.49406773       0.14871185 </v>
    <v>       0.00000000       0.32740104       0.29742369 </v>
    <v>       0.50000000       0.66073447       0.00000000 </v>
    <v>       0.50000000       0.49406773       0.14871185 </v>
    <v>       0.50000000       0.32740104       0.29742369 </v>
    <v>       0.12500000       0.07740106       0.07435592 </v>
    <v>       0.12500000       0.91073436       0.22306777 </v>
    <v>       0.12500000       0.74406767       0.37177962 </v>
    <v>       0.62500000       0.07740106       0.07435592 </v>
    <v>       0.62500000       0.91073436       0.22306777 </v>
    <v>       0.62500000       0.74406767       0.37177962 </v>
    <v>       0.12500000       0.41073438       0.07435592 </v>
    <v>       0.12500000       0.24406767       0.22306777 </v>
    <v>       0.12500000       0.07740095       0.37177962 </v>
    <v>       0.62500000       0.41073438       0.07435592 </v>
    <v>       0.62500000       0.24406767       0.22306777 </v>
    <v>       0.62500000       0.07740095       0.37177962 </v>
    <v>       0.12500000       0.74406779       0.07435592 </v>
    <v>       0.12500000       0.57740104       0.22306777 </v>
    <v>       0.12500000       0.41073433       0.37177962 </v>
    <v>       0.62500000       0.74406779       0.07435592 </v>
    <v>       0.62500000       0.57740104       0.22306777 </v>
    <v>       0.62500000       0.41073433       0.37177962 </v>
    <v>       0.25000000       0.16073438       0.00000000 </v>
    <v>       0.25000000       0.99406767       0.14871185 </v>
    <v>       0.25000000       0.82740098       0.29742369 </v>
    <v>       0.75000006       0.16073438       0.00000000 </v>
    <v>       0.75000006       0.99406767       0.14871185 </v>
    <v>       0.75000006       0.82740098       0.29742369 </v>
    <v>       0.25000000       0.49406773       0.00000000 </v>
    <v>       0.25000000       0.32740104       0.14871185 </v>
    <v>       0.25000000       0.16073433       0.29742369 </v>
    <v>       0.75000006       0.49406773       0.00000000 </v>
    <v>       0.75000006       0.32740104       0.14871185 </v>
    <v>       0.75000006       0.16073433       0.29742369 </v>
    <v>       0.25000000       0.82740110       0.00000000 </v>
    <v>       0.25000000       0.66073442       0.14871185 </v>
    <v>       0.25000000       0.49406773       0.29742369 </v>
    <v>       0.75000006       0.82740110       0.00000000 </v>
    <v>       0.75000006       0.66073442       0.14871185 </v>
    <v>       0.75000006       0.49406773       0.29742369 </v>
    <v>       0.37500003       0.24406773       0.07435592 </v>
    <v>       0.37500003       0.07740102       0.22306777 </v>
    <v>       0.37500003       0.91073430       0.37177962 </v>
    <v>       0.87500006       0.24406773       0.07435592 </v>
    <v>       0.87500006       0.07740102       0.22306777 </v>
    <v>       0.87500006       0.91073430       0.37177962 </v>
    <v>       0.37500003       0.57740116       0.07435592 </v>
    <v>       0.37500003       0.41073447       0.22306777 </v>
    <v>       0.37500003       0.24406771       0.37177962 </v>
    <v>       0.87500006       0.57740116       0.07435592 </v>
    <v>       0.87500006       0.41073447       0.22306777 </v>
    <v>       0.87500006       0.24406771       0.37177962 </v>
    <v>       0.37500003       0.91073436       0.07435592 </v>
    <v>       0.37500003       0.74406767       0.22306777 </v>
    <v>       0.37500003       0.57740092       0.37177962 </v>
    <v>       0.87500006       0.91073436       0.07435592 </v>
    <v>       0.87500006       0.74406767       0.22306777 </v>
    <v>       0.87500006       0.57740092       0.37177962 </v>
    <v>       0.00000000       0.01797952       0.37177962 </v>
    <v>       0.99999994       0.26797959       0.49742371 </v>
    <v>       0.99999988       0.51797974       0.62306774 </v>
    <v>       0.99999982       0.76797992       0.74871182 </v>
    <v>       0.99999982       0.01797998       0.87435585 </v>
    <v>       0.99999976       0.26798010       0.00000000 </v>
    <v>       0.33333337       0.35131288       0.37177962 </v>
    <v>       0.33333331       0.60131288       0.49742371 </v>
    <v>       0.33333331       0.85131305       0.62306774 </v>
    <v>       0.33333322       0.10131323       0.74871182 </v>
    <v>       0.33333322       0.35131335       0.87435585 </v>
    <v>       0.33333316       0.60131347       0.00000000 </v>
    <v>       0.66666675       0.68464625       0.37177962 </v>
    <v>       0.66666669       0.93464625       0.49742371 </v>
    <v>       0.66666681       0.18464649       0.62306774 </v>
    <v>       0.66666651       0.43464649       0.74871182 </v>
    <v>       0.66666657       0.68464661       0.87435585 </v>
    <v>       0.66666657       0.93464685       0.00000000 </v>
    <v>       0.00000003       0.51797956       0.37177962 </v>
    <v>       0.99999994       0.76797962       0.49742371 </v>
    <v>       0.99999988       0.01797974       0.62306774 </v>
    <v>       0.99999988       0.26797986       0.74871177 </v>
    <v>       0.99999982       0.51797998       0.87435585 </v>
    <v>       0.99999976       0.76798010       0.00000000 </v>
    <v>       0.33333337       0.85131288       0.37177962 </v>
    <v>       0.33333334       0.10131300       0.49742371 </v>
    <v>       0.33333337       0.35131323       0.62306774 </v>
    <v>       0.33333325       0.60131323       0.74871177 </v>
    <v>       0.33333328       0.85131335       0.87435585 </v>
    <v>       0.33333311       0.10131359       0.00000000 </v>
    <v>       0.66666681       0.18464620       0.37177962 </v>
    <v>       0.66666663       0.43464625       0.49742371 </v>
    <v>       0.66666669       0.68464643       0.62306774 </v>
    <v>       0.66666663       0.93464649       0.74871177 </v>
    <v>       0.66666651       0.18464661       0.87435585 </v>
    <v>       0.66666657       0.43464673       0.99999994 </v>
    <v>       0.08333332       0.35131285       0.37177962 </v>
    <v>       0.08333325       0.60131288       0.49742371 </v>
    <v>       0.08333329       0.85131305       0.62306774 </v>
    <v>       0.08333313       0.10131311       0.74871182 </v>
    <v>       0.08333313       0.35131323       0.87435585 </v>
    <v>       0.08333313       0.60131335       0.99999994 </v>
    <v>       0.41666672       0.68464619       0.37177962 </v>
    <v>       0.41666663       0.93464625       0.49742371 </v>
    <v>       0.41666666       0.18464649       0.62306774 </v>
    <v>       0.41666660       0.43464661       0.74871177 </v>
    <v>       0.41666639       0.68464661       0.87435585 </v>
    <v>       0.41666651       0.93464673       0.99999994 </v>
    <v>       0.75000000       0.01797955       0.37177962 </v>
    <v>       0.75000000       0.26797959       0.49742371 </v>
    <v>       0.74999994       0.51797974       0.62306774 </v>
    <v>       0.74999982       0.76797986       0.74871177 </v>
    <v>       0.74999982       0.01797998       0.87435585 </v>
    <v>       0.74999982       0.26798010       0.99999994 </v>
    <v>       0.08333334       0.85131294       0.37177962 </v>
    <v>       0.08333328       0.10131300       0.49742377 </v>
    <v>       0.08333322       0.35131311       0.62306774 </v>
    <v>       0.08333325       0.60131347       0.74871182 </v>
    <v>       0.08333313       0.85131335       0.87435591 </v>
    <v>       0.08333307       0.10131359       0.99999994 </v>
    <v>       0.41666672       0.18464620       0.37177962 </v>
    <v>       0.41666666       0.43464625       0.49742371 </v>
    <v>       0.41666657       0.68464643       0.62306774 </v>
    <v>       0.41666657       0.93464655       0.74871182 </v>
    <v>       0.41666657       0.18464661       0.87435585 </v>
    <v>       0.41666645       0.43464673       0.99999994 </v>
    <v>       0.75000000       0.51797950       0.37177962 </v>
    <v>       0.74999994       0.76797962       0.49742371 </v>
    <v>       0.75000000       0.01797974       0.62306774 </v>
    <v>       0.74999988       0.26797986       0.74871182 </v>
    <v>       0.74999982       0.51797986       0.87435585 </v>
    <v>       0.74999976       0.76798010       0.99999994 </v>
   </varray>
  </structure>
  <varray name="primitive_index" >
   <v type="int" >        1 </v>
   <v type="int" >        2 </v>
   <v type="int" >        3 </v>
   <v type="int" >        4 </v>
   <v type="int" >        5 </v>
   <v type="int" >        6 </v>
   <v type="int" >        7 </v>
   <v type="int" >        8 </v>
   <v type="int" >        9 </v>
   <v type="int" >       10 </v>
   <v type="int" >       11 </v>
   <v type="int" >       12 </v>
   <v type="int" >       13 </v>
   <v type="int" >       14 </v>
   <v type="int" >       15 </v>
   <v type="int" >       16 </v>
   <v type="int" >       17 </v>
   <v type="int" >       18 </v>
   <v type="int" >       19 </v>
   <v type="int" >       20 </v>
   <v type="int" >       21 </v>
   <v type="int" >       22 </v>
   <v type="int" >       23 </v>
   <v type="int" >       24 </v>
   <v type="int" >       25 </v>
   <v type="int" >       26 </v>
   <v type="int" >       27 </v>
   <v type="int" >       28 </v>
   <v type="int" >       29 </v>
   <v type="int" >       30 </v>
   <v type="int" >       31 </v>
   <v type="int" >       32 </v>
   <v type="int" >       33 </v>
   <v type="int" >       34 </v>
   <v type="int" >       35 </v>
   <v type="int" >       36 </v>
   <v type="int" >       37 </v>
   <v type="int" >       38 </v>
   <v type="int" >       39 </v>
   <v type="int" >       40 </v>
   <v type="int" >       41 </v>
   <v type="int" >       42 </v>
   <v type="int" >       43 </v>
   <v type="int" >       44 </v>
   <v type="int" >       45 </v>
   <v type="int" >       46 </v>
   <v type="int" >       47 </v>
   <v type="int" >       48 </v>
   <v type="int" >       49 </v>
   <v type="int" >       50 </v>
   <v type="int" >       51 </v>
   <v type="int" >       52 </v>
   <v type="int" >       53 </v>
   <v type="int" >       54 </v>
   <v type="int" >       55 </v>
   <v type="int" >       56 </v>
   <v type="int" >       57 </v>
   <v type="int" >       58 </v>
   <v type="int" >       59 </v>
   <v type="int" >       60 </v>
   <v type="int" >       61 </v>
   <v type="int" >       62 </v>
   <v type="int" >       63 </v>
   <v type="int" >       64 </v>
   <v type="int" >       65 </v>
   <v type="int" >       66 </v>
   <v type="int" >       67 </v>
   <v type="int" >       68 </v>
   <v type="int" >       69 </v>
   <v type="int" >       70 </v>
   <v type="int" >       71 </v>
   <v type="int" >       72 </v>
   <v type="int" >       73 </v>
   <v type="int" >       74 </v>
   <v type="int" >       75 </v>
   <v type="int" >       76 </v>
   <v type="int" >       77 </v>
   <v type="int" >       78 </v>
   <v type="int" >       79 </v>
   <v type="int" >       80 </v>
   <v type="int" >       81 </v>
   <v type="int" >       82 </v>
   <v type="int" >       83 </v>
   <v type="int" >       84 </v>
   <v type="int" >       85 </v>
   <v type="int" >       86 </v>
   <v type="int" >       87 </v>
   <v type="int" >       88 </v>
   <v type="int" >       89 </v>
   <v type="int" >       90 </v>
   <v type="int" >       91 </v>
   <v type="int" >       92 </v>
   <v type="int" >       93 </v>
   <v type="int" >       94 </v>
   <v type="int" >       95 </v>
   <v type="int" >       96 </v>
   <v type="int" >       97 </v>
   <v type="int" >       98 </v>
   <v type="int" >       99 </v>
   <v type="int" >      100 </v>
   <v type="int" >      101 </v>
   <v type="int" >      102 </v>
   <v type="int" >      103 </v>
   <v type="int" >      104 </v>
   <v type="int" >      105 </v>
   <v type="int" >      106 </v>
   <v type="int" >      107 </v>
   <v type="int" >      108 </v>
   <v type="int" >      109 </v>
   <v type="int" >      110 </v>
   <v type="int" >      111 </v>
   <v type="int" >      112 </v>
   <v type="int" >      113 </v>
   <v type="int" >      114 </v>
   <v type="int" >      115 </v>
   <v type="int" >      116 </v>
   <v type="int" >      117 </v>
   <v type="int" >      118 </v>
   <v type="int" >      119 </v>
   <v type="int" >      120 </v>
   <v type="int" >      121 </v>
   <v type="int" >      122 </v>
   <v type="int" >      123 </v>
   <v type="int" >      124 </v>
   <v type="int" >      125 </v>
   <v type="int" >      126 </v>
   <v type="int" >      127 </v>
   <v type="int" >      128 </v>
   <v type="int" >      129 </v>
   <v type="int" >      130 </v>
   <v type="int" >      131 </v>
   <v type="int" >      132 </v>
   <v type="int" >      133 </v>
   <v type="int" >      134 </v>
   <v type="int" >      135 </v>
   <v type="int" >      136 </v>
   <v type="int" >      137 </v>
   <v type="int" >      138 </v>
   <v type="int" >      139 </v>
   <v type="int" >      140 </v>
   <v type="int" >      141 </v>
   <v type="int" >      142 </v>
   <v type="int" >      143 </v>
   <v type="int" >      144 </v>
  </varray>
 </primitive_cell>
 <kpoints>
  <generation param="Gamma">
   <v type="int" name="divisions">       3        2        2 </v>
   <v name="usershift">      0.00000000       0.00000000       0.00000000 </v>
   <v name="genvec1">      0.33333333       0.00000000       0.00000000 </v>
   <v name="genvec2">      0.00000000       0.50000000       0.00000000 </v>
   <v name="genvec3">      0.00000000       0.00000000       0.50000000 </v>
   <v name="shift">      0.00000000       0.00000000       0.00000000 </v>
  </generation>
  <varray name="kpointlist" >
   <v>       0.00000000       0.00000000       0.00000000 </v>
   <v>       0.33333333       0.00000000       0.00000000 </v>
   <v>       0.00000000       0.50000000       0.00000000 </v>
   <v>       0.33333333       0.50000000       0.00000000 </v>
   <v>       0.00000000       0.00000000       0.50000000 </v>
   <v>       0.33333333       0.00000000       0.50000000 </v>
   <v>       0.00000000       0.50000000       0.50000000 </v>
   <v>       0.33333333       0.50000000       0.50000000 </v>
  </varray>
  <varray name="weights" >
   <v>       0.08333333 </v>
   <v>       0.16666667 </v>
   <v>       0.08333333 </v>
   <v>       0.16666667 </v>
   <v>       0.08333333 </v>
   <v>       0.16666667 </v>
   <v>       0.08333333 </v>
   <v>       0.16666667 </v>
  </varray>
 </kpoints>
 <parameters>
  <separator name="general" >
   <i type="string" name="SYSTEM">Si and Ge interface calculation</i>
   <i type="logical" name="LCOMPAT"> F  </i>
  </separator>
  <separator name="electronic" >
   <i type="string" name="PREC">normal</i>
   <i name="ENMAX">    700.00000000</i>
   <i name="ENAUG">    900.00000000</i>
   <i name="EDIFF">      0.00000010</i>
   <i type="int" name="IALGO">    38</i>
   <i type="int" name="IWAVPR">    10</i>
   <i type="int" name="NBANDS">   348</i>
   <i type="int" name="NBANDSLOW">    -1</i>
   <i type="int" name="NBANDSHIGH">    -1</i>
   <i name="NELECT">    576.00000000</i>
   <i type="int" name="TURBO">     0</i>
   <i type="int" name="IRESTART">     0</i>
   <i type="int" name="NREBOOT">     0</i>
   <i type="int" name="NMIN">     0</i>
   <i name="EREF">      0.00000000</i>
   <separator name="electronic smearing" >
    <i type="int" name="ISMEAR">     0</i>
    <i name="SIGMA">      0.01000000</i>
    <i name="KSPACING">      0.50000000</i>
    <i type="logical" name="KGAMMA"> T  </i>
    <i type="logical" name="KBLOWUP"> T  </i>
   </separator>
   <separator name="electronic projectors" >
    <i type="logical" name="LREAL"> T  </i>
    <v name="ROPT">     -0.00050000     -0.00050000</v>
    <i type="int" name="LMAXPAW">  -100</i>
    <i type="int" name="LMAXMIX">     6</i>
    <i type="logical" name="NLSPLINE"> F  </i>
   </separator>
   <separator name="electronic startup" >
    <i type="int" name="ISTART">     0</i>
    <i type="int" name="ICHARG">     2</i>
    <i type="int" name="INIWAV">     1</i>
   </separator>
   <separator name="electronic spin" >
    <i type="int" name="ISPIN">     2</i>
    <i type="logical" name="LNONCOLLINEAR"> F  </i>
    <v name="MAGMOM">      0.00694444      0.00694444      0.00694444      0.00694444      0.00694444      0.00694444      0.00694444      0.00694444      0.00694444      0.00694444      0.00694444      0.00694444      0.00694444      0.00694444      0.00694444      0.00694444      0.00694444      0.00694444      0.00694444      0.00694444
      0.00694444      0.00694444      0.00694444      0.00694444      0.00694444      0.00694444      0.00694444      0.00694444      0.00694444      0.00694444      0.00694444      0.00694444      0.00694444      0.00694444      0.00694444      0.00694444      0.00694444      0.00694444      0.00694444      0.00694444
      0.00694444      0.00694444      0.00694444      0.00694444      0.00694444      0.00694444      0.00694444      0.00694444      0.00694444      0.00694444      0.00694444      0.00694444      0.00694444      0.00694444      0.00694444      0.00694444      0.00694444      0.00694444      0.00694444      0.00694444
      0.00694444      0.00694444      0.00694444      0.00694444      0.00694444      0.00694444      0.00694444      0.00694444      0.00694444      0.00694444      0.00694444      0.00694444      0.00694444      0.00694444      0.00694444      0.00694444      0.00694444      0.00694444      0.00694444      0.00694444
      0.00694444      0.00694444      0.00694444      0.00694444      0.00694444      0.00694444      0.00694444      0.00694444      0.00694444      0.00694444      0.00694444      0.00694444      0.00694444      0.00694444      0.00694444      0.00694444      0.00694444      0.00694444      0.00694444      0.00694444
      0.00694444      0.00694444      0.00694444      0.00694444      0.00694444      0.00694444      0.00694444      0.00694444      0.00694444      0.00694444      0.00694444      0.00694444      0.00694444      0.00694444      0.00694444      0.00694444      0.00694444      0.00694444      0.00694444      0.00694444
      0.00694444      0.00694444      0.00694444      0.00694444      0.00694444      0.00694444      0.00694444      0.00694444      0.00694444      0.00694444      0.00694444      0.00694444      0.00694444      0.00694444      0.00694444      0.00694444      0.00694444      0.00694444      0.00694444      0.00694444
      0.00694444      0.00694444      0.00694444      0.00694444</v>
    <i name="NUPDOWN">      1.00000000</i>
    <i type="logical" name="LSORBIT"> F  </i>
    <v name="SAXIS">      0.00000000      0.00000000      1.00000000</v>
    <i type="logical" name="LSPIRAL"> F  </i>
    <v name="QSPIRAL">      0.00000000      0.00000000      0.00000000</v>
    <i type="logical" name="LZEROZ"> F  </i>
   </separator>
   <separator name="electronic exchange-correlation" >
    <i type="logical" name="LASPH"> T  </i>
   </separator>
   <separator name="electronic convergence" >
    <i type="int" name="NELM">   100</i>
    <i type="int" name="NELMDL">    -5</i>
    <i type="int" name="NELMIN">     2</i>
    <i name="ENINI">    700.00000000</i>
    <separator name="electronic convergence detail" >
     <i type="logical" name="LDIAG"> T  </i>
     <i type="logical" name="LSUBROT"> F  </i>
     <i name="WEIMIN">      0.00000000</i>
     <i name="EBREAK">      0.00000000</i>
     <i name="DEPER">      0.30000000</i>
     <i type="int" name="NRMM">     4</i>
     <i name="TIME">      0.40000000</i>
    </separator>
   </separator>
   <separator name="electronic mixer" >
    <i name="AMIX">      0.60000000</i>
    <i name="BMIX">      1.00000000</i>
    <i name="AMIN">      0.10000000</i>
    <i name="AMIX_MAG">      2.40000000</i>
    <i name="BMIX_MAG">      1.00000000</i>
    <separator name="electronic mixer details" >
     <i type="int" name="IMIX">     4</i>
     <i type="logical" name="MIXFIRST"> F  </i>
     <i type="int" name="MAXMIX">   -45</i>
     <i name="WC">    100.00000000</i>
     <i type="int" name="INIMIX">     1</i>
     <i type="int" name="MIXPRE">     1</i>
     <i type="int" name="MREMOVE">     5</i>
    </separator>
   </separator>
   <separator name="electronic dipolcorrection" >
    <i type="logical" name="LDIPOL"> F  </i>
    <i type="logical" name="LMONO"> F  </i>
    <i type="int" name="IDIPOL">     0</i>
    <i name="EPSILON">      1.00000000</i>
    <v name="DIPOL">   -100.00000000   -100.00000000   -100.00000000</v>
    <i name="EFIELD">      0.00000000</i>
    <i type="logical" name="LVACPOTAV"> F  </i>
   </separator>
  </separator>
  <separator name="grids" >
   <i type="int" name="NGX">    70</i>
   <i type="int" name="NGY">   108</i>
   <i type="int" name="NGZ">   120</i>
   <i type="int" name="NGXF">   140</i>
   <i type="int" name="NGYF">   216</i>
   <i type="int" name="NGZF">   240</i>
   <i type="logical" name="ADDGRID"> T  </i>
  </separator>
  <separator name="ionic" >
   <i type="int" name="NSW">     0</i>
   <i type="int" name="IBRION">    -1</i>
   <i type="int" name="MDALGO">     0</i>
   <i type="int" name="ISIF">     2</i>
   <i name="PSTRESS">      0.00000000</i>
   <i name="EDIFFG">      0.00000100</i>
   <i type="int" name="NFREE">     0</i>
   <i name="POTIM">      0.50000000</i>
   <i name="SMASS">     -3.00000000</i>
   <i name="SCALEE">      1.00000000</i>
  </separator>
  <separator name="ionic md" >
   <i name="TEBEG">      0.00010000</i>
   <i name="TEEND">      0.00010000</i>
   <i type="int" name="NBLOCK">     1</i>
   <i type="int" name="KBLOCK">     1</i>
   <i type="int" name="NPACO">   256</i>
   <i name="APACO">     10.00000000</i>
  </separator>
  <separator name="symmetry" >
   <i type="int" name="ISYM">     2</i>
   <i name="SYMPREC">      0.00001000</i>
  </separator>
  <separator name="dos" >
   <i type="int" name="LORBIT">     0</i>
   <v name="RWIGS">     -1.00000000     -1.00000000</v>
   <i type="int" name="NEDOS">   301</i>
   <i name="EMIN">     10.00000000</i>
   <i name="EMAX">    -10.00000000</i>
   <i name="EFERMI">      0.00000000</i>
  </separator>
  <separator name="writing" >
   <i type="int" name="NWRITE">     2</i>
   <i type="logical" name="LWAVE"> F  </i>
   <i type="logical" name="LDOWNSAMPLE"> F  </i>
   <i type="logical" name="LCHARG"> T  </i>
   <i type="logical" name="LPARD"> F  </i>
   <i type="logical" name="LVTOT"> F  </i>
   <i type="logical" name="LVHAR"> T  </i>
   <i type="logical" name="LELF"> F  </i>
   <i type="logical" name="LOPTICS"> F  </i>
   <v name="STM">      0.00000000      0.00000000      0.00000000      0.00000000      0.00000000      0.00000000      0.00000000</v>
  </separator>
  <separator name="performance" >
   <i type="int" name="NPAR">     4</i>
   <i type="int" name="NSIM">     4</i>
   <i type="int" name="NBLK">    -1</i>
   <i type="logical" name="LPLANE"> T  </i>
   <i type="logical" name="LSCALAPACK"> T  </i>
   <i type="logical" name="LSCAAWARE"> F  </i>
   <i type="logical" name="LSCALU"> F  </i>
   <i type="logical" name="LASYNC"> F  </i>
   <i type="logical" name="LORBITALREAL"> F  </i>
  </separator>
  <separator name="miscellaneous" >
   <i type="int" name="IDIOT">     3</i>
   <i type="int" name="PHON_NSTRUCT">    -1</i>
   <i type="logical" name="LMUSIC"> F  </i>
   <v name="POMASS">     28.08500000    118.71000000</v>
   <v name="DARWINR">      0.00000000      0.00000000</v>
   <v name="DARWINV">      1.00000000      1.00000000</v>
   <i type="logical" name="LCORR"> T  </i>
  </separator>
  <i type="logical" name="GGA_COMPAT"> T  </i>
  <i type="logical" name="LBERRY"> F  </i>
  <i type="int" name="ICORELEVEL">     0</i>
  <i type="logical" name="LDAU"> F  </i>
  <i type="int" name="I_CONSTRAINED_M">     0</i>
  <separator name="electronic exchange-correlation" >
   <i type="string" name="GGA    ">PE</i>
   <i type="string" name="XC_C">1</i>
   <i type="int" name="VOSKOWN">     0</i>
   <i type="logical" name="LHFCALC"> F  </i>
   <i type="string" name="PRECFOCK"></i>
   <i type="logical" name="LSYMGRAD"> F  </i>
   <i type="logical" name="LHFONE"> F  </i>
   <i type="logical" name="LRHFCALC"> F  </i>
   <i type="logical" name="LTHOMAS"> F  </i>
   <i type="logical" name="LMODELHF"> F  </i>
   <i type="logical" name="LFOCKACE"> F  </i>
   <i name="ENCUT4O">     -1.00000000</i>
   <i type="int" name="EXXOEP">     0</i>
   <i type="int" name="FOURORBIT">     0</i>
   <i name="AEXX">      0.00000000</i>
   <i name="HFALPHA">      0.00000000</i>
   <i name="MCALPHA">      0.00000000</i>
   <i name="ALDAX">      1.00000000</i>
   <i name="AGGAX">      1.00000000</i>
   <i name="AMGGAX">      1.00000000</i>
   <i name="ALDAC">      1.00000000</i>
   <i name="AGGAC">      1.00000000</i>
   <i name="AMGGAC">      1.00000000</i>
   <i type="int" name="NKREDX">     1</i>
   <i type="int" name="NKREDY">     1</i>
   <i type="int" name="NKREDZ">     1</i>
   <i type="logical" name="SHIFTRED"> F  </i>
   <i type="logical" name="ODDONLY"> F  </i>
   <i type="logical" name="EVENONLY"> F  </i>
   <i type="int" name="LMAXFOCK">     0</i>
   <i type="int" name="NMAXFOCKAE">     0</i>
   <i type="logical" name="LFOCKAEDFT"> F  </i>
   <i name="HFSCREEN">      0.00000000</i>
   <i name="HFSCREENC">      0.00000000</i>
   <i type="int" name="NBANDSGWLOW">     0</i>
  </separator>
  <separator name="vdW DFT" >
   <i type="logical" name="LUSE_VDW"> F  </i>
   <i type="int" name="IVDW_NL">    -1</i>
   <i type="logical" name="LSPIN_VDW"> F  </i>
   <i name="ZAB_VDW">     -0.84910000</i>
   <i name="GAMMA_VDW">      1.39626340</i>
   <i name="ALPHA_VDW">      0.00000000</i>
   <i name="PARAM1">      0.12340000</i>
   <i name="PARAM2">      1.00000000</i>
   <i name="BPARAM">      6.30000000</i>
   <i name="CPARAM">      0.00930000</i>
  </separator>
  <separator name="model GW" >
   <i type="int" name="MODEL_GW">     0</i>
   <i name="MODEL_EPS0">     13.46492491</i>
   <i name="MODEL_ALPHA">      1.00000000</i>
  </separator>
  <separator name="linear response parameters" >
   <i type="logical" name="LEPSILON"> F  </i>
   <i type="logical" name="LRPA"> F  </i>
   <i type="logical" name="LNABLA"> F  </i>
   <i type="logical" name="LVEL"> F  </i>
   <i name="CSHIFT">      0.10000000</i>
   <i name="OMEGAMAX">     -1.00000000</i>
   <i name="DEG_THRESHOLD">      0.00200000</i>
   <i name="RTIME">     -0.10000000</i>
   <i name="WPLASMAI">      0.00000000</i>
   <v name="DFIELD">      0.00000000      0.00000000      0.00000000</v>
   <v name="WPLASMA">      0.00000000      0.00000000      0.00000000      0.00000000      0.00000000      0.00000000      0.00000000      0.00000000      0.00000000</v>
  </separator>
  <separator name="orbital magnetization" >
   <i type="logical" name="NUCIND"> F  </i>
   <v name="MAGPOS">      0.00000000      0.00000000      0.00000000</v>
   <i type="logical" name="LNICSALL"> T  </i>
   <i type="logical" name="ORBITALMAG"> F  </i>
   <i type="logical" name="LMAGBLOCH"> F  </i>
   <i type="logical" name="LCHIMAG"> F  </i>
   <i type="logical" name="LGAUGE"> T  </i>
   <i type="int" name="MAGATOM">     0</i>
   <v name="MAGDIPOL">      0.00000000      0.00000000      0.00000000</v>
   <v name="AVECCONST">      0.00000000      0.00000000      0.00000000</v>
  </separator>
  <separator name="response functions" >
   <i type="logical" name="LALL_IN_ONE"> F  </i>
   <i type="int" name="IALL_IN_ONE">    -1</i>
   <i type="int" name="NBANDS_WAVE">    -1</i>
   <i type="logical" name="LFINITE_TEMPERATURE"> F  </i>
   <i type="logical" name="LADDER"> F  </i>
   <i type="logical" name="LRPAFORCE"> F  </i>
   <i type="logical" name="LFXC"> F  </i>
   <i type="logical" name="LHARTREE"> T  </i>
   <i type="int" name="IBSE">     0</i>
   <v type="int" name="KPOINT">    -1     0     0     0</v>
   <i type="logical" name="LTCTC"> F  </i>
   <i type="logical" name="LTCTE"> F  </i>
   <i type="logical" name="LTETE"> F  </i>
   <i type="logical" name="LTRIPLET"> F  </i>
   <i type="logical" name="LFXCEPS"> F  </i>
   <i type="logical" name="LFXHEG"> F  </i>
   <i type="int" name="NATURALO">     2</i>
   <i type="logical" name="LHOLEGF"> F  </i>
   <i type="logical" name="L2ORDER"> F  </i>
   <i type="logical" name="LDMP1"> F  </i>
   <i type="logical" name="LMP2LT"> F  </i>
   <i type="logical" name="LSMP2LT"> F  </i>
   <i type="logical" name="LGWLF"> F  </i>
   <i name="ENCUTGW">     -1.60000002</i>
   <i name="ENCUTGWSOFT">     -1.60000002</i>
   <i name="ENCUTLF">     -1.00000000</i>
   <i type="logical" name="ESF_SPLINES"> F  </i>
   <i name="ESF_CONV">      0.01000000</i>
   <i type="int" name="ESF_NINTER">    15</i>
   <i type="int" name="LMAXMP2">    -1</i>
   <i name="SCISSOR">      0.00000000</i>
   <i type="int" name="NOMEGA">     0</i>
   <i type="int" name="NOMEGAR">     0</i>
   <i type="int" name="NBANDSGW">    -1</i>
   <i type="int" name="NBANDSO">    -1</i>
   <i type="int" name="NBANDSV">    -1</i>
   <i type="int" name="NELMGW">     1</i>
   <i type="int" name="NELMHF">     1</i>
   <i type="int" name="DIM">     3</i>
   <i type="int" name="IESPILON">     4</i>
   <i type="int" name="ANTIRES">     0</i>
   <i name="OMEGAMAX">    -30.00000000</i>
   <i name="OMEGAMIN">    -30.00000000</i>
   <i name="OMEGATL">   -200.00000000</i>
   <i type="int" name="OMEGAGRID">     0</i>
   <i name="CSHIFT">     -0.10000000</i>
   <i type="logical" name="LSELFENERGY"> F  </i>
   <i type="logical" name="LSPECTRAL"> F  </i>
   <i type="logical" name="LSPECTRALGW"> F  </i>
   <i type="logical" name="LSINGLES"> F  </i>
   <i type="logical" name="LFERMIGW"> F  </i>
   <i type="logical" name="ODDONLYGW"> F  </i>
   <i type="logical" name="EVENONLYGW"> F  </i>
   <i type="int" name="NKREDLFX">     1</i>
   <i type="int" name="NKREDLFY">     1</i>
   <i type="int" name="NKREDLFZ">     1</i>
   <i type="int" name="MAXMEM">  2800</i>
   <i type="int" name="TELESCOPE">     0</i>
   <i type="int" name="NTAUPAR">    -1</i>
   <i type="int" name="NOMEGAPAR">    -1</i>
   <i name="DAMP_NEWTON">      0.80000001</i>
   <i name="LAMBDA">      1.00000000</i>
  </separator>
  <separator name="External order field" >
   <i name="OFIELD_KAPPA">      0.00000000</i>
   <v name="OFIELD_K">      0.00000000      0.00000000      0.00000000</v>
   <i name="OFIELD_Q6_NEAR">      0.00000000</i>
   <i name="OFIELD_Q6_FAR">      0.00000000</i>
   <i name="OFIELD_A">      0.00000000</i>
  </separator>
  <separator name="optional k-points parameters" >
   <i type="int" name="KPOINTS_OPT_MODE">     1</i>
   <i type="logical" name="LKPOINTS_OPT"> F  </i>
  </separator>
 </parameters>
 <atominfo>
  <atoms>     144 </atoms>
  <types>       2 </types>
  <array name="atoms" >
   <dimension dim="1">ion</dimension>
   <field type="string">element</field>
   <field type="int">atomtype</field>
   <set>
    <rc><c>Si</c><c>   1</c></rc>
    <rc><c>Si</c><c>   1</c></rc>
    <rc><c>Si</c><c>   1</c></rc>
    <rc><c>Si</c><c>   1</c></rc>
    <rc><c>Si</c><c>   1</c></rc>
    <rc><c>Si</c><c>   1</c></rc>
    <rc><c>Si</c><c>   1</c></rc>
    <rc><c>Si</c><c>   1</c></rc>
    <rc><c>Si</c><c>   1</c></rc>
    <rc><c>Si</c><c>   1</c></rc>
    <rc><c>Si</c><c>   1</c></rc>
    <rc><c>Si</c><c>   1</c></rc>
    <rc><c>Si</c><c>   1</c></rc>
    <rc><c>Si</c><c>   1</c></rc>
    <rc><c>Si</c><c>   1</c></rc>
    <rc><c>Si</c><c>   1</c></rc>
    <rc><c>Si</c><c>   1</c></rc>
    <rc><c>Si</c><c>   1</c></rc>
    <rc><c>Si</c><c>   1</c></rc>
    <rc><c>Si</c><c>   1</c></rc>
    <rc><c>Si</c><c>   1</c></rc>
    <rc><c>Si</c><c>   1</c></rc>
    <rc><c>Si</c><c>   1</c></rc>
    <rc><c>Si</c><c>   1</c></rc>
    <rc><c>Si</c><c>   1</c></rc>
    <rc><c>Si</c><c>   1</c></rc>
    <rc><c>Si</c><c>   1</c></rc>
    <rc><c>Si</c><c>   1</c></rc>
    <rc><c>Si</c><c>   1</c></rc>
    <rc><c>Si</c><c>   1</c></rc>
    <rc><c>Si</c><c>   1</c></rc>
    <rc><c>Si</c><c>   1</c></rc>
    <rc><c>Si</c><c>   1</c></rc>
    <rc><c>Si</c><c>   1</c></rc>
    <rc><c>Si</c><c>   1</c></rc>
    <rc><c>Si</c><c>   1</c></rc>
    <rc><c>Si</c><c>   1</c></rc>
    <rc><c>Si</c><c>   1</c></rc>
    <rc><c>Si</c><c>   1</c></rc>
    <rc><c>Si</c><c>   1</c></rc>
    <rc><c>Si</c><c>   1</c></rc>
    <rc><c>Si</c><c>   1</c></rc>
    <rc><c>Si</c><c>   1</c></rc>
    <rc><c>Si</c><c>   1</c></rc>
    <rc><c>Si</c><c>   1</c></rc>
    <rc><c>Si</c><c>   1</c></rc>
    <rc><c>Si</c><c>   1</c></rc>
    <rc><c>Si</c><c>   1</c></rc>
    <rc><c>Si</c><c>   1</c></rc>
    <rc><c>Si</c><c>   1</c></rc>
    <rc><c>Si</c><c>   1</c></rc>
    <rc><c>Si</c><c>   1</c></rc>
    <rc><c>Si</c><c>   1</c></rc>
    <rc><c>Si</c><c>   1</c></rc>
    <rc><c>Si</c><c>   1</c></rc>
    <rc><c>Si</c><c>   1</c></rc>
    <rc><c>Si</c><c>   1</c></rc>
    <rc><c>Si</c><c>   1</c></rc>
    <rc><c>Si</c><c>   1</c></rc>
    <rc><c>Si</c><c>   1</c></rc>
    <rc><c>Si</c><c>   1</c></rc>
    <rc><c>Si</c><c>   1</c></rc>
    <rc><c>Si</c><c>   1</c></rc>
    <rc><c>Si</c><c>   1</c></rc>
    <rc><c>Si</c><c>   1</c></rc>
    <rc><c>Si</c><c>   1</c></rc>
    <rc><c>Si</c><c>   1</c></rc>
    <rc><c>Si</c><c>   1</c></rc>
    <rc><c>Si</c><c>   1</c></rc>
    <rc><c>Si</c><c>   1</c></rc>
    <rc><c>Si</c><c>   1</c></rc>
    <rc><c>Si</c><c>   1</c></rc>
    <rc><c>Sn</c><c>   2</c></rc>
    <rc><c>Sn</c><c>   2</c></rc>
    <rc><c>Sn</c><c>   2</c></rc>
    <rc><c>Sn</c><c>   2</c></rc>
    <rc><c>Sn</c><c>   2</c></rc>
    <rc><c>Sn</c><c>   2</c></rc>
    <rc><c>Sn</c><c>   2</c></rc>
    <rc><c>Sn</c><c>   2</c></rc>
    <rc><c>Sn</c><c>   2</c></rc>
    <rc><c>Sn</c><c>   2</c></rc>
    <rc><c>Sn</c><c>   2</c></rc>
    <rc><c>Sn</c><c>   2</c></rc>
    <rc><c>Sn</c><c>   2</c></rc>
    <rc><c>Sn</c><c>   2</c></rc>
    <rc><c>Sn</c><c>   2</c></rc>
    <rc><c>Sn</c><c>   2</c></rc>
    <rc><c>Sn</c><c>   2</c></rc>
    <rc><c>Sn</c><c>   2</c></rc>
    <rc><c>Sn</c><c>   2</c></rc>
    <rc><c>Sn</c><c>   2</c></rc>
    <rc><c>Sn</c><c>   2</c></rc>
    <rc><c>Sn</c><c>   2</c></rc>
    <rc><c>Sn</c><c>   2</c></rc>
    <rc><c>Sn</c><c>   2</c></rc>
    <rc><c>Sn</c><c>   2</c></rc>
    <rc><c>Sn</c><c>   2</c></rc>
    <rc><c>Sn</c><c>   2</c></rc>
    <rc><c>Sn</c><c>   2</c></rc>
    <rc><c>Sn</c><c>   2</c></rc>
    <rc><c>Sn</c><c>   2</c></rc>
    <rc><c>Sn</c><c>   2</c></rc>
    <rc><c>Sn</c><c>   2</c></rc>
    <rc><c>Sn</c><c>   2</c></rc>
    <rc><c>Sn</c><c>   2</c></rc>
    <rc><c>Sn</c><c>   2</c></rc>
    <rc><c>Sn</c><c>   2</c></rc>
    <rc><c>Sn</c><c>   2</c></rc>
    <rc><c>Sn</c><c>   2</c></rc>
    <rc><c>Sn</c><c>   2</c></rc>
    <rc><c>Sn</c><c>   2</c></rc>
    <rc><c>Sn</c><c>   2</c></rc>
    <rc><c>Sn</c><c>   2</c></rc>
    <rc><c>Sn</c><c>   2</c></rc>
    <rc><c>Sn</c><c>   2</c></rc>
    <rc><c>Sn</c><c>   2</c></rc>
    <rc><c>Sn</c><c>   2</c></rc>
    <rc><c>Sn</c><c>   2</c></rc>
    <rc><c>Sn</c><c>   2</c></rc>
    <rc><c>Sn</c><c>   2</c></rc>
    <rc><c>Sn</c><c>   2</c></rc>
    <rc><c>Sn</c><c>   2</c></rc>
    <rc><c>Sn</c><c>   2</c></rc>
    <rc><c>Sn</c><c>   2</c></rc>
    <rc><c>Sn</c><c>   2</c></rc>
    <rc><c>Sn</c><c>   2</c></rc>
    <rc><c>Sn</c><c>   2</c></rc>
    <rc><c>Sn</c><c>   2</c></rc>
    <rc><c>Sn</c><c>   2</c></rc>
    <rc><c>Sn</c><c>   2</c></rc>
    <rc><c>Sn</c><c>   2</c></rc>
    <rc><c>Sn</c><c>   2</c></rc>
    <rc><c>Sn</c><c>   2</c></rc>
    <rc><c>Sn</c><c>   2</c></rc>
    <rc><c>Sn</c><c>   2</c></rc>
    <rc><c>Sn</c><c>   2</c></rc>
    <rc><c>Sn</c><c>   2</c></rc>
    <rc><c>Sn</c><c>   2</c></rc>
    <rc><c>Sn</c><c>   2</c></rc>
    <rc><c>Sn</c><c>   2</c></rc>
    <rc><c>Sn</c><c>   2</c></rc>
    <rc><c>Sn</c><c>   2</c></rc>
    <rc><c>Sn</c><c>   2</c></rc>
   </set>
  </array>
  <array name="atomtypes" >
   <dimension dim="1">type</dimension>
   <field type="int">atomspertype</field>
   <field type="string">element</field>
   <field>mass</field>
   <field>valence</field>
   <field type="string">pseudopotential</field>
   <set>
    <rc><c>  72</c><c>Si</c><c>     28.08500000</c><c>      4.00000000</c><c>  PAW_PBE Si 05Jan2001                  </c></rc>
    <rc><c>  72</c><c>Sn</c><c>    118.71000000</c><c>      4.00000000</c><c>  PAW_PBE Sn 08Apr2002                  </c></rc>
   </set>
  </array>
 </atominfo>
 <structure name="initialpos" >
  <crystal>
   <varray name="basis" >
    <v>      10.86200046       0.00000000       0.00000000 </v>
    <v>       0.00000000      16.29300118       0.00000000 </v>
    <v>       0.00000000       0.00000000      18.26014710 </v>
   </varray>
   <i name="volume">   3231.58197863 </i>
   <varray name="rec_basis" >
    <v>       0.09206407       0.00000000       0.00000000 </v>
    <v>       0.00000000       0.06137605       0.00000000 </v>
    <v>       0.00000000       0.00000000       0.05476407 </v>
   </varray>
  </crystal>
  <varray name="positions" >
   <v>       0.00000000       0.99406773       0.00000000 </v>
   <v>       0.00000000       0.82740104       0.14871185 </v>
   <v>       0.00000000       0.66073430       0.29742369 </v>
   <v>       0.50000000       0.99406773       0.00000000 </v>
   <v>       0.50000000       0.82740104       0.14871185 </v>
   <v>       0.50000000       0.66073430       0.29742369 </v>
   <v>       0.00000000       0.32740107       0.00000000 </v>
   <v>       0.00000000       0.16073438       0.14871185 </v>
   <v>       0.00000000       0.99406767       0.29742369 </v>
   <v>       0.50000000       0.32740107       0.00000000 </v>
   <v>       0.50000000       0.16073438       0.14871185 </v>
   <v>       0.50000000       0.99406767       0.29742369 </v>
   <v>       0.00000000       0.66073447       0.00000000 </v>
   <v>       0.00000000       0.49406773       0.14871185 </v>
   <v>       0.00000000       0.32740104       0.29742369 </v>
   <v>       0.50000000       0.66073447       0.00000000 </v>
   <v>       0.50000000       0.49406773       0.14871185 </v>
   <v>       0.50000000       0.32740104       0.29742369 </v>
   <v>       0.12500000       0.07740106       0.07435592 </v>
   <v>       0.12500000       0.91073436       0.22306777 </v>
   <v>       0.12500000       0.74406767       0.37177962 </v>
   <v>       0.62500000       0.07740106       0.07435592 </v>
   <v>       0.62500000       0.91073436       0.22306777 </v>
   <v>       0.62500000       0.74406767       0.37177962 </v>
   <v>       0.12500000       0.41073438       0.07435592 </v>
   <v>       0.12500000       0.24406767       0.22306777 </v>
   <v>       0.12500000       0.07740095       0.37177962 </v>
   <v>       0.62500000       0.41073438       0.07435592 </v>
   <v>       0.62500000       0.24406767       0.22306777 </v>
   <v>       0.62500000       0.07740095       0.37177962 </v>
   <v>       0.12500000       0.74406779       0.07435592 </v>
   <v>       0.12500000       0.57740104       0.22306777 </v>
   <v>       0.12500000       0.41073433       0.37177962 </v>
   <v>       0.62500000       0.74406779       0.07435592 </v>
   <v>       0.62500000       0.57740104       0.22306777 </v>
   <v>       0.62500000       0.41073433       0.37177962 </v>
   <v>       0.25000000       0.16073438       0.00000000 </v>
   <v>       0.25000000       0.99406767       0.14871185 </v>
   <v>       0.25000000       0.82740098       0.29742369 </v>
   <v>       0.75000006       0.16073438       0.00000000 </v>
   <v>       0.75000006       0.99406767       0.14871185 </v>
   <v>       0.75000006       0.82740098       0.29742369 </v>
   <v>       0.25000000       0.49406773       0.00000000 </v>
   <v>       0.25000000       0.32740104       0.14871185 </v>
   <v>       0.25000000       0.16073433       0.29742369 </v>
   <v>       0.75000006       0.49406773       0.00000000 </v>
   <v>       0.75000006       0.32740104       0.14871185 </v>
   <v>       0.75000006       0.16073433       0.29742369 </v>
   <v>       0.25000000       0.82740110       0.00000000 </v>
   <v>       0.25000000       0.66073442       0.14871185 </v>
   <v>       0.25000000       0.49406773       0.29742369 </v>
   <v>       0.75000006       0.82740110       0.00000000 </v>
   <v>       0.75000006       0.66073442       0.14871185 </v>
   <v>       0.75000006       0.49406773       0.29742369 </v>
   <v>       0.37500003       0.24406773       0.07435592 </v>
   <v>       0.37500003       0.07740102       0.22306777 </v>
   <v>       0.37500003       0.91073430       0.37177962 </v>
   <v>       0.87500006       0.24406773       0.07435592 </v>
   <v>       0.87500006       0.07740102       0.22306777 </v>
   <v>       0.87500006       0.91073430       0.37177962 </v>
   <v>       0.37500003       0.57740116       0.07435592 </v>
   <v>       0.37500003       0.41073447       0.22306777 </v>
   <v>       0.37500003       0.24406771       0.37177962 </v>
   <v>       0.87500006       0.57740116       0.07435592 </v>
   <v>       0.87500006       0.41073447       0.22306777 </v>
   <v>       0.87500006       0.24406771       0.37177962 </v>
   <v>       0.37500003       0.91073436       0.07435592 </v>
   <v>       0.37500003       0.74406767       0.22306777 </v>
   <v>       0.37500003       0.57740092       0.37177962 </v>
   <v>       0.87500006       0.91073436       0.07435592 </v>
   <v>       0.87500006       0.74406767       0.22306777 </v>
   <v>       0.87500006       0.57740092       0.37177962 </v>
   <v>       0.00000000       0.01797952       0.37177962 </v>
   <v>       0.99999994       0.26797959       0.49742371 </v>
   <v>       0.99999988       0.51797974       0.62306774 </v>
   <v>       0.99999982       0.76797992       0.74871182 </v>
   <v>       0.99999982       0.01797998       0.87435585 </v>
   <v>       0.99999976       0.26798010       0.00000000 </v>
   <v>       0.33333337       0.35131288       0.37177962 </v>
   <v>       0.33333331       0.60131288       0.49742371 </v>
   <v>       0.33333331       0.85131305       0.62306774 </v>
   <v>       0.33333322       0.10131323       0.74871182 </v>
   <v>       0.33333322       0.35131335       0.87435585 </v>
   <v>       0.33333316       0.60131347       0.00000000 </v>
   <v>       0.66666675       0.68464625       0.37177962 </v>
   <v>       0.66666669       0.93464625       0.49742371 </v>
   <v>       0.66666681       0.18464649       0.62306774 </v>
   <v>       0.66666651       0.43464649       0.74871182 </v>
   <v>       0.66666657       0.68464661       0.87435585 </v>
   <v>       0.66666657       0.93464685       0.00000000 </v>
   <v>       0.00000003       0.51797956       0.37177962 </v>
   <v>       0.99999994       0.76797962       0.49742371 </v>
   <v>       0.99999988       0.01797974       0.62306774 </v>
   <v>       0.99999988       0.26797986       0.74871177 </v>
   <v>       0.99999982       0.51797998       0.87435585 </v>
   <v>       0.99999976       0.76798010       0.00000000 </v>
   <v>       0.33333337       0.85131288       0.37177962 </v>
   <v>       0.33333334       0.10131300       0.49742371 </v>
   <v>       0.33333337       0.35131323       0.62306774 </v>
   <v>       0.33333325       0.60131323       0.74871177 </v>
   <v>       0.33333328       0.85131335       0.87435585 </v>
   <v>       0.33333311       0.10131359       0.00000000 </v>
   <v>       0.66666681       0.18464620       0.37177962 </v>
   <v>       0.66666663       0.43464625       0.49742371 </v>
   <v>       0.66666669       0.68464643       0.62306774 </v>
   <v>       0.66666663       0.93464649       0.74871177 </v>
   <v>       0.66666651       0.18464661       0.87435585 </v>
   <v>       0.66666657       0.43464673       0.99999994 </v>
   <v>       0.08333332       0.35131285       0.37177962 </v>
   <v>       0.08333325       0.60131288       0.49742371 </v>
   <v>       0.08333329       0.85131305       0.62306774 </v>
   <v>       0.08333313       0.10131311       0.74871182 </v>
   <v>       0.08333313       0.35131323       0.87435585 </v>
   <v>       0.08333313       0.60131335       0.99999994 </v>
   <v>       0.41666672       0.68464619       0.37177962 </v>
   <v>       0.41666663       0.93464625       0.49742371 </v>
   <v>       0.41666666       0.18464649       0.62306774 </v>
   <v>       0.41666660       0.43464661       0.74871177 </v>
   <v>       0.41666639       0.68464661       0.87435585 </v>
   <v>       0.41666651       0.93464673       0.99999994 </v>
   <v>       0.75000000       0.01797955       0.37177962 </v>
   <v>       0.75000000       0.26797959       0.49742371 </v>
   <v>       0.74999994       0.51797974       0.62306774 </v>
   <v>       0.74999982       0.76797986       0.74871177 </v>
   <v>       0.74999982       0.01797998       0.87435585 </v>
   <v>       0.74999982       0.26798010       0.99999994 </v>
   <v>       0.08333334       0.85131294       0.37177962 </v>
   <v>       0.08333328       0.10131300       0.49742377 </v>
   <v>       0.08333322       0.35131311       0.62306774 </v>
   <v>       0.08333325       0.60131347       0.74871182 </v>
   <v>       0.08333313       0.85131335       0.87435591 </v>
   <v>       0.08333307       0.10131359       0.99999994 </v>
   <v>       0.41666672       0.18464620       0.37177962 </v>
   <v>       0.41666666       0.43464625       0.49742371 </v>
   <v>       0.41666657       0.68464643       0.62306774 </v>
   <v>       0.41666657       0.93464655       0.74871182 </v>
   <v>       0.41666657       0.18464661       0.87435585 </v>
   <v>       0.41666645       0.43464673       0.99999994 </v>
   <v>       0.75000000       0.51797950       0.37177962 </v>
   <v>       0.74999994       0.76797962       0.49742371 </v>
   <v>       0.75000000       0.01797974       0.62306774 </v>
   <v>       0.74999988       0.26797986       0.74871182 </v>
   <v>       0.74999982       0.51797986       0.87435585 </v>
   <v>       0.74999976       0.76798010       0.99999994 </v>
  </varray>
 </structure>
 <calculation>
  <scstep>
   <time name="dav">   38.73   39.07</time>
   <time name="total">   40.70   41.06</time>
   <energy>
    <i name="alphaZ">    509.33999308 </i>
    <i name="ewald">  -7962.88582072 </i>
    <i name="hartreedc">  -7362.39581408 </i>
    <i name="XCdc">  -9173.38477953 </i>
    <i name="pawpsdc">  19982.81666002 </i>
    <i name="pawaedc">  -9798.62748197 </i>
    <i name="eentropy">     -0.00138624 </i>
    <i name="bandstr">   3505.32120053 </i>
    <i name="atom">  14194.98767854 </i>
    <i name="e_fr_energy">   3895.17024962 </i>
    <i name="e_wo_entrp">   3895.17163587 </i>
    <i name="e_0_energy">   3895.17094274 </i>
   </energy>
  </scstep>
  <scstep>
   <time name="dav">   44.25   44.66</time>
   <time name="total">   44.25   44.66</time>
   <energy>
    <i name="e_fr_energy">    654.10652025 </i>
    <i name="e_wo_entrp">    654.10877712 </i>
    <i name="e_0_energy">    654.10764868 </i>
   </energy>
  </scstep>
  <scstep>
   <time name="dav">   47.88   48.31</time>
   <time name="total">   47.88   48.31</time>
   <energy>
    <i name="e_fr_energy">    306.98183229 </i>
    <i name="e_wo_entrp">    306.98415598 </i>
    <i name="e_0_energy">    306.98299413 </i>
   </energy>
  </scstep>
  <scstep>
   <time name="dav">   50.24   50.72</time>
   <time name="total">   50.25   50.72</time>
   <energy>
    <i name="e_fr_energy">    287.30865059 </i>
    <i name="e_wo_entrp">    287.31221731 </i>
    <i name="e_0_energy">    287.31043395 </i>
   </energy>
  </scstep>
  <scstep>
   <time name="dav">   55.86   56.36</time>
   <time name="total">   57.91   58.43</time>
   <energy>
    <i name="e_fr_energy">    286.25375556 </i>
    <i name="e_wo_entrp">    286.25731157 </i>
    <i name="e_0_energy">    286.25553357 </i>
   </energy>
  </scstep>
  <scstep>
   <time name="dav">   51.25   51.75</time>
   <time name="total">   55.22   55.76</time>
   <energy>
    <i name="e_fr_energy">    340.32218415 </i>
    <i name="e_wo_entrp">    340.32619691 </i>
    <i name="e_0_energy">    340.32419053 </i>
   </energy>
  </scstep>
  <scstep>
   <time name="dav">   56.35   56.86</time>
   <time name="total">   60.34   60.88</time>
   <energy>
    <i name="e_fr_energy">    209.08225321 </i>
    <i name="e_wo_entrp">    209.08510917 </i>
    <i name="e_0_energy">    209.08368119 </i>
   </energy>
  </scstep>
  <scstep>
   <time name="dav">   57.17   57.70</time>
   <time name="total">   61.16   61.72</time>
   <energy>
    <i name="e_fr_energy">    364.02928169 </i>
    <i name="e_wo_entrp">    364.03227472 </i>
    <i name="e_0_energy">    364.03077821 </i>
   </energy>
  </scstep>
  <scstep>
   <time name="dav">   46.54   46.94</time>
   <time name="total">   50.52   50.95</time>
   <energy>
    <i name="e_fr_energy">    353.19072221 </i>
    <i name="e_wo_entrp">    353.19318816 </i>
    <i name="e_0_energy">    353.19195519 </i>
   </energy>
  </scstep>
  <scstep>
   <time name="dav">   45.90   46.28</time>
   <time name="total">   49.89   50.30</time>
   <energy>
    <i name="e_fr_energy">    357.04212293 </i>
    <i name="e_wo_entrp">    357.04518629 </i>
    <i name="e_0_energy">    357.04365461 </i>
   </energy>
  </scstep>
  <scstep>
   <time name="dav">   46.09   46.48</time>
   <time name="total">   50.08   50.50</time>
   <energy>
    <i name="e_fr_energy">    357.83126874 </i>
    <i name="e_wo_entrp">    357.83420736 </i>
    <i name="e_0_energy">    357.83273805 </i>
   </energy>
  </scstep>
  <scstep>
   <time name="dav">   45.98   46.39</time>
   <time name="total">   49.97   50.42</time>
   <energy>
    <i name="e_fr_energy">    358.00165403 </i>
    <i name="e_wo_entrp">    358.00568478 </i>
    <i name="e_0_energy">    358.00366940 </i>
   </energy>
  </scstep>
  <scstep>
   <time name="dav">   45.37   45.77</time>
   <time name="total">   49.37   49.80</time>
   <energy>
    <i name="e_fr_energy">    358.28731136 </i>
    <i name="e_wo_entrp">    358.29039450 </i>
    <i name="e_0_energy">    358.28885293 </i>
   </energy>
  </scstep>
  <scstep>
   <time name="dav">   46.26   46.70</time>
   <time name="total">   50.25   50.72</time>
   <energy>
    <i name="e_fr_energy">    358.20444623 </i>
    <i name="e_wo_entrp">    358.20732543 </i>
    <i name="e_0_energy">    358.20588583 </i>
   </energy>
  </scstep>
  <scstep>
   <time name="dav">   42.96   43.34</time>
   <time name="total">   46.95   47.35</time>
   <energy>
    <i name="e_fr_energy">    358.26185911 </i>
    <i name="e_wo_entrp">    358.26496365 </i>
    <i name="e_0_energy">    358.26341138 </i>
   </energy>
  </scstep>
  <scstep>
   <time name="dav">   47.34   47.75</time>
   <time name="total">   51.31   51.75</time>
   <energy>
    <i name="e_fr_energy">    358.26761805 </i>
    <i name="e_wo_entrp">    358.27072308 </i>
    <i name="e_0_energy">    358.26917056 </i>
   </energy>
  </scstep>
  <scstep>
   <time name="dav">   45.04   45.45</time>
   <time name="total">   49.01   49.45</time>
   <energy>
    <i name="e_fr_energy">    358.30041282 </i>
    <i name="e_wo_entrp">    358.30352118 </i>
    <i name="e_0_energy">    358.30196700 </i>
   </energy>
  </scstep>
  <scstep>
   <time name="dav">   45.43   45.82</time>
   <time name="total">   49.39   49.82</time>
   <energy>
    <i name="e_fr_energy">    358.31931970 </i>
    <i name="e_wo_entrp">    358.32239595 </i>
    <i name="e_0_energy">    358.32085783 </i>
   </energy>
  </scstep>
  <scstep>
   <time name="dav">   45.92   46.32</time>
   <time name="total">   49.88   50.30</time>
   <energy>
    <i name="e_fr_energy">    358.32430304 </i>
    <i name="e_wo_entrp">    358.32745451 </i>
    <i name="e_0_energy">    358.32587877 </i>
   </energy>
  </scstep>
  <scstep>
   <time name="dav">   44.04   44.42</time>
   <time name="total">   48.00   48.41</time>
   <energy>
    <i name="e_fr_energy">    358.32488942 </i>
    <i name="e_wo_entrp">    358.32802833 </i>
    <i name="e_0_energy">    358.32645887 </i>
   </energy>
  </scstep>
  <scstep>
   <time name="dav">   48.18   48.59</time>
   <time name="total">   52.14   52.58</time>
   <energy>
    <i name="e_fr_energy">    358.32486409 </i>
    <i name="e_wo_entrp">    358.32799766 </i>
    <i name="e_0_energy">    358.32643087 </i>
   </energy>
  </scstep>
  <scstep>
   <time name="dav">   44.60   44.99</time>
   <time name="total">   48.56   48.99</time>
   <energy>
    <i name="e_fr_energy">    358.32500872 </i>
    <i name="e_wo_entrp">    358.32814276 </i>
    <i name="e_0_energy">    358.32657574 </i>
   </energy>
  </scstep>
  <scstep>
   <time name="dav">   46.14   46.55</time>
   <time name="total">   50.10   50.54</time>
   <energy>
    <i name="e_fr_energy">    358.32466652 </i>
    <i name="e_wo_entrp">    358.32779543 </i>
    <i name="e_0_energy">    358.32623097 </i>
   </energy>
  </scstep>
  <scstep>
   <time name="dav">   44.86   45.25</time>
   <time name="total">   48.82   49.24</time>
   <energy>
    <i name="e_fr_energy">    358.32491770 </i>
    <i name="e_wo_entrp">    358.32805113 </i>
    <i name="e_0_energy">    358.32648442 </i>
   </energy>
  </scstep>
  <scstep>
   <time name="dav">   45.56   45.97</time>
   <time name="total">   49.52   49.95</time>
   <energy>
    <i name="e_fr_energy">    358.32509189 </i>
    <i name="e_wo_entrp">    358.32822131 </i>
    <i name="e_0_energy">    358.32665660 </i>
   </energy>
  </scstep>
  <scstep>
   <time name="dav">   44.78   45.24</time>
   <time name="total">   48.73   49.22</time>
   <energy>
    <i name="e_fr_energy">    358.32509049 </i>
    <i name="e_wo_entrp">    358.32821982 </i>
    <i name="e_0_energy">    358.32665516 </i>
   </energy>
  </scstep>
  <scstep>
   <time name="dav">   51.07   51.54</time>
   <time name="total">   55.03   55.53</time>
   <energy>
    <i name="e_fr_energy">    358.32509210 </i>
    <i name="e_wo_entrp">    358.32822187 </i>
    <i name="e_0_energy">    358.32665699 </i>
   </energy>
  </scstep>
  <scstep>
   <time name="dav">   44.86   45.34</time>
   <time name="total">   48.81   49.33</time>
   <energy>
    <i name="e_fr_energy">    358.32514501 </i>
    <i name="e_wo_entrp">    358.32827384 </i>
    <i name="e_0_energy">    358.32670942 </i>
   </energy>
  </scstep>
  <scstep>
   <time name="dav">   44.96   45.37</time>
   <time name="total">   48.91   49.36</time>
   <energy>
    <i name="e_fr_energy">    358.32522463 </i>
    <i name="e_wo_entrp">    358.32835056 </i>
    <i name="e_0_energy">    358.32678760 </i>
   </energy>
  </scstep>
  <scstep>
   <time name="dav">   46.97   47.40</time>
   <time name="total">   50.93   51.39</time>
   <energy>
    <i name="e_fr_energy">    358.32521820 </i>
    <i name="e_wo_entrp">    358.32834272 </i>
    <i name="e_0_energy">    358.32678046 </i>
   </energy>
  </scstep>
  <scstep>
   <time name="dav">   45.33   45.74</time>
   <time name="total">   49.28   49.73</time>
   <energy>
    <i name="e_fr_energy">    358.32521511 </i>
    <i name="e_wo_entrp">    358.32833941 </i>
    <i name="e_0_energy">    358.32677726 </i>
   </energy>
  </scstep>
  <scstep>
   <time name="dav">   42.10   42.51</time>
   <time name="total">   46.06   46.51</time>
   <energy>
    <i name="e_fr_energy">    358.32521335 </i>
    <i name="e_wo_entrp">    358.32833805 </i>
    <i name="e_0_energy">    358.32677570 </i>
   </energy>
  </scstep>
  <scstep>
   <time name="dav">   45.56   45.97</time>
   <time name="total">   49.53   49.97</time>
   <energy>
    <i name="e_fr_energy">    358.32520823 </i>
    <i name="e_wo_entrp">    358.32833205 </i>
    <i name="e_0_energy">    358.32677014 </i>
   </energy>
  </scstep>
  <scstep>
   <time name="dav">   46.95   47.36</time>
   <time name="total">   50.93   51.37</time>
   <energy>
    <i name="e_fr_energy">    358.32521290 </i>
    <i name="e_wo_entrp">    358.32833712 </i>
    <i name="e_0_energy">    358.32677501 </i>
   </energy>
  </scstep>
  <scstep>
   <time name="dav">   46.54   46.98</time>
   <time name="total">   50.51   50.99</time>
   <energy>
    <i name="e_fr_energy">    358.32522158 </i>
    <i name="e_wo_entrp">    358.32834583 </i>
    <i name="e_0_energy">    358.32678371 </i>
   </energy>
  </scstep>
  <scstep>
   <time name="dav">   47.11   47.54</time>
   <time name="total">   51.09   51.54</time>
   <energy>
    <i name="e_fr_energy">    358.32523012 </i>
    <i name="e_wo_entrp">    358.32835432 </i>
    <i name="e_0_energy">    358.32679222 </i>
   </energy>
  </scstep>
  <scstep>
   <time name="dav">   48.16   48.60</time>
   <time name="total">   52.14   52.61</time>
   <energy>
    <i name="e_fr_energy">    358.32523611 </i>
    <i name="e_wo_entrp">    358.32836021 </i>
    <i name="e_0_energy">    358.32679816 </i>
   </energy>
  </scstep>
  <scstep>
   <time name="dav">   44.80   45.21</time>
   <time name="total">   48.77   49.22</time>
   <energy>
    <i name="e_fr_energy">    358.32524542 </i>
    <i name="e_wo_entrp">    358.32836932 </i>
    <i name="e_0_energy">    358.32680737 </i>
   </energy>
  </scstep>
  <scstep>
   <time name="dav">   46.52   47.04</time>
   <time name="total">   50.49   51.05</time>
   <energy>
    <i name="e_fr_energy">    358.32524909 </i>
    <i name="e_wo_entrp">    358.32837274 </i>
    <i name="e_0_energy">    358.32681091 </i>
   </energy>
  </scstep>
  <scstep>
   <time name="dav">   44.60   45.01</time>
   <time name="total">   48.59   49.03</time>
   <energy>
    <i name="e_fr_energy">    358.32525314 </i>
    <i name="e_wo_entrp">    358.32837666 </i>
    <i name="e_0_energy">    358.32681490 </i>
   </energy>
  </scstep>
  <scstep>
   <time name="dav">   45.07   45.47</time>
   <time name="total">   49.05   49.48</time>
   <energy>
    <i name="e_fr_energy">    358.32525556 </i>
    <i name="e_wo_entrp">    358.32837883 </i>
    <i name="e_0_energy">    358.32681720 </i>
   </energy>
  </scstep>
  <scstep>
   <time name="dav">   45.30   45.71</time>
   <time name="total">   49.27   49.72</time>
   <energy>
    <i name="e_fr_energy">    358.32525725 </i>
    <i name="e_wo_entrp">    358.32838022 </i>
    <i name="e_0_energy">    358.32681874 </i>
   </energy>
  </scstep>
  <scstep>
   <time name="dav">   45.23   45.64</time>
   <time name="total">   49.20   49.64</time>
   <energy>
    <i name="e_fr_energy">    358.32525806 </i>
    <i name="e_wo_entrp">    358.32838082 </i>
    <i name="e_0_energy">    358.32681944 </i>
   </energy>
  </scstep>
  <scstep>
   <time name="dav">   38.89   39.28</time>
   <time name="total">   42.87   43.29</time>
   <energy>
    <i name="e_fr_energy">    358.32525819 </i>
    <i name="e_wo_entrp">    358.32838075 </i>
    <i name="e_0_energy">    358.32681947 </i>
   </energy>
  </scstep>
  <scstep>
   <time name="dav">   28.30   28.56</time>
   <time name="total">   32.27   32.57</time>
   <energy>
    <i name="e_fr_energy">    358.32525834 </i>
    <i name="e_wo_entrp">    358.32838086 </i>
    <i name="e_0_energy">    358.32681960 </i>
   </energy>
  </scstep>
  <scstep>
   <time name="dav">   25.89   26.13</time>
   <time name="total">   27.84   28.09</time>
   <energy>
    <i name="alphaZ">    509.33999308 </i>
    <i name="ewald">  -7962.88582072 </i>
    <i name="hartreedc">  -7694.44129806 </i>
    <i name="XCdc">  -9113.33433704 </i>
    <i name="pawpsdc">1269639.91979590 </i>
    <i name="pawaedc">**************** </i>
    <i name="eentropy">     -0.00312252 </i>
    <i name="bandstr">    337.67167045 </i>
    <i name="atom">  14194.98767854 </i>
    <i name="e_fr_energy">    358.32525837 </i>
    <i name="e_wo_entrp">    358.32838088 </i>
    <i name="e_0_energy">    358.32681963 </i>
   </energy>
  </scstep>
  <structure>
   <crystal>
    <varray name="basis" >
     <v>      10.86200046       0.00000000       0.00000000 </v>
     <v>       0.00000000      16.29300118       0.00000000 </v>
     <v>       0.00000000       0.00000000      18.26014710 </v>
    </varray>
    <i name="volume">   3231.58197863 </i>
    <varray name="rec_basis" >
     <v>       0.09206407       0.00000000       0.00000000 </v>
     <v>       0.00000000       0.06137605       0.00000000 </v>
     <v>       0.00000000       0.00000000       0.05476407 </v>
    </varray>
   </crystal>
   <varray name="positions" >
    <v>       0.00000000       0.99406773       0.00000000 </v>
    <v>       0.00000000       0.82740104       0.14871185 </v>
    <v>       0.00000000       0.66073430       0.29742369 </v>
    <v>       0.50000000       0.99406773       0.00000000 </v>
    <v>       0.50000000       0.82740104       0.14871185 </v>
    <v>       0.50000000       0.66073430       0.29742369 </v>
    <v>       0.00000000       0.32740107       0.00000000 </v>
    <v>       0.00000000       0.16073438       0.14871185 </v>
    <v>       0.00000000       0.99406767       0.29742369 </v>
    <v>       0.50000000       0.32740107       0.00000000 </v>
    <v>       0.50000000       0.16073438       0.14871185 </v>
    <v>       0.50000000       0.99406767       0.29742369 </v>
    <v>       0.00000000       0.66073447       0.00000000 </v>
    <v>       0.00000000       0.49406773       0.14871185 </v>
    <v>       0.00000000       0.32740104       0.29742369 </v>
    <v>       0.50000000       0.66073447       0.00000000 </v>
    <v>       0.50000000       0.49406773       0.14871185 </v>
    <v>       0.50000000       0.32740104       0.29742369 </v>
    <v>       0.12500000       0.07740106       0.07435592 </v>
    <v>       0.12500000       0.91073436       0.22306777 </v>
    <v>       0.12500000       0.74406767       0.37177962 </v>
    <v>       0.62500000       0.07740106       0.07435592 </v>
    <v>       0.62500000       0.91073436       0.22306777 </v>
    <v>       0.62500000       0.74406767       0.37177962 </v>
    <v>       0.12500000       0.41073438       0.07435592 </v>
    <v>       0.12500000       0.24406767       0.22306777 </v>
    <v>       0.12500000       0.07740095       0.37177962 </v>
    <v>       0.62500000       0.41073438       0.07435592 </v>
    <v>       0.62500000       0.24406767       0.22306777 </v>
    <v>       0.62500000       0.07740095       0.37177962 </v>
    <v>       0.12500000       0.74406779       0.07435592 </v>
    <v>       0.12500000       0.57740104       0.22306777 </v>
    <v>       0.12500000       0.41073433       0.37177962 </v>
    <v>       0.62500000       0.74406779       0.07435592 </v>
    <v>       0.62500000       0.57740104       0.22306777 </v>
    <v>       0.62500000       0.41073433       0.37177962 </v>
    <v>       0.25000000       0.16073438       0.00000000 </v>
    <v>       0.25000000       0.99406767       0.14871185 </v>
    <v>       0.25000000       0.82740098       0.29742369 </v>
    <v>       0.75000006       0.16073438       0.00000000 </v>
    <v>       0.75000006       0.99406767       0.14871185 </v>
    <v>       0.75000006       0.82740098       0.29742369 </v>
    <v>       0.25000000       0.49406773       0.00000000 </v>
    <v>       0.25000000       0.32740104       0.14871185 </v>
    <v>       0.25000000       0.16073433       0.29742369 </v>
    <v>       0.75000006       0.49406773       0.00000000 </v>
    <v>       0.75000006       0.32740104       0.14871185 </v>
    <v>       0.75000006       0.16073433       0.29742369 </v>
    <v>       0.25000000       0.82740110       0.00000000 </v>
    <v>       0.25000000       0.66073442       0.14871185 </v>
    <v>       0.25000000       0.49406773       0.29742369 </v>
    <v>       0.75000006       0.82740110       0.00000000 </v>
    <v>       0.75000006       0.66073442       0.14871185 </v>
    <v>       0.75000006       0.49406773       0.29742369 </v>
    <v>       0.37500003       0.24406773       0.07435592 </v>
    <v>       0.37500003       0.07740102       0.22306777 </v>
    <v>       0.37500003       0.91073430       0.37177962 </v>
    <v>       0.87500006       0.24406773       0.07435592 </v>
    <v>       0.87500006       0.07740102       0.22306777 </v>
    <v>       0.87500006       0.91073430       0.37177962 </v>
    <v>       0.37500003       0.57740116       0.07435592 </v>
    <v>       0.37500003       0.41073447       0.22306777 </v>
    <v>       0.37500003       0.24406771       0.37177962 </v>
    <v>       0.87500006       0.57740116       0.07435592 </v>
    <v>       0.87500006       0.41073447       0.22306777 </v>
    <v>       0.87500006       0.24406771       0.37177962 </v>
    <v>       0.37500003       0.91073436       0.07435592 </v>
    <v>       0.37500003       0.74406767       0.22306777 </v>
    <v>       0.37500003       0.57740092       0.37177962 </v>
    <v>       0.87500006       0.91073436       0.07435592 </v>
    <v>       0.87500006       0.74406767       0.22306777 </v>
    <v>       0.87500006       0.57740092       0.37177962 </v>
    <v>       0.00000000       0.01797952       0.37177962 </v>
    <v>       0.99999994       0.26797959       0.49742371 </v>
    <v>       0.99999988       0.51797974       0.62306774 </v>
    <v>       0.99999982       0.76797992       0.74871182 </v>
    <v>       0.99999982       0.01797998       0.87435585 </v>
    <v>       0.99999976       0.26798010       0.00000000 </v>
    <v>       0.33333337       0.35131288       0.37177962 </v>
    <v>       0.33333331       0.60131288       0.49742371 </v>
    <v>       0.33333331       0.85131305       0.62306774 </v>
    <v>       0.33333322       0.10131323       0.74871182 </v>
    <v>       0.33333322       0.35131335       0.87435585 </v>
    <v>       0.33333316       0.60131347       0.00000000 </v>
    <v>       0.66666675       0.68464625       0.37177962 </v>
    <v>       0.66666669       0.93464625       0.49742371 </v>
    <v>       0.66666681       0.18464649       0.62306774 </v>
    <v>       0.66666651       0.43464649       0.74871182 </v>
    <v>       0.66666657       0.68464661       0.87435585 </v>
    <v>       0.66666657       0.93464685       0.00000000 </v>
    <v>       0.00000003       0.51797956       0.37177962 </v>
    <v>       0.99999994       0.76797962       0.49742371 </v>
    <v>       0.99999988       0.01797974       0.62306774 </v>
    <v>       0.99999988       0.26797986       0.74871177 </v>
    <v>       0.99999982       0.51797998       0.87435585 </v>
    <v>       0.99999976       0.76798010       0.00000000 </v>
    <v>       0.33333337       0.85131288       0.37177962 </v>
    <v>       0.33333334       0.10131300       0.49742371 </v>
    <v>       0.33333337       0.35131323       0.62306774 </v>
    <v>       0.33333325       0.60131323       0.74871177 </v>
    <v>       0.33333328       0.85131335       0.87435585 </v>
    <v>       0.33333311       0.10131359       0.00000000 </v>
    <v>       0.66666681       0.18464620       0.37177962 </v>
    <v>       0.66666663       0.43464625       0.49742371 </v>
    <v>       0.66666669       0.68464643       0.62306774 </v>
    <v>       0.66666663       0.93464649       0.74871177 </v>
    <v>       0.66666651       0.18464661       0.87435585 </v>
    <v>       0.66666657       0.43464673       0.99999994 </v>
    <v>       0.08333332       0.35131285       0.37177962 </v>
    <v>       0.08333325       0.60131288       0.49742371 </v>
    <v>       0.08333329       0.85131305       0.62306774 </v>
    <v>       0.08333313       0.10131311       0.74871182 </v>
    <v>       0.08333313       0.35131323       0.87435585 </v>
    <v>       0.08333313       0.60131335       0.99999994 </v>
    <v>       0.41666672       0.68464619       0.37177962 </v>
    <v>       0.41666663       0.93464625       0.49742371 </v>
    <v>       0.41666666       0.18464649       0.62306774 </v>
    <v>       0.41666660       0.43464661       0.74871177 </v>
    <v>       0.41666639       0.68464661       0.87435585 </v>
    <v>       0.41666651       0.93464673       0.99999994 </v>
    <v>       0.75000000       0.01797955       0.37177962 </v>
    <v>       0.75000000       0.26797959       0.49742371 </v>
    <v>       0.74999994       0.51797974       0.62306774 </v>
    <v>       0.74999982       0.76797986       0.74871177 </v>
    <v>       0.74999982       0.01797998       0.87435585 </v>
    <v>       0.74999982       0.26798010       0.99999994 </v>
    <v>       0.08333334       0.85131294       0.37177962 </v>
    <v>       0.08333328       0.10131300       0.49742377 </v>
    <v>       0.08333322       0.35131311       0.62306774 </v>
    <v>       0.08333325       0.60131347       0.74871182 </v>
    <v>       0.08333313       0.85131335       0.87435591 </v>
    <v>       0.08333307       0.10131359       0.99999994 </v>
    <v>       0.41666672       0.18464620       0.37177962 </v>
    <v>       0.41666666       0.43464625       0.49742371 </v>
    <v>       0.41666657       0.68464643       0.62306774 </v>
    <v>       0.41666657       0.93464655       0.74871182 </v>
    <v>       0.41666657       0.18464661       0.87435585 </v>
    <v>       0.41666645       0.43464673       0.99999994 </v>
    <v>       0.75000000       0.51797950       0.37177962 </v>
    <v>       0.74999994       0.76797962       0.49742371 </v>
    <v>       0.75000000       0.01797974       0.62306774 </v>
    <v>       0.74999988       0.26797986       0.74871182 </v>
    <v>       0.74999982       0.51797986       0.87435585 </v>
    <v>       0.74999976       0.76798010       0.99999994 </v>
   </varray>
  </structure>
  <varray name="forces" >
   <v>      -6.24869598     -13.18506184       3.44496698 </v>
   <v>       0.19373785       0.16633274       0.95948369 </v>
   <v>       0.04369350       1.29931171      -0.98911387 </v>
   <v>      63.34721187      80.70603075      -1.39972963 </v>
   <v>       0.17026639       0.17098442       0.44370170 </v>
   <v>      18.90365176      -9.75335308     -36.61142246 </v>
   <v>       0.60617897     230.17385661       0.10884938 </v>
   <v>      -0.04282215      -0.40212230       1.11918147 </v>
   <v>      -0.60693312     -23.73406527     -84.20720989 </v>
   <v>       5.67520519     -14.17100240      -0.10141472 </v>
   <v>      -0.02280295       0.12902984       0.23934990 </v>
   <v>      -0.92037852      -0.17754136      -0.13958940 </v>
   <v>     -70.90101799      42.95333373       0.67533896 </v>
   <v>      -0.00355173      -0.09713927       0.19243988 </v>
   <v>     -22.22958279     -10.98962637     -33.48945400 </v>
   <v>       9.80894504       4.23336437       1.39157684 </v>
   <v>       0.17371864       0.04546719       0.14262692 </v>
   <v>       3.44791440       0.26208058      -3.24616015 </v>
   <v>      20.76116047     -19.14444824      68.43602435 </v>
   <v>       0.19137256       0.39381794      -0.39929094 </v>
   <v>       6.64090470     -26.93240903      -0.18037466 </v>
   <v>      -0.08529720       1.09321751       0.92479714 </v>
   <v>      -0.00612307      -0.09543266      -0.12913983 </v>
   <v>     -74.75559948     163.76360818      -0.22645790 </v>
   <v>      -0.70329364      -0.45250548       0.03999734 </v>
   <v>       0.01464457       0.10589376      -0.64054743 </v>
   <v>      34.42670240      23.64188306      -1.86055739 </v>
   <v>     -22.18310009     -20.32096077      68.34374306 </v>
   <v>       0.00830079      -0.07546620      -0.87640574 </v>
   <v>     -40.42961800      -1.25395133      -0.22594335 </v>
   <v>      10.66113752      -1.47626263      11.89227149 </v>
   <v>       0.05615942       0.21940074      -0.31239604 </v>
   <v>      79.26541125     162.49819156       0.92946792 </v>
   <v>     -10.61458287      -3.83341939      10.93274466 </v>
   <v>      -0.01958254      -0.25366901      -0.67489940 </v>
   <v>      -3.51249378      -4.51897268      -2.86459943 </v>
   <v>     -62.02187174      79.85962024       0.22832163 </v>
   <v>       0.00976833       0.13428550       0.13700077 </v>
   <v>     -18.85961045     -11.50922156     -37.00747233 </v>
   <v>       0.15026615     -33.54729497       1.22787888 </v>
   <v>       0.13563842       0.27341328       0.52122382 </v>
   <v>      -0.21636268      -0.14214433      -0.36233619 </v>
   <v>     -14.80872753      -8.56333369      -0.03787153 </v>
   <v>      -0.13696086      -0.14190408       0.11363827 </v>
   <v>      -3.61398445      -1.11574734      -2.68548411 </v>
   <v>      71.51465570      75.95446928       1.14419548 </v>
   <v>       0.07196378       0.39607221       1.09261885 </v>
   <v>      22.02205438      -7.86080059     -34.69911772 </v>
   <v>      -1.12834754      -0.92206863       1.48695981 </v>
   <v>      -0.03970493      -0.18049608       0.59395674 </v>
   <v>       0.03584665       0.19036516      -0.49280962 </v>
   <v>       6.87751091     217.26321290       0.24760468 </v>
   <v>      -0.12159468      -0.07679115       0.47258458 </v>
   <v>      -1.47308402     -24.67963767     -84.18023275 </v>
   <v>       0.15158912       0.66904728       0.85576031 </v>
   <v>      -0.11177798      -0.09035259      -0.29836020 </v>
   <v>      78.92387685     166.85391044      -0.32431659 </v>
   <v>       0.24547439      -6.26997027      22.04811736 </v>
   <v>       0.05429275      -0.11132233      -0.27465735 </v>
   <v>      -1.88132959      -7.68839011      -0.03064751 </v>
   <v>      21.92950164     -17.79383788      67.77120431 </v>
   <v>       0.27357882       0.28679957      -0.82348189 </v>
   <v>     -70.25454593     138.62215374      -0.83106122 </v>
   <v>      -1.25703151      -0.24419442       0.68817176 </v>
   <v>       0.12367278       0.32111466      -0.05807601 </v>
   <v>       1.79977749       0.31774888      -0.79538052 </v>
   <v>     -23.41156882     -20.68861066      66.98409476 </v>
   <v>      -0.05052303       0.05804349      -1.46883862 </v>
   <v>      -6.12762100     -26.25235675      -2.66383281 </v>
   <v>       0.79454272      -0.02407817       0.78281697 </v>
   <v>      -0.12861169      -0.06378446      -0.17011771 </v>
   <v>      -0.46754872      48.38918214       0.45164921 </v>
   <v>     -27.81344584       6.34199583      82.17398351 </v>
   <v>       0.72862009      -0.69459551       1.04772577 </v>
   <v>       0.75218432      -0.22560749       0.17899418 </v>
   <v>       0.58604771      -0.30639186      -0.12262397 </v>
   <v>       0.35466687      -0.29589800      -3.72813853 </v>
   <v>      12.72037846    -226.08186376      -9.41306898 </v>
   <v>      -6.64525010      26.03426781       3.45704177 </v>
   <v>      -0.09857731      -0.35471478       3.35731436 </v>
   <v>       0.58082257      -0.34013800       0.04871494 </v>
   <v>       0.70416875      -0.28465232      -0.17355441 </v>
   <v>       0.14690484      -0.63093822      -0.99795118 </v>
   <v>     -23.55135832      28.46796414     -66.68308781 </v>
   <v>      82.31744735    -162.16364685       2.36121012 </v>
   <v>       0.54606098      -0.68973308       0.83417481 </v>
   <v>       0.53533773      -0.42520720       0.22221257 </v>
   <v>       0.58654752      -0.42679036      -0.03949029 </v>
   <v>       0.86707808      -0.58172753      -0.54514598 </v>
   <v>       4.04194105       7.59051009      -1.63269304 </v>
   <v>      34.12341268     -20.38290542       1.12424268 </v>
   <v>      -0.04311819      -0.63452301       1.38569183 </v>
   <v>       0.60701091      -0.50466626       0.11772006 </v>
   <v>       0.57927146      -0.27083015      -0.04091881 </v>
   <v>       0.81651408      -0.76609358      -0.82142765 </v>
   <v>      -9.70504812      36.36438807     -11.54030542 </v>
   <v>     -53.81810056    -155.18671359      30.78792035 </v>
   <v>       0.86745355      -0.61778211       0.67277182 </v>
   <v>       0.68474931      -0.21101901       0.11933228 </v>
   <v>       0.55905366      -0.50841265      -0.20493874 </v>
   <v>       0.66303541      -0.69192457      -1.92766002 </v>
   <v>      73.92788976     -74.39314270      -1.07625233 </v>
   <v>     -16.54638051      35.11655220      33.94954189 </v>
   <v>       0.67408348      -0.46008837       3.05719090 </v>
   <v>       0.59138010      -0.27558270       0.11822760 </v>
   <v>       0.72706182      -0.19331929      -0.13333577 </v>
   <v>      -0.16776113      -0.51588505      -2.26608312 </v>
   <v>     -44.93724851     -53.54520918     -64.26039356 </v>
   <v>     -57.16657320    -154.76877614      31.84456868 </v>
   <v>      -0.30344866       0.44673477       0.53347196 </v>
   <v>      -0.66771215       0.19913274       0.12361467 </v>
   <v>      -0.59511706       0.39427123      -0.22435993 </v>
   <v>       0.11878736       1.23943466      -1.74149608 </v>
   <v>      70.10074108     -77.36801569      -1.47368337 </v>
   <v>     -20.16086677      33.33024165      33.61844159 </v>
   <v>       0.37638513       1.57591134       3.31908009 </v>
   <v>      -0.69652835       0.33684598       0.18250650 </v>
   <v>      -0.71406394       0.14034372      -0.13302249 </v>
   <v>      -1.01583776       1.01510858      -1.92846125 </v>
[...]
       <r>    -4.0669    35.7014    73.9570 </r>
       <r>    -4.0036    24.9786    75.5387 </r>
       <r>    -3.9403    36.4521    77.8471 </r>
       <r>    -3.8769    28.2906    79.6385 </r>
       <r>    -3.8136    37.4414    82.0093 </r>
       <r>    -3.7503    38.1500    84.4251 </r>
       <r>    -3.6870    47.3973    87.4267 </r>
       <r>    -3.6236    23.5915    88.9206 </r>
       <r>    -3.5603    39.7304    91.4364 </r>
       <r>    -3.4970    34.4910    93.6204 </r>
       <r>    -3.4337    39.4970    96.1214 </r>
       <r>    -3.3704    31.5341    98.1186 </r>
       <r>    -3.3070    32.2877   100.1637 </r>
       <r>    -3.2437    48.7878   103.2547 </r>
       <r>    -3.1804    36.4117   105.5615 </r>
       <r>    -3.1171    49.3329   108.6860 </r>
       <r>    -3.0537    31.6478   110.6902 </r>
       <r>    -2.9904    55.1876   114.1872 </r>
       <r>    -2.9271    46.4100   117.1279 </r>
       <r>    -2.8638    35.8110   119.3955 </r>
       <r>    -2.8005    34.8537   121.6026 </r>
       <r>    -2.7371    59.9809   125.4040 </r>
       <r>    -2.6738    44.2181   128.2042 </r>
       <r>    -2.6105    34.2226   130.3714 </r>
       <r>    -2.5472    31.6662   132.3766 </r>
       <r>    -2.4839    50.9421   135.6034 </r>
       <r>    -2.4205    47.9637   138.6412 </r>
       <r>    -2.3572    47.1520   141.6282 </r>
       <r>    -2.2939    50.2928   144.8132 </r>
       <r>    -2.2306    25.6638   146.4411 </r>
       <r>    -2.1672    34.5569   148.6296 </r>
       <r>    -2.1039    33.7671   150.7684 </r>
       <r>    -2.0406    35.3749   153.0089 </r>
       <r>    -1.9773    20.5718   154.3116 </r>
       <r>    -1.9140    51.1647   157.5516 </r>
       <r>    -1.8506    48.8325   160.6448 </r>
       <r>    -1.7873    39.6145   163.1570 </r>
       <r>    -1.7240    52.1536   166.4607 </r>
       <r>    -1.6607    43.3813   169.2077 </r>
       <r>    -1.5973    27.4518   170.9478 </r>
       <r>    -1.5340    46.0477   173.8636 </r>
       <r>    -1.4707    33.9205   176.0118 </r>
       <r>    -1.4074    39.1798   178.4927 </r>
       <r>    -1.3441    42.7889   181.2036 </r>
       <r>    -1.2807    47.3265   184.2026 </r>
       <r>    -1.2174    28.7624   186.0239 </r>
       <r>    -1.1541    29.1020   187.8672 </r>
       <r>    -1.0908    45.4672   190.7463 </r>
       <r>    -1.0275    57.9278   194.4172 </r>
       <r>    -0.9641    29.7193   196.3028 </r>
       <r>    -0.9008    44.4380   199.1167 </r>
       <r>    -0.8375    24.3241   200.6572 </r>
       <r>    -0.7742    32.7268   202.7307 </r>
       <r>    -0.7108    36.5858   205.0478 </r>
       <r>    -0.6475    34.4617   207.2330 </r>
       <r>    -0.5842    38.3607   209.6641 </r>
       <r>    -0.5209    39.6446   212.1747 </r>
       <r>    -0.4576    34.6085   214.3691 </r>
       <r>    -0.3942    39.9333   216.8997 </r>
       <r>    -0.3309    48.6475   219.9802 </r>
       <r>    -0.2676    44.7279   222.8135 </r>
       <r>    -0.2043    53.6977   226.2138 </r>
       <r>    -0.1410    39.4698   228.7134 </r>
       <r>    -0.0776    45.4997   231.5962 </r>
       <r>    -0.0143    45.6967   234.4900 </r>
       <r>     0.0490    54.2371   237.9251 </r>
       <r>     0.1123    38.0194   240.3353 </r>
       <r>     0.1757    44.4502   243.1500 </r>
       <r>     0.2390    38.1146   245.5635 </r>
       <r>     0.3023    49.9860   248.7288 </r>
       <r>     0.3656    48.8907   251.8277 </r>
       <r>     0.4289    43.8084   254.6040 </r>
       <r>     0.4923    37.2488   256.9635 </r>
       <r>     0.5556    48.3582   260.0266 </r>
       <r>     0.6189    51.1520   263.2659 </r>
       <r>     0.6822    34.6935   265.4630 </r>
       <r>     0.7456    47.1517   268.4494 </r>
       <r>     0.8089    46.0016   271.3626 </r>
       <r>     0.8722    45.9387   274.2728 </r>
       <r>     0.9355    51.2388   277.5174 </r>
       <r>     0.9988    40.8736   280.1058 </r>
       <r>     1.0622    56.5140   283.6851 </r>
       <r>     1.1255    53.5077   287.0746 </r>
       <r>     1.1888    43.2069   289.8105 </r>
       <r>     1.2521    58.9675   293.5453 </r>
       <r>     1.3154    40.1842   296.0921 </r>
       <r>     1.3788    50.1865   299.2708 </r>
       <r>     1.4421    57.1060   302.8878 </r>
       <r>     1.5054    44.9902   305.7419 </r>
       <r>     1.5687    54.6289   309.2014 </r>
       <r>     1.6321    44.3090   312.0080 </r>
       <r>     1.6954    42.5219   314.7028 </r>
       <r>     1.7587    52.5073   318.0290 </r>
       <r>     1.8220    46.6635   320.9843 </r>
       <r>     1.8853    47.6328   324.0014 </r>
       <r>     1.9487    48.1537   327.0506 </r>
       <r>     2.0120    47.6707   330.0708 </r>
       <r>     2.0753    54.4744   333.5249 </r>
       <r>     2.1386    52.5752   336.8544 </r>
       <r>     2.2019    44.3473   339.6657 </r>
       <r>     2.2653    47.9446   342.7017 </r>
       <r>     2.3286    41.3867   345.3228 </r>
       <r>     2.3919    51.5883   348.5896 </r>
       <r>     2.4552    38.0904   351.0021 </r>
       <r>     2.5186    43.7542   353.7727 </r>
       <r>     2.5819    41.0964   356.3755 </r>
       <r>     2.6452    47.2078   359.3659 </r>
       <r>     2.7085    54.6312   362.8280 </r>
       <r>     2.7718    43.2491   365.5683 </r>
       <r>     2.8352    49.0058   368.6718 </r>
       <r>     2.8985    63.8053   372.7165 </r>
       <r>     2.9618    57.4659   376.3554 </r>
       <r>     3.0251    59.5243   380.1255 </r>
       <r>     3.0885    63.7635   384.1631 </r>
       <r>     3.1518    75.8978   388.9693 </r>
       <r>     3.2151    69.1605   393.3514 </r>
       <r>     3.2784    71.8263   397.9002 </r>
       <r>     3.3417    70.5757   402.3720 </r>
       <r>     3.4051    64.1265   406.4332 </r>
       <r>     3.4684    73.0398   411.0592 </r>
       <r>     3.5317    67.1887   415.3148 </r>
       <r>     3.5950    66.1064   419.5016 </r>
       <r>     3.6583    60.9619   423.3630 </r>
       <r>     3.7217    74.3223   428.0702 </r>
       <r>     3.7850    75.8265   432.8733 </r>
       <r>     3.8483    77.2706   437.7669 </r>
       <r>     3.9116    77.8547   442.6985 </r>
       <r>     3.9750    79.6418   447.7428 </r>
       <r>     4.0383    71.1154   452.2465 </r>
       <r>     4.1016    77.1005   457.1287 </r>
       <r>     4.1649    68.3953   461.4610 </r>
       <r>     4.2282    54.7334   464.9276 </r>
       <r>     4.2916    65.4225   469.0708 </r>
       <r>     4.3549    67.7273   473.3594 </r>
       <r>     4.4182    53.4565   476.7457 </r>
       <r>     4.4815    64.1337   480.8068 </r>
       <r>     4.5448    60.4326   484.6341 </r>
       <r>     4.6082    62.0508   488.5638 </r>
       <r>     4.6715    53.7125   491.9652 </r>
       <r>     4.7348    66.8700   496.1996 </r>
       <r>     4.7981    51.8315   499.4839 </r>
       <r>     4.8615    56.1747   503.0410 </r>
       <r>     4.9248    48.2176   506.0942 </r>
       <r>     4.9881    39.9920   508.6268 </r>
       <r>     5.0514    42.5476   511.3210 </r>
       <r>     5.1147    46.5331   514.2676 </r>
       <r>     5.1781    48.8031   517.3594 </r>
       <r>     5.2414    44.6675   520.1888 </r>
       <r>     5.3047    43.0698   522.9175 </r>
       <r>     5.3680    52.4644   526.2399 </r>
       <r>     5.4314    55.1523   529.7335 </r>
       <r>     5.4947    36.1168   532.0205 </r>
       <r>     5.5580    46.7210   534.9790 </r>
       <r>     5.6213    46.2040   537.9057 </r>
       <r>     5.6846    44.0018   540.6927 </r>
       <r>     5.7480    32.8133   542.7723 </r>
       <r>     5.8113    37.5885   545.1547 </r>
       <r>     5.8746    48.9431   548.2539 </r>
       <r>     5.9379    39.8806   550.7793 </r>
       <r>     6.0012    49.2915   553.9017 </r>
       <r>     6.0646    51.0618   557.1351 </r>
       <r>     6.1279    47.6898   560.1562 </r>
       <r>     6.1912    45.1259   563.0143 </r>
       <r>     6.2545    60.5299   566.8480 </r>
       <r>     6.3179    56.3680   570.4181 </r>
       <r>     6.3812    52.1517   573.7213 </r>
       <r>     6.4445    52.9282   577.0739 </r>
       <r>     6.5078    57.5116   580.7159 </r>
       <r>     6.5711    61.7976   584.6305 </r>
       <r>     6.6345    71.3694   589.1503 </r>
       <r>     6.6978    57.6835   592.8033 </r>
       <r>     6.7611    50.7907   596.0211 </r>
       <r>     6.8244    55.9519   599.5658 </r>
       <r>     6.8877    66.0330   603.7474 </r>
       <r>     6.9511    61.6945   607.6552 </r>
       <r>     7.0144    64.3665   611.7330 </r>
       <r>     7.0777    69.6090   616.1422 </r>
       <r>     7.1410    60.4822   619.9721 </r>
       <r>     7.2044    72.6566   624.5733 </r>
       <r>     7.2677    61.3763   628.4614 </r>
       <r>     7.3310    54.1288   631.8898 </r>
       <r>     7.3943    78.4125   636.8554 </r>
       <r>     7.4576    87.4809   642.3951 </r>
       <r>     7.5210    63.1122   646.3920 </r>
       <r>     7.5843    71.1343   650.8971 </r>
       <r>     7.6476    73.5838   655.5572 </r>
       <r>     7.7109    61.7717   659.4694 </r>
       <r>     7.7743    77.3861   664.3707 </r>
       <r>     7.8376    80.7419   669.4879 </r>
       <r>     7.9009    87.3989   675.0238 </r>
       <r>     7.9642    79.0979   680.0326 </r>
       <r>     8.0275    71.6210   684.5697 </r>
       <r>     8.0909    78.1473   689.5198 </r>
       <r>     8.1542    76.8643   694.3922 </r>
       <r>     8.2175    25.3877   696.0000 </r>
       <r>     8.2808     0.0000   696.0000 </r>
       <r>     8.3441     0.0000   696.0000 </r>
       <r>     8.4075     0.0000   696.0000 </r>
       <r>     8.4708     0.0000   696.0000 </r>
       <r>     8.5341     0.0000   696.0000 </r>
       <r>     8.5974     0.0000   696.0000 </r>
       <r>     8.6608     0.0000   696.0000 </r>
       <r>     8.7241     0.0000   696.0000 </r>
       <r>     8.7874     0.0000   696.0000 </r>
       <r>     8.8507     0.0000   696.0000 </r>
       <r>     8.9140     0.0000   696.0000 </r>
       <r>     8.9774     0.0000   696.0000 </r>
       <r>     9.0407     0.0000   696.0000 </r>
      </set>
     </set>
    </array>
   </total>
  </dos>
 </calculation>
 <structure name="finalpos" >
  <crystal>
   <varray name="basis" >
    <v>      10.86200046       0.00000000       0.00000000 </v>
    <v>       0.00000000      16.29300118       0.00000000 </v>
    <v>       0.00000000       0.00000000      18.26014710 </v>
   </varray>
   <i name="volume">   3231.58197863 </i>
   <varray name="rec_basis" >
    <v>       0.09206407       0.00000000       0.00000000 </v>
    <v>       0.00000000       0.06137605       0.00000000 </v>
    <v>       0.00000000       0.00000000       0.05476407 </v>
   </varray>
  </crystal>
  <varray name="positions" >
   <v>       0.00000000       0.99406773       0.00000000 </v>
   <v>       0.00000000       0.82740104       0.14871185 </v>
   <v>       0.00000000       0.66073430       0.29742369 </v>
   <v>       0.50000000       0.99406773       0.00000000 </v>
   <v>       0.50000000       0.82740104       0.14871185 </v>
   <v>       0.50000000       0.66073430       0.29742369 </v>
   <v>       0.00000000       0.32740107       0.00000000 </v>
   <v>       0.00000000       0.16073438       0.14871185 </v>
   <v>       0.00000000       0.99406767       0.29742369 </v>
   <v>       0.50000000       0.32740107       0.00000000 </v>
   <v>       0.50000000       0.16073438       0.14871185 </v>
   <v>       0.50000000       0.99406767       0.29742369 </v>
   <v>       0.00000000       0.66073447       0.00000000 </v>
   <v>       0.00000000       0.49406773       0.14871185 </v>
   <v>       0.00000000       0.32740104       0.29742369 </v>
   <v>       0.50000000       0.66073447       0.00000000 </v>
   <v>       0.50000000       0.49406773       0.14871185 </v>
   <v>       0.50000000       0.32740104       0.29742369 </v>
   <v>       0.12500000       0.07740106       0.07435592 </v>
   <v>       0.12500000       0.91073436       0.22306777 </v>
   <v>       0.12500000       0.74406767       0.37177962 </v>
   <v>       0.62500000       0.07740106       0.07435592 </v>
   <v>       0.62500000       0.91073436       0.22306777 </v>
   <v>       0.62500000       0.74406767       0.37177962 </v>
   <v>       0.12500000       0.41073438       0.07435592 </v>
   <v>       0.12500000       0.24406767       0.22306777 </v>
   <v>       0.12500000       0.07740095       0.37177962 </v>
   <v>       0.62500000       0.41073438       0.07435592 </v>
   <v>       0.62500000       0.24406767       0.22306777 </v>
   <v>       0.62500000       0.07740095       0.37177962 </v>
   <v>       0.12500000       0.74406779       0.07435592 </v>
   <v>       0.12500000       0.57740104       0.22306777 </v>
   <v>       0.12500000       0.41073433       0.37177962 </v>
   <v>       0.62500000       0.74406779       0.07435592 </v>
   <v>       0.62500000       0.57740104       0.22306777 </v>
   <v>       0.62500000       0.41073433       0.37177962 </v>
   <v>       0.25000000       0.16073438       0.00000000 </v>
   <v>       0.25000000       0.99406767       0.14871185 </v>
   <v>       0.25000000       0.82740098       0.29742369 </v>
   <v>       0.75000006       0.16073438       0.00000000 </v>
   <v>       0.75000006       0.99406767       0.14871185 </v>
   <v>       0.75000006       0.82740098       0.29742369 </v>
   <v>       0.25000000       0.49406773       0.00000000 </v>
   <v>       0.25000000       0.32740104       0.14871185 </v>
   <v>       0.25000000       0.16073433       0.29742369 </v>
   <v>       0.75000006       0.49406773       0.00000000 </v>
   <v>       0.75000006       0.32740104       0.14871185 </v>
   <v>       0.75000006       0.16073433       0.29742369 </v>
   <v>       0.25000000       0.82740110       0.00000000 </v>
   <v>       0.25000000       0.66073442       0.14871185 </v>
   <v>       0.25000000       0.49406773       0.29742369 </v>
   <v>       0.75000006       0.82740110       0.00000000 </v>
   <v>       0.75000006       0.66073442       0.14871185 </v>
   <v>       0.75000006       0.49406773       0.29742369 </v>
   <v>       0.37500003       0.24406773       0.07435592 </v>
   <v>       0.37500003       0.07740102       0.22306777 </v>
   <v>       0.37500003       0.91073430       0.37177962 </v>
   <v>       0.87500006       0.24406773       0.07435592 </v>
   <v>       0.87500006       0.07740102       0.22306777 </v>
   <v>       0.87500006       0.91073430       0.37177962 </v>
   <v>       0.37500003       0.57740116       0.07435592 </v>
   <v>       0.37500003       0.41073447       0.22306777 </v>
   <v>       0.37500003       0.24406771       0.37177962 </v>
   <v>       0.87500006       0.57740116       0.07435592 </v>
   <v>       0.87500006       0.41073447       0.22306777 </v>
   <v>       0.87500006       0.24406771       0.37177962 </v>
   <v>       0.37500003       0.91073436       0.07435592 </v>
   <v>       0.37500003       0.74406767       0.22306777 </v>
   <v>       0.37500003       0.57740092       0.37177962 </v>
   <v>       0.87500006       0.91073436       0.07435592 </v>
   <v>       0.87500006       0.74406767       0.22306777 </v>
   <v>       0.87500006       0.57740092       0.37177962 </v>
   <v>       0.00000000       0.01797952       0.37177962 </v>
   <v>       0.99999994       0.26797959       0.49742371 </v>
   <v>       0.99999988       0.51797974       0.62306774 </v>
   <v>       0.99999982       0.76797992       0.74871182 </v>
   <v>       0.99999982       0.01797998       0.87435585 </v>
   <v>       0.99999976       0.26798010       0.00000000 </v>
   <v>       0.33333337       0.35131288       0.37177962 </v>
   <v>       0.33333331       0.60131288       0.49742371 </v>
   <v>       0.33333331       0.85131305       0.62306774 </v>
   <v>       0.33333322       0.10131323       0.74871182 </v>
   <v>       0.33333322       0.35131335       0.87435585 </v>
   <v>       0.33333316       0.60131347       0.00000000 </v>
   <v>       0.66666675       0.68464625       0.37177962 </v>
   <v>       0.66666669       0.93464625       0.49742371 </v>
   <v>       0.66666681       0.18464649       0.62306774 </v>
   <v>       0.66666651       0.43464649       0.74871182 </v>
   <v>       0.66666657       0.68464661       0.87435585 </v>
   <v>       0.66666657       0.93464685       0.00000000 </v>
   <v>       0.00000003       0.51797956       0.37177962 </v>
   <v>       0.99999994       0.76797962       0.49742371 </v>
   <v>       0.99999988       0.01797974       0.62306774 </v>
   <v>       0.99999988       0.26797986       0.74871177 </v>
   <v>       0.99999982       0.51797998       0.87435585 </v>
   <v>       0.99999976       0.76798010       0.00000000 </v>
   <v>       0.33333337       0.85131288       0.37177962 </v>
   <v>       0.33333334       0.10131300       0.49742371 </v>
   <v>       0.33333337       0.35131323       0.62306774 </v>
   <v>       0.33333325       0.60131323       0.74871177 </v>
   <v>       0.33333328       0.85131335       0.87435585 </v>
   <v>       0.33333311       0.10131359       0.00000000 </v>
   <v>       0.66666681       0.18464620       0.37177962 </v>
   <v>       0.66666663       0.43464625       0.49742371 </v>
   <v>       0.66666669       0.68464643       0.62306774 </v>
   <v>       0.66666663       0.93464649       0.74871177 </v>
   <v>       0.66666651       0.18464661       0.87435585 </v>
   <v>       0.66666657       0.43464673       0.99999994 </v>
   <v>       0.08333332       0.35131285       0.37177962 </v>
   <v>       0.08333325       0.60131288       0.49742371 </v>
   <v>       0.08333329       0.85131305       0.62306774 </v>
   <v>       0.08333313       0.10131311       0.74871182 </v>
   <v>       0.08333313       0.35131323       0.87435585 </v>
   <v>       0.08333313       0.60131335       0.99999994 </v>
   <v>       0.41666672       0.68464619       0.37177962 </v>
   <v>       0.41666663       0.93464625       0.49742371 </v>
   <v>       0.41666666       0.18464649       0.62306774 </v>
   <v>       0.41666660       0.43464661       0.74871177 </v>
   <v>       0.41666639       0.68464661       0.87435585 </v>
   <v>       0.41666651       0.93464673       0.99999994 </v>
   <v>       0.75000000       0.01797955       0.37177962 </v>
   <v>       0.75000000       0.26797959       0.49742371 </v>
   <v>       0.74999994       0.51797974       0.62306774 </v>
   <v>       0.74999982       0.76797986       0.74871177 </v>
   <v>       0.74999982       0.01797998       0.87435585 </v>
   <v>       0.74999982       0.26798010       0.99999994 </v>
   <v>       0.08333334       0.85131294       0.37177962 </v>
   <v>       0.08333328       0.10131300       0.49742377 </v>
   <v>       0.08333322       0.35131311       0.62306774 </v>
   <v>       0.08333325       0.60131347       0.74871182 </v>
   <v>       0.08333313       0.85131335       0.87435591 </v>
   <v>       0.08333307       0.10131359       0.99999994 </v>
   <v>       0.41666672       0.18464620       0.37177962 </v>
   <v>       0.41666666       0.43464625       0.49742371 </v>
   <v>       0.41666657       0.68464643       0.62306774 </v>
   <v>       0.41666657       0.93464655       0.74871182 </v>
   <v>       0.41666657       0.18464661       0.87435585 </v>
   <v>       0.41666645       0.43464673       0.99999994 </v>
   <v>       0.75000000       0.51797950       0.37177962 </v>
   <v>       0.74999994       0.76797962       0.49742371 </v>
   <v>       0.75000000       0.01797974       0.62306774 </v>
   <v>       0.74999988       0.26797986       0.74871182 </v>
   <v>       0.74999982       0.51797986       0.87435585 </v>
   <v>       0.74999976       0.76798010       0.99999994 </v>
  </varray>
 </structure>
</modeling>
