  96  96   0   0
  0.2009955E+02  0.1789154E-08  0.1789153E-08  0.1382884E-08  0.5000000E-15
  1.000000000000000E-004
  CAR 
 Si and Ge interface calculation         
      8.07096505     -9.94783673  301      4.62521987      1.00000000
     -9.948  0.0000E+00  0.0000E+00  0.0000E+00  0.0000E+00
     -9.888  0.0000E+00  0.0000E+00  0.0000E+00  0.0000E+00
     -9.828  0.0000E+00  0.0000E+00  0.0000E+00  0.0000E+00
     -9.768  0.0000E+00  0.0000E+00  0.0000E+00  0.0000E+00
     -9.708  0.0000E+00  0.0000E+00  0.0000E+00  0.0000E+00
     -9.648  0.0000E+00  0.0000E+00  0.0000E+00  0.0000E+00
     -9.587  0.0000E+00  0.0000E+00  0.0000E+00  0.0000E+00
     -9.527  0.0000E+00  0.0000E+00  0.0000E+00  0.0000E+00
     -9.467  0.0000E+00  0.0000E+00  0.0000E+00  0.0000E+00
     -9.407  0.0000E+00  0.0000E+00  0.0000E+00  0.0000E+00
     -9.347  0.0000E+00  0.0000E+00  0.0000E+00  0.0000E+00
     -9.287  0.0000E+00  0.0000E+00  0.0000E+00  0.0000E+00
     -9.227  0.0000E+00  0.0000E+00  0.0000E+00  0.0000E+00
     -9.167  0.3446E-07  0.7478E-10  0.2070E-08  0.4492E-11
     -9.107  0.7870E+01  0.5130E+01  0.4727E+00  0.3081E+00
     -9.047  0.9134E+01  0.1155E+02  0.1021E+01  0.1002E+01
     -8.987  0.3290E+02  0.3285E+02  0.2998E+01  0.2975E+01
     -8.927  0.3009E-01  0.4091E+00  0.3000E+01  0.3000E+01
     -8.867  0.0000E+00  0.0000E+00  0.3000E+01  0.3000E+01
     -8.807  0.1922E-05  0.9377E-08  0.3000E+01  0.3000E+01
     -8.747  0.3001E+02  0.2348E+02  0.4802E+01  0.4410E+01
     -8.687  0.8125E+01  0.1374E+02  0.5290E+01  0.5236E+01
     -8.626  0.3034E+01  0.2448E+01  0.5473E+01  0.5383E+01
     -8.566  0.8981E+01  0.8219E+01  0.6012E+01  0.5876E+01
     -8.506  0.9761E+01  0.8873E+01  0.6598E+01  0.6409E+01
     -8.446  0.4666E+01  0.7580E+01  0.6879E+01  0.6865E+01
     -8.386  0.8260E+01  0.7712E+01  0.7375E+01  0.7328E+01
     -8.326  0.3333E+02  0.3241E+02  0.9377E+01  0.9275E+01
     -8.266  0.5273E+01  0.4008E+01  0.9694E+01  0.9516E+01
     -8.206  0.7250E+01  0.1014E+02  0.1013E+02  0.1012E+02
     -8.146  0.9267E+01  0.6420E+01  0.1069E+02  0.1051E+02
     -8.086  0.4384E+01  0.6088E+01  0.1095E+02  0.1088E+02
     -8.026  0.1878E+02  0.1352E+02  0.1208E+02  0.1169E+02
     -7.966  0.1416E+02  0.1501E+02  0.1293E+02  0.1259E+02
     -7.906  0.1158E+02  0.1616E+02  0.1362E+02  0.1356E+02
     -7.846  0.1918E-01  0.1082E+01  0.1362E+02  0.1362E+02
     -7.786  0.2356E+01  0.4326E-01  0.1377E+02  0.1363E+02
     -7.726  0.1737E+02  0.1689E+02  0.1481E+02  0.1464E+02
     -7.665  0.1082E+01  0.3876E+01  0.1488E+02  0.1487E+02
     -7.605  0.2398E+01  0.1457E+01  0.1502E+02  0.1496E+02
     -7.545  0.2166E+01  0.1745E+01  0.1515E+02  0.1507E+02
     -7.485  0.2451E+02  0.1718E+02  0.1662E+02  0.1610E+02
     -7.425  0.1442E+02  0.2093E+02  0.1749E+02  0.1736E+02
     -7.365  0.2234E+02  0.2250E+02  0.1883E+02  0.1871E+02
     -7.305  0.1435E+02  0.1577E+02  0.1969E+02  0.1966E+02
     -7.245  0.1465E+02  0.1051E+02  0.2057E+02  0.2029E+02
     -7.185  0.2218E+02  0.2527E+02  0.2190E+02  0.2180E+02
     -7.125  0.1591E+02  0.1563E+02  0.2286E+02  0.2274E+02
     -7.065  0.1089E+02  0.1262E+02  0.2351E+02  0.2350E+02
     -7.005  0.2275E+02  0.1943E+02  0.2488E+02  0.2467E+02
     -6.945  0.1808E+02  0.1891E+02  0.2597E+02  0.2580E+02
     -6.885  0.5438E+02  0.5078E+02  0.2923E+02  0.2885E+02
     -6.825  0.2501E+02  0.2877E+02  0.3074E+02  0.3058E+02
     -6.765  0.1975E+02  0.1947E+02  0.3192E+02  0.3175E+02
     -6.704  0.2349E+02  0.2235E+02  0.3333E+02  0.3309E+02
     -6.644  0.3009E+02  0.2423E+02  0.3514E+02  0.3455E+02
     -6.584  0.2228E+02  0.2869E+02  0.3648E+02  0.3627E+02
     -6.524  0.2357E+02  0.2338E+02  0.3789E+02  0.3768E+02
     -6.464  0.2510E+02  0.2438E+02  0.3940E+02  0.3914E+02
     -6.404  0.2626E+02  0.2710E+02  0.4098E+02  0.4077E+02
     -6.344  0.3492E+02  0.3291E+02  0.4308E+02  0.4275E+02
     -6.284  0.3165E+02  0.3365E+02  0.4498E+02  0.4477E+02
     -6.224  0.2866E+02  0.2810E+02  0.4670E+02  0.4646E+02
     -6.164  0.2159E+02  0.2351E+02  0.4800E+02  0.4787E+02
     -6.104  0.3361E+02  0.3405E+02  0.5002E+02  0.4991E+02
     -6.044  0.4596E+02  0.3885E+02  0.5278E+02  0.5225E+02
     -5.984  0.3360E+02  0.3794E+02  0.5479E+02  0.5453E+02
     -5.924  0.3195E+02  0.3225E+02  0.5671E+02  0.5646E+02
     -5.864  0.2711E+02  0.2505E+02  0.5834E+02  0.5797E+02
     -5.804  0.3568E+02  0.3743E+02  0.6048E+02  0.6021E+02
     -5.743  0.2951E+02  0.3039E+02  0.6226E+02  0.6204E+02
     -5.683  0.3412E+02  0.2805E+02  0.6431E+02  0.6372E+02
     -5.623  0.3435E+02  0.4059E+02  0.6637E+02  0.6616E+02
     -5.563  0.2331E+02  0.2441E+02  0.6777E+02  0.6763E+02
     -5.503  0.4633E+02  0.4375E+02  0.7055E+02  0.7026E+02
     -5.443  0.3407E+02  0.3585E+02  0.7260E+02  0.7241E+02
     -5.383  0.3228E+02  0.2798E+02  0.7454E+02  0.7409E+02
     -5.323  0.5474E+02  0.5512E+02  0.7783E+02  0.7740E+02
     -5.263  0.2954E+02  0.3160E+02  0.7960E+02  0.7930E+02
     -5.203  0.3464E+02  0.3664E+02  0.8168E+02  0.8150E+02
     -5.143  0.1903E+02  0.1892E+02  0.8282E+02  0.8264E+02
     -5.083  0.2855E+02  0.2833E+02  0.8454E+02  0.8434E+02
     -5.023  0.2410E+02  0.2329E+02  0.8599E+02  0.8574E+02
     -4.963  0.4263E+02  0.4377E+02  0.8855E+02  0.8837E+02
     -4.903  0.1107E+02  0.1349E+02  0.8921E+02  0.8918E+02
     -4.843  0.1198E+02  0.1160E+02  0.8993E+02  0.8988E+02
     -4.782  0.2795E+02  0.2161E+02  0.9161E+02  0.9117E+02
     -4.722  0.1685E+02  0.1986E+02  0.9262E+02  0.9237E+02
     -4.662  0.1680E+02  0.1826E+02  0.9363E+02  0.9346E+02
     -4.602  0.1585E+02  0.1515E+02  0.9458E+02  0.9437E+02
     -4.542  0.1636E+02  0.1731E+02  0.9557E+02  0.9541E+02
     -4.482  0.1712E+02  0.1675E+02  0.9660E+02  0.9642E+02
     -4.422  0.2781E+02  0.2646E+02  0.9827E+02  0.9801E+02
     -4.362  0.1483E+02  0.1764E+02  0.9916E+02  0.9907E+02
     -4.302  0.1924E+02  0.1959E+02  0.1003E+03  0.1002E+03
     -4.242  0.2125E+02  0.1708E+02  0.1016E+03  0.1013E+03
     -4.182  0.3831E+02  0.3695E+02  0.1039E+03  0.1035E+03
     -4.122  0.1086E+02  0.1607E+02  0.1045E+03  0.1045E+03
     -4.062  0.1286E+02  0.8361E+01  0.1053E+03  0.1050E+03
     -4.002  0.3882E+02  0.3798E+02  0.1076E+03  0.1072E+03
     -3.942  0.2796E+02  0.3107E+02  0.1093E+03  0.1091E+03
     -3.882  0.1935E+02  0.2102E+02  0.1105E+03  0.1104E+03
     -3.821  0.2257E+02  0.2152E+02  0.1118E+03  0.1117E+03
     -3.761  0.2347E+02  0.2185E+02  0.1133E+03  0.1130E+03
     -3.701  0.1415E+02  0.1560E+02  0.1141E+03  0.1139E+03
     -3.641  0.3676E+02  0.3447E+02  0.1163E+03  0.1160E+03
     -3.581  0.2185E+02  0.2160E+02  0.1176E+03  0.1173E+03
     -3.521  0.2148E+02  0.2294E+02  0.1189E+03  0.1187E+03
     -3.461  0.2346E+02  0.2590E+02  0.1203E+03  0.1202E+03
     -3.401  0.1435E+02  0.1175E+02  0.1212E+03  0.1209E+03
     -3.341  0.1720E+02  0.1876E+02  0.1222E+03  0.1220E+03
     -3.281  0.2251E+02  0.2216E+02  0.1236E+03  0.1234E+03
     -3.221  0.2701E+02  0.2484E+02  0.1252E+03  0.1249E+03
     -3.161  0.2621E+02  0.2735E+02  0.1268E+03  0.1265E+03
     -3.101  0.3494E+02  0.3024E+02  0.1289E+03  0.1283E+03
     -3.041  0.3820E+02  0.4252E+02  0.1312E+03  0.1309E+03
     -2.981  0.1758E+02  0.1978E+02  0.1322E+03  0.1321E+03
     -2.921  0.3311E+02  0.2968E+02  0.1342E+03  0.1339E+03
     -2.860  0.2626E+02  0.2714E+02  0.1358E+03  0.1355E+03
     -2.800  0.3055E+02  0.3184E+02  0.1376E+03  0.1374E+03
     -2.740  0.3867E+02  0.3527E+02  0.1399E+03  0.1395E+03
     -2.680  0.2721E+02  0.3095E+02  0.1416E+03  0.1414E+03
     -2.620  0.1831E+02  0.1691E+02  0.1427E+03  0.1424E+03
     -2.560  0.2527E+02  0.2657E+02  0.1442E+03  0.1440E+03
     -2.500  0.2364E+02  0.2091E+02  0.1456E+03  0.1452E+03
     -2.440  0.2684E+02  0.2980E+02  0.1472E+03  0.1470E+03
     -2.380  0.3038E+02  0.2798E+02  0.1491E+03  0.1487E+03
     -2.320  0.2215E+02  0.2477E+02  0.1504E+03  0.1502E+03
     -2.260  0.2522E+02  0.2467E+02  0.1519E+03  0.1517E+03
     -2.200  0.2595E+02  0.2416E+02  0.1535E+03  0.1531E+03
     -2.140  0.2534E+02  0.2620E+02  0.1550E+03  0.1547E+03
     -2.080  0.2442E+02  0.2436E+02  0.1564E+03  0.1562E+03
     -2.020  0.2613E+02  0.2848E+02  0.1580E+03  0.1579E+03
     -1.960  0.2383E+02  0.2342E+02  0.1594E+03  0.1593E+03
     -1.899  0.1638E+02  0.1794E+02  0.1604E+03  0.1604E+03
     -1.839  0.5426E+01  0.3934E+01  0.1608E+03  0.1606E+03
     -1.779  0.2075E+02  0.1862E+02  0.1620E+03  0.1617E+03
     -1.719  0.1755E+02  0.1994E+02  0.1631E+03  0.1629E+03
     -1.659  0.2484E+02  0.2095E+02  0.1645E+03  0.1642E+03
     -1.599  0.1863E+02  0.2295E+02  0.1657E+03  0.1656E+03
     -1.539  0.2650E+02  0.2587E+02  0.1673E+03  0.1671E+03
     -1.479  0.2539E+02  0.2299E+02  0.1688E+03  0.1685E+03
     -1.419  0.2290E+02  0.2702E+02  0.1702E+03  0.1701E+03
     -1.359  0.1053E+02  0.9108E+01  0.1708E+03  0.1707E+03
     -1.299  0.2380E+02  0.2265E+02  0.1722E+03  0.1720E+03
     -1.239  0.2877E+02  0.2651E+02  0.1740E+03  0.1736E+03
     -1.179  0.3155E+02  0.3320E+02  0.1758E+03  0.1756E+03
     -1.119  0.3032E+02  0.2969E+02  0.1777E+03  0.1774E+03
     -1.059  0.2512E+02  0.2656E+02  0.1792E+03  0.1790E+03
     -0.998  0.1960E+02  0.2071E+02  0.1804E+03  0.1802E+03
     -0.938  0.2560E+02  0.2349E+02  0.1819E+03  0.1816E+03
     -0.878  0.6126E+01  0.8446E+01  0.1823E+03  0.1821E+03
     -0.818  0.1938E+02  0.1854E+02  0.1834E+03  0.1833E+03
     -0.758  0.2749E+02  0.2582E+02  0.1851E+03  0.1848E+03
     -0.698  0.1754E+02  0.1926E+02  0.1861E+03  0.1860E+03
     -0.638  0.2953E+02  0.3070E+02  0.1879E+03  0.1878E+03
     -0.578  0.1988E+02  0.1700E+02  0.1891E+03  0.1888E+03
     -0.518  0.1796E+02  0.2087E+02  0.1902E+03  0.1901E+03
     -0.458  0.1996E+02  0.1593E+02  0.1914E+03  0.1910E+03
     -0.398  0.1241E+02  0.1485E+02  0.1921E+03  0.1919E+03
     -0.338  0.1357E+02  0.1491E+02  0.1929E+03  0.1928E+03
     -0.278  0.1724E+02  0.1441E+02  0.1940E+03  0.1937E+03
     -0.218  0.1292E+02  0.1529E+02  0.1947E+03  0.1946E+03
     -0.158  0.1145E+02  0.1027E+02  0.1954E+03  0.1952E+03
     -0.098  0.1631E+02  0.1812E+02  0.1964E+03  0.1963E+03
     -0.037  0.2047E+02  0.1217E+02  0.1976E+03  0.1971E+03
      0.023  0.2603E+02  0.3461E+02  0.1992E+03  0.1991E+03
      0.083  0.1187E+02  0.1041E+02  0.1999E+03  0.1998E+03
      0.143  0.3758E+02  0.3286E+02  0.2022E+03  0.2017E+03
      0.203  0.2007E+02  0.2227E+02  0.2034E+03  0.2031E+03
      0.263  0.2326E+02  0.2231E+02  0.2048E+03  0.2044E+03
      0.323  0.3716E+02  0.3736E+02  0.2070E+03  0.2067E+03
      0.383  0.2547E+02  0.2473E+02  0.2085E+03  0.2081E+03
      0.443  0.4776E+02  0.4537E+02  0.2114E+03  0.2109E+03
      0.503  0.4744E+02  0.4484E+02  0.2143E+03  0.2136E+03
      0.563  0.3391E+02  0.3757E+02  0.2163E+03  0.2158E+03
      0.623  0.2817E+02  0.2952E+02  0.2180E+03  0.2176E+03
      0.683  0.4332E+02  0.4267E+02  0.2206E+03  0.2201E+03
      0.743  0.3473E+02  0.3684E+02  0.2227E+03  0.2224E+03
      0.803  0.3711E+02  0.3376E+02  0.2249E+03  0.2244E+03
      0.863  0.3281E+02  0.3576E+02  0.2269E+03  0.2265E+03
      0.924  0.3073E+02  0.2981E+02  0.2287E+03  0.2283E+03
      0.984  0.3110E+02  0.3019E+02  0.2306E+03  0.2301E+03
      1.044  0.3404E+02  0.3774E+02  0.2326E+03  0.2324E+03
      1.104  0.3312E+02  0.3351E+02  0.2346E+03  0.2344E+03
      1.164  0.3886E+02  0.3698E+02  0.2370E+03  0.2366E+03
      1.224  0.4778E+02  0.4201E+02  0.2398E+03  0.2392E+03
      1.284  0.4281E+02  0.4979E+02  0.2424E+03  0.2422E+03
      1.344  0.3528E+02  0.2963E+02  0.2445E+03  0.2439E+03
      1.404  0.3876E+02  0.4228E+02  0.2468E+03  0.2465E+03
      1.464  0.3291E+02  0.3350E+02  0.2488E+03  0.2485E+03
      1.524  0.4980E+02  0.4904E+02  0.2518E+03  0.2514E+03
      1.584  0.4898E+02  0.4494E+02  0.2548E+03  0.2541E+03
      1.644  0.3870E+02  0.4472E+02  0.2571E+03  0.2568E+03
      1.704  0.2470E+02  0.2584E+02  0.2586E+03  0.2584E+03
      1.764  0.4582E+02  0.4131E+02  0.2613E+03  0.2609E+03
      1.824  0.5644E+02  0.5609E+02  0.2647E+03  0.2642E+03
      1.885  0.5944E+02  0.6199E+02  0.2683E+03  0.2679E+03
      1.945  0.5637E+02  0.5464E+02  0.2717E+03  0.2712E+03
      2.005  0.6188E+02  0.5954E+02  0.2754E+03  0.2748E+03
      2.065  0.4524E+02  0.4782E+02  0.2781E+03  0.2777E+03
      2.125  0.4359E+02  0.4167E+02  0.2807E+03  0.2802E+03
      2.185  0.5282E+02  0.5515E+02  0.2839E+03  0.2835E+03
      2.245  0.5567E+02  0.5963E+02  0.2872E+03  0.2871E+03
      2.305  0.4310E+02  0.3935E+02  0.2898E+03  0.2894E+03
      2.365  0.4280E+02  0.4088E+02  0.2924E+03  0.2919E+03
      2.425  0.3796E+02  0.4010E+02  0.2947E+03  0.2943E+03
      2.485  0.4909E+02  0.4841E+02  0.2976E+03  0.2972E+03
      2.545  0.5192E+02  0.5005E+02  0.3007E+03  0.3002E+03
      2.605  0.6445E+02  0.6300E+02  0.3046E+03  0.3040E+03
      2.665  0.4589E+02  0.4715E+02  0.3074E+03  0.3068E+03
      2.725  0.3917E+02  0.4260E+02  0.3097E+03  0.3094E+03
      2.785  0.4071E+02  0.4305E+02  0.3122E+03  0.3120E+03
      2.846  0.4109E+02  0.3732E+02  0.3146E+03  0.3142E+03
      2.906  0.5194E+02  0.5266E+02  0.3178E+03  0.3174E+03
      2.966  0.4048E+02  0.4049E+02  0.3202E+03  0.3198E+03
      3.026  0.3173E+02  0.3039E+02  0.3221E+03  0.3216E+03
      3.086  0.3430E+02  0.3589E+02  0.3242E+03  0.3238E+03
      3.146  0.3587E+02  0.3728E+02  0.3263E+03  0.3260E+03
      3.206  0.4662E+02  0.4312E+02  0.3291E+03  0.3286E+03
      3.266  0.4914E+02  0.4987E+02  0.3321E+03  0.3316E+03
      3.326  0.3371E+02  0.3521E+02  0.3341E+03  0.3337E+03
      3.386  0.5046E+02  0.4920E+02  0.3371E+03  0.3367E+03
      3.446  0.3787E+02  0.4341E+02  0.3394E+03  0.3393E+03
      3.506  0.4530E+02  0.4129E+02  0.3421E+03  0.3418E+03
      3.566  0.3815E+02  0.3791E+02  0.3444E+03  0.3441E+03
      3.626  0.2796E+02  0.2964E+02  0.3461E+03  0.3458E+03
      3.686  0.4184E+02  0.3814E+02  0.3486E+03  0.3481E+03
      3.746  0.3995E+02  0.3647E+02  0.3510E+03  0.3503E+03
      3.807  0.4203E+02  0.4712E+02  0.3535E+03  0.3531E+03
      3.867  0.3670E+02  0.3388E+02  0.3557E+03  0.3552E+03
      3.927  0.2859E+02  0.3196E+02  0.3574E+03  0.3571E+03
      3.987  0.4040E+02  0.3806E+02  0.3599E+03  0.3594E+03
      4.047  0.4259E+02  0.3996E+02  0.3624E+03  0.3618E+03
      4.107  0.3711E+02  0.4240E+02  0.3647E+03  0.3643E+03
      4.167  0.3412E+02  0.3174E+02  0.3667E+03  0.3662E+03
      4.227  0.4503E+02  0.4407E+02  0.3694E+03  0.3689E+03
      4.287  0.4949E+02  0.4871E+02  0.3724E+03  0.3718E+03
      4.347  0.3537E+02  0.3334E+02  0.3745E+03  0.3738E+03
      4.407  0.3604E+02  0.4068E+02  0.3767E+03  0.3763E+03
      4.467  0.3075E+02  0.3065E+02  0.3785E+03  0.3781E+03
      4.527  0.3777E+02  0.3985E+02  0.3808E+03  0.3805E+03
      4.587  0.2432E+02  0.2017E+02  0.3823E+03  0.3817E+03
      4.647  0.3471E+02  0.3397E+02  0.3843E+03  0.3837E+03
      4.707  0.4458E+02  0.3795E+02  0.3870E+03  0.3860E+03
      4.768  0.2982E+02  0.4132E+02  0.3888E+03  0.3885E+03
      4.828  0.3280E+02  0.3334E+02  0.3908E+03  0.3905E+03
      4.888  0.3249E+02  0.2927E+02  0.3927E+03  0.3923E+03
      4.948  0.2948E+02  0.2836E+02  0.3945E+03  0.3940E+03
      5.008  0.3544E+02  0.4074E+02  0.3966E+03  0.3964E+03
      5.068  0.3293E+02  0.2432E+02  0.3986E+03  0.3979E+03
      5.128  0.3376E+02  0.3589E+02  0.4006E+03  0.4000E+03
      5.188  0.2996E+02  0.3142E+02  0.4024E+03  0.4019E+03
      5.248  0.9983E+01  0.1515E+02  0.4030E+03  0.4028E+03
      5.308  0.2145E+02  0.1671E+02  0.4043E+03  0.4038E+03
      5.368  0.2608E+02  0.2984E+02  0.4059E+03  0.4056E+03
      5.428  0.2044E+02  0.2217E+02  0.4071E+03  0.4070E+03
      5.488  0.3104E+02  0.2705E+02  0.4090E+03  0.4086E+03
      5.548  0.4509E+02  0.3952E+02  0.4117E+03  0.4110E+03
      5.608  0.2851E+02  0.3254E+02  0.4134E+03  0.4129E+03
      5.668  0.3182E+02  0.3461E+02  0.4153E+03  0.4150E+03
      5.729  0.4277E+02  0.3838E+02  0.4179E+03  0.4173E+03
      5.789  0.3051E+02  0.3502E+02  0.4197E+03  0.4194E+03
      5.849  0.3800E+02  0.3472E+02  0.4220E+03  0.4215E+03
      5.909  0.2410E+02  0.2742E+02  0.4234E+03  0.4231E+03
      5.969  0.3159E+02  0.3073E+02  0.4253E+03  0.4250E+03
      6.029  0.2918E+02  0.3103E+02  0.4271E+03  0.4268E+03
      6.089  0.3282E+02  0.2484E+02  0.4291E+03  0.4283E+03
      6.149  0.3515E+02  0.4436E+02  0.4312E+03  0.4310E+03
      6.209  0.2694E+02  0.2768E+02  0.4328E+03  0.4327E+03
      6.269  0.2633E+02  0.2163E+02  0.4344E+03  0.4340E+03
      6.329  0.3971E+02  0.4116E+02  0.4368E+03  0.4364E+03
      6.389  0.3193E+02  0.3317E+02  0.4387E+03  0.4384E+03
      6.449  0.2351E+02  0.2456E+02  0.4401E+03  0.4399E+03
      6.509  0.4405E+02  0.3878E+02  0.4427E+03  0.4422E+03
      6.569  0.3775E+02  0.4170E+02  0.4450E+03  0.4447E+03
      6.629  0.3634E+02  0.3436E+02  0.4472E+03  0.4468E+03
      6.690  0.3066E+02  0.3066E+02  0.4490E+03  0.4486E+03
      6.750  0.3626E+02  0.3665E+02  0.4512E+03  0.4508E+03
      6.810  0.3583E+02  0.3528E+02  0.4534E+03  0.4530E+03
      6.870  0.2373E+02  0.2912E+02  0.4548E+03  0.4547E+03
      6.930  0.4273E+02  0.3905E+02  0.4574E+03  0.4571E+03
      6.990  0.3158E+02  0.3269E+02  0.4593E+03  0.4590E+03
      7.050  0.3643E+02  0.3638E+02  0.4614E+03  0.4612E+03
      7.110  0.2176E+02  0.2441E+02  0.4627E+03  0.4627E+03
      7.170  0.1248E+02  0.1134E+02  0.4635E+03  0.4634E+03
      7.230  0.4503E+01  0.6076E+01  0.4638E+03  0.4637E+03
      7.290  0.3891E+01  0.4603E+01  0.4640E+03  0.4640E+03
      7.350  0.0000E+00  0.0000E+00  0.4640E+03  0.4640E+03
      7.410  0.0000E+00  0.0000E+00  0.4640E+03  0.4640E+03
      7.470  0.0000E+00  0.0000E+00  0.4640E+03  0.4640E+03
      7.530  0.0000E+00  0.0000E+00  0.4640E+03  0.4640E+03
      7.590  0.0000E+00  0.0000E+00  0.4640E+03  0.4640E+03
      7.651  0.0000E+00  0.0000E+00  0.4640E+03  0.4640E+03
      7.711  0.0000E+00  0.0000E+00  0.4640E+03  0.4640E+03
      7.771  0.0000E+00  0.0000E+00  0.4640E+03  0.4640E+03
      7.831  0.0000E+00  0.0000E+00  0.4640E+03  0.4640E+03
      7.891  0.0000E+00  0.0000E+00  0.4640E+03  0.4640E+03
      7.951  0.0000E+00  0.0000E+00  0.4640E+03  0.4640E+03
      8.011  0.0000E+00  0.0000E+00  0.4640E+03  0.4640E+03
      8.071  0.0000E+00  0.0000E+00  0.4640E+03  0.4640E+03
