 264 264   0   0
  0.2774202E+02  0.1958175E-08  0.1958175E-08  0.1910025E-08  0.5000000E-15
  1.000000000000000E-004
  CAR 
 Si and Ge interface calculation         
      6.63890785     -9.26107627  301      4.04005786      1.00000000
     -9.261  0.0000E+00  0.0000E+00  0.0000E+00  0.0000E+00
     -9.208  0.0000E+00  0.0000E+00  0.0000E+00  0.0000E+00
     -9.155  0.0000E+00  0.0000E+00  0.0000E+00  0.0000E+00
     -9.102  0.0000E+00  0.0000E+00  0.0000E+00  0.0000E+00
     -9.049  0.0000E+00  0.0000E+00  0.0000E+00  0.0000E+00
     -8.996  0.0000E+00  0.0000E+00  0.0000E+00  0.0000E+00
     -8.943  0.0000E+00  0.0000E+00  0.0000E+00  0.0000E+00
     -8.890  0.0000E+00  0.0000E+00  0.0000E+00  0.0000E+00
     -8.837  0.0000E+00  0.0000E+00  0.0000E+00  0.0000E+00
     -8.784  0.0000E+00  0.0000E+00  0.0000E+00  0.0000E+00
     -8.731  0.0000E+00  0.0000E+00  0.0000E+00  0.0000E+00
     -8.678  0.0000E+00  0.0000E+00  0.0000E+00  0.0000E+00
     -8.625  0.0000E+00  0.0000E+00  0.0000E+00  0.0000E+00
     -8.572  0.8651E-05  0.3048E-05  0.4585E-06  0.1615E-06
     -8.519  0.1814E+02  0.1773E+02  0.9617E+00  0.9398E+00
     -8.466  0.1959E+02  0.2000E+02  0.2000E+01  0.2000E+01
     -8.413  0.9197E+00  0.6447E+00  0.2049E+01  0.2034E+01
     -8.360  0.1795E+02  0.1822E+02  0.3000E+01  0.3000E+01
     -8.307  0.9546E+01  0.8308E+01  0.3506E+01  0.3440E+01
     -8.254  0.9322E+01  0.1056E+02  0.4000E+01  0.4000E+01
     -8.201  0.4520E+01  0.3622E+01  0.4240E+01  0.4192E+01
     -8.148  0.2099E+02  0.2112E+02  0.5352E+01  0.5312E+01
     -8.095  0.3280E+02  0.3211E+02  0.7091E+01  0.7013E+01
     -8.042  0.1104E+02  0.1175E+02  0.7676E+01  0.7636E+01
     -7.989  0.6193E+01  0.6911E+01  0.8004E+01  0.8002E+01
     -7.936  0.1536E+02  0.1431E+02  0.8818E+01  0.8760E+01
     -7.883  0.1302E+02  0.1405E+02  0.9509E+01  0.9505E+01
     -7.830  0.2092E+02  0.2008E+02  0.1062E+02  0.1057E+02
     -7.777  0.1762E+02  0.1814E+02  0.1155E+02  0.1153E+02
     -7.724  0.9693E+01  0.9699E+01  0.1206E+02  0.1204E+02
     -7.671  0.1797E+02  0.1822E+02  0.1302E+02  0.1301E+02
     -7.618  0.1813E+02  0.1802E+02  0.1398E+02  0.1397E+02
     -7.565  0.3285E+02  0.3232E+02  0.1572E+02  0.1568E+02
     -7.512  0.1470E+02  0.1544E+02  0.1650E+02  0.1650E+02
     -7.459  0.6942E+01  0.6391E+01  0.1687E+02  0.1684E+02
     -7.406  0.1144E+02  0.1174E+02  0.1747E+02  0.1746E+02
     -7.353  0.9961E+01  0.9534E+01  0.1800E+02  0.1796E+02
     -7.300  0.3079E+02  0.3087E+02  0.1963E+02  0.1960E+02
     -7.247  0.2273E+02  0.2161E+02  0.2084E+02  0.2074E+02
     -7.194  0.3225E+02  0.3370E+02  0.2255E+02  0.2253E+02
     -7.141  0.4684E+02  0.4657E+02  0.2503E+02  0.2500E+02
     -7.088  0.1945E+02  0.1956E+02  0.2606E+02  0.2604E+02
     -7.035  0.1947E+02  0.1934E+02  0.2709E+02  0.2706E+02
     -6.982  0.3373E+02  0.3341E+02  0.2888E+02  0.2883E+02
     -6.929  0.4304E+02  0.4200E+02  0.3116E+02  0.3106E+02
     -6.876  0.4339E+02  0.4424E+02  0.3346E+02  0.3340E+02
     -6.823  0.4870E+02  0.4863E+02  0.3604E+02  0.3598E+02
     -6.770  0.4541E+02  0.4495E+02  0.3845E+02  0.3836E+02
     -6.717  0.4582E+02  0.4580E+02  0.4088E+02  0.4079E+02
     -6.664  0.4107E+02  0.4052E+02  0.4305E+02  0.4294E+02
     -6.611  0.3437E+02  0.3528E+02  0.4488E+02  0.4481E+02
     -6.558  0.2873E+02  0.2866E+02  0.4640E+02  0.4633E+02
     -6.505  0.3144E+02  0.3037E+02  0.4806E+02  0.4794E+02
     -6.452  0.6004E+02  0.6064E+02  0.5125E+02  0.5115E+02
     -6.399  0.4172E+02  0.4211E+02  0.5346E+02  0.5338E+02
     -6.346  0.4117E+02  0.4183E+02  0.5564E+02  0.5560E+02
     -6.293  0.5777E+02  0.5740E+02  0.5870E+02  0.5864E+02
     -6.240  0.5368E+02  0.5179E+02  0.6155E+02  0.6138E+02
     -6.187  0.6495E+02  0.6771E+02  0.6499E+02  0.6497E+02
     -6.134  0.6085E+02  0.5766E+02  0.6821E+02  0.6803E+02
     -6.081  0.6116E+02  0.6359E+02  0.7146E+02  0.7140E+02
     -6.028  0.8670E+02  0.8477E+02  0.7605E+02  0.7589E+02
     -5.975  0.6239E+02  0.6238E+02  0.7936E+02  0.7920E+02
     -5.922  0.7519E+02  0.7457E+02  0.8334E+02  0.8315E+02
     -5.869  0.5975E+02  0.6025E+02  0.8651E+02  0.8634E+02
     -5.816  0.7903E+02  0.7872E+02  0.9070E+02  0.9052E+02
     -5.763  0.7724E+02  0.7721E+02  0.9479E+02  0.9461E+02
     -5.710  0.7277E+02  0.7174E+02  0.9865E+02  0.9841E+02
     -5.657  0.9043E+02  0.9140E+02  0.1034E+03  0.1033E+03
     -5.604  0.9313E+02  0.9311E+02  0.1084E+03  0.1082E+03
     -5.551  0.7326E+02  0.7345E+02  0.1123E+03  0.1121E+03
     -5.498  0.6329E+02  0.6432E+02  0.1156E+03  0.1155E+03
     -5.445  0.6355E+02  0.6321E+02  0.1190E+03  0.1188E+03
     -5.392  0.5575E+02  0.5315E+02  0.1219E+03  0.1217E+03
     -5.339  0.8185E+02  0.8228E+02  0.1263E+03  0.1260E+03
     -5.286  0.7855E+02  0.8024E+02  0.1304E+03  0.1303E+03
     -5.233  0.8142E+02  0.8064E+02  0.1348E+03  0.1345E+03
     -5.180  0.5914E+02  0.6059E+02  0.1379E+03  0.1378E+03
     -5.127  0.6826E+02  0.6720E+02  0.1415E+03  0.1413E+03
     -5.074  0.7205E+02  0.7213E+02  0.1453E+03  0.1451E+03
     -5.021  0.8389E+02  0.8318E+02  0.1498E+03  0.1496E+03
     -4.968  0.7836E+02  0.7864E+02  0.1539E+03  0.1537E+03
     -4.915  0.4640E+02  0.4758E+02  0.1564E+03  0.1562E+03
     -4.862  0.6964E+02  0.6738E+02  0.1601E+03  0.1598E+03
     -4.809  0.1067E+03  0.1053E+03  0.1657E+03  0.1654E+03
     -4.756  0.1145E+03  0.1175E+03  0.1718E+03  0.1716E+03
     -4.703  0.1146E+03  0.1131E+03  0.1779E+03  0.1776E+03
     -4.650  0.9127E+02  0.9189E+02  0.1827E+03  0.1825E+03
     -4.597  0.9489E+02  0.9399E+02  0.1877E+03  0.1875E+03
     -4.544  0.1020E+03  0.1008E+03  0.1931E+03  0.1928E+03
     -4.491  0.1078E+03  0.1069E+03  0.1989E+03  0.1985E+03
     -4.438  0.9370E+02  0.9500E+02  0.2038E+03  0.2035E+03
     -4.385  0.8267E+02  0.8683E+02  0.2082E+03  0.2081E+03
     -4.332  0.6479E+02  0.6015E+02  0.2116E+03  0.2113E+03
     -4.279  0.6652E+02  0.6799E+02  0.2152E+03  0.2149E+03
     -4.226  0.8257E+02  0.7972E+02  0.2195E+03  0.2191E+03
     -4.173  0.1292E+03  0.1298E+03  0.2264E+03  0.2260E+03
     -4.120  0.7295E+02  0.7763E+02  0.2303E+03  0.2301E+03
     -4.067  0.6210E+02  0.6152E+02  0.2335E+03  0.2334E+03
     -4.014  0.7918E+02  0.7759E+02  0.2377E+03  0.2375E+03
     -3.961  0.6273E+02  0.6365E+02  0.2411E+03  0.2409E+03
     -3.908  0.3537E+02  0.3735E+02  0.2429E+03  0.2428E+03
     -3.855  0.5266E+02  0.4793E+02  0.2457E+03  0.2454E+03
     -3.802  0.5825E+02  0.6185E+02  0.2488E+03  0.2487E+03
     -3.749  0.4881E+02  0.4651E+02  0.2514E+03  0.2511E+03
     -3.696  0.7275E+02  0.7334E+02  0.2553E+03  0.2550E+03
     -3.643  0.6760E+02  0.6551E+02  0.2588E+03  0.2585E+03
     -3.590  0.8041E+02  0.8090E+02  0.2631E+03  0.2628E+03
     -3.537  0.6030E+02  0.6334E+02  0.2663E+03  0.2661E+03
     -3.484  0.7130E+02  0.7165E+02  0.2701E+03  0.2699E+03
     -3.431  0.7646E+02  0.7491E+02  0.2741E+03  0.2739E+03
     -3.378  0.6524E+02  0.6333E+02  0.2776E+03  0.2773E+03
     -3.325  0.9698E+02  0.9851E+02  0.2827E+03  0.2825E+03
     -3.272  0.6323E+02  0.6288E+02  0.2861E+03  0.2858E+03
     -3.219  0.8142E+02  0.8052E+02  0.2904E+03  0.2901E+03
     -3.166  0.7384E+02  0.7586E+02  0.2943E+03  0.2941E+03
     -3.113  0.7119E+02  0.7255E+02  0.2981E+03  0.2979E+03
     -3.060  0.8243E+02  0.7715E+02  0.3025E+03  0.3020E+03
     -3.007  0.7161E+02  0.7584E+02  0.3062E+03  0.3061E+03
     -2.954  0.8061E+02  0.7728E+02  0.3105E+03  0.3101E+03
     -2.901  0.9007E+02  0.9165E+02  0.3153E+03  0.3150E+03
     -2.848  0.9777E+02  0.9725E+02  0.3205E+03  0.3202E+03
     -2.795  0.9415E+02  0.9461E+02  0.3255E+03  0.3252E+03
     -2.742  0.9745E+02  0.9697E+02  0.3306E+03  0.3303E+03
     -2.689  0.1053E+03  0.1054E+03  0.3362E+03  0.3359E+03
     -2.636  0.9092E+02  0.9251E+02  0.3410E+03  0.3408E+03
     -2.583  0.1154E+03  0.1132E+03  0.3471E+03  0.3468E+03
     -2.530  0.1261E+03  0.1256E+03  0.3538E+03  0.3535E+03
     -2.477  0.1032E+03  0.1056E+03  0.3593E+03  0.3591E+03
     -2.424  0.8800E+02  0.8735E+02  0.3640E+03  0.3637E+03
     -2.371  0.1065E+03  0.1070E+03  0.3696E+03  0.3694E+03
     -2.318  0.9451E+02  0.9185E+02  0.3746E+03  0.3742E+03
     -2.265  0.1078E+03  0.1104E+03  0.3803E+03  0.3801E+03
     -2.212  0.7205E+02  0.7354E+02  0.3842E+03  0.3840E+03
     -2.159  0.2297E+02  0.2512E+02  0.3854E+03  0.3853E+03
     -2.106  0.5504E+02  0.4994E+02  0.3883E+03  0.3880E+03
     -2.053  0.8709E+02  0.8773E+02  0.3929E+03  0.3926E+03
     -2.000  0.8552E+02  0.8825E+02  0.3974E+03  0.3973E+03
     -1.947  0.8333E+02  0.8243E+02  0.4019E+03  0.4017E+03
     -1.894  0.8992E+02  0.8860E+02  0.4066E+03  0.4063E+03
     -1.841  0.7775E+02  0.7899E+02  0.4107E+03  0.4105E+03
     -1.788  0.8963E+02  0.8781E+02  0.4155E+03  0.4152E+03
     -1.735  0.1001E+03  0.9715E+02  0.4208E+03  0.4203E+03
     -1.682  0.8819E+02  0.9244E+02  0.4255E+03  0.4252E+03
     -1.629  0.7822E+02  0.7833E+02  0.4296E+03  0.4294E+03
     -1.576  0.1083E+03  0.1069E+03  0.4354E+03  0.4351E+03
     -1.523  0.5322E+02  0.5534E+02  0.4382E+03  0.4380E+03
     -1.470  0.5656E+02  0.5845E+02  0.4412E+03  0.4411E+03
     -1.417  0.5372E+02  0.4928E+02  0.4440E+03  0.4437E+03
     -1.364  0.6032E+02  0.6314E+02  0.4472E+03  0.4470E+03
     -1.311  0.6136E+02  0.6235E+02  0.4505E+03  0.4503E+03
     -1.258  0.3987E+02  0.3782E+02  0.4526E+03  0.4524E+03
     -1.205  0.7052E+02  0.7026E+02  0.4563E+03  0.4561E+03
     -1.152  0.5029E+02  0.4920E+02  0.4590E+03  0.4587E+03
     -1.099  0.5786E+02  0.6087E+02  0.4620E+03  0.4619E+03
     -1.046  0.5265E+02  0.5278E+02  0.4648E+03  0.4647E+03
     -0.993  0.4280E+02  0.4407E+02  0.4671E+03  0.4670E+03
     -0.940  0.3158E+02  0.2937E+02  0.4688E+03  0.4686E+03
     -0.887  0.5588E+02  0.5581E+02  0.4717E+03  0.4716E+03
     -0.834  0.7623E+02  0.7397E+02  0.4758E+03  0.4755E+03
     -0.781  0.5240E+02  0.5573E+02  0.4786E+03  0.4784E+03
     -0.728  0.4452E+02  0.4229E+02  0.4809E+03  0.4807E+03
     -0.675  0.8318E+02  0.8393E+02  0.4853E+03  0.4851E+03
     -0.622  0.4841E+02  0.5026E+02  0.4879E+03  0.4878E+03
     -0.569  0.2853E+02  0.2912E+02  0.4894E+03  0.4893E+03
     -0.516  0.1642E+02  0.1760E+02  0.4903E+03  0.4903E+03
     -0.463  0.3287E+02  0.3294E+02  0.4920E+03  0.4920E+03
     -0.410  0.2822E+02  0.2652E+02  0.4935E+03  0.4934E+03
     -0.357  0.5544E+02  0.5513E+02  0.4965E+03  0.4963E+03
     -0.304  0.7900E+02  0.7780E+02  0.5006E+03  0.5005E+03
     -0.251  0.7985E+02  0.8043E+02  0.5049E+03  0.5047E+03
     -0.198  0.9071E+02  0.8840E+02  0.5097E+03  0.5094E+03
     -0.145  0.1262E+03  0.1273E+03  0.5164E+03  0.5162E+03
     -0.092  0.1124E+03  0.1103E+03  0.5223E+03  0.5220E+03
     -0.039  0.1059E+03  0.1088E+03  0.5279E+03  0.5278E+03
      0.014  0.1022E+03  0.9994E+02  0.5334E+03  0.5331E+03
      0.067  0.1402E+03  0.1397E+03  0.5408E+03  0.5405E+03
      0.120  0.1020E+03  0.1047E+03  0.5462E+03  0.5460E+03
      0.173  0.9052E+02  0.9057E+02  0.5510E+03  0.5508E+03
      0.226  0.8202E+02  0.8132E+02  0.5553E+03  0.5551E+03
      0.279  0.7203E+02  0.7162E+02  0.5592E+03  0.5589E+03
      0.332  0.9854E+02  0.9678E+02  0.5644E+03  0.5640E+03
      0.385  0.9101E+02  0.9041E+02  0.5692E+03  0.5688E+03
      0.438  0.1154E+03  0.1195E+03  0.5753E+03  0.5752E+03
      0.491  0.7938E+02  0.7840E+02  0.5795E+03  0.5793E+03
      0.544  0.1084E+03  0.1061E+03  0.5853E+03  0.5850E+03
      0.597  0.1358E+03  0.1359E+03  0.5925E+03  0.5922E+03
      0.650  0.1009E+03  0.1017E+03  0.5978E+03  0.5975E+03
      0.703  0.1591E+03  0.1577E+03  0.6062E+03  0.6059E+03
      0.756  0.1442E+03  0.1431E+03  0.6139E+03  0.6135E+03
      0.809  0.1119E+03  0.1156E+03  0.6198E+03  0.6196E+03
      0.862  0.9577E+02  0.9485E+02  0.6249E+03  0.6246E+03
      0.915  0.1187E+03  0.1183E+03  0.6312E+03  0.6309E+03
      0.968  0.1092E+03  0.1099E+03  0.6370E+03  0.6367E+03
      1.021  0.1014E+03  0.9866E+02  0.6424E+03  0.6420E+03
      1.074  0.1557E+03  0.1538E+03  0.6506E+03  0.6501E+03
      1.127  0.1599E+03  0.1614E+03  0.6591E+03  0.6587E+03
      1.180  0.1848E+03  0.1839E+03  0.6689E+03  0.6684E+03
      1.233  0.1813E+03  0.1825E+03  0.6785E+03  0.6781E+03
      1.286  0.1592E+03  0.1546E+03  0.6869E+03  0.6863E+03
      1.339  0.1918E+03  0.1970E+03  0.6971E+03  0.6967E+03
      1.392  0.1782E+03  0.1745E+03  0.7065E+03  0.7060E+03
      1.445  0.1334E+03  0.1366E+03  0.7136E+03  0.7132E+03
      1.498  0.1771E+03  0.1716E+03  0.7230E+03  0.7223E+03
      1.551  0.1943E+03  0.1971E+03  0.7333E+03  0.7328E+03
      1.604  0.2012E+03  0.1993E+03  0.7439E+03  0.7433E+03
      1.657  0.1746E+03  0.1780E+03  0.7532E+03  0.7527E+03
      1.710  0.1979E+03  0.1958E+03  0.7637E+03  0.7631E+03
      1.763  0.1856E+03  0.1832E+03  0.7735E+03  0.7728E+03
      1.816  0.1672E+03  0.1694E+03  0.7824E+03  0.7818E+03
      1.869  0.1433E+03  0.1457E+03  0.7900E+03  0.7895E+03
      1.922  0.1908E+03  0.1889E+03  0.8001E+03  0.7995E+03
      1.975  0.2152E+03  0.2154E+03  0.8115E+03  0.8110E+03
      2.028  0.1512E+03  0.1505E+03  0.8195E+03  0.8189E+03
      2.081  0.2104E+03  0.2114E+03  0.8307E+03  0.8301E+03
      2.134  0.1885E+03  0.1875E+03  0.8407E+03  0.8401E+03
      2.187  0.1753E+03  0.1776E+03  0.8499E+03  0.8495E+03
      2.240  0.1530E+03  0.1497E+03  0.8581E+03  0.8574E+03
      2.293  0.1609E+03  0.1620E+03  0.8666E+03  0.8660E+03
      2.346  0.1549E+03  0.1522E+03  0.8748E+03  0.8741E+03
      2.399  0.1921E+03  0.1937E+03  0.8850E+03  0.8844E+03
      2.452  0.1516E+03  0.1558E+03  0.8930E+03  0.8926E+03
      2.505  0.1350E+03  0.1319E+03  0.9002E+03  0.8996E+03
      2.558  0.1162E+03  0.1196E+03  0.9063E+03  0.9059E+03
      2.611  0.1407E+03  0.1371E+03  0.9138E+03  0.9132E+03
      2.664  0.1642E+03  0.1661E+03  0.9225E+03  0.9220E+03
      2.717  0.1181E+03  0.1168E+03  0.9287E+03  0.9282E+03
      2.770  0.1701E+03  0.1666E+03  0.9377E+03  0.9370E+03
      2.823  0.1208E+03  0.1244E+03  0.9441E+03  0.9436E+03
      2.876  0.1447E+03  0.1418E+03  0.9518E+03  0.9511E+03
      2.929  0.1251E+03  0.1299E+03  0.9585E+03  0.9580E+03
      2.982  0.1049E+03  0.1058E+03  0.9640E+03  0.9636E+03
      3.035  0.1428E+03  0.1379E+03  0.9716E+03  0.9709E+03
      3.088  0.1196E+03  0.1193E+03  0.9779E+03  0.9773E+03
      3.141  0.1147E+03  0.1124E+03  0.9840E+03  0.9832E+03
      3.194  0.1023E+03  0.1038E+03  0.9894E+03  0.9887E+03
      3.247  0.1284E+03  0.1307E+03  0.9962E+03  0.9957E+03
      3.300  0.1204E+03  0.1208E+03  0.1003E+04  0.1002E+04
      3.353  0.6586E+02  0.6555E+02  0.1006E+04  0.1006E+04
      3.406  0.8201E+02  0.8560E+02  0.1010E+04  0.1010E+04
      3.459  0.8053E+02  0.7579E+02  0.1015E+04  0.1014E+04
      3.512  0.1027E+03  0.1028E+03  0.1020E+04  0.1020E+04
      3.565  0.8724E+02  0.9075E+02  0.1025E+04  0.1024E+04
      3.618  0.1089E+03  0.1020E+03  0.1031E+04  0.1030E+04
      3.671  0.6407E+02  0.7215E+02  0.1034E+04  0.1034E+04
      3.724  0.6415E+02  0.6354E+02  0.1037E+04  0.1037E+04
      3.777  0.3407E+02  0.3385E+02  0.1039E+04  0.1039E+04
      3.830  0.6196E+02  0.6573E+02  0.1042E+04  0.1042E+04
      3.883  0.3534E+02  0.3606E+02  0.1044E+04  0.1044E+04
      3.936  0.5750E+02  0.4848E+02  0.1047E+04  0.1047E+04
      3.989  0.6335E+02  0.6694E+02  0.1051E+04  0.1050E+04
      4.042  0.1091E+03  0.9416E+02  0.1056E+04  0.1055E+04
      4.095  0.1070E+03  0.1068E+03  0.1062E+04  0.1061E+04
      4.148  0.9432E+02  0.1036E+03  0.1067E+04  0.1066E+04
      4.201  0.9057E+02  0.8846E+02  0.1072E+04  0.1071E+04
      4.254  0.8669E+02  0.8988E+02  0.1077E+04  0.1076E+04
      4.307  0.1138E+03  0.1093E+03  0.1083E+04  0.1082E+04
      4.360  0.1230E+03  0.1188E+03  0.1089E+04  0.1088E+04
      4.413  0.1099E+03  0.1195E+03  0.1095E+04  0.1094E+04
      4.466  0.1284E+03  0.1262E+03  0.1102E+04  0.1101E+04
      4.519  0.1045E+03  0.1101E+03  0.1107E+04  0.1107E+04
      4.572  0.9853E+02  0.9369E+02  0.1113E+04  0.1112E+04
      4.625  0.1160E+03  0.1162E+03  0.1119E+04  0.1118E+04
      4.678  0.1139E+03  0.1149E+03  0.1125E+04  0.1124E+04
      4.731  0.1046E+03  0.9621E+02  0.1130E+04  0.1129E+04
      4.784  0.1014E+03  0.1120E+03  0.1136E+04  0.1135E+04
      4.837  0.1124E+03  0.1135E+03  0.1142E+04  0.1141E+04
      4.890  0.1444E+03  0.1427E+03  0.1149E+04  0.1149E+04
      4.943  0.1112E+03  0.1072E+03  0.1155E+04  0.1154E+04
      4.996  0.1042E+03  0.1018E+03  0.1161E+04  0.1160E+04
      5.049  0.1444E+03  0.1469E+03  0.1168E+04  0.1167E+04
      5.102  0.1049E+03  0.1082E+03  0.1174E+04  0.1173E+04
      5.155  0.1096E+03  0.1119E+03  0.1180E+04  0.1179E+04
      5.208  0.1215E+03  0.1218E+03  0.1186E+04  0.1186E+04
      5.261  0.9796E+02  0.9760E+02  0.1191E+04  0.1191E+04
      5.314  0.1075E+03  0.1027E+03  0.1197E+04  0.1196E+04
      5.367  0.1219E+03  0.1244E+03  0.1203E+04  0.1203E+04
      5.420  0.1336E+03  0.1326E+03  0.1211E+04  0.1210E+04
      5.473  0.1309E+03  0.1305E+03  0.1217E+04  0.1217E+04
      5.526  0.1578E+03  0.1590E+03  0.1226E+04  0.1225E+04
      5.579  0.1433E+03  0.1450E+03  0.1233E+04  0.1233E+04
      5.632  0.1551E+03  0.1567E+03  0.1242E+04  0.1241E+04
      5.685  0.9858E+02  0.9874E+02  0.1247E+04  0.1246E+04
      5.738  0.1187E+03  0.1194E+03  0.1253E+04  0.1253E+04
      5.791  0.1303E+03  0.1266E+03  0.1260E+04  0.1259E+04
      5.844  0.1242E+03  0.1315E+03  0.1267E+04  0.1266E+04
      5.897  0.8473E+02  0.8272E+02  0.1271E+04  0.1271E+04
      5.950  0.1626E+02  0.2266E+02  0.1272E+04  0.1272E+04
      6.003  0.0000E+00  0.0000E+00  0.1272E+04  0.1272E+04
      6.056  0.0000E+00  0.0000E+00  0.1272E+04  0.1272E+04
      6.109  0.0000E+00  0.0000E+00  0.1272E+04  0.1272E+04
      6.162  0.0000E+00  0.0000E+00  0.1272E+04  0.1272E+04
      6.215  0.0000E+00  0.0000E+00  0.1272E+04  0.1272E+04
      6.268  0.0000E+00  0.0000E+00  0.1272E+04  0.1272E+04
      6.321  0.0000E+00  0.0000E+00  0.1272E+04  0.1272E+04
      6.374  0.0000E+00  0.0000E+00  0.1272E+04  0.1272E+04
      6.427  0.0000E+00  0.0000E+00  0.1272E+04  0.1272E+04
      6.480  0.0000E+00  0.0000E+00  0.1272E+04  0.1272E+04
      6.533  0.0000E+00  0.0000E+00  0.1272E+04  0.1272E+04
      6.586  0.0000E+00  0.0000E+00  0.1272E+04  0.1272E+04
      6.639  0.0000E+00  0.0000E+00  0.1272E+04  0.1272E+04
