  96  96   0   0
  0.2242444E+02  0.1789154E-08  0.1789153E-08  0.1542840E-08  0.5000000E-15
  1.000000000000000E-004
  CAR 
 Si and Ge interface calculation         
      7.03432689    -14.36055656  301      3.73228044      1.00000000
    -14.361  0.0000E+00  0.0000E+00  0.0000E+00  0.0000E+00
    -14.289  0.0000E+00  0.0000E+00  0.0000E+00  0.0000E+00
    -14.218  0.0000E+00  0.0000E+00  0.0000E+00  0.0000E+00
    -14.147  0.0000E+00  0.0000E+00  0.0000E+00  0.0000E+00
    -14.075  0.0000E+00  0.0000E+00  0.0000E+00  0.0000E+00
    -14.004  0.0000E+00  0.0000E+00  0.0000E+00  0.0000E+00
    -13.933  0.0000E+00  0.0000E+00  0.0000E+00  0.0000E+00
    -13.861  0.0000E+00  0.0000E+00  0.0000E+00  0.0000E+00
    -13.790  0.0000E+00  0.0000E+00  0.0000E+00  0.0000E+00
    -13.719  0.0000E+00  0.0000E+00  0.0000E+00  0.0000E+00
    -13.647  0.0000E+00  0.0000E+00  0.0000E+00  0.0000E+00
    -13.576  0.0000E+00  0.0000E+00  0.0000E+00  0.0000E+00
    -13.505  0.0000E+00  0.0000E+00  0.0000E+00  0.0000E+00
    -13.433  0.4827E-09  0.9919E-13  0.3443E-10  0.7074E-14
    -13.362  0.1285E+02  0.9294E+01  0.9168E+00  0.6628E+00
    -13.291  0.1166E+01  0.4682E+01  0.1000E+01  0.1000E+01
    -13.219  0.2664E+02  0.2040E+02  0.2900E+01  0.2455E+01
    -13.148  0.0000E+00  0.7608E+01  0.3000E+01  0.3000E+01
    -13.077  0.0000E+00  0.0000E+00  0.3000E+01  0.3000E+01
    -13.006  0.0000E+00  0.0000E+00  0.3000E+01  0.3000E+01
    -12.934  0.0000E+00  0.0000E+00  0.3000E+01  0.3000E+01
    -12.863  0.6194E-01  0.1027E-02  0.3004E+01  0.3000E+01
    -12.792  0.2798E+02  0.2790E+02  0.5000E+01  0.4990E+01
    -12.720  0.0000E+00  0.0000E+00  0.5000E+01  0.5000E+01
    -12.649  0.0000E+00  0.0000E+00  0.5000E+01  0.5000E+01
    -12.578  0.0000E+00  0.0000E+00  0.5000E+01  0.5000E+01
    -12.506  0.0000E+00  0.0000E+00  0.5000E+01  0.5000E+01
    -12.435  0.0000E+00  0.0000E+00  0.5000E+01  0.5000E+01
    -12.364  0.0000E+00  0.0000E+00  0.5000E+01  0.5000E+01
    -12.292  0.0000E+00  0.0000E+00  0.5000E+01  0.5000E+01
    -12.221  0.3382E+01  0.5954E+00  0.5241E+01  0.5042E+01
    -12.150  0.2466E+02  0.2745E+02  0.7000E+01  0.7000E+01
    -12.078  0.0000E+00  0.0000E+00  0.7000E+01  0.7000E+01
    -12.007  0.0000E+00  0.0000E+00  0.7000E+01  0.7000E+01
    -11.936  0.0000E+00  0.0000E+00  0.7000E+01  0.7000E+01
    -11.864  0.0000E+00  0.0000E+00  0.7000E+01  0.7000E+01
    -11.793  0.1485E-03  0.2780E-05  0.7000E+01  0.7000E+01
    -11.722  0.1400E+02  0.1373E+02  0.7998E+01  0.7979E+01
    -11.651  0.0000E+00  0.0000E+00  0.8000E+01  0.8000E+01
    -11.579  0.0000E+00  0.0000E+00  0.8000E+01  0.8000E+01
    -11.508  0.0000E+00  0.0000E+00  0.8000E+01  0.8000E+01
    -11.437  0.0000E+00  0.0000E+00  0.8000E+01  0.8000E+01
    -11.365  0.0000E+00  0.0000E+00  0.8000E+01  0.8000E+01
    -11.294  0.0000E+00  0.0000E+00  0.8000E+01  0.8000E+01
    -11.223  0.0000E+00  0.0000E+00  0.8000E+01  0.8000E+01
    -11.151  0.0000E+00  0.0000E+00  0.8000E+01  0.8000E+01
    -11.080  0.0000E+00  0.0000E+00  0.8000E+01  0.8000E+01
    -11.009  0.0000E+00  0.0000E+00  0.8000E+01  0.8000E+01
    -10.937  0.0000E+00  0.0000E+00  0.8000E+01  0.8000E+01
    -10.866  0.0000E+00  0.0000E+00  0.8000E+01  0.8000E+01
    -10.795  0.0000E+00  0.0000E+00  0.8000E+01  0.8000E+01
    -10.723  0.0000E+00  0.0000E+00  0.8000E+01  0.8000E+01
    -10.652  0.0000E+00  0.0000E+00  0.8000E+01  0.8000E+01
    -10.581  0.0000E+00  0.0000E+00  0.8000E+01  0.8000E+01
    -10.509  0.0000E+00  0.0000E+00  0.8000E+01  0.8000E+01
    -10.438  0.0000E+00  0.0000E+00  0.8000E+01  0.8000E+01
    -10.367  0.0000E+00  0.0000E+00  0.8000E+01  0.8000E+01
    -10.296  0.0000E+00  0.0000E+00  0.8000E+01  0.8000E+01
    -10.224  0.0000E+00  0.0000E+00  0.8000E+01  0.8000E+01
    -10.153  0.0000E+00  0.0000E+00  0.8000E+01  0.8000E+01
    -10.082  0.1215E-04  0.1088E-08  0.8000E+01  0.8000E+01
    -10.010  0.1402E+02  0.1385E+02  0.9000E+01  0.8988E+01
     -9.939  0.0000E+00  0.0000E+00  0.9000E+01  0.9000E+01
     -9.868  0.0000E+00  0.0000E+00  0.9000E+01  0.9000E+01
     -9.796  0.0000E+00  0.0000E+00  0.9000E+01  0.9000E+01
     -9.725  0.0000E+00  0.0000E+00  0.9000E+01  0.9000E+01
     -9.654  0.0000E+00  0.0000E+00  0.9000E+01  0.9000E+01
     -9.582  0.0000E+00  0.0000E+00  0.9000E+01  0.9000E+01
     -9.511  0.0000E+00  0.0000E+00  0.9000E+01  0.9000E+01
     -9.440  0.0000E+00  0.0000E+00  0.9000E+01  0.9000E+01
     -9.368  0.1190E+02  0.2877E+01  0.9849E+01  0.9205E+01
     -9.297  0.1614E+02  0.2517E+02  0.1100E+02  0.1100E+02
     -9.226  0.0000E+00  0.0000E+00  0.1100E+02  0.1100E+02
     -9.154  0.4137E-02  0.1494E-04  0.1100E+02  0.1100E+02
     -9.083  0.7007E+01  0.7011E+01  0.1150E+02  0.1150E+02
     -9.012  0.8664E+01  0.2782E+01  0.1212E+02  0.1170E+02
     -8.941  0.5146E+01  0.1124E+02  0.1250E+02  0.1250E+02
     -8.869  0.0000E+00  0.0000E+00  0.1250E+02  0.1250E+02
     -8.798  0.5379E-10  0.1031E-13  0.1250E+02  0.1250E+02
     -8.727  0.2055E+01  0.1435E+01  0.1265E+02  0.1260E+02
     -8.655  0.2352E+02  0.2171E+02  0.1433E+02  0.1415E+02
     -8.584  0.9168E+01  0.1057E+02  0.1498E+02  0.1491E+02
     -8.513  0.4835E+01  0.3137E+01  0.1534E+02  0.1514E+02
     -8.441  0.1059E+02  0.1267E+02  0.1610E+02  0.1604E+02
     -8.370  0.1856E+02  0.1847E+02  0.1743E+02  0.1736E+02
     -8.299  0.1069E+02  0.9330E+01  0.1820E+02  0.1805E+02
     -8.227  0.3355E+02  0.3111E+02  0.2059E+02  0.2027E+02
     -8.156  0.1820E+02  0.2076E+02  0.2191E+02  0.2175E+02
     -8.085  0.1796E+02  0.1804E+02  0.2319E+02  0.2304E+02
     -8.013  0.1635E+02  0.1387E+02  0.2436E+02  0.2404E+02
     -7.942  0.1794E+02  0.2058E+02  0.2566E+02  0.2551E+02
     -7.871  0.3244E+02  0.3199E+02  0.2798E+02  0.2780E+02
     -7.799  0.1990E+02  0.2108E+02  0.2942E+02  0.2932E+02
     -7.728  0.1851E+02  0.1704E+02  0.3075E+02  0.3054E+02
     -7.657  0.2646E+02  0.2476E+02  0.3264E+02  0.3231E+02
     -7.586  0.2455E+02  0.2756E+02  0.3441E+02  0.3428E+02
     -7.514  0.2258E+02  0.2129E+02  0.3603E+02  0.3581E+02
     -7.443  0.3375E+02  0.3180E+02  0.3845E+02  0.3809E+02
     -7.372  0.3064E+02  0.3284E+02  0.4065E+02  0.4043E+02
     -7.300  0.1851E+02  0.1979E+02  0.4198E+02  0.4185E+02
     -7.229  0.2332E+02  0.2145E+02  0.4365E+02  0.4339E+02
     -7.158  0.2636E+02  0.2708E+02  0.4554E+02  0.4533E+02
     -7.086  0.2889E+02  0.2793E+02  0.4761E+02  0.4732E+02
     -7.015  0.2708E+02  0.2750E+02  0.4957E+02  0.4929E+02
     -6.944  0.2365E+02  0.2467E+02  0.5128E+02  0.5105E+02
     -6.872  0.3515E+02  0.3610E+02  0.5379E+02  0.5363E+02
     -6.801  0.3279E+02  0.3100E+02  0.5613E+02  0.5586E+02
     -6.730  0.2399E+02  0.2512E+02  0.5785E+02  0.5768E+02
     -6.658  0.4038E+02  0.3646E+02  0.6074E+02  0.6029E+02
     -6.587  0.2898E+02  0.3187E+02  0.6283E+02  0.6258E+02
     -6.516  0.2736E+02  0.2763E+02  0.6478E+02  0.6456E+02
     -6.444  0.3678E+02  0.3502E+02  0.6742E+02  0.6708E+02
     -6.373  0.3884E+02  0.3960E+02  0.7020E+02  0.6991E+02
     -6.302  0.3611E+02  0.3680E+02  0.7280E+02  0.7255E+02
     -6.231  0.3295E+02  0.3179E+02  0.7517E+02  0.7482E+02
     -6.159  0.2872E+02  0.3215E+02  0.7725E+02  0.7713E+02
     -6.088  0.3544E+02  0.3383E+02  0.7978E+02  0.7956E+02
     -6.017  0.1616E+02  0.1659E+02  0.8094E+02  0.8077E+02
     -5.945  0.2399E+02  0.2322E+02  0.8267E+02  0.8242E+02
     -5.874  0.2034E+02  0.2265E+02  0.8414E+02  0.8404E+02
     -5.803  0.1872E+02  0.1688E+02  0.8548E+02  0.8525E+02
     -5.731  0.2318E+02  0.2501E+02  0.8715E+02  0.8704E+02
     -5.660  0.1147E+02  0.1238E+02  0.8797E+02  0.8794E+02
     -5.589  0.2455E+02  0.2314E+02  0.8972E+02  0.8959E+02
     -5.517  0.1444E+02  0.1391E+02  0.9076E+02  0.9061E+02
     -5.446  0.1145E+02  0.1297E+02  0.9158E+02  0.9155E+02
     -5.375  0.1703E+02  0.1507E+02  0.9280E+02  0.9263E+02
     -5.303  0.2438E+02  0.2180E+02  0.9454E+02  0.9420E+02
     -5.232  0.2588E+02  0.2732E+02  0.9641E+02  0.9616E+02
     -5.161  0.2941E+02  0.2731E+02  0.9852E+02  0.9811E+02
     -5.089  0.1276E+02  0.1768E+02  0.9945E+02  0.9938E+02
     -5.018  0.2501E+02  0.2126E+02  0.1012E+03  0.1009E+03
     -4.947  0.2892E+02  0.2885E+02  0.1033E+03  0.1030E+03
     -4.875  0.1620E+02  0.1739E+02  0.1045E+03  0.1042E+03
     -4.804  0.1364E+02  0.1602E+02  0.1055E+03  0.1054E+03
     -4.733  0.2719E+02  0.2457E+02  0.1074E+03  0.1071E+03
     -4.662  0.1881E+02  0.1876E+02  0.1088E+03  0.1085E+03
     -4.590  0.2934E+02  0.2682E+02  0.1109E+03  0.1104E+03
     -4.519  0.2322E+02  0.2901E+02  0.1125E+03  0.1125E+03
     -4.448  0.2543E+02  0.2169E+02  0.1143E+03  0.1140E+03
     -4.376  0.2209E+02  0.2518E+02  0.1159E+03  0.1158E+03
     -4.305  0.1626E+02  0.1464E+02  0.1171E+03  0.1169E+03
     -4.234  0.3058E+02  0.3078E+02  0.1193E+03  0.1191E+03
     -4.162  0.3083E+02  0.3055E+02  0.1215E+03  0.1213E+03
     -4.091  0.2907E+02  0.2823E+02  0.1236E+03  0.1233E+03
     -4.020  0.3422E+02  0.3533E+02  0.1260E+03  0.1258E+03
     -3.948  0.3408E+02  0.3161E+02  0.1285E+03  0.1281E+03
     -3.877  0.2508E+02  0.2696E+02  0.1303E+03  0.1301E+03
     -3.806  0.1924E+02  0.2054E+02  0.1316E+03  0.1315E+03
     -3.734  0.2113E+02  0.2115E+02  0.1331E+03  0.1330E+03
     -3.663  0.3404E+02  0.3161E+02  0.1356E+03  0.1353E+03
     -3.592  0.3003E+02  0.2972E+02  0.1377E+03  0.1374E+03
     -3.520  0.3908E+02  0.3929E+02  0.1405E+03  0.1402E+03
     -3.449  0.2761E+02  0.2886E+02  0.1425E+03  0.1423E+03
     -3.378  0.2702E+02  0.2579E+02  0.1444E+03  0.1442E+03
     -3.307  0.2630E+02  0.2626E+02  0.1463E+03  0.1461E+03
     -3.235  0.3202E+02  0.3246E+02  0.1486E+03  0.1484E+03
     -3.164  0.2297E+02  0.2284E+02  0.1503E+03  0.1500E+03
     -3.093  0.2657E+02  0.2555E+02  0.1522E+03  0.1519E+03
     -3.021  0.1535E+02  0.1651E+02  0.1533E+03  0.1530E+03
     -2.950  0.2194E+02  0.2163E+02  0.1549E+03  0.1546E+03
     -2.879  0.2663E+02  0.2815E+02  0.1568E+03  0.1566E+03
     -2.807  0.1800E+02  0.1772E+02  0.1581E+03  0.1579E+03
     -2.736  0.3021E+02  0.2803E+02  0.1602E+03  0.1599E+03
     -2.665  0.3135E+02  0.3394E+02  0.1625E+03  0.1623E+03
     -2.593  0.2368E+02  0.2278E+02  0.1642E+03  0.1640E+03
     -2.522  0.2065E+02  0.2173E+02  0.1657E+03  0.1655E+03
     -2.451  0.2053E+02  0.2081E+02  0.1671E+03  0.1670E+03
     -2.379  0.3247E+02  0.2996E+02  0.1694E+03  0.1691E+03
     -2.308  0.2131E+02  0.2293E+02  0.1710E+03  0.1708E+03
     -2.237  0.2018E+02  0.2012E+02  0.1724E+03  0.1723E+03
     -2.165  0.2817E+02  0.2351E+02  0.1744E+03  0.1740E+03
     -2.094  0.2855E+02  0.3032E+02  0.1765E+03  0.1761E+03
     -2.023  0.3440E+02  0.3546E+02  0.1790E+03  0.1787E+03
     -1.952  0.2580E+02  0.2606E+02  0.1808E+03  0.1805E+03
     -1.880  0.3237E+02  0.3097E+02  0.1831E+03  0.1827E+03
     -1.809  0.2317E+02  0.2323E+02  0.1848E+03  0.1844E+03
     -1.738  0.2062E+02  0.2205E+02  0.1863E+03  0.1860E+03
     -1.666  0.3265E+02  0.3318E+02  0.1886E+03  0.1883E+03
     -1.595  0.1829E+02  0.1861E+02  0.1899E+03  0.1897E+03
     -1.524  0.3354E+02  0.3052E+02  0.1923E+03  0.1919E+03
     -1.452  0.3463E+02  0.3427E+02  0.1948E+03  0.1943E+03
     -1.381  0.1869E+02  0.2274E+02  0.1961E+03  0.1959E+03
     -1.310  0.1049E+02  0.1207E+02  0.1969E+03  0.1968E+03
     -1.238  0.1543E+02  0.1533E+02  0.1980E+03  0.1979E+03
     -1.167  0.2111E+02  0.2134E+02  0.1995E+03  0.1994E+03
     -1.096  0.1735E+02  0.1597E+02  0.2008E+03  0.2006E+03
     -1.024  0.1577E+02  0.1573E+02  0.2019E+03  0.2017E+03
     -0.953  0.2598E+02  0.2532E+02  0.2037E+03  0.2035E+03
     -0.882  0.2422E+02  0.2502E+02  0.2055E+03  0.2053E+03
     -0.810  0.1999E+02  0.1916E+02  0.2069E+03  0.2067E+03
     -0.739  0.2239E+02  0.2319E+02  0.2085E+03  0.2083E+03
     -0.668  0.1258E+02  0.1196E+02  0.2094E+03  0.2092E+03
     -0.597  0.1250E+02  0.1406E+02  0.2103E+03  0.2102E+03
     -0.525  0.3126E+02  0.2794E+02  0.2126E+03  0.2122E+03
     -0.454  0.2505E+02  0.2729E+02  0.2143E+03  0.2142E+03
     -0.383  0.4288E+02  0.4136E+02  0.2174E+03  0.2171E+03
     -0.311  0.3268E+02  0.3397E+02  0.2198E+03  0.2196E+03
     -0.240  0.2808E+02  0.2870E+02  0.2218E+03  0.2216E+03
     -0.169  0.3028E+02  0.2863E+02  0.2239E+03  0.2237E+03
     -0.097  0.3088E+02  0.3226E+02  0.2262E+03  0.2260E+03
     -0.026  0.2868E+02  0.2673E+02  0.2282E+03  0.2279E+03
      0.045  0.4562E+02  0.4289E+02  0.2315E+03  0.2310E+03
      0.117  0.3742E+02  0.4112E+02  0.2342E+03  0.2339E+03
      0.188  0.3892E+02  0.3925E+02  0.2369E+03  0.2367E+03
      0.259  0.4009E+02  0.3800E+02  0.2398E+03  0.2394E+03
      0.331  0.3830E+02  0.3784E+02  0.2426E+03  0.2422E+03
      0.402  0.4637E+02  0.4714E+02  0.2459E+03  0.2455E+03
      0.473  0.4596E+02  0.4688E+02  0.2492E+03  0.2489E+03
      0.545  0.4719E+02  0.4504E+02  0.2526E+03  0.2521E+03
      0.616  0.4792E+02  0.5015E+02  0.2560E+03  0.2557E+03
      0.687  0.5594E+02  0.5326E+02  0.2600E+03  0.2595E+03
      0.758  0.4172E+02  0.4113E+02  0.2630E+03  0.2625E+03
      0.830  0.5773E+02  0.5843E+02  0.2671E+03  0.2666E+03
      0.901  0.5484E+02  0.5759E+02  0.2711E+03  0.2708E+03
      0.972  0.5862E+02  0.5751E+02  0.2752E+03  0.2749E+03
      1.044  0.4843E+02  0.4786E+02  0.2787E+03  0.2783E+03
      1.115  0.5153E+02  0.5222E+02  0.2824E+03  0.2821E+03
      1.186  0.4635E+02  0.4666E+02  0.2857E+03  0.2854E+03
      1.258  0.4649E+02  0.4291E+02  0.2890E+03  0.2885E+03
      1.329  0.5716E+02  0.5965E+02  0.2931E+03  0.2928E+03
      1.400  0.4822E+02  0.4708E+02  0.2966E+03  0.2961E+03
      1.472  0.4120E+02  0.4418E+02  0.2995E+03  0.2993E+03
      1.543  0.5004E+02  0.4652E+02  0.3031E+03  0.3026E+03
      1.614  0.4617E+02  0.4664E+02  0.3064E+03  0.3060E+03
      1.686  0.4240E+02  0.4497E+02  0.3095E+03  0.3092E+03
      1.757  0.4637E+02  0.4400E+02  0.3128E+03  0.3124E+03
      1.828  0.4450E+02  0.4623E+02  0.3160E+03  0.3157E+03
      1.900  0.4169E+02  0.3881E+02  0.3190E+03  0.3185E+03
      1.971  0.4506E+02  0.4665E+02  0.3222E+03  0.3218E+03
      2.042  0.3922E+02  0.3934E+02  0.3250E+03  0.3246E+03
      2.114  0.5035E+02  0.4968E+02  0.3286E+03  0.3282E+03
      2.185  0.3260E+02  0.3321E+02  0.3310E+03  0.3306E+03
      2.256  0.3158E+02  0.3327E+02  0.3332E+03  0.3329E+03
      2.327  0.3183E+02  0.3258E+02  0.3355E+03  0.3353E+03
      2.399  0.3504E+02  0.3390E+02  0.3380E+03  0.3377E+03
      2.470  0.1616E+02  0.1809E+02  0.3392E+03  0.3390E+03
      2.541  0.2783E+02  0.2631E+02  0.3412E+03  0.3409E+03
      2.613  0.3016E+02  0.2790E+02  0.3434E+03  0.3429E+03
      2.684  0.3573E+02  0.3305E+02  0.3460E+03  0.3453E+03
      2.755  0.2732E+02  0.3383E+02  0.3479E+03  0.3477E+03
      2.827  0.2732E+02  0.2578E+02  0.3499E+03  0.3495E+03
      2.898  0.3377E+02  0.3111E+02  0.3523E+03  0.3517E+03
      2.969  0.3299E+02  0.3410E+02  0.3547E+03  0.3542E+03
      3.041  0.4356E+02  0.4111E+02  0.3578E+03  0.3571E+03
      3.112  0.4478E+02  0.4613E+02  0.3610E+03  0.3604E+03
      3.183  0.3916E+02  0.3600E+02  0.3638E+03  0.3630E+03
      3.255  0.4032E+02  0.4443E+02  0.3667E+03  0.3662E+03
      3.326  0.4158E+02  0.3721E+02  0.3696E+03  0.3688E+03
      3.397  0.3184E+02  0.3368E+02  0.3719E+03  0.3713E+03
      3.469  0.3581E+02  0.3399E+02  0.3745E+03  0.3737E+03
      3.540  0.3580E+02  0.3767E+02  0.3771E+03  0.3764E+03
      3.611  0.3294E+02  0.3496E+02  0.3794E+03  0.3789E+03
      3.682  0.3074E+02  0.2997E+02  0.3816E+03  0.3811E+03
      3.754  0.4085E+02  0.3913E+02  0.3846E+03  0.3839E+03
      3.825  0.3045E+02  0.2888E+02  0.3867E+03  0.3859E+03
      3.896  0.3503E+02  0.3792E+02  0.3893E+03  0.3887E+03
      3.968  0.5218E+02  0.4650E+02  0.3930E+03  0.3920E+03
      4.039  0.3481E+02  0.3991E+02  0.3955E+03  0.3949E+03
      4.110  0.3613E+02  0.3519E+02  0.3981E+03  0.3974E+03
      4.182  0.4774E+02  0.4659E+02  0.4015E+03  0.4007E+03
      4.253  0.3222E+02  0.3728E+02  0.4038E+03  0.4034E+03
      4.324  0.3771E+02  0.3721E+02  0.4065E+03  0.4061E+03
      4.396  0.3449E+02  0.3560E+02  0.4090E+03  0.4086E+03
      4.467  0.3394E+02  0.3322E+02  0.4114E+03  0.4110E+03
      4.538  0.3025E+02  0.3186E+02  0.4136E+03  0.4133E+03
      4.610  0.3275E+02  0.3039E+02  0.4159E+03  0.4155E+03
      4.681  0.3119E+02  0.3086E+02  0.4182E+03  0.4177E+03
      4.752  0.3695E+02  0.3912E+02  0.4208E+03  0.4205E+03
      4.824  0.2926E+02  0.2946E+02  0.4229E+03  0.4226E+03
      4.895  0.3647E+02  0.3618E+02  0.4255E+03  0.4252E+03
      4.966  0.3572E+02  0.3283E+02  0.4281E+03  0.4275E+03
      5.037  0.4655E+02  0.4843E+02  0.4314E+03  0.4310E+03
      5.109  0.3646E+02  0.3528E+02  0.4341E+03  0.4335E+03
      5.180  0.3907E+02  0.4158E+02  0.4369E+03  0.4365E+03
      5.251  0.4288E+02  0.3944E+02  0.4399E+03  0.4393E+03
      5.323  0.3678E+02  0.4071E+02  0.4426E+03  0.4422E+03
      5.394  0.3566E+02  0.3431E+02  0.4451E+03  0.4447E+03
      5.465  0.3081E+02  0.2804E+02  0.4473E+03  0.4467E+03
      5.537  0.4011E+02  0.4552E+02  0.4502E+03  0.4499E+03
      5.608  0.2590E+02  0.2478E+02  0.4521E+03  0.4517E+03
      5.679  0.2745E+02  0.3094E+02  0.4541E+03  0.4539E+03
      5.751  0.4043E+02  0.3821E+02  0.4570E+03  0.4567E+03
      5.822  0.3902E+02  0.3877E+02  0.4598E+03  0.4594E+03
      5.893  0.3334E+02  0.3030E+02  0.4621E+03  0.4616E+03
      5.965  0.1591E+02  0.2253E+02  0.4633E+03  0.4632E+03
      6.036  0.9046E+01  0.9718E+01  0.4639E+03  0.4639E+03
      6.107  0.8763E+00  0.1025E+01  0.4640E+03  0.4640E+03
      6.179  0.0000E+00  0.0000E+00  0.4640E+03  0.4640E+03
      6.250  0.0000E+00  0.0000E+00  0.4640E+03  0.4640E+03
      6.321  0.0000E+00  0.0000E+00  0.4640E+03  0.4640E+03
      6.392  0.0000E+00  0.0000E+00  0.4640E+03  0.4640E+03
      6.464  0.0000E+00  0.0000E+00  0.4640E+03  0.4640E+03
      6.535  0.0000E+00  0.0000E+00  0.4640E+03  0.4640E+03
      6.606  0.0000E+00  0.0000E+00  0.4640E+03  0.4640E+03
      6.678  0.0000E+00  0.0000E+00  0.4640E+03  0.4640E+03
      6.749  0.0000E+00  0.0000E+00  0.4640E+03  0.4640E+03
      6.820  0.0000E+00  0.0000E+00  0.4640E+03  0.4640E+03
      6.892  0.0000E+00  0.0000E+00  0.4640E+03  0.4640E+03
      6.963  0.0000E+00  0.0000E+00  0.4640E+03  0.4640E+03
      7.034  0.0000E+00  0.0000E+00  0.4640E+03  0.4640E+03
