 228 228   0   0
  0.2256881E+02  0.1697340E-08  0.1697340E-08  0.1786100E-08  0.5000000E-15
  1.000000000000000E-004
  CAR 
 Si and Ge interface calculation         
      7.16430637     -8.86592510  301      4.30477748      1.00000000
     -8.866  0.0000E+00  0.0000E+00  0.0000E+00  0.0000E+00
     -8.812  0.0000E+00  0.0000E+00  0.0000E+00  0.0000E+00
     -8.759  0.0000E+00  0.0000E+00  0.0000E+00  0.0000E+00
     -8.706  0.0000E+00  0.0000E+00  0.0000E+00  0.0000E+00
     -8.652  0.0000E+00  0.0000E+00  0.0000E+00  0.0000E+00
     -8.599  0.0000E+00  0.0000E+00  0.0000E+00  0.0000E+00
     -8.545  0.0000E+00  0.0000E+00  0.0000E+00  0.0000E+00
     -8.492  0.0000E+00  0.0000E+00  0.0000E+00  0.0000E+00
     -8.438  0.0000E+00  0.0000E+00  0.0000E+00  0.0000E+00
     -8.385  0.0000E+00  0.0000E+00  0.0000E+00  0.0000E+00
     -8.332  0.0000E+00  0.0000E+00  0.0000E+00  0.0000E+00
     -8.278  0.0000E+00  0.0000E+00  0.0000E+00  0.0000E+00
     -8.225  0.0000E+00  0.0000E+00  0.0000E+00  0.0000E+00
     -8.171  0.3555E-05  0.6425E-06  0.1899E-06  0.3433E-07
     -8.118  0.9025E+01  0.8754E+01  0.4823E+00  0.4677E+00
     -8.064  0.3319E+00  0.6037E+00  0.5000E+00  0.5000E+00
     -8.011  0.3597E+02  0.3484E+02  0.2422E+01  0.2362E+01
     -7.958  0.6166E+01  0.6665E+01  0.2751E+01  0.2718E+01
     -7.904  0.1798E+02  0.1744E+02  0.3712E+01  0.3650E+01
     -7.851  0.1474E+02  0.1591E+02  0.4500E+01  0.4500E+01
     -7.797  0.1066E-07  0.2499E-08  0.4500E+01  0.4500E+01
     -7.744  0.8712E+01  0.7331E+01  0.4966E+01  0.4892E+01
     -7.690  0.1634E+02  0.1685E+02  0.5839E+01  0.5792E+01
     -7.637  0.3587E+02  0.3296E+02  0.7755E+01  0.7553E+01
     -7.584  0.7867E+02  0.8033E+02  0.1196E+02  0.1185E+02
     -7.530  0.2960E+02  0.3130E+02  0.1354E+02  0.1352E+02
     -7.477  0.8895E+01  0.9125E+01  0.1402E+02  0.1401E+02
     -7.423  0.1736E+02  0.1686E+02  0.1494E+02  0.1491E+02
     -7.370  0.7108E+01  0.6996E+01  0.1532E+02  0.1528E+02
     -7.316  0.1813E+02  0.1850E+02  0.1629E+02  0.1627E+02
     -7.263  0.5981E+02  0.5968E+02  0.1949E+02  0.1946E+02
     -7.209  0.3362E+02  0.3144E+02  0.2128E+02  0.2114E+02
     -7.156  0.8002E+02  0.8027E+02  0.2556E+02  0.2543E+02
     -7.103  0.5326E+02  0.5351E+02  0.2841E+02  0.2829E+02
     -7.049  0.5692E+02  0.5368E+02  0.3145E+02  0.3115E+02
     -6.996  0.3338E+02  0.3857E+02  0.3323E+02  0.3322E+02
     -6.942  0.9741E+01  0.9917E+01  0.3375E+02  0.3375E+02
     -6.889  0.6176E+02  0.5743E+02  0.3705E+02  0.3681E+02
     -6.835  0.6676E+02  0.6438E+02  0.4062E+02  0.4025E+02
     -6.782  0.6771E+02  0.7268E+02  0.4424E+02  0.4414E+02
     -6.729  0.3144E+02  0.3101E+02  0.4592E+02  0.4579E+02
     -6.675  0.8274E+02  0.8045E+02  0.5034E+02  0.5009E+02
     -6.622  0.4338E+02  0.4662E+02  0.5266E+02  0.5258E+02
     -6.568  0.5204E+02  0.4951E+02  0.5544E+02  0.5523E+02
     -6.515  0.6227E+02  0.6190E+02  0.5876E+02  0.5854E+02
     -6.461  0.8648E+02  0.8114E+02  0.6338E+02  0.6287E+02
     -6.408  0.8546E+02  0.9101E+02  0.6795E+02  0.6774E+02
     -6.355  0.8475E+02  0.8632E+02  0.7248E+02  0.7235E+02
     -6.301  0.1005E+03  0.9997E+02  0.7785E+02  0.7769E+02
     -6.248  0.8289E+02  0.8330E+02  0.8228E+02  0.8214E+02
     -6.194  0.8280E+02  0.8058E+02  0.8670E+02  0.8645E+02
     -6.141  0.6937E+02  0.7145E+02  0.9041E+02  0.9027E+02
     -6.087  0.3845E+02  0.3955E+02  0.9246E+02  0.9238E+02
     -6.034  0.6987E+02  0.6701E+02  0.9620E+02  0.9596E+02
     -5.980  0.9084E+02  0.8859E+02  0.1011E+03  0.1007E+03
     -5.927  0.6400E+02  0.6769E+02  0.1045E+03  0.1043E+03
     -5.874  0.4970E+02  0.4908E+02  0.1071E+03  0.1069E+03
     -5.820  0.7049E+02  0.6918E+02  0.1109E+03  0.1106E+03
     -5.767  0.7903E+02  0.7970E+02  0.1151E+03  0.1149E+03
     -5.713  0.8008E+02  0.7882E+02  0.1194E+03  0.1191E+03
     -5.660  0.9529E+02  0.9642E+02  0.1245E+03  0.1243E+03
     -5.606  0.4054E+02  0.4317E+02  0.1267E+03  0.1266E+03
     -5.553  0.1037E+03  0.9607E+02  0.1322E+03  0.1317E+03
     -5.500  0.1086E+03  0.1129E+03  0.1380E+03  0.1377E+03
     -5.446  0.8195E+02  0.8084E+02  0.1424E+03  0.1420E+03
     -5.393  0.4465E+02  0.4833E+02  0.1448E+03  0.1446E+03
     -5.339  0.5192E+02  0.5179E+02  0.1475E+03  0.1474E+03
     -5.286  0.9063E+02  0.8880E+02  0.1524E+03  0.1521E+03
     -5.232  0.9037E+02  0.8697E+02  0.1572E+03  0.1568E+03
     -5.179  0.9433E+02  0.9480E+02  0.1622E+03  0.1619E+03
     -5.126  0.5506E+02  0.5691E+02  0.1652E+03  0.1649E+03
     -5.072  0.6524E+02  0.6688E+02  0.1687E+03  0.1685E+03
     -5.019  0.6110E+02  0.6029E+02  0.1719E+03  0.1717E+03
     -4.965  0.6857E+02  0.6740E+02  0.1756E+03  0.1753E+03
     -4.912  0.8376E+02  0.8177E+02  0.1801E+03  0.1797E+03
     -4.858  0.6024E+02  0.6542E+02  0.1833E+03  0.1832E+03
     -4.805  0.4838E+02  0.4628E+02  0.1859E+03  0.1856E+03
     -4.751  0.5037E+02  0.5178E+02  0.1886E+03  0.1884E+03
     -4.698  0.6097E+02  0.5967E+02  0.1918E+03  0.1916E+03
     -4.645  0.5987E+02  0.6255E+02  0.1950E+03  0.1949E+03
     -4.591  0.4703E+02  0.4578E+02  0.1975E+03  0.1974E+03
     -4.538  0.6224E+02  0.6277E+02  0.2009E+03  0.2007E+03
     -4.484  0.6763E+02  0.6651E+02  0.2045E+03  0.2043E+03
     -4.431  0.6173E+02  0.6266E+02  0.2078E+03  0.2076E+03
     -4.377  0.6190E+02  0.6089E+02  0.2111E+03  0.2109E+03
     -4.324  0.5825E+02  0.5851E+02  0.2142E+03  0.2140E+03
     -4.271  0.1494E+02  0.1848E+02  0.2150E+03  0.2150E+03
     -4.217  0.3893E+02  0.3708E+02  0.2171E+03  0.2170E+03
     -4.164  0.5203E+02  0.5051E+02  0.2199E+03  0.2197E+03
     -4.110  0.3874E+02  0.4012E+02  0.2219E+03  0.2218E+03
     -4.057  0.1998E+02  0.2202E+02  0.2230E+03  0.2230E+03
     -4.003  0.4945E+02  0.4318E+02  0.2256E+03  0.2253E+03
     -3.950  0.6893E+02  0.7031E+02  0.2293E+03  0.2291E+03
     -3.897  0.2309E+02  0.2729E+02  0.2306E+03  0.2305E+03
     -3.843  0.3913E+02  0.3568E+02  0.2327E+03  0.2324E+03
     -3.790  0.3435E+02  0.3392E+02  0.2345E+03  0.2342E+03
     -3.736  0.4202E+02  0.4597E+02  0.2367E+03  0.2367E+03
     -3.683  0.1965E+02  0.1952E+02  0.2378E+03  0.2377E+03
     -3.629  0.3770E+02  0.3471E+02  0.2398E+03  0.2396E+03
     -3.576  0.4621E+02  0.4678E+02  0.2423E+03  0.2421E+03
     -3.523  0.1951E+02  0.1935E+02  0.2433E+03  0.2431E+03
     -3.469  0.7532E+02  0.6798E+02  0.2473E+03  0.2468E+03
     -3.416  0.1117E+03  0.1158E+03  0.2533E+03  0.2529E+03
     -3.362  0.8831E+02  0.8776E+02  0.2580E+03  0.2576E+03
     -3.309  0.5264E+02  0.5513E+02  0.2608E+03  0.2606E+03
     -3.255  0.9976E+02  0.9867E+02  0.2662E+03  0.2659E+03
     -3.202  0.6932E+02  0.6712E+02  0.2699E+03  0.2694E+03
     -3.148  0.9436E+02  0.9306E+02  0.2749E+03  0.2744E+03
     -3.095  0.6569E+02  0.7091E+02  0.2784E+03  0.2782E+03
     -3.042  0.9031E+02  0.8801E+02  0.2832E+03  0.2829E+03
     -2.988  0.7534E+02  0.7670E+02  0.2873E+03  0.2870E+03
     -2.935  0.6164E+02  0.6162E+02  0.2906E+03  0.2903E+03
     -2.881  0.8724E+02  0.8770E+02  0.2952E+03  0.2950E+03
     -2.828  0.5276E+02  0.5395E+02  0.2980E+03  0.2979E+03
     -2.774  0.7307E+02  0.6841E+02  0.3019E+03  0.3015E+03
     -2.721  0.8513E+02  0.8840E+02  0.3065E+03  0.3062E+03
     -2.668  0.6133E+02  0.6295E+02  0.3098E+03  0.3096E+03
     -2.614  0.7323E+02  0.7307E+02  0.3137E+03  0.3135E+03
     -2.561  0.5878E+02  0.5950E+02  0.3168E+03  0.3167E+03
     -2.507  0.5591E+02  0.5176E+02  0.3198E+03  0.3195E+03
     -2.454  0.7671E+02  0.7834E+02  0.3239E+03  0.3236E+03
     -2.400  0.6048E+02  0.6316E+02  0.3271E+03  0.3270E+03
     -2.347  0.7752E+02  0.7416E+02  0.3313E+03  0.3310E+03
     -2.294  0.1076E+03  0.1097E+03  0.3370E+03  0.3368E+03
     -2.240  0.7423E+02  0.7097E+02  0.3410E+03  0.3406E+03
     -2.187  0.9715E+02  0.9744E+02  0.3462E+03  0.3458E+03
     -2.133  0.4840E+02  0.5398E+02  0.3488E+03  0.3487E+03
     -2.080  0.6368E+02  0.5955E+02  0.3522E+03  0.3519E+03
     -2.026  0.5396E+02  0.5618E+02  0.3551E+03  0.3549E+03
     -1.973  0.5720E+02  0.5407E+02  0.3581E+03  0.3578E+03
     -1.919  0.7346E+02  0.7233E+02  0.3621E+03  0.3617E+03
     -1.866  0.9467E+02  0.9671E+02  0.3671E+03  0.3668E+03
     -1.813  0.3450E+02  0.3732E+02  0.3690E+03  0.3688E+03
     -1.759  0.3880E+02  0.3852E+02  0.3710E+03  0.3709E+03
     -1.706  0.2881E+02  0.3034E+02  0.3726E+03  0.3725E+03
     -1.652  0.8235E+02  0.8114E+02  0.3770E+03  0.3768E+03
     -1.599  0.3337E+02  0.3321E+02  0.3787E+03  0.3786E+03
     -1.545  0.5168E+02  0.5009E+02  0.3815E+03  0.3813E+03
     -1.492  0.3659E+02  0.3870E+02  0.3835E+03  0.3834E+03
     -1.439  0.3776E+02  0.3602E+02  0.3855E+03  0.3853E+03
     -1.385  0.3705E+02  0.3779E+02  0.3875E+03  0.3873E+03
     -1.332  0.2271E+02  0.2268E+02  0.3887E+03  0.3885E+03
     -1.278  0.4576E+02  0.4614E+02  0.3911E+03  0.3910E+03
     -1.225  0.3559E+02  0.3559E+02  0.3930E+03  0.3929E+03
     -1.171  0.9406E+02  0.9546E+02  0.3980E+03  0.3980E+03
     -1.118  0.4580E+02  0.4377E+02  0.4005E+03  0.4003E+03
     -1.065  0.3262E+02  0.3230E+02  0.4022E+03  0.4020E+03
     -1.011  0.3815E+02  0.4137E+02  0.4043E+03  0.4043E+03
     -0.958  0.2833E+02  0.2772E+02  0.4058E+03  0.4057E+03
     -0.904  0.6517E+02  0.6180E+02  0.4093E+03  0.4090E+03
     -0.851  0.1841E+02  0.2264E+02  0.4103E+03  0.4103E+03
     -0.797  0.4345E+02  0.4067E+02  0.4126E+03  0.4124E+03
     -0.744  0.2558E+02  0.2645E+02  0.4139E+03  0.4138E+03
     -0.691  0.2268E+02  0.2254E+02  0.4152E+03  0.4150E+03
     -0.637  0.4877E+02  0.5077E+02  0.4178E+03  0.4178E+03
     -0.584  0.2498E+02  0.2323E+02  0.4191E+03  0.4190E+03
     -0.530  0.1098E+02  0.1108E+02  0.4197E+03  0.4196E+03
     -0.477  0.3540E+02  0.3600E+02  0.4216E+03  0.4215E+03
     -0.423  0.2707E+02  0.2492E+02  0.4230E+03  0.4228E+03
     -0.370  0.4386E+02  0.4156E+02  0.4254E+03  0.4251E+03
     -0.316  0.2138E+02  0.2687E+02  0.4265E+03  0.4265E+03
     -0.263  0.3622E+02  0.3271E+02  0.4284E+03  0.4282E+03
     -0.210  0.4389E+02  0.4446E+02  0.4308E+03  0.4306E+03
     -0.156  0.5939E+02  0.6030E+02  0.4340E+03  0.4338E+03
     -0.103  0.3771E+02  0.3899E+02  0.4360E+03  0.4359E+03
     -0.049  0.5055E+02  0.4290E+02  0.4387E+03  0.4382E+03
      0.004  0.6329E+02  0.6975E+02  0.4421E+03  0.4419E+03
      0.058  0.9789E+02  0.9331E+02  0.4473E+03  0.4469E+03
      0.111  0.1078E+03  0.1098E+03  0.4531E+03  0.4528E+03
      0.164  0.5879E+02  0.5738E+02  0.4562E+03  0.4559E+03
      0.218  0.1241E+03  0.1178E+03  0.4628E+03  0.4622E+03
      0.271  0.1390E+03  0.1431E+03  0.4702E+03  0.4698E+03
      0.325  0.1273E+03  0.1251E+03  0.4770E+03  0.4765E+03
      0.378  0.1008E+03  0.1032E+03  0.4824E+03  0.4820E+03
      0.432  0.1406E+03  0.1420E+03  0.4899E+03  0.4896E+03
      0.485  0.6334E+02  0.6401E+02  0.4933E+03  0.4930E+03
      0.538  0.1568E+03  0.1499E+03  0.5017E+03  0.5010E+03
      0.592  0.1527E+03  0.1543E+03  0.5099E+03  0.5093E+03
      0.645  0.1408E+03  0.1390E+03  0.5174E+03  0.5167E+03
      0.699  0.1372E+03  0.1392E+03  0.5247E+03  0.5241E+03
      0.752  0.1506E+03  0.1514E+03  0.5328E+03  0.5322E+03
      0.806  0.1121E+03  0.1129E+03  0.5388E+03  0.5383E+03
      0.859  0.1281E+03  0.1298E+03  0.5456E+03  0.5452E+03
      0.913  0.1602E+03  0.1571E+03  0.5542E+03  0.5536E+03
      0.966  0.1269E+03  0.1296E+03  0.5609E+03  0.5605E+03
      1.019  0.1106E+03  0.1132E+03  0.5669E+03  0.5666E+03
      1.073  0.1021E+03  0.9922E+02  0.5723E+03  0.5719E+03
      1.126  0.1340E+03  0.1345E+03  0.5795E+03  0.5791E+03
      1.180  0.1375E+03  0.1389E+03  0.5868E+03  0.5865E+03
      1.233  0.1391E+03  0.1410E+03  0.5943E+03  0.5940E+03
      1.287  0.1790E+03  0.1730E+03  0.6038E+03  0.6033E+03
      1.340  0.1489E+03  0.1552E+03  0.6118E+03  0.6116E+03
      1.393  0.1270E+03  0.1225E+03  0.6186E+03  0.6181E+03
      1.447  0.1143E+03  0.1157E+03  0.6247E+03  0.6243E+03
      1.500  0.1212E+03  0.1216E+03  0.6312E+03  0.6308E+03
      1.554  0.1605E+03  0.1603E+03  0.6397E+03  0.6393E+03
      1.607  0.1691E+03  0.1649E+03  0.6488E+03  0.6482E+03
      1.661  0.1528E+03  0.1585E+03  0.6569E+03  0.6566E+03
      1.714  0.1161E+03  0.1168E+03  0.6631E+03  0.6629E+03
      1.767  0.1249E+03  0.1212E+03  0.6698E+03  0.6693E+03
      1.821  0.1795E+03  0.1820E+03  0.6794E+03  0.6791E+03
      1.874  0.1117E+03  0.1086E+03  0.6854E+03  0.6849E+03
      1.928  0.1125E+03  0.1123E+03  0.6914E+03  0.6909E+03
      1.981  0.1289E+03  0.1312E+03  0.6983E+03  0.6979E+03
      2.035  0.1088E+03  0.1092E+03  0.7041E+03  0.7037E+03
      2.088  0.9048E+02  0.9010E+02  0.7089E+03  0.7085E+03
      2.142  0.1440E+03  0.1332E+03  0.7166E+03  0.7156E+03
      2.195  0.1816E+03  0.1880E+03  0.7263E+03  0.7257E+03
      2.248  0.1260E+03  0.1298E+03  0.7330E+03  0.7326E+03
      2.302  0.1296E+03  0.1315E+03  0.7400E+03  0.7397E+03
      2.355  0.1222E+03  0.1185E+03  0.7465E+03  0.7460E+03
      2.409  0.1396E+03  0.1368E+03  0.7540E+03  0.7533E+03
      2.462  0.1319E+03  0.1327E+03  0.7610E+03  0.7604E+03
      2.516  0.1104E+03  0.1115E+03  0.7669E+03  0.7663E+03
      2.569  0.1047E+03  0.1040E+03  0.7725E+03  0.7719E+03
      2.622  0.1553E+03  0.1576E+03  0.7808E+03  0.7803E+03
      2.676  0.9156E+02  0.9129E+02  0.7857E+03  0.7852E+03
      2.729  0.1287E+03  0.1275E+03  0.7926E+03  0.7920E+03
      2.783  0.1124E+03  0.1123E+03  0.7986E+03  0.7980E+03
      2.836  0.1266E+03  0.1223E+03  0.8053E+03  0.8045E+03
      2.890  0.1395E+03  0.1495E+03  0.8128E+03  0.8125E+03
      2.943  0.1255E+03  0.1252E+03  0.8195E+03  0.8192E+03
      2.996  0.1192E+03  0.1198E+03  0.8259E+03  0.8256E+03
      3.050  0.7747E+02  0.6914E+02  0.8300E+03  0.8293E+03
      3.103  0.1077E+03  0.1140E+03  0.8358E+03  0.8354E+03
      3.157  0.7259E+02  0.7099E+02  0.8396E+03  0.8392E+03
      3.210  0.7407E+02  0.7662E+02  0.8436E+03  0.8433E+03
      3.264  0.5612E+02  0.5121E+02  0.8466E+03  0.8460E+03
      3.317  0.9316E+02  0.9550E+02  0.8516E+03  0.8511E+03
      3.370  0.9465E+02  0.9055E+02  0.8566E+03  0.8560E+03
      3.424  0.1133E+03  0.1108E+03  0.8627E+03  0.8619E+03
      3.477  0.8240E+02  0.8812E+02  0.8671E+03  0.8666E+03
      3.531  0.5777E+02  0.5931E+02  0.8702E+03  0.8698E+03
      3.584  0.8606E+02  0.8908E+02  0.8748E+03  0.8745E+03
      3.638  0.4175E+02  0.4353E+02  0.8770E+03  0.8769E+03
      3.691  0.3236E+02  0.3042E+02  0.8787E+03  0.8785E+03
      3.745  0.8214E+02  0.8105E+02  0.8831E+03  0.8828E+03
      3.798  0.6502E+02  0.6039E+02  0.8866E+03  0.8860E+03
      3.851  0.5470E+02  0.6357E+02  0.8895E+03  0.8894E+03
      3.905  0.3227E+02  0.2830E+02  0.8912E+03  0.8910E+03
      3.958  0.4598E+02  0.4113E+02  0.8937E+03  0.8932E+03
      4.012  0.7463E+02  0.7848E+02  0.8977E+03  0.8973E+03
      4.065  0.3030E+02  0.3154E+02  0.8993E+03  0.8990E+03
      4.119  0.2596E+02  0.2457E+02  0.9007E+03  0.9003E+03
      4.172  0.3738E+02  0.4024E+02  0.9027E+03  0.9025E+03
      4.225  0.6333E+02  0.5485E+02  0.9061E+03  0.9054E+03
      4.279  0.7781E+02  0.8086E+02  0.9102E+03  0.9097E+03
      4.332  0.4211E+02  0.4236E+02  0.9125E+03  0.9120E+03
      4.386  0.8744E+02  0.8194E+02  0.9172E+03  0.9164E+03
      4.439  0.6175E+02  0.6335E+02  0.9205E+03  0.9198E+03
      4.493  0.4497E+02  0.4859E+02  0.9229E+03  0.9224E+03
      4.546  0.5936E+02  0.5781E+02  0.9260E+03  0.9255E+03
      4.599  0.8122E+02  0.8461E+02  0.9304E+03  0.9300E+03
      4.653  0.5402E+02  0.4647E+02  0.9333E+03  0.9325E+03
      4.706  0.6704E+02  0.6997E+02  0.9368E+03  0.9362E+03
      4.760  0.9037E+02  0.9511E+02  0.9417E+03  0.9413E+03
      4.813  0.5987E+02  0.5393E+02  0.9449E+03  0.9442E+03
      4.867  0.8645E+02  0.8345E+02  0.9495E+03  0.9486E+03
      4.920  0.8913E+02  0.9652E+02  0.9542E+03  0.9538E+03
      4.974  0.7981E+02  0.7536E+02  0.9585E+03  0.9578E+03
      5.027  0.9228E+02  0.8600E+02  0.9634E+03  0.9624E+03
      5.080  0.7035E+02  0.7618E+02  0.9672E+03  0.9665E+03
      5.134  0.1134E+03  0.1107E+03  0.9733E+03  0.9724E+03
      5.187  0.1062E+03  0.1091E+03  0.9789E+03  0.9782E+03
      5.241  0.7951E+02  0.7626E+02  0.9832E+03  0.9823E+03
      5.294  0.7880E+02  0.7617E+02  0.9874E+03  0.9864E+03
      5.348  0.7389E+02  0.7686E+02  0.9913E+03  0.9905E+03
      5.401  0.9829E+02  0.1039E+03  0.9966E+03  0.9960E+03
      5.454  0.7476E+02  0.6969E+02  0.1001E+04  0.9998E+03
      5.508  0.1352E+03  0.1382E+03  0.1008E+04  0.1007E+04
      5.561  0.9745E+02  0.9718E+02  0.1013E+04  0.1012E+04
      5.615  0.9555E+02  0.9634E+02  0.1018E+04  0.1017E+04
      5.668  0.1228E+03  0.1250E+03  0.1025E+04  0.1024E+04
      5.722  0.1038E+03  0.1020E+03  0.1030E+04  0.1030E+04
      5.775  0.7958E+02  0.8270E+02  0.1034E+04  0.1034E+04
      5.828  0.1191E+03  0.1179E+03  0.1041E+04  0.1040E+04
      5.882  0.1071E+03  0.1073E+03  0.1047E+04  0.1046E+04
      5.935  0.1327E+03  0.1305E+03  0.1054E+04  0.1053E+04
      5.989  0.1259E+03  0.1221E+03  0.1060E+04  0.1060E+04
      6.042  0.9820E+02  0.1030E+03  0.1066E+04  0.1065E+04
      6.096  0.1172E+03  0.1200E+03  0.1072E+04  0.1071E+04
      6.149  0.6110E+02  0.5842E+02  0.1075E+04  0.1075E+04
      6.202  0.1088E+03  0.1117E+03  0.1081E+04  0.1081E+04
      6.256  0.9140E+02  0.9278E+02  0.1086E+04  0.1086E+04
      6.309  0.6966E+02  0.7440E+02  0.1090E+04  0.1089E+04
      6.363  0.7798E+02  0.7759E+02  0.1094E+04  0.1094E+04
      6.416  0.3802E+02  0.3810E+02  0.1096E+04  0.1096E+04
      6.470  0.4101E+01  0.6232E+01  0.1096E+04  0.1096E+04
      6.523  0.0000E+00  0.0000E+00  0.1096E+04  0.1096E+04
      6.577  0.0000E+00  0.0000E+00  0.1096E+04  0.1096E+04
      6.630  0.0000E+00  0.0000E+00  0.1096E+04  0.1096E+04
      6.683  0.0000E+00  0.0000E+00  0.1096E+04  0.1096E+04
      6.737  0.0000E+00  0.0000E+00  0.1096E+04  0.1096E+04
      6.790  0.0000E+00  0.0000E+00  0.1096E+04  0.1096E+04
      6.844  0.0000E+00  0.0000E+00  0.1096E+04  0.1096E+04
      6.897  0.0000E+00  0.0000E+00  0.1096E+04  0.1096E+04
      6.951  0.0000E+00  0.0000E+00  0.1096E+04  0.1096E+04
      7.004  0.0000E+00  0.0000E+00  0.1096E+04  0.1096E+04
      7.057  0.0000E+00  0.0000E+00  0.1096E+04  0.1096E+04
      7.111  0.0000E+00  0.0000E+00  0.1096E+04  0.1096E+04
      7.164  0.0000E+00  0.0000E+00  0.1096E+04  0.1096E+04
