 216 216   0   0
  0.2272619E+02  0.1600268E-08  0.1697340E-08  0.1807253E-08  0.5000000E-15
  1.000000000000000E-004
  CAR 
 Si and Ge interface calculation         
      6.94372942     -9.41287927  301      3.93583821      1.00000000
     -9.413  0.0000E+00  0.0000E+00  0.0000E+00  0.0000E+00
     -9.358  0.0000E+00  0.0000E+00  0.0000E+00  0.0000E+00
     -9.304  0.0000E+00  0.0000E+00  0.0000E+00  0.0000E+00
     -9.249  0.0000E+00  0.0000E+00  0.0000E+00  0.0000E+00
     -9.195  0.0000E+00  0.0000E+00  0.0000E+00  0.0000E+00
     -9.140  0.0000E+00  0.0000E+00  0.0000E+00  0.0000E+00
     -9.086  0.0000E+00  0.0000E+00  0.0000E+00  0.0000E+00
     -9.031  0.0000E+00  0.0000E+00  0.0000E+00  0.0000E+00
     -8.977  0.0000E+00  0.0000E+00  0.0000E+00  0.0000E+00
     -8.922  0.0000E+00  0.0000E+00  0.0000E+00  0.0000E+00
     -8.868  0.0000E+00  0.0000E+00  0.0000E+00  0.0000E+00
     -8.813  0.0000E+00  0.0000E+00  0.0000E+00  0.0000E+00
     -8.759  0.0000E+00  0.0000E+00  0.0000E+00  0.0000E+00
     -8.704  0.2123E-05  0.2468E-06  0.1158E-06  0.1345E-07
     -8.650  0.7416E+01  0.6719E+01  0.4044E+00  0.3663E+00
     -8.595  0.2063E+01  0.2555E+01  0.5168E+00  0.5056E+00
     -8.541  0.2819E+02  0.2669E+02  0.2054E+01  0.1961E+01
     -8.486  0.1590E+02  0.1520E+02  0.2921E+01  0.2790E+01
     -8.431  0.1728E+02  0.1848E+02  0.3863E+01  0.3797E+01
     -8.377  0.2552E+02  0.2593E+02  0.5254E+01  0.5211E+01
     -8.322  0.2416E+02  0.2219E+02  0.6571E+01  0.6421E+01
     -8.268  0.1435E+02  0.1592E+02  0.7354E+01  0.7289E+01
     -8.213  0.2416E+02  0.2363E+02  0.8671E+01  0.8577E+01
     -8.159  0.5217E+02  0.4765E+02  0.1152E+02  0.1118E+02
     -8.104  0.3464E+02  0.3894E+02  0.1340E+02  0.1330E+02
     -8.050  0.4605E+02  0.4686E+02  0.1591E+02  0.1585E+02
     -7.995  0.3200E+02  0.3167E+02  0.1766E+02  0.1758E+02
     -7.941  0.3122E+02  0.2998E+02  0.1936E+02  0.1921E+02
     -7.886  0.4194E+02  0.4180E+02  0.2165E+02  0.2149E+02
     -7.832  0.3637E+02  0.3737E+02  0.2363E+02  0.2353E+02
     -7.777  0.1938E+02  0.1926E+02  0.2469E+02  0.2458E+02
     -7.723  0.4404E+02  0.4176E+02  0.2709E+02  0.2686E+02
     -7.668  0.5615E+02  0.5473E+02  0.3015E+02  0.2984E+02
     -7.614  0.6999E+02  0.7373E+02  0.3397E+02  0.3386E+02
     -7.559  0.3379E+02  0.3352E+02  0.3581E+02  0.3569E+02
     -7.505  0.6672E+02  0.6574E+02  0.3945E+02  0.3927E+02
     -7.450  0.3338E+02  0.3318E+02  0.4127E+02  0.4108E+02
     -7.396  0.4260E+02  0.4428E+02  0.4359E+02  0.4350E+02
     -7.341  0.4400E+02  0.4385E+02  0.4599E+02  0.4589E+02
     -7.287  0.5031E+02  0.4832E+02  0.4873E+02  0.4852E+02
     -7.232  0.6583E+02  0.6649E+02  0.5232E+02  0.5215E+02
     -7.177  0.2712E+02  0.2747E+02  0.5380E+02  0.5365E+02
     -7.123  0.3671E+02  0.3634E+02  0.5580E+02  0.5563E+02
     -7.068  0.6281E+02  0.6191E+02  0.5922E+02  0.5900E+02
     -7.014  0.4636E+02  0.4967E+02  0.6175E+02  0.6171E+02
     -6.959  0.5393E+02  0.5226E+02  0.6469E+02  0.6456E+02
     -6.905  0.4390E+02  0.3908E+02  0.6709E+02  0.6669E+02
     -6.850  0.7070E+02  0.7520E+02  0.7094E+02  0.7079E+02
     -6.796  0.4713E+02  0.4766E+02  0.7351E+02  0.7339E+02
     -6.741  0.6462E+02  0.6489E+02  0.7703E+02  0.7693E+02
     -6.687  0.8092E+02  0.7878E+02  0.8145E+02  0.8122E+02
     -6.632  0.8638E+02  0.8740E+02  0.8615E+02  0.8599E+02
     -6.578  0.7262E+02  0.7213E+02  0.9011E+02  0.8992E+02
     -6.523  0.9566E+02  0.9084E+02  0.9533E+02  0.9487E+02
     -6.469  0.9232E+02  0.9528E+02  0.1004E+03  0.1001E+03
     -6.414  0.5770E+02  0.5982E+02  0.1035E+03  0.1033E+03
     -6.360  0.5569E+02  0.5566E+02  0.1065E+03  0.1064E+03
     -6.305  0.7323E+02  0.7340E+02  0.1105E+03  0.1104E+03
     -6.251  0.9186E+02  0.9045E+02  0.1155E+03  0.1153E+03
     -6.196  0.6962E+02  0.6880E+02  0.1193E+03  0.1190E+03
     -6.142  0.3775E+02  0.3903E+02  0.1214E+03  0.1212E+03
     -6.087  0.7175E+02  0.7331E+02  0.1253E+03  0.1252E+03
     -6.033  0.3142E+02  0.3188E+02  0.1270E+03  0.1269E+03
     -5.978  0.7707E+02  0.7417E+02  0.1312E+03  0.1310E+03
     -5.923  0.9996E+02  0.1040E+03  0.1367E+03  0.1366E+03
     -5.869  0.7192E+02  0.6460E+02  0.1406E+03  0.1401E+03
     -5.814  0.1034E+03  0.1067E+03  0.1462E+03  0.1460E+03
     -5.760  0.5494E+02  0.5575E+02  0.1492E+03  0.1490E+03
     -5.705  0.6418E+02  0.6636E+02  0.1527E+03  0.1526E+03
     -5.651  0.3380E+02  0.3217E+02  0.1546E+03  0.1544E+03
     -5.596  0.4892E+02  0.4677E+02  0.1572E+03  0.1569E+03
     -5.542  0.5780E+02  0.5995E+02  0.1604E+03  0.1602E+03
     -5.487  0.4616E+02  0.4377E+02  0.1629E+03  0.1626E+03
     -5.433  0.5478E+02  0.5832E+02  0.1659E+03  0.1658E+03
     -5.378  0.3948E+02  0.3768E+02  0.1681E+03  0.1678E+03
     -5.324  0.3176E+02  0.3361E+02  0.1698E+03  0.1697E+03
     -5.269  0.5353E+02  0.5006E+02  0.1727E+03  0.1724E+03
     -5.215  0.3360E+02  0.3903E+02  0.1745E+03  0.1745E+03
     -5.160  0.5715E+02  0.5164E+02  0.1776E+03  0.1773E+03
     -5.106  0.7702E+02  0.7843E+02  0.1818E+03  0.1816E+03
     -5.051  0.4196E+02  0.4154E+02  0.1841E+03  0.1839E+03
     -4.997  0.5573E+02  0.5770E+02  0.1872E+03  0.1870E+03
     -4.942  0.3661E+02  0.3321E+02  0.1892E+03  0.1888E+03
     -4.888  0.2684E+02  0.3180E+02  0.1906E+03  0.1906E+03
     -4.833  0.5902E+02  0.5133E+02  0.1939E+03  0.1934E+03
     -4.779  0.6888E+02  0.7334E+02  0.1976E+03  0.1974E+03
     -4.724  0.5473E+02  0.5638E+02  0.2006E+03  0.2004E+03
     -4.669  0.4399E+02  0.4325E+02  0.2030E+03  0.2028E+03
     -4.615  0.6485E+02  0.6068E+02  0.2065E+03  0.2061E+03
     -4.560  0.5939E+02  0.6653E+02  0.2098E+03  0.2097E+03
     -4.506  0.5307E+02  0.5121E+02  0.2127E+03  0.2125E+03
     -4.451  0.1605E+02  0.1792E+02  0.2135E+03  0.2135E+03
     -4.397  0.4196E+02  0.3832E+02  0.2158E+03  0.2156E+03
     -4.342  0.3691E+02  0.3906E+02  0.2178E+03  0.2177E+03
     -4.288  0.4550E+02  0.4160E+02  0.2203E+03  0.2200E+03
     -4.233  0.6957E+02  0.6887E+02  0.2241E+03  0.2237E+03
     -4.179  0.5492E+02  0.5585E+02  0.2271E+03  0.2268E+03
     -4.124  0.2949E+02  0.3350E+02  0.2287E+03  0.2286E+03
     -4.070  0.6350E+02  0.6244E+02  0.2322E+03  0.2320E+03
     -4.015  0.4246E+02  0.4234E+02  0.2345E+03  0.2343E+03
     -3.961  0.5016E+02  0.5131E+02  0.2372E+03  0.2371E+03
     -3.906  0.4991E+02  0.4627E+02  0.2399E+03  0.2396E+03
     -3.852  0.5191E+02  0.5553E+02  0.2428E+03  0.2427E+03
     -3.797  0.5367E+02  0.5046E+02  0.2457E+03  0.2454E+03
     -3.743  0.6272E+02  0.6257E+02  0.2491E+03  0.2488E+03
     -3.688  0.8091E+02  0.8027E+02  0.2535E+03  0.2532E+03
     -3.634  0.8546E+02  0.8788E+02  0.2582E+03  0.2580E+03
     -3.579  0.9228E+02  0.9376E+02  0.2632E+03  0.2631E+03
     -3.525  0.6481E+02  0.6626E+02  0.2668E+03  0.2667E+03
     -3.470  0.6966E+02  0.6618E+02  0.2705E+03  0.2703E+03
     -3.415  0.7524E+02  0.7246E+02  0.2747E+03  0.2743E+03
     -3.361  0.8716E+02  0.8820E+02  0.2794E+03  0.2791E+03
     -3.306  0.5610E+02  0.5771E+02  0.2825E+03  0.2822E+03
     -3.252  0.7189E+02  0.7449E+02  0.2864E+03  0.2863E+03
     -3.197  0.5408E+02  0.5314E+02  0.2893E+03  0.2892E+03
     -3.143  0.7147E+02  0.6954E+02  0.2932E+03  0.2930E+03
     -3.088  0.5782E+02  0.5730E+02  0.2964E+03  0.2961E+03
     -3.034  0.5476E+02  0.5581E+02  0.2994E+03  0.2992E+03
     -2.979  0.7222E+02  0.7211E+02  0.3033E+03  0.3031E+03
     -2.925  0.6420E+02  0.6552E+02  0.3068E+03  0.3067E+03
     -2.870  0.5328E+02  0.4737E+02  0.3097E+03  0.3092E+03
     -2.816  0.6713E+02  0.7337E+02  0.3134E+03  0.3132E+03
     -2.761  0.5276E+02  0.4872E+02  0.3162E+03  0.3159E+03
     -2.707  0.7899E+02  0.7962E+02  0.3206E+03  0.3202E+03
     -2.652  0.5373E+02  0.5550E+02  0.3235E+03  0.3233E+03
     -2.598  0.6784E+02  0.6690E+02  0.3272E+03  0.3269E+03
     -2.543  0.5500E+02  0.5650E+02  0.3302E+03  0.3300E+03
     -2.489  0.5237E+02  0.5149E+02  0.3330E+03  0.3328E+03
     -2.434  0.5137E+02  0.4486E+02  0.3358E+03  0.3352E+03
     -2.380  0.5010E+02  0.5805E+02  0.3386E+03  0.3384E+03
     -2.325  0.6075E+02  0.5815E+02  0.3419E+03  0.3416E+03
     -2.270  0.5426E+02  0.5425E+02  0.3448E+03  0.3445E+03
     -2.216  0.3059E+02  0.3386E+02  0.3465E+03  0.3464E+03
     -2.161  0.2869E+02  0.2804E+02  0.3481E+03  0.3479E+03
     -2.107  0.6574E+02  0.5612E+02  0.3517E+03  0.3510E+03
     -2.052  0.4385E+02  0.5313E+02  0.3540E+03  0.3539E+03
     -1.998  0.3929E+02  0.3853E+02  0.3562E+03  0.3560E+03
     -1.943  0.5819E+02  0.5597E+02  0.3594E+03  0.3590E+03
     -1.889  0.5780E+02  0.5679E+02  0.3625E+03  0.3621E+03
     -1.834  0.4174E+02  0.4598E+02  0.3648E+03  0.3646E+03
     -1.780  0.2971E+02  0.2635E+02  0.3664E+03  0.3661E+03
     -1.725  0.6205E+02  0.5733E+02  0.3698E+03  0.3692E+03
     -1.671  0.6668E+02  0.7086E+02  0.3734E+03  0.3730E+03
     -1.616  0.3268E+02  0.3759E+02  0.3752E+03  0.3751E+03
     -1.562  0.4121E+02  0.4056E+02  0.3775E+03  0.3773E+03
     -1.507  0.4683E+02  0.4575E+02  0.3800E+03  0.3798E+03
     -1.453  0.2639E+02  0.2867E+02  0.3814E+03  0.3814E+03
     -1.398  0.3342E+02  0.2963E+02  0.3833E+03  0.3830E+03
     -1.344  0.5319E+02  0.5080E+02  0.3862E+03  0.3858E+03
     -1.289  0.4973E+02  0.5515E+02  0.3889E+03  0.3888E+03
     -1.235  0.2310E+02  0.2423E+02  0.3901E+03  0.3901E+03
     -1.180  0.3462E+02  0.3287E+02  0.3920E+03  0.3919E+03
     -1.126  0.4787E+02  0.4682E+02  0.3946E+03  0.3944E+03
     -1.071  0.3487E+02  0.3432E+02  0.3965E+03  0.3963E+03
     -1.016  0.4101E+02  0.3796E+02  0.3988E+03  0.3984E+03
     -0.962  0.3998E+02  0.4376E+02  0.4010E+03  0.4008E+03
     -0.907  0.3381E+02  0.3385E+02  0.4028E+03  0.4026E+03
     -0.853  0.2506E+02  0.2689E+02  0.4042E+03  0.4041E+03
     -0.798  0.1439E+02  0.1451E+02  0.4049E+03  0.4049E+03
     -0.744  0.1633E+02  0.1688E+02  0.4058E+03  0.4058E+03
     -0.689  0.3016E+02  0.2900E+02  0.4075E+03  0.4074E+03
     -0.635  0.9727E+01  0.1098E+02  0.4080E+03  0.4080E+03
     -0.580  0.5134E+02  0.4708E+02  0.4108E+03  0.4105E+03
     -0.526  0.4178E+02  0.4509E+02  0.4131E+03  0.4130E+03
     -0.471  0.3247E+02  0.3105E+02  0.4149E+03  0.4147E+03
     -0.417  0.3549E+02  0.3620E+02  0.4168E+03  0.4166E+03
     -0.362  0.1548E+02  0.1579E+02  0.4176E+03  0.4175E+03
     -0.308  0.4350E+02  0.3987E+02  0.4200E+03  0.4197E+03
     -0.253  0.8338E+02  0.8166E+02  0.4246E+03  0.4241E+03
     -0.199  0.1257E+03  0.1250E+03  0.4314E+03  0.4310E+03
     -0.144  0.9208E+02  0.9102E+02  0.4364E+03  0.4359E+03
     -0.090  0.7925E+02  0.8293E+02  0.4408E+03  0.4404E+03
     -0.035  0.1177E+03  0.1158E+03  0.4472E+03  0.4467E+03
      0.019  0.1191E+03  0.1187E+03  0.4537E+03  0.4532E+03
      0.074  0.1063E+03  0.1046E+03  0.4595E+03  0.4589E+03
      0.128  0.1208E+03  0.1256E+03  0.4660E+03  0.4658E+03
      0.183  0.1141E+03  0.1099E+03  0.4723E+03  0.4718E+03
      0.238  0.1258E+03  0.1260E+03  0.4791E+03  0.4786E+03
      0.292  0.1260E+03  0.1292E+03  0.4860E+03  0.4857E+03
      0.347  0.1420E+03  0.1390E+03  0.4937E+03  0.4933E+03
      0.401  0.1125E+03  0.1128E+03  0.4999E+03  0.4994E+03
      0.456  0.1276E+03  0.1303E+03  0.5068E+03  0.5065E+03
      0.510  0.1174E+03  0.1142E+03  0.5132E+03  0.5127E+03
      0.565  0.1202E+03  0.1196E+03  0.5198E+03  0.5193E+03
      0.619  0.1215E+03  0.1214E+03  0.5264E+03  0.5259E+03
      0.674  0.1230E+03  0.1236E+03  0.5331E+03  0.5326E+03
      0.728  0.1183E+03  0.1178E+03  0.5396E+03  0.5390E+03
      0.783  0.1072E+03  0.1073E+03  0.5454E+03  0.5449E+03
      0.837  0.1196E+03  0.1200E+03  0.5519E+03  0.5514E+03
      0.892  0.1197E+03  0.1198E+03  0.5585E+03  0.5580E+03
      0.946  0.1427E+03  0.1412E+03  0.5662E+03  0.5657E+03
      1.001  0.1061E+03  0.1072E+03  0.5720E+03  0.5715E+03
      1.055  0.1540E+03  0.1509E+03  0.5804E+03  0.5797E+03
      1.110  0.1502E+03  0.1523E+03  0.5886E+03  0.5880E+03
      1.164  0.1525E+03  0.1506E+03  0.5969E+03  0.5962E+03
      1.219  0.1466E+03  0.1480E+03  0.6049E+03  0.6043E+03
      1.273  0.1447E+03  0.1463E+03  0.6128E+03  0.6123E+03
      1.328  0.1369E+03  0.1378E+03  0.6203E+03  0.6198E+03
      1.382  0.1231E+03  0.1205E+03  0.6270E+03  0.6264E+03
      1.437  0.1325E+03  0.1347E+03  0.6342E+03  0.6337E+03
      1.492  0.1212E+03  0.1196E+03  0.6408E+03  0.6402E+03
      1.546  0.1135E+03  0.1176E+03  0.6470E+03  0.6467E+03
      1.601  0.1346E+03  0.1311E+03  0.6543E+03  0.6538E+03
      1.655  0.1256E+03  0.1214E+03  0.6612E+03  0.6604E+03
      1.710  0.1341E+03  0.1368E+03  0.6685E+03  0.6679E+03
      1.764  0.1323E+03  0.1366E+03  0.6757E+03  0.6753E+03
      1.819  0.1175E+03  0.1167E+03  0.6821E+03  0.6817E+03
      1.873  0.1194E+03  0.1208E+03  0.6886E+03  0.6883E+03
      1.928  0.1348E+03  0.1336E+03  0.6960E+03  0.6956E+03
      1.982  0.1161E+03  0.1141E+03  0.7023E+03  0.7018E+03
      2.037  0.1168E+03  0.1229E+03  0.7087E+03  0.7085E+03
      2.091  0.1165E+03  0.1122E+03  0.7150E+03  0.7146E+03
      2.146  0.1137E+03  0.1133E+03  0.7212E+03  0.7208E+03
      2.200  0.1260E+03  0.1246E+03  0.7281E+03  0.7276E+03
      2.255  0.1130E+03  0.1158E+03  0.7343E+03  0.7339E+03
      2.309  0.8884E+02  0.8640E+02  0.7391E+03  0.7386E+03
      2.364  0.8073E+02  0.8343E+02  0.7435E+03  0.7431E+03
      2.418  0.1051E+03  0.1056E+03  0.7492E+03  0.7489E+03
      2.473  0.1130E+03  0.1056E+03  0.7554E+03  0.7547E+03
      2.527  0.7689E+02  0.8518E+02  0.7596E+03  0.7593E+03
      2.582  0.1049E+03  0.1038E+03  0.7653E+03  0.7650E+03
      2.636  0.9183E+02  0.8947E+02  0.7703E+03  0.7698E+03
      2.691  0.8401E+02  0.8218E+02  0.7749E+03  0.7743E+03
      2.746  0.6878E+02  0.7219E+02  0.7786E+03  0.7783E+03
      2.800  0.1145E+03  0.1148E+03  0.7849E+03  0.7845E+03
      2.855  0.6762E+02  0.6452E+02  0.7886E+03  0.7880E+03
      2.909  0.7566E+02  0.7787E+02  0.7927E+03  0.7923E+03
      2.964  0.7227E+02  0.7388E+02  0.7966E+03  0.7963E+03
      3.018  0.7101E+02  0.7097E+02  0.8005E+03  0.8002E+03
      3.073  0.6707E+02  0.6633E+02  0.8042E+03  0.8038E+03
      3.127  0.6131E+02  0.5766E+02  0.8075E+03  0.8069E+03
      3.182  0.8098E+02  0.8859E+02  0.8119E+03  0.8118E+03
      3.236  0.6108E+02  0.5477E+02  0.8153E+03  0.8148E+03
      3.291  0.7137E+02  0.7090E+02  0.8191E+03  0.8186E+03
      3.345  0.5858E+02  0.5938E+02  0.8223E+03  0.8219E+03
      3.400  0.7337E+02  0.7142E+02  0.8263E+03  0.8257E+03
      3.454  0.6823E+02  0.6877E+02  0.8301E+03  0.8295E+03
      3.509  0.7532E+02  0.8015E+02  0.8342E+03  0.8339E+03
      3.563  0.6365E+02  0.6361E+02  0.8376E+03  0.8373E+03
      3.618  0.5576E+02  0.5034E+02  0.8407E+03  0.8401E+03
      3.672  0.6540E+02  0.6232E+02  0.8442E+03  0.8435E+03
      3.727  0.7108E+02  0.7188E+02  0.8481E+03  0.8474E+03
      3.781  0.8717E+02  0.8847E+02  0.8529E+03  0.8522E+03
      3.836  0.7058E+02  0.6550E+02  0.8567E+03  0.8558E+03
      3.890  0.7736E+02  0.7758E+02  0.8609E+03  0.8600E+03
      3.945  0.5985E+02  0.6317E+02  0.8642E+03  0.8635E+03
      4.000  0.7302E+02  0.7444E+02  0.8682E+03  0.8675E+03
      4.054  0.5650E+02  0.5938E+02  0.8713E+03  0.8708E+03
      4.109  0.5892E+02  0.6250E+02  0.8745E+03  0.8742E+03
      4.163  0.7942E+02  0.7147E+02  0.8788E+03  0.8781E+03
      4.218  0.8473E+02  0.8024E+02  0.8834E+03  0.8824E+03
      4.272  0.6936E+02  0.7872E+02  0.8872E+03  0.8867E+03
      4.327  0.6034E+02  0.5712E+02  0.8905E+03  0.8898E+03
      4.381  0.7030E+02  0.7343E+02  0.8943E+03  0.8939E+03
      4.436  0.7662E+02  0.6849E+02  0.8985E+03  0.8976E+03
      4.490  0.6793E+02  0.7695E+02  0.9022E+03  0.9018E+03
      4.545  0.6290E+02  0.6071E+02  0.9056E+03  0.9051E+03
      4.599  0.5750E+02  0.5961E+02  0.9088E+03  0.9083E+03
      4.654  0.8159E+02  0.7443E+02  0.9132E+03  0.9124E+03
      4.708  0.5454E+02  0.5969E+02  0.9162E+03  0.9157E+03
      4.763  0.5342E+02  0.6006E+02  0.9191E+03  0.9189E+03
      4.817  0.5979E+02  0.5574E+02  0.9224E+03  0.9220E+03
      4.872  0.4864E+02  0.4502E+02  0.9250E+03  0.9244E+03
      4.926  0.6680E+02  0.7193E+02  0.9287E+03  0.9283E+03
      4.981  0.7346E+02  0.7188E+02  0.9327E+03  0.9323E+03
      5.035  0.4273E+02  0.4680E+02  0.9350E+03  0.9348E+03
      5.090  0.5672E+02  0.5586E+02  0.9381E+03  0.9379E+03
      5.145  0.6368E+02  0.6086E+02  0.9416E+03  0.9412E+03
      5.199  0.7951E+02  0.8248E+02  0.9459E+03  0.9457E+03
      5.254  0.8099E+02  0.7861E+02  0.9503E+03  0.9500E+03
      5.308  0.7477E+02  0.7612E+02  0.9544E+03  0.9541E+03
      5.363  0.7315E+02  0.7209E+02  0.9584E+03  0.9580E+03
      5.417  0.8863E+02  0.8885E+02  0.9632E+03  0.9629E+03
      5.472  0.8757E+02  0.8587E+02  0.9680E+03  0.9676E+03
      5.526  0.9160E+02  0.9067E+02  0.9730E+03  0.9725E+03
      5.581  0.8435E+02  0.8537E+02  0.9776E+03  0.9772E+03
      5.635  0.9678E+02  0.9808E+02  0.9829E+03  0.9825E+03
      5.690  0.1066E+03  0.1045E+03  0.9887E+03  0.9882E+03
      5.744  0.1133E+03  0.1121E+03  0.9948E+03  0.9943E+03
      5.799  0.1137E+03  0.1158E+03  0.1001E+04  0.1001E+04
      5.853  0.1336E+03  0.1317E+03  0.1008E+04  0.1008E+04
      5.908  0.1092E+03  0.1109E+03  0.1014E+04  0.1014E+04
      5.962  0.1103E+03  0.1102E+03  0.1020E+04  0.1020E+04
      6.017  0.1262E+03  0.1206E+03  0.1027E+04  0.1026E+04
      6.071  0.1089E+03  0.1153E+03  0.1033E+04  0.1033E+04
      6.126  0.9011E+02  0.9380E+02  0.1038E+04  0.1038E+04
      6.180  0.2880E+02  0.3069E+02  0.1040E+04  0.1040E+04
      6.235  0.7560E+01  0.8885E+01  0.1040E+04  0.1040E+04
      6.289  0.0000E+00  0.0000E+00  0.1040E+04  0.1040E+04
      6.344  0.0000E+00  0.0000E+00  0.1040E+04  0.1040E+04
      6.399  0.0000E+00  0.0000E+00  0.1040E+04  0.1040E+04
      6.453  0.0000E+00  0.0000E+00  0.1040E+04  0.1040E+04
      6.508  0.0000E+00  0.0000E+00  0.1040E+04  0.1040E+04
      6.562  0.0000E+00  0.0000E+00  0.1040E+04  0.1040E+04
      6.617  0.0000E+00  0.0000E+00  0.1040E+04  0.1040E+04
      6.671  0.0000E+00  0.0000E+00  0.1040E+04  0.1040E+04
      6.726  0.0000E+00  0.0000E+00  0.1040E+04  0.1040E+04
      6.780  0.0000E+00  0.0000E+00  0.1040E+04  0.1040E+04
      6.835  0.0000E+00  0.0000E+00  0.1040E+04  0.1040E+04
      6.889  0.0000E+00  0.0000E+00  0.1040E+04  0.1040E+04
      6.944  0.0000E+00  0.0000E+00  0.1040E+04  0.1040E+04
