       N       E                     dE             d eps       ncg     rms          rms(c)
DAV:   1     0.255744290360E+04    0.25574E+04   -0.24042E+05  5568   0.166E+03
DAV:   2    -0.339643088409E+03   -0.28971E+04   -0.27966E+04  6528   0.199E+02
DAV:   3    -0.629865079194E+03   -0.29022E+03   -0.28041E+03  7032   0.576E+01
DAV:   4    -0.641655125666E+03   -0.11790E+02   -0.11546E+02  6888   0.124E+01
DAV:   5    -0.642161813510E+03   -0.50669E+00   -0.50308E+00  7576   0.248E+00    0.334E+01
DAV:   6    -0.631093747504E+03    0.11068E+02   -0.51212E+01  8968   0.145E+01    0.162E+01
DAV:   7    -0.630678042200E+03    0.41571E+00   -0.48208E+01  8552   0.151E+01    0.115E+01
DAV:   8    -0.627218065746E+03    0.34600E+01   -0.15628E+01  8144   0.790E+00    0.228E+00
DAV:   9    -0.627469358703E+03   -0.25129E+00   -0.42425E+00  6528   0.275E+00    0.170E+00
DAV:  10    -0.627410905028E+03    0.58454E-01   -0.71044E-01  6736   0.147E+00    0.113E+00
DAV:  11    -0.627400797312E+03    0.10108E-01   -0.29298E-01  6632   0.896E-01    0.597E-01
DAV:  12    -0.627398422198E+03    0.23751E-02   -0.93168E-02  6488   0.518E-01    0.342E-01
DAV:  13    -0.627399581961E+03   -0.11598E-02   -0.14813E-02  6808   0.147E-01    0.236E-01
DAV:  14    -0.627399449387E+03    0.13257E-03   -0.37495E-03  6936   0.943E-02    0.121E-01
DAV:  15    -0.627399717974E+03   -0.26859E-03   -0.12179E-03  6288   0.517E-02    0.952E-02
DAV:  16    -0.627399791241E+03   -0.73267E-04   -0.18986E-04  6192   0.225E-02    0.485E-02
DAV:  17    -0.627399794352E+03   -0.31111E-05   -0.96979E-05  7192   0.151E-02    0.286E-02
DAV:  18    -0.627399795417E+03   -0.10650E-05   -0.25806E-05  6256   0.735E-03    0.217E-02
DAV:  19    -0.627399793979E+03    0.14385E-05   -0.65668E-06  6776   0.349E-03    0.138E-02
DAV:  20    -0.627399794127E+03   -0.14820E-06   -0.22269E-06  6472   0.196E-03    0.851E-03
DAV:  21    -0.627399794640E+03   -0.51289E-06   -0.25225E-06  6184   0.233E-03    0.400E-03
DAV:  22    -0.627399796157E+03   -0.15172E-05   -0.28880E-06  6848   0.215E-03    0.308E-03
DAV:  23    -0.627399796268E+03   -0.11056E-06   -0.48807E-07  5616   0.103E-03    0.273E-03
DAV:  24    -0.627399796279E+03   -0.11576E-07   -0.12818E-07  3440   0.525E-04
   1 F= -.62739980E+03 E0= -.62739855E+03  d E =-.250162E-02  mag=     1.0000
