  96  96   0   0
  0.2243693E+02  0.1265123E-08  0.1265123E-08  0.1373516E-08  0.5000000E-15
  1.000000000000000E-004
  CAR 
 Si and Ge interface calculation         
      6.62693474    -11.17133010  301      3.69202995      1.00000000
    -11.171  0.0000E+00  0.0000E+00  0.0000E+00  0.0000E+00
    -11.112  0.0000E+00  0.0000E+00  0.0000E+00  0.0000E+00
    -11.053  0.0000E+00  0.0000E+00  0.0000E+00  0.0000E+00
    -10.993  0.0000E+00  0.0000E+00  0.0000E+00  0.0000E+00
    -10.934  0.0000E+00  0.0000E+00  0.0000E+00  0.0000E+00
    -10.875  0.0000E+00  0.0000E+00  0.0000E+00  0.0000E+00
    -10.815  0.0000E+00  0.0000E+00  0.0000E+00  0.0000E+00
    -10.756  0.0000E+00  0.0000E+00  0.0000E+00  0.0000E+00
    -10.697  0.0000E+00  0.0000E+00  0.0000E+00  0.0000E+00
    -10.637  0.0000E+00  0.0000E+00  0.0000E+00  0.0000E+00
    -10.578  0.0000E+00  0.0000E+00  0.0000E+00  0.0000E+00
    -10.519  0.0000E+00  0.0000E+00  0.0000E+00  0.0000E+00
    -10.459  0.0000E+00  0.0000E+00  0.0000E+00  0.0000E+00
    -10.400  0.1028E-06  0.1066E-11  0.6100E-08  0.6324E-13
    -10.341  0.1089E+02  0.6667E+01  0.6458E+00  0.3955E+00
    -10.281  0.2278E+02  0.2492E+02  0.1997E+01  0.1874E+01
    -10.222  0.4306E-01  0.2123E+01  0.2000E+01  0.2000E+01
    -10.163  0.5201E+01  0.2761E+00  0.2309E+01  0.2016E+01
    -10.103  0.1727E+02  0.2220E+02  0.3333E+01  0.3333E+01
    -10.044  0.0000E+00  0.0000E+00  0.3333E+01  0.3333E+01
     -9.985  0.8276E-13  0.0000E+00  0.3333E+01  0.3333E+01
     -9.925  0.1065E+02  0.1335E+01  0.3965E+01  0.3413E+01
     -9.866  0.1183E+02  0.2114E+02  0.4667E+01  0.4667E+01
     -9.807  0.0000E+00  0.0000E+00  0.4667E+01  0.4667E+01
     -9.747  0.1641E-02  0.7533E-04  0.4667E+01  0.4667E+01
     -9.688  0.3368E+02  0.3344E+02  0.6665E+01  0.6651E+01
     -9.629  0.2105E+02  0.1074E+02  0.7914E+01  0.7288E+01
     -9.569  0.1441E+01  0.1200E+02  0.8000E+01  0.8000E+01
     -9.510  0.0000E+00  0.0000E+00  0.8000E+01  0.8000E+01
     -9.451  0.0000E+00  0.0000E+00  0.8000E+01  0.8000E+01
     -9.392  0.4085E+00  0.2430E-02  0.8024E+01  0.8000E+01
     -9.332  0.2207E+02  0.2247E+02  0.9333E+01  0.9333E+01
     -9.273  0.3695E+00  0.3383E-02  0.9355E+01  0.9334E+01
     -9.214  0.1087E+02  0.1123E+02  0.1000E+02  0.1000E+02
     -9.154  0.3369E+01  0.1147E+01  0.1020E+02  0.1007E+02
     -9.095  0.3033E+02  0.3246E+02  0.1200E+02  0.1199E+02
     -9.036  0.1185E-01  0.1023E+00  0.1200E+02  0.1200E+02
     -8.976  0.0000E+00  0.0000E+00  0.1200E+02  0.1200E+02
     -8.917  0.0000E+00  0.0000E+00  0.1200E+02  0.1200E+02
     -8.858  0.0000E+00  0.0000E+00  0.1200E+02  0.1200E+02
     -8.798  0.0000E+00  0.0000E+00  0.1200E+02  0.1200E+02
     -8.739  0.0000E+00  0.0000E+00  0.1200E+02  0.1200E+02
     -8.680  0.0000E+00  0.0000E+00  0.1200E+02  0.1200E+02
     -8.620  0.2265E-02  0.7420E-05  0.1200E+02  0.1200E+02
     -8.561  0.5969E+01  0.3952E+01  0.1235E+02  0.1223E+02
     -8.502  0.9476E+01  0.1104E+02  0.1292E+02  0.1289E+02
     -8.442  0.2124E+02  0.1989E+02  0.1418E+02  0.1407E+02
     -8.383  0.6526E+01  0.8188E+01  0.1456E+02  0.1456E+02
     -8.324  0.2381E+02  0.2277E+02  0.1598E+02  0.1591E+02
     -8.264  0.3071E+02  0.2996E+02  0.1780E+02  0.1768E+02
     -8.205  0.1253E+02  0.1038E+02  0.1854E+02  0.1830E+02
     -8.146  0.3034E+02  0.2888E+02  0.2034E+02  0.2001E+02
     -8.086  0.2429E+02  0.2771E+02  0.2178E+02  0.2166E+02
     -8.027  0.2704E+02  0.2037E+02  0.2339E+02  0.2287E+02
     -7.968  0.3016E+02  0.3735E+02  0.2518E+02  0.2508E+02
     -7.908  0.1115E+02  0.1191E+02  0.2584E+02  0.2579E+02
     -7.849  0.1288E+02  0.1058E+02  0.2660E+02  0.2642E+02
     -7.790  0.2543E+02  0.2595E+02  0.2811E+02  0.2795E+02
     -7.730  0.1932E+02  0.1947E+02  0.2926E+02  0.2911E+02
     -7.671  0.3256E+02  0.3081E+02  0.3119E+02  0.3094E+02
     -7.612  0.2815E+02  0.3001E+02  0.3286E+02  0.3272E+02
     -7.552  0.2005E+02  0.1649E+02  0.3405E+02  0.3370E+02
     -7.493  0.3045E+02  0.3282E+02  0.3585E+02  0.3564E+02
     -7.434  0.3191E+02  0.3292E+02  0.3775E+02  0.3760E+02
     -7.374  0.1188E+02  0.1314E+02  0.3845E+02  0.3838E+02
     -7.315  0.1162E+02  0.1242E+02  0.3914E+02  0.3911E+02
     -7.256  0.2404E+02  0.2060E+02  0.4057E+02  0.4034E+02
     -7.196  0.2416E+02  0.2774E+02  0.4200E+02  0.4198E+02
     -7.137  0.2807E+02  0.2404E+02  0.4367E+02  0.4341E+02
     -7.078  0.3515E+02  0.3499E+02  0.4575E+02  0.4548E+02
     -7.018  0.3037E+02  0.3370E+02  0.4756E+02  0.4748E+02
     -6.959  0.2422E+02  0.2195E+02  0.4899E+02  0.4878E+02
     -6.900  0.2371E+02  0.2170E+02  0.5040E+02  0.5007E+02
     -6.840  0.2642E+02  0.2724E+02  0.5197E+02  0.5169E+02
     -6.781  0.2103E+02  0.2304E+02  0.5321E+02  0.5306E+02
     -6.722  0.3469E+02  0.3304E+02  0.5527E+02  0.5502E+02
     -6.662  0.3046E+02  0.3225E+02  0.5708E+02  0.5693E+02
     -6.603  0.2933E+02  0.2595E+02  0.5882E+02  0.5847E+02
     -6.544  0.1836E+02  0.2154E+02  0.5991E+02  0.5975E+02
     -6.484  0.2181E+02  0.2187E+02  0.6120E+02  0.6105E+02
     -6.425  0.2226E+02  0.2194E+02  0.6252E+02  0.6235E+02
     -6.366  0.3444E+02  0.3416E+02  0.6457E+02  0.6437E+02
     -6.306  0.3716E+02  0.3163E+02  0.6677E+02  0.6625E+02
     -6.247  0.3277E+02  0.3761E+02  0.6872E+02  0.6848E+02
     -6.188  0.2540E+02  0.2486E+02  0.7022E+02  0.6996E+02
     -6.128  0.3598E+02  0.3428E+02  0.7236E+02  0.7199E+02
     -6.069  0.2588E+02  0.2735E+02  0.7389E+02  0.7361E+02
     -6.010  0.2023E+02  0.2209E+02  0.7509E+02  0.7492E+02
     -5.951  0.1714E+02  0.1866E+02  0.7611E+02  0.7603E+02
     -5.891  0.1739E+02  0.1043E+02  0.7714E+02  0.7665E+02
     -5.832  0.3125E+02  0.3788E+02  0.7900E+02  0.7890E+02
     -5.773  0.1796E+02  0.1556E+02  0.8006E+02  0.7982E+02
     -5.713  0.1630E+02  0.1872E+02  0.8103E+02  0.8093E+02
     -5.654  0.2329E+02  0.2273E+02  0.8241E+02  0.8228E+02
     -5.595  0.3007E+02  0.2551E+02  0.8420E+02  0.8379E+02
     -5.535  0.2056E+02  0.2309E+02  0.8542E+02  0.8516E+02
     -5.476  0.2565E+02  0.2811E+02  0.8694E+02  0.8683E+02
     -5.417  0.1848E+02  0.1864E+02  0.8803E+02  0.8794E+02
     -5.357  0.2109E+02  0.1799E+02  0.8929E+02  0.8900E+02
     -5.298  0.3452E+02  0.3698E+02  0.9133E+02  0.9120E+02
     -5.239  0.2968E+02  0.2848E+02  0.9309E+02  0.9289E+02
     -5.179  0.3015E+02  0.3009E+02  0.9488E+02  0.9467E+02
     -5.120  0.1958E+02  0.1883E+02  0.9604E+02  0.9579E+02
     -5.061  0.2422E+02  0.2508E+02  0.9748E+02  0.9728E+02
     -5.001  0.2252E+02  0.2075E+02  0.9882E+02  0.9851E+02
     -4.942  0.2759E+02  0.2918E+02  0.1005E+03  0.1002E+03
     -4.883  0.1927E+02  0.1785E+02  0.1016E+03  0.1013E+03
     -4.823  0.2801E+02  0.3019E+02  0.1033E+03  0.1031E+03
     -4.764  0.2399E+02  0.2481E+02  0.1047E+03  0.1046E+03
     -4.705  0.3026E+02  0.3068E+02  0.1065E+03  0.1064E+03
     -4.645  0.2328E+02  0.1848E+02  0.1079E+03  0.1075E+03
     -4.586  0.3043E+02  0.3248E+02  0.1097E+03  0.1094E+03
     -4.527  0.2342E+02  0.2227E+02  0.1111E+03  0.1107E+03
     -4.467  0.2914E+02  0.3217E+02  0.1128E+03  0.1126E+03
     -4.408  0.2602E+02  0.2532E+02  0.1143E+03  0.1141E+03
     -4.349  0.2072E+02  0.2347E+02  0.1156E+03  0.1155E+03
     -4.289  0.2641E+02  0.2174E+02  0.1171E+03  0.1168E+03
     -4.230  0.1620E+02  0.1787E+02  0.1181E+03  0.1179E+03
     -4.171  0.1351E+02  0.1603E+02  0.1189E+03  0.1188E+03
     -4.111  0.1772E+02  0.1348E+02  0.1199E+03  0.1196E+03
     -4.052  0.2057E+02  0.1795E+02  0.1212E+03  0.1207E+03
     -3.993  0.2261E+02  0.2700E+02  0.1225E+03  0.1223E+03
     -3.933  0.2727E+02  0.2864E+02  0.1241E+03  0.1240E+03
     -3.874  0.2006E+02  0.1833E+02  0.1253E+03  0.1251E+03
     -3.815  0.1592E+02  0.1526E+02  0.1263E+03  0.1260E+03
     -3.755  0.1587E+02  0.1829E+02  0.1272E+03  0.1271E+03
     -3.696  0.2396E+02  0.2246E+02  0.1286E+03  0.1284E+03
     -3.637  0.2052E+02  0.2122E+02  0.1298E+03  0.1297E+03
     -3.577  0.3151E+02  0.2686E+02  0.1317E+03  0.1313E+03
     -3.518  0.2001E+02  0.2739E+02  0.1329E+03  0.1329E+03
     -3.459  0.2272E+02  0.1802E+02  0.1342E+03  0.1340E+03
     -3.399  0.2676E+02  0.2814E+02  0.1358E+03  0.1356E+03
     -3.340  0.3630E+02  0.3359E+02  0.1380E+03  0.1376E+03
     -3.281  0.2127E+02  0.2564E+02  0.1392E+03  0.1391E+03
     -3.221  0.2980E+02  0.2421E+02  0.1410E+03  0.1406E+03
     -3.162  0.2375E+02  0.2710E+02  0.1424E+03  0.1422E+03
     -3.103  0.2260E+02  0.2394E+02  0.1438E+03  0.1436E+03
     -3.043  0.2634E+02  0.2634E+02  0.1453E+03  0.1452E+03
     -2.984  0.2148E+02  0.2035E+02  0.1466E+03  0.1464E+03
     -2.925  0.2748E+02  0.3026E+02  0.1482E+03  0.1482E+03
     -2.865  0.2654E+02  0.2668E+02  0.1498E+03  0.1498E+03
     -2.806  0.2468E+02  0.2212E+02  0.1513E+03  0.1511E+03
     -2.747  0.3021E+02  0.3178E+02  0.1531E+03  0.1529E+03
     -2.687  0.2438E+02  0.2142E+02  0.1545E+03  0.1542E+03
     -2.628  0.3666E+02  0.3299E+02  0.1567E+03  0.1562E+03
     -2.569  0.3789E+02  0.3590E+02  0.1589E+03  0.1583E+03
     -2.510  0.3330E+02  0.3763E+02  0.1609E+03  0.1605E+03
     -2.450  0.2592E+02  0.2693E+02  0.1624E+03  0.1621E+03
     -2.391  0.1924E+02  0.2089E+02  0.1636E+03  0.1634E+03
     -2.332  0.3176E+02  0.3298E+02  0.1655E+03  0.1653E+03
     -2.272  0.2556E+02  0.2530E+02  0.1670E+03  0.1668E+03
     -2.213  0.3668E+02  0.3287E+02  0.1692E+03  0.1688E+03
     -2.154  0.3543E+02  0.3947E+02  0.1713E+03  0.1711E+03
     -2.094  0.2916E+02  0.2480E+02  0.1730E+03  0.1726E+03
     -2.035  0.2980E+02  0.2985E+02  0.1748E+03  0.1744E+03
     -1.976  0.1878E+02  0.2244E+02  0.1759E+03  0.1757E+03
     -1.916  0.1880E+02  0.1990E+02  0.1770E+03  0.1769E+03
     -1.857  0.2531E+02  0.2102E+02  0.1785E+03  0.1781E+03
     -1.798  0.1248E+02  0.1742E+02  0.1792E+03  0.1792E+03
     -1.738  0.1382E+02  0.1119E+02  0.1800E+03  0.1798E+03
     -1.679  0.2742E+02  0.2710E+02  0.1817E+03  0.1814E+03
     -1.620  0.1328E+02  0.1410E+02  0.1825E+03  0.1823E+03
     -1.560  0.1442E+02  0.1642E+02  0.1833E+03  0.1832E+03
     -1.501  0.5327E+01  0.5333E+01  0.1836E+03  0.1836E+03
     -1.442  0.2169E+02  0.1753E+02  0.1849E+03  0.1846E+03
     -1.382  0.2140E+02  0.2484E+02  0.1862E+03  0.1861E+03
     -1.323  0.1298E+02  0.1122E+02  0.1870E+03  0.1867E+03
     -1.264  0.2466E+02  0.2539E+02  0.1884E+03  0.1882E+03
     -1.204  0.1153E+02  0.1407E+02  0.1891E+03  0.1891E+03
     -1.145  0.6837E+01  0.4740E+01  0.1895E+03  0.1894E+03
     -1.086  0.2253E+02  0.1929E+02  0.1909E+03  0.1905E+03
     -1.026  0.2219E+02  0.2527E+02  0.1922E+03  0.1920E+03
     -0.967  0.3007E+02  0.2613E+02  0.1940E+03  0.1936E+03
     -0.908  0.2705E+02  0.2799E+02  0.1956E+03  0.1952E+03
     -0.848  0.2791E+02  0.3032E+02  0.1972E+03  0.1970E+03
     -0.789  0.4508E+02  0.3981E+02  0.1999E+03  0.1994E+03
     -0.730  0.3650E+02  0.3879E+02  0.2021E+03  0.2017E+03
     -0.670  0.3395E+02  0.3070E+02  0.2041E+03  0.2035E+03
     -0.611  0.3771E+02  0.3560E+02  0.2063E+03  0.2056E+03
     -0.552  0.4924E+02  0.4967E+02  0.2092E+03  0.2086E+03
     -0.492  0.3284E+02  0.3851E+02  0.2112E+03  0.2108E+03
     -0.433  0.3352E+02  0.3293E+02  0.2132E+03  0.2128E+03
     -0.374  0.2549E+02  0.2396E+02  0.2147E+03  0.2142E+03
     -0.314  0.3492E+02  0.3612E+02  0.2167E+03  0.2164E+03
     -0.255  0.4459E+02  0.4561E+02  0.2194E+03  0.2191E+03
     -0.196  0.3527E+02  0.3536E+02  0.2215E+03  0.2212E+03
     -0.136  0.4181E+02  0.4294E+02  0.2240E+03  0.2237E+03
     -0.077  0.4463E+02  0.4140E+02  0.2266E+03  0.2262E+03
     -0.018  0.4016E+02  0.4200E+02  0.2290E+03  0.2287E+03
      0.042  0.5025E+02  0.4690E+02  0.2320E+03  0.2314E+03
      0.101  0.4615E+02  0.4807E+02  0.2347E+03  0.2343E+03
      0.160  0.3863E+02  0.4078E+02  0.2370E+03  0.2367E+03
      0.220  0.4392E+02  0.3834E+02  0.2396E+03  0.2390E+03
      0.279  0.3317E+02  0.3737E+02  0.2416E+03  0.2412E+03
      0.338  0.5879E+02  0.5950E+02  0.2451E+03  0.2447E+03
      0.398  0.5314E+02  0.4999E+02  0.2482E+03  0.2477E+03
      0.457  0.4921E+02  0.5171E+02  0.2511E+03  0.2508E+03
      0.516  0.4978E+02  0.4948E+02  0.2541E+03  0.2537E+03
      0.576  0.3843E+02  0.3762E+02  0.2564E+03  0.2559E+03
      0.635  0.5305E+02  0.5420E+02  0.2595E+03  0.2592E+03
      0.694  0.4743E+02  0.4468E+02  0.2623E+03  0.2618E+03
      0.754  0.4720E+02  0.5055E+02  0.2651E+03  0.2648E+03
      0.813  0.5807E+02  0.5496E+02  0.2686E+03  0.2681E+03
      0.872  0.4123E+02  0.4399E+02  0.2710E+03  0.2707E+03
      0.931  0.6275E+02  0.5925E+02  0.2748E+03  0.2742E+03
      0.991  0.4409E+02  0.4457E+02  0.2774E+03  0.2768E+03
      1.050  0.6147E+02  0.6107E+02  0.2810E+03  0.2805E+03
      1.109  0.5212E+02  0.5586E+02  0.2841E+03  0.2838E+03
      1.169  0.5256E+02  0.5114E+02  0.2872E+03  0.2868E+03
      1.228  0.5297E+02  0.5323E+02  0.2904E+03  0.2900E+03
      1.287  0.5135E+02  0.4925E+02  0.2934E+03  0.2929E+03
      1.347  0.5393E+02  0.5530E+02  0.2966E+03  0.2962E+03
      1.406  0.3519E+02  0.3739E+02  0.2987E+03  0.2984E+03
      1.465  0.3600E+02  0.3481E+02  0.3008E+03  0.3005E+03
      1.525  0.4370E+02  0.4826E+02  0.3034E+03  0.3033E+03
      1.584  0.4113E+02  0.3604E+02  0.3059E+03  0.3055E+03
      1.643  0.4160E+02  0.4449E+02  0.3083E+03  0.3081E+03
      1.703  0.4431E+02  0.4216E+02  0.3110E+03  0.3106E+03
      1.762  0.4204E+02  0.3942E+02  0.3135E+03  0.3129E+03
      1.821  0.4149E+02  0.4288E+02  0.3159E+03  0.3155E+03
      1.881  0.2536E+02  0.3020E+02  0.3174E+03  0.3173E+03
      1.940  0.3635E+02  0.3242E+02  0.3196E+03  0.3192E+03
      1.999  0.3541E+02  0.3755E+02  0.3217E+03  0.3214E+03
      2.059  0.3554E+02  0.3456E+02  0.3238E+03  0.3235E+03
      2.118  0.5085E+02  0.5071E+02  0.3268E+03  0.3265E+03
      2.177  0.3370E+02  0.3477E+02  0.3288E+03  0.3285E+03
      2.237  0.2905E+02  0.2922E+02  0.3305E+03  0.3303E+03
      2.296  0.3786E+02  0.3740E+02  0.3328E+03  0.3325E+03
      2.355  0.2561E+02  0.2337E+02  0.3343E+03  0.3339E+03
      2.415  0.4083E+02  0.4102E+02  0.3367E+03  0.3363E+03
      2.474  0.3333E+02  0.3347E+02  0.3387E+03  0.3383E+03
      2.533  0.2922E+02  0.3061E+02  0.3404E+03  0.3401E+03
      2.593  0.3434E+02  0.2855E+02  0.3425E+03  0.3418E+03
      2.652  0.5060E+02  0.5363E+02  0.3455E+03  0.3450E+03
      2.711  0.3963E+02  0.3817E+02  0.3478E+03  0.3473E+03
      2.771  0.3797E+02  0.4349E+02  0.3501E+03  0.3498E+03
      2.830  0.2556E+02  0.2395E+02  0.3516E+03  0.3513E+03
      2.889  0.4698E+02  0.4332E+02  0.3544E+03  0.3538E+03
      2.949  0.2652E+02  0.2685E+02  0.3560E+03  0.3554E+03
      3.008  0.3883E+02  0.3714E+02  0.3583E+03  0.3576E+03
      3.067  0.4672E+02  0.4336E+02  0.3610E+03  0.3602E+03
      3.127  0.3266E+02  0.3687E+02  0.3630E+03  0.3624E+03
      3.186  0.3783E+02  0.3873E+02  0.3652E+03  0.3647E+03
      3.245  0.3731E+02  0.3882E+02  0.3674E+03  0.3670E+03
      3.305  0.4576E+02  0.4804E+02  0.3701E+03  0.3698E+03
      3.364  0.2453E+02  0.2013E+02  0.3716E+03  0.3710E+03
      3.423  0.5287E+02  0.5006E+02  0.3747E+03  0.3740E+03
      3.483  0.3684E+02  0.4238E+02  0.3769E+03  0.3765E+03
      3.542  0.2378E+02  0.2503E+02  0.3783E+03  0.3780E+03
      3.601  0.3760E+02  0.3191E+02  0.3806E+03  0.3799E+03
      3.661  0.3647E+02  0.3641E+02  0.3827E+03  0.3821E+03
      3.720  0.3318E+02  0.3273E+02  0.3847E+03  0.3840E+03
      3.779  0.2757E+02  0.3267E+02  0.3863E+03  0.3859E+03
      3.839  0.4970E+02  0.4655E+02  0.3893E+03  0.3887E+03
      3.898  0.2204E+02  0.2749E+02  0.3906E+03  0.3903E+03
      3.957  0.2523E+02  0.2246E+02  0.3921E+03  0.3917E+03
      4.017  0.2939E+02  0.2920E+02  0.3938E+03  0.3934E+03
      4.076  0.2891E+02  0.2343E+02  0.3955E+03  0.3948E+03
      4.135  0.2516E+02  0.3471E+02  0.3970E+03  0.3968E+03
      4.195  0.2502E+02  0.2078E+02  0.3985E+03  0.3981E+03
      4.254  0.4984E+02  0.5181E+02  0.4015E+03  0.4012E+03
      4.313  0.5282E+02  0.4909E+02  0.4046E+03  0.4041E+03
      4.372  0.2803E+02  0.3314E+02  0.4063E+03  0.4060E+03
      4.432  0.3722E+02  0.3016E+02  0.4085E+03  0.4078E+03
      4.491  0.3353E+02  0.4276E+02  0.4105E+03  0.4104E+03
      4.550  0.3989E+02  0.2981E+02  0.4128E+03  0.4121E+03
      4.610  0.3231E+02  0.3998E+02  0.4148E+03  0.4145E+03
      4.669  0.4214E+02  0.3595E+02  0.4173E+03  0.4166E+03
      4.728  0.3463E+02  0.4042E+02  0.4193E+03  0.4190E+03
      4.788  0.4662E+02  0.4381E+02  0.4221E+03  0.4216E+03
      4.847  0.3979E+02  0.4132E+02  0.4244E+03  0.4241E+03
      4.906  0.3402E+02  0.3578E+02  0.4265E+03  0.4262E+03
      4.966  0.3654E+02  0.3461E+02  0.4286E+03  0.4283E+03
      5.025  0.4070E+02  0.4009E+02  0.4310E+03  0.4306E+03
      5.084  0.4087E+02  0.4484E+02  0.4335E+03  0.4333E+03
      5.144  0.3104E+02  0.2592E+02  0.4353E+03  0.4348E+03
      5.203  0.5194E+02  0.5506E+02  0.4384E+03  0.4381E+03
      5.262  0.4381E+02  0.4409E+02  0.4410E+03  0.4407E+03
      5.322  0.3974E+02  0.3354E+02  0.4433E+03  0.4427E+03
      5.381  0.3641E+02  0.4154E+02  0.4455E+03  0.4452E+03
      5.440  0.4791E+02  0.4385E+02  0.4483E+03  0.4478E+03
      5.500  0.5135E+02  0.5235E+02  0.4514E+03  0.4509E+03
      5.559  0.4180E+02  0.4009E+02  0.4539E+03  0.4533E+03
      5.618  0.4806E+02  0.5023E+02  0.4567E+03  0.4562E+03
      5.678  0.4592E+02  0.4401E+02  0.4595E+03  0.4589E+03
      5.737  0.4261E+02  0.4627E+02  0.4620E+03  0.4616E+03
      5.796  0.2879E+02  0.2893E+02  0.4637E+03  0.4633E+03
      5.856  0.5268E+01  0.1160E+02  0.4640E+03  0.4640E+03
      5.915  0.0000E+00  0.0000E+00  0.4640E+03  0.4640E+03
      5.974  0.0000E+00  0.0000E+00  0.4640E+03  0.4640E+03
      6.034  0.0000E+00  0.0000E+00  0.4640E+03  0.4640E+03
      6.093  0.0000E+00  0.0000E+00  0.4640E+03  0.4640E+03
      6.152  0.0000E+00  0.0000E+00  0.4640E+03  0.4640E+03
      6.212  0.0000E+00  0.0000E+00  0.4640E+03  0.4640E+03
      6.271  0.0000E+00  0.0000E+00  0.4640E+03  0.4640E+03
      6.330  0.0000E+00  0.0000E+00  0.4640E+03  0.4640E+03
      6.390  0.0000E+00  0.0000E+00  0.4640E+03  0.4640E+03
      6.449  0.0000E+00  0.0000E+00  0.4640E+03  0.4640E+03
      6.508  0.0000E+00  0.0000E+00  0.4640E+03  0.4640E+03
      6.568  0.0000E+00  0.0000E+00  0.4640E+03  0.4640E+03
      6.627  0.0000E+00  0.0000E+00  0.4640E+03  0.4640E+03
