 120 120   0   0
  0.2190039E+02  0.7680595E-09  0.1629300E-08  0.2100086E-08  0.5000000E-15
  1.000000000000000E-004
  CAR 
 Si and Ge interface calculation         
      7.78907210     -8.58062220  301      4.75256181      1.00000000
     -8.581  0.0000E+00  0.0000E+00  0.0000E+00  0.0000E+00
     -8.526  0.0000E+00  0.0000E+00  0.0000E+00  0.0000E+00
     -8.471  0.0000E+00  0.0000E+00  0.0000E+00  0.0000E+00
     -8.417  0.0000E+00  0.0000E+00  0.0000E+00  0.0000E+00
     -8.362  0.0000E+00  0.0000E+00  0.0000E+00  0.0000E+00
     -8.308  0.0000E+00  0.0000E+00  0.0000E+00  0.0000E+00
     -8.253  0.0000E+00  0.0000E+00  0.0000E+00  0.0000E+00
     -8.199  0.0000E+00  0.0000E+00  0.0000E+00  0.0000E+00
     -8.144  0.0000E+00  0.0000E+00  0.0000E+00  0.0000E+00
     -8.090  0.0000E+00  0.0000E+00  0.0000E+00  0.0000E+00
     -8.035  0.0000E+00  0.0000E+00  0.0000E+00  0.0000E+00
     -7.980  0.0000E+00  0.0000E+00  0.0000E+00  0.0000E+00
     -7.926  0.0000E+00  0.0000E+00  0.0000E+00  0.0000E+00
     -7.871  0.2079E-05  0.8372E-08  0.1135E-06  0.4568E-09
     -7.817  0.4570E+01  0.4423E+01  0.2494E+00  0.2414E+00
     -7.762  0.1150E-01  0.1583E+00  0.2500E+00  0.2500E+00
     -7.708  0.1017E+02  0.9076E+01  0.8048E+00  0.7452E+00
     -7.653  0.8159E+01  0.9251E+01  0.1250E+01  0.1250E+01
     -7.598  0.2702E+01  0.3948E+00  0.1397E+01  0.1272E+01
     -7.544  0.1863E+02  0.2001E+02  0.2414E+01  0.2364E+01
     -7.489  0.1574E+01  0.2500E+01  0.2500E+01  0.2500E+01
     -7.435  0.8329E+01  0.6500E+01  0.2954E+01  0.2855E+01
     -7.380  0.1916E+02  0.2098E+02  0.4000E+01  0.3999E+01
     -7.326  0.4942E+01  0.1965E+01  0.4270E+01  0.4107E+01
     -7.271  0.3607E+02  0.3582E+02  0.6238E+01  0.6061E+01
     -7.216  0.2654E+02  0.2734E+02  0.7686E+01  0.7553E+01
     -7.162  0.7288E+01  0.5367E+01  0.8084E+01  0.7846E+01
     -7.107  0.3363E+02  0.3207E+02  0.9919E+01  0.9595E+01
     -7.053  0.6198E+01  0.1199E+02  0.1026E+02  0.1025E+02
     -6.998  0.2131E+02  0.1960E+02  0.1142E+02  0.1132E+02
     -6.944  0.2407E+02  0.2381E+02  0.1273E+02  0.1262E+02
     -6.889  0.2345E+02  0.2421E+02  0.1401E+02  0.1394E+02
     -6.835  0.2805E+02  0.2089E+02  0.1554E+02  0.1508E+02
     -6.780  0.2770E+02  0.3548E+02  0.1705E+02  0.1701E+02
     -6.725  0.5540E+01  0.4799E+01  0.1736E+02  0.1728E+02
     -6.671  0.7318E+01  0.8681E+01  0.1776E+02  0.1775E+02
     -6.616  0.2599E+02  0.2429E+02  0.1917E+02  0.1908E+02
     -6.562  0.2480E+02  0.1914E+02  0.2053E+02  0.2012E+02
     -6.507  0.4274E+02  0.4557E+02  0.2286E+02  0.2261E+02
     -6.453  0.4435E+02  0.4812E+02  0.2528E+02  0.2523E+02
     -6.398  0.2373E+02  0.2236E+02  0.2657E+02  0.2645E+02
     -6.343  0.4369E+02  0.4080E+02  0.2896E+02  0.2868E+02
     -6.289  0.3494E+02  0.3626E+02  0.3086E+02  0.3066E+02
     -6.234  0.3042E+02  0.3262E+02  0.3252E+02  0.3244E+02
     -6.180  0.4401E+02  0.3856E+02  0.3493E+02  0.3454E+02
     -6.125  0.3784E+02  0.4085E+02  0.3699E+02  0.3677E+02
     -6.071  0.1390E+02  0.1727E+02  0.3775E+02  0.3771E+02
     -6.016  0.3070E+02  0.2633E+02  0.3942E+02  0.3915E+02
     -5.961  0.4248E+02  0.4582E+02  0.4174E+02  0.4165E+02
     -5.907  0.1807E+02  0.1872E+02  0.4273E+02  0.4267E+02
     -5.852  0.4884E+02  0.4411E+02  0.4539E+02  0.4508E+02
     -5.798  0.2173E+02  0.2300E+02  0.4658E+02  0.4633E+02
     -5.743  0.6690E+02  0.6939E+02  0.5023E+02  0.5012E+02
     -5.689  0.2892E+02  0.2626E+02  0.5181E+02  0.5155E+02
     -5.634  0.3809E+02  0.3591E+02  0.5389E+02  0.5351E+02
     -5.580  0.2978E+02  0.3628E+02  0.5551E+02  0.5549E+02
     -5.525  0.2876E+02  0.2216E+02  0.5708E+02  0.5670E+02
     -5.470  0.4971E+02  0.5174E+02  0.5979E+02  0.5952E+02
     -5.416  0.2918E+02  0.3303E+02  0.6138E+02  0.6133E+02
     -5.361  0.3923E+02  0.3426E+02  0.6353E+02  0.6320E+02
     -5.307  0.5396E+02  0.5584E+02  0.6647E+02  0.6624E+02
     -5.252  0.3905E+02  0.3394E+02  0.6860E+02  0.6810E+02
     -5.198  0.5632E+02  0.6219E+02  0.7167E+02  0.7149E+02
     -5.143  0.4992E+02  0.5118E+02  0.7440E+02  0.7428E+02
     -5.088  0.5039E+02  0.4780E+02  0.7715E+02  0.7689E+02
     -5.034  0.5068E+02  0.4945E+02  0.7991E+02  0.7959E+02
     -4.979  0.3671E+02  0.3917E+02  0.8192E+02  0.8173E+02
     -4.925  0.3404E+02  0.3160E+02  0.8377E+02  0.8345E+02
     -4.870  0.4795E+02  0.4915E+02  0.8639E+02  0.8613E+02
     -4.816  0.2761E+02  0.2886E+02  0.8790E+02  0.8771E+02
     -4.761  0.2717E+02  0.2587E+02  0.8938E+02  0.8912E+02
     -4.706  0.4192E+02  0.3917E+02  0.9167E+02  0.9126E+02
     -4.652  0.2809E+02  0.3272E+02  0.9320E+02  0.9304E+02
     -4.597  0.3625E+02  0.3736E+02  0.9518E+02  0.9508E+02
     -4.543  0.3175E+02  0.3119E+02  0.9691E+02  0.9678E+02
     -4.488  0.4648E+02  0.4368E+02  0.9945E+02  0.9916E+02
     -4.434  0.2253E+02  0.2341E+02  0.1007E+03  0.1004E+03
     -4.379  0.4018E+02  0.3731E+02  0.1029E+03  0.1025E+03
     -4.325  0.4100E+02  0.4318E+02  0.1051E+03  0.1048E+03
     -4.270  0.2704E+02  0.3087E+02  0.1066E+03  0.1065E+03
     -4.215  0.3525E+02  0.3568E+02  0.1085E+03  0.1085E+03
     -4.161  0.1194E+02  0.9706E+01  0.1092E+03  0.1090E+03
     -4.106  0.2307E+02  0.2298E+02  0.1104E+03  0.1102E+03
     -4.052  0.1292E+02  0.1384E+02  0.1111E+03  0.1110E+03
     -3.997  0.2651E+02  0.2178E+02  0.1126E+03  0.1122E+03
     -3.943  0.1886E+02  0.2290E+02  0.1136E+03  0.1134E+03
     -3.888  0.1176E+02  0.1108E+02  0.1142E+03  0.1140E+03
     -3.833  0.1668E+02  0.1196E+02  0.1151E+03  0.1147E+03
     -3.779  0.3024E+02  0.3652E+02  0.1168E+03  0.1167E+03
     -3.724  0.4262E+01  0.5844E+01  0.1170E+03  0.1170E+03
     -3.670  0.8634E+01  0.8966E+01  0.1175E+03  0.1175E+03
     -3.615  0.2770E+02  0.2349E+02  0.1190E+03  0.1188E+03
     -3.561  0.2396E+02  0.2612E+02  0.1203E+03  0.1202E+03
     -3.506  0.1469E+02  0.1116E+02  0.1211E+03  0.1208E+03
     -3.451  0.2503E+02  0.2931E+02  0.1225E+03  0.1224E+03
     -3.397  0.1226E+01  0.1696E+01  0.1226E+03  0.1225E+03
     -3.342  0.2656E+02  0.2330E+02  0.1240E+03  0.1238E+03
     -3.288  0.1787E+02  0.2086E+02  0.1250E+03  0.1249E+03
     -3.233  0.9629E+01  0.1055E+02  0.1255E+03  0.1255E+03
     -3.179  0.3443E+02  0.2641E+02  0.1274E+03  0.1269E+03
     -3.124  0.2724E+02  0.2904E+02  0.1289E+03  0.1285E+03
     -3.069  0.1388E+02  0.1639E+02  0.1296E+03  0.1294E+03
     -3.015  0.7084E+01  0.9002E+01  0.1300E+03  0.1299E+03
     -2.960  0.2688E+02  0.2481E+02  0.1315E+03  0.1313E+03
     -2.906  0.4085E+02  0.3644E+02  0.1337E+03  0.1332E+03
     -2.851  0.2810E+02  0.3182E+02  0.1352E+03  0.1350E+03
     -2.797  0.3440E+02  0.2860E+02  0.1371E+03  0.1365E+03
     -2.742  0.4015E+02  0.4460E+02  0.1393E+03  0.1390E+03
     -2.688  0.3293E+02  0.3130E+02  0.1411E+03  0.1407E+03
     -2.633  0.6009E+02  0.5866E+02  0.1444E+03  0.1439E+03
     -2.578  0.4612E+02  0.4750E+02  0.1469E+03  0.1465E+03
     -2.524  0.7419E+02  0.7121E+02  0.1509E+03  0.1504E+03
     -2.469  0.4285E+02  0.4777E+02  0.1533E+03  0.1530E+03
     -2.415  0.5662E+02  0.5450E+02  0.1564E+03  0.1559E+03
     -2.360  0.8588E+02  0.8967E+02  0.1611E+03  0.1608E+03
     -2.306  0.4016E+02  0.3964E+02  0.1633E+03  0.1630E+03
     -2.251  0.3373E+02  0.3523E+02  0.1651E+03  0.1649E+03
     -2.196  0.5390E+02  0.5094E+02  0.1680E+03  0.1677E+03
     -2.142  0.4977E+02  0.5222E+02  0.1708E+03  0.1706E+03
     -2.087  0.4238E+02  0.4122E+02  0.1731E+03  0.1728E+03
     -2.033  0.5081E+02  0.4888E+02  0.1758E+03  0.1755E+03
     -1.978  0.5331E+02  0.5670E+02  0.1787E+03  0.1786E+03
     -1.924  0.2196E+02  0.2339E+02  0.1799E+03  0.1798E+03
     -1.869  0.1281E+02  0.1172E+02  0.1806E+03  0.1805E+03
     -1.814  0.4797E+01  0.5611E+01  0.1809E+03  0.1808E+03
     -1.760  0.3376E+02  0.3514E+02  0.1827E+03  0.1827E+03
     -1.705  0.6054E+02  0.5274E+02  0.1860E+03  0.1856E+03
     -1.651  0.3924E+02  0.3914E+02  0.1882E+03  0.1877E+03
     -1.596  0.6981E+02  0.7067E+02  0.1920E+03  0.1916E+03
     -1.542  0.5739E+01  0.1253E+02  0.1923E+03  0.1923E+03
     -1.487  0.1716E+02  0.1826E+02  0.1933E+03  0.1932E+03
     -1.433  0.2881E+02  0.2344E+02  0.1948E+03  0.1945E+03
     -1.378  0.3927E+02  0.4073E+02  0.1970E+03  0.1968E+03
     -1.323  0.2321E+02  0.2528E+02  0.1982E+03  0.1981E+03
     -1.269  0.2302E+02  0.2437E+02  0.1995E+03  0.1995E+03
     -1.214  0.2323E+00  0.7253E+00  0.1995E+03  0.1995E+03
     -1.160  0.9164E+01  0.8716E+01  0.2000E+03  0.2000E+03
     -1.105  0.2378E+02  0.1837E+02  0.2013E+03  0.2010E+03
     -1.051  0.2319E+02  0.2700E+02  0.2026E+03  0.2025E+03
     -0.996  0.3912E+02  0.3745E+02  0.2047E+03  0.2045E+03
     -0.941  0.7082E+01  0.9548E+01  0.2051E+03  0.2050E+03
     -0.887  0.1123E+02  0.9630E+01  0.2057E+03  0.2055E+03
     -0.832  0.1318E+02  0.1373E+02  0.2064E+03  0.2063E+03
     -0.778  0.1780E+02  0.1599E+02  0.2074E+03  0.2072E+03
     -0.723  0.1775E+02  0.2037E+02  0.2084E+03  0.2083E+03
     -0.669  0.4016E+02  0.3146E+02  0.2105E+03  0.2100E+03
     -0.614  0.3398E+02  0.3956E+02  0.2124E+03  0.2122E+03
     -0.559  0.2636E+02  0.2670E+02  0.2138E+03  0.2136E+03
     -0.505  0.5025E+02  0.5283E+02  0.2166E+03  0.2165E+03
     -0.450  0.7457E+01  0.6167E+01  0.2170E+03  0.2168E+03
     -0.396  0.2182E+02  0.1382E+02  0.2182E+03  0.2176E+03
     -0.341  0.3336E+02  0.4429E+02  0.2200E+03  0.2200E+03
     -0.287  0.3533E+01  0.7931E+00  0.2202E+03  0.2200E+03
     -0.232  0.1889E+02  0.1558E+02  0.2212E+03  0.2209E+03
     -0.178  0.2776E+02  0.3116E+02  0.2227E+03  0.2226E+03
     -0.123  0.5407E+01  0.7764E+01  0.2230E+03  0.2230E+03
     -0.068  0.8707E+01  0.8921E+01  0.2235E+03  0.2235E+03
     -0.014  0.2642E+02  0.2254E+02  0.2249E+03  0.2247E+03
      0.041  0.1008E+02  0.1410E+02  0.2255E+03  0.2255E+03
      0.095  0.4473E+01  0.3699E+01  0.2257E+03  0.2257E+03
      0.150  0.2301E+02  0.1548E+02  0.2270E+03  0.2265E+03
      0.204  0.4069E+02  0.4059E+02  0.2292E+03  0.2288E+03
      0.259  0.8267E+02  0.8027E+02  0.2337E+03  0.2331E+03
      0.314  0.4326E+02  0.5236E+02  0.2361E+03  0.2360E+03
      0.368  0.4176E+02  0.3989E+02  0.2384E+03  0.2382E+03
      0.423  0.4126E+02  0.3715E+02  0.2406E+03  0.2402E+03
      0.477  0.3960E+02  0.4603E+02  0.2428E+03  0.2427E+03
      0.532  0.5174E+02  0.4860E+02  0.2456E+03  0.2454E+03
      0.586  0.3449E+02  0.3296E+02  0.2475E+03  0.2472E+03
      0.641  0.7481E+02  0.7219E+02  0.2516E+03  0.2511E+03
      0.696  0.2941E+02  0.3091E+02  0.2532E+03  0.2528E+03
      0.750  0.1055E+03  0.9923E+02  0.2589E+03  0.2582E+03
      0.805  0.9169E+02  0.9548E+02  0.2639E+03  0.2634E+03
      0.859  0.6102E+02  0.6346E+02  0.2673E+03  0.2669E+03
      0.914  0.5543E+02  0.5568E+02  0.2703E+03  0.2699E+03
      0.968  0.5593E+02  0.5395E+02  0.2733E+03  0.2729E+03
      1.023  0.3776E+02  0.4247E+02  0.2754E+03  0.2752E+03
      1.077  0.9228E+02  0.8469E+02  0.2804E+03  0.2798E+03
      1.132  0.6231E+02  0.7070E+02  0.2838E+03  0.2837E+03
      1.187  0.7902E+02  0.6503E+02  0.2881E+03  0.2872E+03
      1.241  0.6748E+02  0.8059E+02  0.2918E+03  0.2916E+03
      1.296  0.6897E+02  0.6158E+02  0.2956E+03  0.2950E+03
      1.350  0.9314E+02  0.9410E+02  0.3007E+03  0.3001E+03
      1.405  0.6325E+02  0.6671E+02  0.3041E+03  0.3037E+03
      1.459  0.9213E+02  0.8710E+02  0.3092E+03  0.3085E+03
      1.514  0.4566E+02  0.5208E+02  0.3116E+03  0.3113E+03
      1.569  0.5671E+02  0.5257E+02  0.3147E+03  0.3142E+03
      1.623  0.8081E+02  0.8022E+02  0.3191E+03  0.3186E+03
      1.678  0.8114E+02  0.8373E+02  0.3236E+03  0.3231E+03
      1.732  0.7119E+02  0.6985E+02  0.3275E+03  0.3270E+03
      1.787  0.9763E+02  0.9836E+02  0.3328E+03  0.3323E+03
      1.841  0.9937E+02  0.9138E+02  0.3382E+03  0.3373E+03
      1.896  0.8661E+02  0.9305E+02  0.3429E+03  0.3424E+03
      1.951  0.7692E+02  0.7853E+02  0.3471E+03  0.3467E+03
      2.005  0.4776E+02  0.4957E+02  0.3497E+03  0.3494E+03
      2.060  0.6359E+02  0.6466E+02  0.3532E+03  0.3529E+03
      2.114  0.6719E+02  0.6117E+02  0.3569E+03  0.3562E+03
      2.169  0.5377E+02  0.5905E+02  0.3598E+03  0.3595E+03
      2.223  0.7959E+02  0.7806E+02  0.3642E+03  0.3637E+03
      2.278  0.6693E+02  0.6510E+02  0.3678E+03  0.3673E+03
      2.333  0.9570E+02  0.9779E+02  0.3730E+03  0.3726E+03
      2.387  0.5014E+02  0.4982E+02  0.3758E+03  0.3753E+03
      2.442  0.7888E+02  0.7946E+02  0.3801E+03  0.3797E+03
      2.496  0.7969E+02  0.7427E+02  0.3844E+03  0.3837E+03
      2.551  0.6874E+02  0.7628E+02  0.3882E+03  0.3879E+03
      2.605  0.6706E+02  0.6184E+02  0.3918E+03  0.3913E+03
      2.660  0.5439E+02  0.5595E+02  0.3948E+03  0.3943E+03
      2.714  0.7850E+02  0.7883E+02  0.3991E+03  0.3986E+03
      2.769  0.5635E+02  0.5851E+02  0.4022E+03  0.4018E+03
      2.824  0.4223E+02  0.4569E+02  0.4045E+03  0.4043E+03
      2.878  0.5873E+02  0.5036E+02  0.4077E+03  0.4070E+03
      2.933  0.8211E+02  0.8186E+02  0.4121E+03  0.4115E+03
      2.987  0.5008E+02  0.5373E+02  0.4149E+03  0.4144E+03
      3.042  0.5377E+02  0.4857E+02  0.4178E+03  0.4171E+03
      3.096  0.8545E+02  0.8832E+02  0.4225E+03  0.4219E+03
      3.151  0.5414E+02  0.5321E+02  0.4254E+03  0.4248E+03
      3.206  0.7097E+02  0.6877E+02  0.4293E+03  0.4286E+03
      3.260  0.9001E+02  0.9363E+02  0.4342E+03  0.4337E+03
      3.315  0.6264E+02  0.6351E+02  0.4376E+03  0.4371E+03
      3.369  0.6883E+02  0.6514E+02  0.4414E+03  0.4407E+03
      3.424  0.5688E+02  0.5530E+02  0.4445E+03  0.4437E+03
      3.478  0.6153E+02  0.6929E+02  0.4478E+03  0.4475E+03
      3.533  0.2214E+02  0.2321E+02  0.4491E+03  0.4488E+03
      3.588  0.6259E+02  0.5666E+02  0.4525E+03  0.4519E+03
      3.642  0.2320E+02  0.3031E+02  0.4537E+03  0.4535E+03
      3.697  0.2958E+02  0.3071E+02  0.4553E+03  0.4552E+03
      3.751  0.3763E+02  0.3075E+02  0.4574E+03  0.4569E+03
      3.806  0.2841E+02  0.3450E+02  0.4589E+03  0.4587E+03
      3.860  0.2532E+02  0.2784E+02  0.4603E+03  0.4603E+03
      3.915  0.3007E+02  0.2214E+02  0.4620E+03  0.4615E+03
      3.969  0.2827E+02  0.3269E+02  0.4635E+03  0.4633E+03
      4.024  0.3980E+02  0.4191E+02  0.4657E+03  0.4655E+03
      4.079  0.2582E+02  0.2678E+02  0.4671E+03  0.4670E+03
      4.133  0.1470E+02  0.1291E+02  0.4679E+03  0.4677E+03
      4.188  0.2432E+02  0.1411E+02  0.4692E+03  0.4685E+03
      4.242  0.2030E+02  0.2794E+02  0.4703E+03  0.4700E+03
      4.297  0.2264E+02  0.2347E+02  0.4716E+03  0.4713E+03
      4.351  0.1709E+02  0.2231E+02  0.4725E+03  0.4725E+03
      4.406  0.6765E+01  0.3041E+01  0.4729E+03  0.4727E+03
      4.461  0.1935E+02  0.7015E+01  0.4739E+03  0.4730E+03
      4.515  0.2982E+02  0.2832E+02  0.4756E+03  0.4746E+03
      4.570  0.1604E+02  0.2368E+02  0.4764E+03  0.4759E+03
      4.624  0.5912E+01  0.1080E+02  0.4767E+03  0.4765E+03
      4.679  0.1401E+02  0.5070E+01  0.4775E+03  0.4768E+03
      4.733  0.3588E+02  0.2374E+02  0.4795E+03  0.4780E+03
      4.788  0.3818E+02  0.4012E+02  0.4816E+03  0.4802E+03
      4.843  0.2341E+02  0.4297E+02  0.4828E+03  0.4826E+03
      4.897  0.3109E+02  0.1706E+02  0.4845E+03  0.4835E+03
      4.952  0.3132E+02  0.2780E+02  0.4862E+03  0.4850E+03
      5.006  0.2072E+02  0.2243E+02  0.4874E+03  0.4863E+03
      5.061  0.4389E+02  0.3633E+02  0.4898E+03  0.4882E+03
      5.115  0.2944E+02  0.4851E+02  0.4914E+03  0.4909E+03
      5.170  0.3091E+02  0.1776E+02  0.4931E+03  0.4919E+03
      5.224  0.2203E+02  0.3470E+02  0.4943E+03  0.4937E+03
      5.279  0.6216E+02  0.4697E+02  0.4977E+03  0.4963E+03
      5.334  0.2620E+02  0.4280E+02  0.4991E+03  0.4986E+03
      5.388  0.3777E+02  0.2978E+02  0.5011E+03  0.5003E+03
      5.443  0.4603E+02  0.5527E+02  0.5037E+03  0.5033E+03
      5.497  0.2657E+02  0.2685E+02  0.5051E+03  0.5047E+03
      5.552  0.5186E+02  0.4712E+02  0.5079E+03  0.5073E+03
      5.606  0.3592E+02  0.4046E+02  0.5099E+03  0.5095E+03
      5.661  0.5539E+02  0.4507E+02  0.5129E+03  0.5120E+03
      5.716  0.5217E+02  0.5911E+02  0.5158E+03  0.5152E+03
      5.770  0.5028E+02  0.4697E+02  0.5185E+03  0.5178E+03
      5.825  0.4378E+02  0.5020E+02  0.5209E+03  0.5205E+03
      5.879  0.6156E+02  0.5067E+02  0.5243E+03  0.5233E+03
      5.934  0.6253E+02  0.6292E+02  0.5277E+03  0.5267E+03
      5.988  0.5129E+02  0.6643E+02  0.5305E+03  0.5303E+03
      6.043  0.3876E+02  0.3363E+02  0.5326E+03  0.5322E+03
      6.098  0.4885E+02  0.4229E+02  0.5352E+03  0.5345E+03
      6.152  0.6371E+02  0.6849E+02  0.5387E+03  0.5382E+03
      6.207  0.5526E+02  0.5378E+02  0.5417E+03  0.5412E+03
      6.261  0.4416E+02  0.5228E+02  0.5441E+03  0.5440E+03
      6.316  0.2538E+02  0.2241E+02  0.5455E+03  0.5452E+03
      6.370  0.4833E+02  0.4474E+02  0.5482E+03  0.5477E+03
      6.425  0.7453E+02  0.7210E+02  0.5522E+03  0.5516E+03
      6.479  0.6224E+02  0.6345E+02  0.5556E+03  0.5551E+03
      6.534  0.7412E+02  0.7278E+02  0.5597E+03  0.5590E+03
      6.589  0.2446E+02  0.3258E+02  0.5610E+03  0.5608E+03
      6.643  0.3966E+02  0.3761E+02  0.5632E+03  0.5629E+03
      6.698  0.5915E+02  0.5873E+02  0.5664E+03  0.5661E+03
      6.752  0.3026E+02  0.3011E+02  0.5681E+03  0.5677E+03
      6.807  0.5003E+02  0.4957E+02  0.5708E+03  0.5704E+03
      6.861  0.4873E+02  0.5112E+02  0.5734E+03  0.5732E+03
      6.916  0.1793E+02  0.2004E+02  0.5744E+03  0.5743E+03
      6.971  0.3036E+01  0.3972E+01  0.5746E+03  0.5745E+03
      7.025  0.2107E+02  0.1924E+02  0.5757E+03  0.5756E+03
      7.080  0.4863E+01  0.7904E+01  0.5760E+03  0.5760E+03
      7.134  0.0000E+00  0.0000E+00  0.5760E+03  0.5760E+03
      7.189  0.0000E+00  0.0000E+00  0.5760E+03  0.5760E+03
      7.243  0.0000E+00  0.0000E+00  0.5760E+03  0.5760E+03
      7.298  0.0000E+00  0.0000E+00  0.5760E+03  0.5760E+03
      7.353  0.0000E+00  0.0000E+00  0.5760E+03  0.5760E+03
      7.407  0.0000E+00  0.0000E+00  0.5760E+03  0.5760E+03
      7.462  0.0000E+00  0.0000E+00  0.5760E+03  0.5760E+03
      7.516  0.0000E+00  0.0000E+00  0.5760E+03  0.5760E+03
      7.571  0.0000E+00  0.0000E+00  0.5760E+03  0.5760E+03
      7.625  0.0000E+00  0.0000E+00  0.5760E+03  0.5760E+03
      7.680  0.0000E+00  0.0000E+00  0.5760E+03  0.5760E+03
      7.735  0.0000E+00  0.0000E+00  0.5760E+03  0.5760E+03
      7.789  0.0000E+00  0.0000E+00  0.5760E+03  0.5760E+03
