 264 264   0   0
  0.2139018E+02  0.1946760E-08  0.1946760E-08  0.1490025E-08  0.5000000E-15
  1.000000000000000E-004
  CAR 
 Si and Ge interface calculation         
      9.19481835     -8.94536365  301      6.58915769      1.00000000
     -8.945  0.0000E+00  0.0000E+00  0.0000E+00  0.0000E+00
     -8.885  0.0000E+00  0.0000E+00  0.0000E+00  0.0000E+00
     -8.824  0.0000E+00  0.0000E+00  0.0000E+00  0.0000E+00
     -8.764  0.0000E+00  0.0000E+00  0.0000E+00  0.0000E+00
     -8.703  0.0000E+00  0.0000E+00  0.0000E+00  0.0000E+00
     -8.643  0.0000E+00  0.0000E+00  0.0000E+00  0.0000E+00
     -8.583  0.0000E+00  0.0000E+00  0.0000E+00  0.0000E+00
     -8.522  0.0000E+00  0.0000E+00  0.0000E+00  0.0000E+00
     -8.462  0.0000E+00  0.0000E+00  0.0000E+00  0.0000E+00
     -8.401  0.0000E+00  0.0000E+00  0.0000E+00  0.0000E+00
     -8.341  0.0000E+00  0.0000E+00  0.0000E+00  0.0000E+00
     -8.280  0.0000E+00  0.0000E+00  0.0000E+00  0.0000E+00
     -8.220  0.0000E+00  0.0000E+00  0.0000E+00  0.0000E+00
     -8.159  0.2098E-10  0.1214E-06  0.1269E-11  0.7340E-08
     -8.099  0.1451E+02  0.1763E+02  0.8777E+00  0.1066E+01
     -8.038  0.5007E+02  0.5101E+02  0.3905E+01  0.4151E+01
     -7.978  0.6730E+02  0.6364E+02  0.7975E+01  0.7999E+01
     -7.917  0.2660E+02  0.3266E+02  0.9583E+01  0.9975E+01
     -7.857  0.3503E+02  0.3325E+02  0.1170E+02  0.1199E+02
     -7.796  0.4900E+02  0.4914E+02  0.1466E+02  0.1496E+02
     -7.736  0.2209E+02  0.1724E+02  0.1600E+02  0.1600E+02
     -7.676  0.0000E+00  0.0000E+00  0.1600E+02  0.1600E+02
     -7.615  0.0000E+00  0.0000E+00  0.1600E+02  0.1600E+02
     -7.555  0.0000E+00  0.2108E-09  0.1600E+02  0.1600E+02
     -7.494  0.3987E+01  0.8774E+01  0.1624E+02  0.1653E+02
     -7.434  0.7863E+02  0.1069E+03  0.2100E+02  0.2300E+02
     -7.373  0.4969E+02  0.1660E+02  0.2400E+02  0.2400E+02
     -7.313  0.0000E+00  0.0000E+00  0.2400E+02  0.2400E+02
     -7.252  0.0000E+00  0.0000E+00  0.2400E+02  0.2400E+02
     -7.192  0.9210E-01  0.3153E+01  0.2401E+02  0.2419E+02
     -7.131  0.7893E+02  0.1142E+03  0.2878E+02  0.3109E+02
     -7.071  0.6396E+02  0.3077E+02  0.3265E+02  0.3295E+02
     -7.010  0.4090E+02  0.4777E+02  0.3512E+02  0.3584E+02
     -6.950  0.3878E+02  0.3641E+02  0.3746E+02  0.3805E+02
     -6.889  0.4184E+02  0.3232E+02  0.3999E+02  0.4000E+02
     -6.829  0.9396E-01  0.0000E+00  0.4000E+02  0.4000E+02
     -6.769  0.0000E+00  0.0000E+00  0.4000E+02  0.4000E+02
     -6.708  0.0000E+00  0.6885E-14  0.4000E+02  0.4000E+02
     -6.648  0.5958E+00  0.5619E+01  0.4004E+02  0.4034E+02
     -6.587  0.5362E+02  0.5272E+02  0.4328E+02  0.4353E+02
     -6.527  0.4287E+02  0.6373E+02  0.4587E+02  0.4738E+02
     -6.466  0.3033E+02  0.9823E+01  0.4771E+02  0.4798E+02
     -6.406  0.4873E+01  0.3674E+00  0.4800E+02  0.4800E+02
     -6.345  0.0000E+00  0.0000E+00  0.4800E+02  0.4800E+02
     -6.285  0.0000E+00  0.0000E+00  0.4800E+02  0.4800E+02
     -6.224  0.2489E-01  0.1882E+01  0.4800E+02  0.4811E+02
     -6.164  0.3576E+02  0.5308E+02  0.5016E+02  0.5132E+02
     -6.103  0.8019E+02  0.6905E+02  0.5501E+02  0.5550E+02
     -6.043  0.1631E+02  0.8266E+01  0.5600E+02  0.5600E+02
     -5.982  0.0000E+00  0.0000E+00  0.5600E+02  0.5600E+02
     -5.922  0.7531E-03  0.1277E+00  0.5600E+02  0.5601E+02
     -5.862  0.3297E+02  0.3295E+02  0.5799E+02  0.5800E+02
     -5.801  0.3379E+02  0.4645E+02  0.6004E+02  0.6081E+02
     -5.741  0.3751E+02  0.2838E+02  0.6231E+02  0.6253E+02
     -5.680  0.2786E+02  0.2437E+02  0.6399E+02  0.6400E+02
     -5.620  0.8373E+01  0.8254E+01  0.6450E+02  0.6450E+02
     -5.559  0.2221E+02  0.2454E+02  0.6584E+02  0.6598E+02
     -5.499  0.5431E+02  0.5212E+02  0.6912E+02  0.6913E+02
     -5.438  0.1449E+02  0.1432E+02  0.7000E+02  0.7000E+02
     -5.378  0.3299E+02  0.3271E+02  0.7200E+02  0.7198E+02
     -5.317  0.6384E-01  0.3594E+00  0.7200E+02  0.7200E+02
     -5.257  0.8664E+01  0.2275E+02  0.7252E+02  0.7338E+02
     -5.196  0.4707E+02  0.3492E+02  0.7537E+02  0.7549E+02
     -5.136  0.2673E+02  0.3690E+02  0.7699E+02  0.7772E+02
     -5.075  0.5546E+02  0.4540E+02  0.8034E+02  0.8046E+02
     -5.015  0.2333E+02  0.2685E+02  0.8175E+02  0.8209E+02
     -4.955  0.3335E+02  0.3282E+02  0.8377E+02  0.8407E+02
     -4.894  0.2039E+02  0.1563E+02  0.8500E+02  0.8502E+02
     -4.834  0.2877E+02  0.3572E+02  0.8674E+02  0.8718E+02
     -4.773  0.2068E+02  0.1359E+02  0.8799E+02  0.8800E+02
     -4.713  0.3180E+02  0.3772E+02  0.8991E+02  0.9028E+02
     -4.652  0.3847E+02  0.4020E+02  0.9224E+02  0.9271E+02
     -4.592  0.4419E+02  0.4544E+02  0.9491E+02  0.9546E+02
     -4.531  0.4070E+02  0.3388E+02  0.9737E+02  0.9751E+02
     -4.471  0.2107E+02  0.2264E+02  0.9865E+02  0.9888E+02
     -4.410  0.4245E+02  0.4334E+02  0.1012E+03  0.1015E+03
     -4.350  0.3958E+02  0.4243E+02  0.1036E+03  0.1041E+03
     -4.289  0.5143E+02  0.5637E+02  0.1067E+03  0.1075E+03
     -4.229  0.9902E+02  0.9023E+02  0.1127E+03  0.1129E+03
     -4.168  0.4772E+02  0.5607E+02  0.1156E+03  0.1163E+03
     -4.108  0.9241E+02  0.8510E+02  0.1212E+03  0.1215E+03
     -4.048  0.7683E+02  0.8048E+02  0.1258E+03  0.1263E+03
     -3.987  0.3350E+02  0.2814E+02  0.1279E+03  0.1280E+03
     -3.927  0.4407E+02  0.4738E+02  0.1305E+03  0.1309E+03
     -3.866  0.8558E+02  0.8336E+02  0.1357E+03  0.1359E+03
     -3.806  0.7677E+02  0.8693E+02  0.1403E+03  0.1412E+03
     -3.745  0.6185E+02  0.5798E+02  0.1441E+03  0.1447E+03
     -3.685  0.5513E+02  0.4776E+02  0.1474E+03  0.1476E+03
     -3.624  0.5483E+02  0.5512E+02  0.1507E+03  0.1509E+03
     -3.564  0.3745E+02  0.4111E+02  0.1530E+03  0.1534E+03
     -3.503  0.7488E+02  0.7388E+02  0.1575E+03  0.1579E+03
     -3.443  0.5007E+02  0.5508E+02  0.1605E+03  0.1612E+03
     -3.382  0.7764E+02  0.7068E+02  0.1652E+03  0.1655E+03
     -3.322  0.4107E+02  0.3763E+02  0.1677E+03  0.1678E+03
     -3.261  0.4020E+02  0.4611E+02  0.1702E+03  0.1705E+03
     -3.201  0.4900E+02  0.4759E+02  0.1731E+03  0.1734E+03
     -3.141  0.4051E+02  0.4008E+02  0.1756E+03  0.1758E+03
     -3.080  0.6553E+02  0.6344E+02  0.1795E+03  0.1797E+03
     -3.020  0.6200E+02  0.6389E+02  0.1833E+03  0.1835E+03
     -2.959  0.4027E+02  0.3962E+02  0.1857E+03  0.1859E+03
     -2.899  0.6506E+02  0.6562E+02  0.1896E+03  0.1899E+03
     -2.838  0.7569E+02  0.7733E+02  0.1942E+03  0.1946E+03
     -2.778  0.4644E+02  0.4679E+02  0.1970E+03  0.1974E+03
     -2.717  0.8221E+02  0.8485E+02  0.2020E+03  0.2026E+03
     -2.657  0.5968E+02  0.5963E+02  0.2056E+03  0.2062E+03
     -2.596  0.7326E+02  0.6856E+02  0.2100E+03  0.2103E+03
     -2.536  0.8832E+02  0.9068E+02  0.2154E+03  0.2158E+03
     -2.475  0.6032E+02  0.6213E+02  0.2190E+03  0.2195E+03
     -2.415  0.7488E+02  0.7821E+02  0.2236E+03  0.2243E+03
     -2.354  0.6109E+02  0.5109E+02  0.2273E+03  0.2274E+03
     -2.294  0.5015E+02  0.5214E+02  0.2303E+03  0.2305E+03
     -2.233  0.8115E+02  0.8213E+02  0.2352E+03  0.2355E+03
     -2.173  0.6653E+02  0.6903E+02  0.2392E+03  0.2397E+03
     -2.113  0.6960E+02  0.7116E+02  0.2434E+03  0.2440E+03
     -2.052  0.6728E+02  0.6643E+02  0.2475E+03  0.2480E+03
     -1.992  0.7752E+02  0.7495E+02  0.2522E+03  0.2525E+03
     -1.931  0.7930E+02  0.8050E+02  0.2570E+03  0.2574E+03
     -1.871  0.4662E+02  0.5276E+02  0.2598E+03  0.2606E+03
     -1.810  0.8037E+02  0.7977E+02  0.2647E+03  0.2654E+03
     -1.750  0.8457E+02  0.8197E+02  0.2698E+03  0.2704E+03
     -1.689  0.5674E+02  0.5555E+02  0.2732E+03  0.2737E+03
     -1.629  0.7521E+02  0.7804E+02  0.2778E+03  0.2784E+03
     -1.568  0.7900E+02  0.7119E+02  0.2825E+03  0.2827E+03
     -1.508  0.3868E+02  0.4360E+02  0.2849E+03  0.2854E+03
     -1.447  0.7591E+02  0.7999E+02  0.2895E+03  0.2902E+03
     -1.387  0.8169E+02  0.7652E+02  0.2944E+03  0.2948E+03
     -1.326  0.9998E+02  0.9594E+02  0.3004E+03  0.3006E+03
     -1.266  0.4464E+02  0.4597E+02  0.3031E+03  0.3034E+03
     -1.206  0.9493E+02  0.9799E+02  0.3089E+03  0.3093E+03
     -1.145  0.5586E+02  0.4891E+02  0.3123E+03  0.3123E+03
     -1.085  0.6427E+02  0.7626E+02  0.3161E+03  0.3169E+03
     -1.024  0.6509E+02  0.6056E+02  0.3201E+03  0.3206E+03
     -0.964  0.7964E+02  0.7706E+02  0.3249E+03  0.3252E+03
     -0.903  0.6224E+02  0.6811E+02  0.3287E+03  0.3294E+03
     -0.843  0.5875E+02  0.5368E+02  0.3322E+03  0.3326E+03
     -0.782  0.3176E+02  0.2791E+02  0.3341E+03  0.3343E+03
     -0.722  0.4839E+02  0.5075E+02  0.3371E+03  0.3374E+03
     -0.661  0.7421E+02  0.8410E+02  0.3416E+03  0.3424E+03
     -0.601  0.9615E+02  0.8547E+02  0.3474E+03  0.3476E+03
     -0.540  0.5884E+02  0.5834E+02  0.3509E+03  0.3511E+03
     -0.480  0.6602E+02  0.6511E+02  0.3549E+03  0.3551E+03
     -0.419  0.7160E+02  0.7159E+02  0.3592E+03  0.3594E+03
     -0.359  0.4239E+02  0.4315E+02  0.3618E+03  0.3620E+03
     -0.299  0.7367E+02  0.7674E+02  0.3663E+03  0.3667E+03
     -0.238  0.8493E+02  0.8352E+02  0.3714E+03  0.3717E+03
     -0.178  0.5771E+02  0.5952E+02  0.3749E+03  0.3753E+03
     -0.117  0.7413E+02  0.6833E+02  0.3794E+03  0.3794E+03
     -0.057  0.8409E+02  0.8901E+02  0.3845E+03  0.3848E+03
      0.004  0.1003E+03  0.1020E+03  0.3905E+03  0.3910E+03
      0.064  0.1145E+03  0.1173E+03  0.3974E+03  0.3981E+03
      0.125  0.9262E+02  0.8601E+02  0.4031E+03  0.4033E+03
      0.185  0.8046E+02  0.8252E+02  0.4079E+03  0.4083E+03
      0.246  0.8309E+02  0.8223E+02  0.4129E+03  0.4132E+03
      0.306  0.9056E+02  0.9395E+02  0.4184E+03  0.4189E+03
      0.367  0.8523E+02  0.8144E+02  0.4236E+03  0.4239E+03
      0.427  0.9340E+02  0.9472E+02  0.4292E+03  0.4296E+03
      0.488  0.7670E+02  0.7406E+02  0.4339E+03  0.4341E+03
      0.548  0.8986E+02  0.9333E+02  0.4393E+03  0.4397E+03
      0.608  0.9966E+02  0.9310E+02  0.4453E+03  0.4453E+03
      0.669  0.6717E+02  0.6839E+02  0.4494E+03  0.4495E+03
      0.729  0.1051E+03  0.1009E+03  0.4557E+03  0.4556E+03
      0.790  0.9709E+02  0.1021E+03  0.4616E+03  0.4617E+03
      0.850  0.8767E+02  0.8013E+02  0.4669E+03  0.4666E+03
      0.911  0.9479E+02  0.1057E+03  0.4726E+03  0.4730E+03
      0.971  0.1098E+03  0.1027E+03  0.4793E+03  0.4792E+03
      1.032  0.5835E+02  0.6159E+02  0.4828E+03  0.4829E+03
      1.092  0.1122E+03  0.1058E+03  0.4896E+03  0.4893E+03
      1.153  0.7216E+02  0.7118E+02  0.4940E+03  0.4936E+03
      1.213  0.6938E+02  0.7121E+02  0.4982E+03  0.4979E+03
      1.274  0.3228E+02  0.3373E+02  0.5001E+03  0.5000E+03
      1.334  0.1245E+03  0.1269E+03  0.5076E+03  0.5076E+03
      1.395  0.7395E+02  0.7891E+02  0.5121E+03  0.5124E+03
      1.455  0.9984E+02  0.8516E+02  0.5181E+03  0.5176E+03
      1.515  0.8335E+02  0.7911E+02  0.5232E+03  0.5223E+03
      1.576  0.5491E+02  0.5749E+02  0.5265E+03  0.5258E+03
      1.636  0.9499E+02  0.9722E+02  0.5323E+03  0.5317E+03
      1.697  0.8978E+02  0.8833E+02  0.5377E+03  0.5370E+03
      1.757  0.1100E+03  0.1091E+03  0.5443E+03  0.5436E+03
      1.818  0.8537E+02  0.8370E+02  0.5495E+03  0.5487E+03
      1.878  0.1192E+03  0.1196E+03  0.5567E+03  0.5559E+03
      1.939  0.1158E+03  0.1077E+03  0.5637E+03  0.5624E+03
      1.999  0.7953E+02  0.8122E+02  0.5685E+03  0.5674E+03
      2.060  0.8338E+02  0.7926E+02  0.5736E+03  0.5721E+03
      2.120  0.6907E+02  0.9765E+02  0.5777E+03  0.5781E+03
      2.181  0.1066E+03  0.9414E+02  0.5842E+03  0.5837E+03
      2.241  0.1061E+03  0.1072E+03  0.5906E+03  0.5902E+03
      2.302  0.1073E+03  0.1123E+03  0.5971E+03  0.5970E+03
      2.362  0.6352E+02  0.5678E+02  0.6009E+03  0.6005E+03
      2.422  0.1286E+03  0.1175E+03  0.6087E+03  0.6076E+03
      2.483  0.1091E+03  0.1181E+03  0.6153E+03  0.6147E+03
      2.543  0.1103E+03  0.1193E+03  0.6220E+03  0.6219E+03
      2.604  0.8916E+02  0.9234E+02  0.6274E+03  0.6275E+03
      2.664  0.1329E+03  0.1346E+03  0.6354E+03  0.6356E+03
      2.725  0.1119E+03  0.1064E+03  0.6422E+03  0.6421E+03
      2.785  0.1158E+03  0.1177E+03  0.6492E+03  0.6492E+03
      2.846  0.1069E+03  0.1014E+03  0.6556E+03  0.6553E+03
      2.906  0.1415E+03  0.1463E+03  0.6642E+03  0.6642E+03
      2.967  0.1473E+03  0.1454E+03  0.6731E+03  0.6730E+03
      3.027  0.1331E+03  0.1298E+03  0.6812E+03  0.6808E+03
      3.088  0.1407E+03  0.1436E+03  0.6897E+03  0.6895E+03
      3.148  0.1368E+03  0.1405E+03  0.6979E+03  0.6980E+03
      3.209  0.1228E+03  0.1114E+03  0.7054E+03  0.7047E+03
      3.269  0.8246E+02  0.9615E+02  0.7103E+03  0.7105E+03
      3.329  0.1091E+03  0.9902E+02  0.7169E+03  0.7165E+03
      3.390  0.1598E+03  0.1503E+03  0.7266E+03  0.7256E+03
      3.450  0.1010E+03  0.1075E+03  0.7327E+03  0.7321E+03
      3.511  0.1181E+03  0.1292E+03  0.7399E+03  0.7399E+03
      3.571  0.1041E+03  0.9734E+02  0.7462E+03  0.7458E+03
      3.632  0.1295E+03  0.1250E+03  0.7540E+03  0.7534E+03
      3.692  0.1363E+03  0.1448E+03  0.7622E+03  0.7621E+03
      3.753  0.1108E+03  0.1089E+03  0.7689E+03  0.7687E+03
      3.813  0.1165E+03  0.1200E+03  0.7760E+03  0.7760E+03
      3.874  0.1245E+03  0.1189E+03  0.7835E+03  0.7832E+03
      3.934  0.1077E+03  0.1083E+03  0.7900E+03  0.7897E+03
      3.995  0.1202E+03  0.1256E+03  0.7973E+03  0.7973E+03
      4.055  0.9134E+02  0.8572E+02  0.8028E+03  0.8025E+03
      4.116  0.1277E+03  0.1285E+03  0.8105E+03  0.8103E+03
      4.176  0.8472E+02  0.8341E+02  0.8156E+03  0.8153E+03
      4.237  0.1145E+03  0.1195E+03  0.8226E+03  0.8225E+03
      4.297  0.1295E+03  0.1236E+03  0.8304E+03  0.8300E+03
      4.357  0.1206E+03  0.1215E+03  0.8377E+03  0.8374E+03
      4.418  0.1122E+03  0.1125E+03  0.8445E+03  0.8442E+03
      4.478  0.1040E+03  0.1057E+03  0.8508E+03  0.8506E+03
      4.539  0.1206E+03  0.1079E+03  0.8581E+03  0.8571E+03
      4.599  0.1163E+03  0.1277E+03  0.8651E+03  0.8648E+03
      4.660  0.1176E+03  0.1174E+03  0.8722E+03  0.8719E+03
      4.720  0.9031E+02  0.9744E+02  0.8777E+03  0.8778E+03
      4.781  0.1082E+03  0.1056E+03  0.8842E+03  0.8842E+03
      4.841  0.1085E+03  0.1066E+03  0.8908E+03  0.8906E+03
      4.902  0.7248E+02  0.6739E+02  0.8952E+03  0.8947E+03
      4.962  0.8685E+02  0.8573E+02  0.9004E+03  0.8999E+03
      5.023  0.1111E+03  0.1129E+03  0.9071E+03  0.9067E+03
      5.083  0.9562E+02  0.9044E+02  0.9129E+03  0.9122E+03
      5.144  0.7642E+02  0.7644E+02  0.9175E+03  0.9168E+03
      5.204  0.1112E+03  0.1137E+03  0.9243E+03  0.9237E+03
      5.264  0.1205E+03  0.1272E+03  0.9316E+03  0.9314E+03
      5.325  0.8917E+02  0.7916E+02  0.9370E+03  0.9362E+03
      5.385  0.1152E+03  0.1226E+03  0.9439E+03  0.9436E+03
      5.446  0.5965E+02  0.6090E+02  0.9475E+03  0.9473E+03
      5.506  0.9947E+02  0.8862E+02  0.9535E+03  0.9526E+03
      5.567  0.8419E+02  0.8815E+02  0.9586E+03  0.9580E+03
      5.627  0.8519E+02  0.8406E+02  0.9638E+03  0.9630E+03
      5.688  0.1151E+03  0.9450E+02  0.9707E+03  0.9688E+03
      5.748  0.1043E+03  0.1177E+03  0.9770E+03  0.9759E+03
      5.809  0.1219E+03  0.1083E+03  0.9844E+03  0.9824E+03
      5.869  0.8660E+02  0.9662E+02  0.9897E+03  0.9883E+03
      5.930  0.1101E+03  0.8486E+02  0.9963E+03  0.9934E+03
      5.990  0.6404E+02  0.7617E+02  0.1000E+04  0.9980E+03
      6.051  0.1052E+03  0.8115E+02  0.1007E+04  0.1003E+04
      6.111  0.8922E+02  0.9409E+02  0.1012E+04  0.1009E+04
      6.171  0.1185E+03  0.9291E+02  0.1019E+04  0.1014E+04
      6.232  0.1022E+03  0.1163E+03  0.1025E+04  0.1021E+04
      6.292  0.8765E+02  0.8145E+02  0.1031E+04  0.1026E+04
      6.353  0.9855E+02  0.8566E+02  0.1037E+04  0.1031E+04
      6.413  0.1287E+03  0.8950E+02  0.1044E+04  0.1037E+04
      6.474  0.1051E+03  0.9777E+02  0.1051E+04  0.1043E+04
      6.534  0.1136E+03  0.1054E+03  0.1058E+04  0.1049E+04
      6.595  0.1204E+03  0.1034E+03  0.1065E+04  0.1055E+04
      6.655  0.1064E+03  0.7469E+02  0.1071E+04  0.1060E+04
      6.716  0.1263E+03  0.1027E+03  0.1079E+04  0.1066E+04
      6.776  0.1218E+03  0.1369E+03  0.1086E+04  0.1074E+04
      6.837  0.1196E+03  0.1295E+03  0.1094E+04  0.1082E+04
      6.897  0.7914E+02  0.1058E+03  0.1098E+04  0.1089E+04
      6.958  0.1036E+03  0.1348E+03  0.1105E+04  0.1097E+04
      7.018  0.1009E+03  0.1152E+03  0.1111E+04  0.1104E+04
      7.078  0.1352E+03  0.1195E+03  0.1119E+04  0.1111E+04
      7.139  0.1012E+03  0.1213E+03  0.1125E+04  0.1118E+04
      7.199  0.1129E+03  0.1323E+03  0.1132E+04  0.1126E+04
      7.260  0.1040E+03  0.1285E+03  0.1138E+04  0.1134E+04
      7.320  0.1159E+03  0.1141E+03  0.1145E+04  0.1141E+04
      7.381  0.8202E+02  0.9682E+02  0.1150E+04  0.1147E+04
      7.441  0.1455E+03  0.1195E+03  0.1159E+04  0.1154E+04
      7.502  0.1352E+03  0.1362E+03  0.1167E+04  0.1162E+04
      7.562  0.1032E+03  0.1347E+03  0.1173E+04  0.1170E+04
      7.623  0.8763E+02  0.9611E+02  0.1179E+04  0.1176E+04
      7.683  0.1372E+03  0.1208E+03  0.1187E+04  0.1183E+04
      7.744  0.1256E+03  0.1320E+03  0.1194E+04  0.1191E+04
      7.804  0.1138E+03  0.1254E+03  0.1201E+04  0.1199E+04
      7.865  0.1359E+03  0.1307E+03  0.1210E+04  0.1207E+04
      7.925  0.1093E+03  0.1275E+03  0.1216E+04  0.1215E+04
      7.985  0.1339E+03  0.1355E+03  0.1224E+04  0.1223E+04
      8.046  0.1322E+03  0.1142E+03  0.1232E+04  0.1230E+04
      8.106  0.1521E+03  0.1521E+03  0.1241E+04  0.1239E+04
      8.167  0.1177E+03  0.1486E+03  0.1249E+04  0.1248E+04
      8.227  0.1481E+03  0.1144E+03  0.1258E+04  0.1255E+04
      8.288  0.1251E+03  0.1469E+03  0.1265E+04  0.1264E+04
      8.348  0.1031E+03  0.1026E+03  0.1271E+04  0.1270E+04
      8.409  0.1130E+02  0.3408E+02  0.1272E+04  0.1272E+04
      8.469  0.0000E+00  0.0000E+00  0.1272E+04  0.1272E+04
      8.530  0.0000E+00  0.0000E+00  0.1272E+04  0.1272E+04
      8.590  0.0000E+00  0.0000E+00  0.1272E+04  0.1272E+04
      8.651  0.0000E+00  0.0000E+00  0.1272E+04  0.1272E+04
      8.711  0.0000E+00  0.0000E+00  0.1272E+04  0.1272E+04
      8.772  0.0000E+00  0.0000E+00  0.1272E+04  0.1272E+04
      8.832  0.0000E+00  0.0000E+00  0.1272E+04  0.1272E+04
      8.892  0.0000E+00  0.0000E+00  0.1272E+04  0.1272E+04
      8.953  0.0000E+00  0.0000E+00  0.1272E+04  0.1272E+04
      9.013  0.0000E+00  0.0000E+00  0.1272E+04  0.1272E+04
      9.074  0.0000E+00  0.0000E+00  0.1272E+04  0.1272E+04
      9.134  0.0000E+00  0.0000E+00  0.1272E+04  0.1272E+04
      9.195  0.0000E+00  0.0000E+00  0.1272E+04  0.1272E+04
