 168 168   0   0
  0.2780971E+02  0.1131560E-08  0.1600268E-08  0.2580094E-08  0.5000000E-15
  1.000000000000000E-004
  CAR 
 Si and Ge interface calculation         
      6.34829856     -9.85396979  301      3.36558508      1.00000000
     -9.854  0.0000E+00  0.0000E+00  0.0000E+00  0.0000E+00
     -9.800  0.0000E+00  0.0000E+00  0.0000E+00  0.0000E+00
     -9.746  0.0000E+00  0.0000E+00  0.0000E+00  0.0000E+00
     -9.692  0.0000E+00  0.0000E+00  0.0000E+00  0.0000E+00
     -9.638  0.0000E+00  0.0000E+00  0.0000E+00  0.0000E+00
     -9.584  0.0000E+00  0.0000E+00  0.0000E+00  0.0000E+00
     -9.530  0.0000E+00  0.0000E+00  0.0000E+00  0.0000E+00
     -9.476  0.0000E+00  0.0000E+00  0.0000E+00  0.0000E+00
     -9.422  0.0000E+00  0.0000E+00  0.0000E+00  0.0000E+00
     -9.368  0.0000E+00  0.0000E+00  0.0000E+00  0.0000E+00
     -9.314  0.0000E+00  0.0000E+00  0.0000E+00  0.0000E+00
     -9.260  0.0000E+00  0.0000E+00  0.0000E+00  0.0000E+00
     -9.206  0.0000E+00  0.0000E+00  0.0000E+00  0.0000E+00
     -9.152  0.3615E-05  0.4716E-07  0.1952E-06  0.2547E-08
     -9.098  0.6155E+01  0.6025E+01  0.3324E+00  0.3254E+00
     -9.044  0.1704E-01  0.1474E+00  0.3333E+00  0.3333E+00
     -8.990  0.2029E+02  0.1642E+02  0.1429E+01  0.1220E+01
     -8.936  0.4398E+01  0.8269E+01  0.1667E+01  0.1667E+01
     -8.882  0.2202E+02  0.1676E+02  0.2856E+01  0.2572E+01
     -8.828  0.2812E+01  0.7937E+01  0.3008E+01  0.3001E+01
     -8.774  0.6437E+01  0.6190E+01  0.3355E+01  0.3335E+01
     -8.720  0.1195E+02  0.1231E+02  0.4000E+01  0.4000E+01
     -8.666  0.2089E+02  0.1745E+02  0.5129E+01  0.4942E+01
     -8.612  0.4078E+02  0.4401E+02  0.7331E+01  0.7319E+01
     -8.558  0.1751E+02  0.8124E+01  0.8277E+01  0.7758E+01
     -8.504  0.3718E+02  0.4338E+02  0.1028E+02  0.1010E+02
     -8.450  0.7071E+01  0.1048E+02  0.1067E+02  0.1067E+02
     -8.396  0.4252E+02  0.3820E+02  0.1296E+02  0.1273E+02
     -8.342  0.2895E+02  0.2980E+02  0.1453E+02  0.1434E+02
     -8.288  0.2557E+02  0.2175E+02  0.1591E+02  0.1551E+02
     -8.234  0.2070E+02  0.2758E+02  0.1703E+02  0.1700E+02
     -8.180  0.4651E+02  0.4353E+02  0.1954E+02  0.1935E+02
     -8.126  0.8091E+01  0.8239E+01  0.1997E+02  0.1980E+02
     -8.072  0.3948E+02  0.3817E+02  0.2211E+02  0.2186E+02
     -8.018  0.2343E+02  0.2752E+02  0.2337E+02  0.2335E+02
     -7.964  0.1482E+02  0.1050E+02  0.2417E+02  0.2391E+02
     -7.910  0.1532E+02  0.2011E+02  0.2500E+02  0.2500E+02
     -7.856  0.3355E+02  0.2859E+02  0.2681E+02  0.2654E+02
     -7.802  0.4051E+02  0.4534E+02  0.2900E+02  0.2899E+02
     -7.748  0.7320E+01  0.6546E+01  0.2939E+02  0.2935E+02
     -7.694  0.1036E+02  0.7850E+01  0.2995E+02  0.2977E+02
     -7.640  0.1089E+02  0.1135E+02  0.3054E+02  0.3038E+02
     -7.586  0.7138E+02  0.6572E+02  0.3440E+02  0.3393E+02
     -7.532  0.3264E+02  0.3704E+02  0.3616E+02  0.3593E+02
     -7.478  0.4682E+02  0.4735E+02  0.3869E+02  0.3849E+02
     -7.424  0.2427E+02  0.2796E+02  0.4000E+02  0.4000E+02
     -7.370  0.1196E+02  0.1037E+02  0.4065E+02  0.4056E+02
     -7.316  0.1822E+02  0.1741E+02  0.4163E+02  0.4150E+02
     -7.262  0.5502E+02  0.5328E+02  0.4460E+02  0.4438E+02
     -7.208  0.3206E+02  0.3196E+02  0.4633E+02  0.4610E+02
     -7.154  0.7001E+02  0.6720E+02  0.5011E+02  0.4973E+02
     -7.100  0.3476E+02  0.4039E+02  0.5199E+02  0.5191E+02
     -7.046  0.2594E+02  0.2103E+02  0.5339E+02  0.5305E+02
     -6.992  0.6015E+02  0.6282E+02  0.5664E+02  0.5644E+02
     -6.938  0.2780E+02  0.2535E+02  0.5814E+02  0.5781E+02
     -6.884  0.5267E+02  0.5752E+02  0.6099E+02  0.6092E+02
     -6.830  0.2708E+02  0.2069E+02  0.6245E+02  0.6204E+02
     -6.776  0.6050E+02  0.5939E+02  0.6572E+02  0.6524E+02
     -6.722  0.4650E+02  0.5280E+02  0.6823E+02  0.6809E+02
     -6.668  0.5659E+02  0.5011E+02  0.7128E+02  0.7080E+02
     -6.614  0.5025E+02  0.5892E+02  0.7400E+02  0.7398E+02
     -6.560  0.1213E+02  0.9810E+01  0.7465E+02  0.7451E+02
     -6.506  0.2877E+02  0.2823E+02  0.7621E+02  0.7604E+02
     -6.451  0.3903E+02  0.4068E+02  0.7831E+02  0.7823E+02
     -6.397  0.5418E+02  0.5075E+02  0.8124E+02  0.8098E+02
     -6.343  0.4284E+02  0.4512E+02  0.8355E+02  0.8341E+02
     -6.289  0.6217E+02  0.5925E+02  0.8691E+02  0.8661E+02
     -6.235  0.6880E+02  0.7077E+02  0.9063E+02  0.9043E+02
     -6.181  0.7315E+02  0.7231E+02  0.9458E+02  0.9434E+02
     -6.127  0.5206E+02  0.5257E+02  0.9739E+02  0.9718E+02
     -6.073  0.2696E+02  0.2841E+02  0.9885E+02  0.9871E+02
     -6.019  0.1712E+02  0.1799E+02  0.9977E+02  0.9968E+02
     -5.965  0.3977E+02  0.3765E+02  0.1019E+03  0.1017E+03
     -5.911  0.4566E+02  0.4348E+02  0.1044E+03  0.1041E+03
     -5.857  0.1893E+02  0.2395E+02  0.1054E+03  0.1054E+03
     -5.803  0.4752E+02  0.4505E+02  0.1080E+03  0.1078E+03
     -5.749  0.4671E+02  0.4651E+02  0.1105E+03  0.1103E+03
     -5.695  0.4590E+02  0.4697E+02  0.1130E+03  0.1128E+03
     -5.641  0.1353E+02  0.1319E+02  0.1137E+03  0.1136E+03
     -5.587  0.3763E+02  0.3751E+02  0.1157E+03  0.1156E+03
     -5.533  0.3880E+02  0.3641E+02  0.1178E+03  0.1175E+03
     -5.479  0.6508E+02  0.6676E+02  0.1213E+03  0.1212E+03
     -5.425  0.6236E+02  0.6114E+02  0.1247E+03  0.1245E+03
     -5.371  0.4243E+02  0.4071E+02  0.1270E+03  0.1267E+03
     -5.317  0.4416E+02  0.4721E+02  0.1294E+03  0.1292E+03
     -5.263  0.7143E+02  0.6837E+02  0.1333E+03  0.1329E+03
     -5.209  0.7560E+02  0.7471E+02  0.1373E+03  0.1369E+03
     -5.155  0.4359E+02  0.4668E+02  0.1397E+03  0.1395E+03
     -5.101  0.5236E+02  0.5310E+02  0.1425E+03  0.1423E+03
     -5.047  0.4879E+02  0.4743E+02  0.1452E+03  0.1449E+03
     -4.993  0.4956E+02  0.5112E+02  0.1478E+03  0.1476E+03
     -4.939  0.4672E+02  0.4249E+02  0.1504E+03  0.1499E+03
     -4.885  0.7513E+02  0.7441E+02  0.1544E+03  0.1540E+03
     -4.831  0.6710E+02  0.7023E+02  0.1580E+03  0.1577E+03
     -4.777  0.1656E+02  0.1880E+02  0.1589E+03  0.1588E+03
     -4.723  0.5725E+02  0.5957E+02  0.1620E+03  0.1620E+03
     -4.669  0.2472E+02  0.2511E+02  0.1634E+03  0.1633E+03
     -4.615  0.7388E+02  0.6451E+02  0.1673E+03  0.1668E+03
     -4.561  0.6807E+02  0.7267E+02  0.1710E+03  0.1707E+03
     -4.507  0.3711E+02  0.4117E+02  0.1730E+03  0.1730E+03
     -4.453  0.5977E+02  0.5661E+02  0.1763E+03  0.1760E+03
     -4.399  0.6416E+02  0.6543E+02  0.1797E+03  0.1796E+03
     -4.345  0.3889E+02  0.3656E+02  0.1818E+03  0.1815E+03
     -4.291  0.5544E+02  0.5877E+02  0.1848E+03  0.1847E+03
     -4.237  0.3839E+02  0.3269E+02  0.1869E+03  0.1865E+03
     -4.183  0.3710E+02  0.4173E+02  0.1889E+03  0.1887E+03
     -4.129  0.5377E+02  0.4954E+02  0.1918E+03  0.1914E+03
     -4.075  0.6505E+02  0.5979E+02  0.1953E+03  0.1946E+03
     -4.021  0.4411E+02  0.5108E+02  0.1977E+03  0.1974E+03
     -3.967  0.4318E+02  0.4747E+02  0.2000E+03  0.2000E+03
     -3.913  0.7983E+02  0.7043E+02  0.2043E+03  0.2038E+03
     -3.859  0.5459E+02  0.6248E+02  0.2073E+03  0.2071E+03
     -3.805  0.1283E+02  0.1178E+02  0.2080E+03  0.2078E+03
     -3.751  0.7165E+02  0.6755E+02  0.2118E+03  0.2114E+03
     -3.697  0.5001E+02  0.5503E+02  0.2145E+03  0.2144E+03
     -3.643  0.7236E+02  0.6403E+02  0.2185E+03  0.2178E+03
     -3.589  0.5829E+02  0.6089E+02  0.2216E+03  0.2211E+03
     -3.535  0.2641E+02  0.3457E+02  0.2230E+03  0.2230E+03
     -3.481  0.4473E+02  0.3556E+02  0.2254E+03  0.2249E+03
     -3.427  0.5016E+02  0.5393E+02  0.2282E+03  0.2278E+03
     -3.373  0.5186E+02  0.5266E+02  0.2310E+03  0.2307E+03
     -3.319  0.2574E+02  0.3062E+02  0.2323E+03  0.2323E+03
     -3.265  0.6515E+02  0.6141E+02  0.2359E+03  0.2357E+03
     -3.211  0.3200E+02  0.3158E+02  0.2376E+03  0.2374E+03
     -3.157  0.3935E+02  0.3952E+02  0.2397E+03  0.2395E+03
     -3.103  0.3590E+02  0.3461E+02  0.2417E+03  0.2414E+03
     -3.049  0.3697E+02  0.3731E+02  0.2436E+03  0.2434E+03
     -2.995  0.7635E+02  0.7347E+02  0.2478E+03  0.2473E+03
     -2.941  0.7438E+02  0.7510E+02  0.2518E+03  0.2514E+03
     -2.887  0.1678E+02  0.2021E+02  0.2527E+03  0.2525E+03
     -2.833  0.5476E+02  0.5769E+02  0.2557E+03  0.2556E+03
     -2.779  0.4245E+02  0.3458E+02  0.2579E+03  0.2575E+03
     -2.725  0.3338E+02  0.4103E+02  0.2597E+03  0.2597E+03
     -2.671  0.4866E+02  0.4183E+02  0.2624E+03  0.2619E+03
     -2.617  0.6617E+02  0.6415E+02  0.2660E+03  0.2654E+03
     -2.563  0.7118E+02  0.7710E+02  0.2698E+03  0.2696E+03
     -2.509  0.3729E+02  0.3970E+02  0.2718E+03  0.2717E+03
     -2.455  0.6486E+02  0.6149E+02  0.2753E+03  0.2750E+03
     -2.401  0.4418E+02  0.4857E+02  0.2777E+03  0.2777E+03
     -2.347  0.3488E+02  0.3040E+02  0.2796E+03  0.2793E+03
     -2.293  0.4177E+02  0.4514E+02  0.2818E+03  0.2817E+03
     -2.239  0.6259E+02  0.5841E+02  0.2852E+03  0.2849E+03
     -2.185  0.2053E+02  0.2576E+02  0.2863E+03  0.2863E+03
     -2.131  0.2464E+02  0.2467E+02  0.2877E+03  0.2876E+03
     -2.077  0.3330E+02  0.3072E+02  0.2895E+03  0.2893E+03
     -2.023  0.3188E+02  0.3285E+02  0.2912E+03  0.2911E+03
     -1.969  0.2596E+02  0.2342E+02  0.2926E+03  0.2923E+03
     -1.915  0.3136E+02  0.3113E+02  0.2943E+03  0.2940E+03
     -1.861  0.4134E+02  0.4371E+02  0.2965E+03  0.2964E+03
     -1.807  0.3433E+02  0.3662E+02  0.2984E+03  0.2983E+03
     -1.753  0.6941E+02  0.6212E+02  0.3021E+03  0.3017E+03
     -1.699  0.5213E+01  0.1212E+02  0.3024E+03  0.3024E+03
     -1.645  0.5162E+02  0.4782E+02  0.3052E+03  0.3049E+03
     -1.591  0.2053E+02  0.2171E+02  0.3063E+03  0.3061E+03
     -1.537  0.3157E+02  0.3274E+02  0.3080E+03  0.3079E+03
     -1.483  0.4339E+02  0.4493E+02  0.3103E+03  0.3103E+03
     -1.429  0.3081E+02  0.3140E+02  0.3120E+03  0.3120E+03
     -1.375  0.8484E+01  0.7045E+01  0.3125E+03  0.3124E+03
     -1.321  0.2704E+02  0.2512E+02  0.3139E+03  0.3137E+03
     -1.267  0.1515E+01  0.4945E+01  0.3140E+03  0.3140E+03
     -1.213  0.5346E+01  0.2744E+01  0.3143E+03  0.3141E+03
     -1.159  0.3664E+02  0.3504E+02  0.3163E+03  0.3160E+03
     -1.105  0.1078E+02  0.1273E+02  0.3168E+03  0.3167E+03
     -1.051  0.1783E+02  0.1677E+02  0.3178E+03  0.3176E+03
     -0.997  0.4310E+01  0.6977E+01  0.3180E+03  0.3180E+03
     -0.943  0.4266E+02  0.3533E+02  0.3203E+03  0.3199E+03
     -0.889  0.1822E+02  0.2618E+02  0.3213E+03  0.3213E+03
     -0.835  0.1590E+02  0.1379E+02  0.3222E+03  0.3221E+03
     -0.781  0.2665E+02  0.2771E+02  0.3236E+03  0.3236E+03
     -0.727  0.3967E+02  0.3051E+02  0.3258E+03  0.3252E+03
     -0.673  0.4143E+02  0.4845E+02  0.3280E+03  0.3278E+03
     -0.619  0.3702E+02  0.3293E+02  0.3300E+03  0.3296E+03
     -0.565  0.7985E+02  0.8120E+02  0.3343E+03  0.3340E+03
     -0.511  0.5888E+02  0.6110E+02  0.3375E+03  0.3373E+03
     -0.457  0.8831E+02  0.8862E+02  0.3423E+03  0.3421E+03
     -0.403  0.3806E+02  0.4086E+02  0.3443E+03  0.3443E+03
     -0.349  0.7558E+02  0.5895E+02  0.3484E+03  0.3475E+03
     -0.295  0.8021E+02  0.9188E+02  0.3527E+03  0.3524E+03
     -0.241  0.8142E+02  0.7660E+02  0.3571E+03  0.3566E+03
     -0.187  0.6032E+02  0.6481E+02  0.3604E+03  0.3601E+03
     -0.133  0.5004E+02  0.5032E+02  0.3631E+03  0.3628E+03
     -0.079  0.8733E+02  0.8557E+02  0.3678E+03  0.3674E+03
     -0.025  0.4563E+02  0.4842E+02  0.3703E+03  0.3700E+03
      0.029  0.1094E+03  0.1016E+03  0.3762E+03  0.3755E+03
      0.083  0.7305E+02  0.7974E+02  0.3801E+03  0.3798E+03
      0.137  0.7713E+02  0.7718E+02  0.3843E+03  0.3840E+03
      0.191  0.8004E+02  0.7961E+02  0.3886E+03  0.3883E+03
      0.245  0.1061E+03  0.9994E+02  0.3943E+03  0.3937E+03
      0.299  0.7212E+02  0.7659E+02  0.3982E+03  0.3978E+03
      0.353  0.1143E+03  0.1090E+03  0.4044E+03  0.4037E+03
      0.407  0.1093E+03  0.1092E+03  0.4103E+03  0.4096E+03
      0.461  0.7716E+02  0.8349E+02  0.4145E+03  0.4141E+03
      0.515  0.1363E+03  0.1351E+03  0.4218E+03  0.4214E+03
      0.569  0.1262E+03  0.1193E+03  0.4287E+03  0.4279E+03
      0.623  0.1333E+03  0.1339E+03  0.4359E+03  0.4351E+03
      0.678  0.1706E+03  0.1670E+03  0.4451E+03  0.4441E+03
      0.732  0.1078E+03  0.1185E+03  0.4509E+03  0.4505E+03
      0.786  0.8749E+02  0.8158E+02  0.4556E+03  0.4549E+03
      0.840  0.1109E+03  0.1094E+03  0.4616E+03  0.4608E+03
      0.894  0.1126E+03  0.1193E+03  0.4677E+03  0.4673E+03
      0.948  0.7809E+02  0.7736E+02  0.4719E+03  0.4714E+03
      1.002  0.7668E+02  0.8367E+02  0.4761E+03  0.4760E+03
      1.056  0.1238E+03  0.1151E+03  0.4827E+03  0.4822E+03
      1.110  0.1075E+03  0.1079E+03  0.4885E+03  0.4880E+03
      1.164  0.1095E+03  0.1026E+03  0.4945E+03  0.4936E+03
      1.218  0.1188E+03  0.1171E+03  0.5009E+03  0.4999E+03
      1.272  0.1533E+03  0.1539E+03  0.5092E+03  0.5082E+03
      1.326  0.1038E+03  0.1153E+03  0.5148E+03  0.5144E+03
      1.380  0.1055E+03  0.1041E+03  0.5205E+03  0.5200E+03
      1.434  0.1179E+03  0.1124E+03  0.5268E+03  0.5261E+03
      1.488  0.1146E+03  0.1156E+03  0.5330E+03  0.5324E+03
      1.542  0.1074E+03  0.1082E+03  0.5388E+03  0.5382E+03
      1.596  0.1263E+03  0.1218E+03  0.5456E+03  0.5448E+03
      1.650  0.9544E+02  0.9974E+02  0.5508E+03  0.5502E+03
      1.704  0.1085E+03  0.1113E+03  0.5566E+03  0.5562E+03
      1.758  0.1274E+03  0.1212E+03  0.5635E+03  0.5627E+03
      1.812  0.8850E+02  0.9888E+02  0.5683E+03  0.5681E+03
      1.866  0.9227E+02  0.8482E+02  0.5733E+03  0.5726E+03
      1.920  0.9092E+02  0.9039E+02  0.5782E+03  0.5775E+03
      1.974  0.9708E+02  0.1023E+03  0.5834E+03  0.5831E+03
      2.028  0.1027E+03  0.1035E+03  0.5890E+03  0.5886E+03
      2.082  0.8086E+02  0.7980E+02  0.5934E+03  0.5930E+03
      2.136  0.7378E+02  0.6795E+02  0.5973E+03  0.5966E+03
      2.190  0.9997E+02  0.1066E+03  0.6027E+03  0.6024E+03
      2.244  0.1089E+03  0.1053E+03  0.6086E+03  0.6081E+03
      2.298  0.5899E+02  0.5528E+02  0.6118E+03  0.6111E+03
      2.352  0.6930E+02  0.7425E+02  0.6156E+03  0.6151E+03
      2.406  0.6849E+02  0.6937E+02  0.6193E+03  0.6188E+03
      2.460  0.7145E+02  0.6492E+02  0.6231E+03  0.6223E+03
      2.514  0.9436E+02  0.1024E+03  0.6282E+03  0.6279E+03
      2.568  0.6985E+02  0.6260E+02  0.6320E+03  0.6312E+03
      2.622  0.3615E+02  0.4506E+02  0.6339E+03  0.6337E+03
      2.676  0.8518E+02  0.8406E+02  0.6385E+03  0.6382E+03
      2.730  0.7000E+02  0.7174E+02  0.6423E+03  0.6421E+03
      2.784  0.7293E+02  0.6987E+02  0.6462E+03  0.6459E+03
      2.838  0.4754E+02  0.4511E+02  0.6488E+03  0.6483E+03
      2.892  0.4378E+02  0.5059E+02  0.6512E+03  0.6510E+03
      2.946  0.6712E+02  0.6089E+02  0.6548E+03  0.6543E+03
      3.000  0.2848E+02  0.3594E+02  0.6563E+03  0.6563E+03
      3.054  0.4324E+02  0.4378E+02  0.6587E+03  0.6586E+03
      3.108  0.4388E+02  0.3811E+02  0.6610E+03  0.6607E+03
      3.162  0.5797E+02  0.4779E+02  0.6642E+03  0.6633E+03
      3.216  0.3422E+02  0.4152E+02  0.6660E+03  0.6655E+03
      3.270  0.5425E+02  0.5539E+02  0.6690E+03  0.6685E+03
      3.324  0.1773E+02  0.1764E+02  0.6699E+03  0.6694E+03
      3.378  0.4488E+02  0.4037E+02  0.6723E+03  0.6716E+03
      3.432  0.3442E+02  0.2733E+02  0.6742E+03  0.6731E+03
      3.486  0.7778E+01  0.2291E+02  0.6746E+03  0.6743E+03
      3.540  0.3701E+02  0.3693E+02  0.6766E+03  0.6763E+03
      3.594  0.4142E+02  0.3568E+02  0.6789E+03  0.6783E+03
      3.648  0.3098E+02  0.3270E+02  0.6805E+03  0.6800E+03
      3.702  0.3343E+02  0.4270E+02  0.6823E+03  0.6823E+03
      3.756  0.1850E+02  0.1835E+02  0.6833E+03  0.6833E+03
      3.810  0.1588E+02  0.7012E+01  0.6842E+03  0.6837E+03
      3.864  0.3351E+02  0.4259E+02  0.6860E+03  0.6860E+03
      3.918  0.1159E+02  0.8472E+01  0.6866E+03  0.6865E+03
      3.972  0.1311E+02  0.1624E+02  0.6873E+03  0.6873E+03
      4.026  0.2606E+02  0.2209E+02  0.6887E+03  0.6885E+03
      4.080  0.1997E+02  0.1752E+02  0.6898E+03  0.6895E+03
      4.134  0.4957E+02  0.4753E+02  0.6925E+03  0.6920E+03
      4.188  0.3376E+02  0.3857E+02  0.6943E+03  0.6941E+03
      4.242  0.3038E+02  0.2765E+02  0.6960E+03  0.6956E+03
      4.296  0.4298E+02  0.4687E+02  0.6983E+03  0.6981E+03
      4.350  0.4548E+02  0.4468E+02  0.7007E+03  0.7006E+03
      4.404  0.5157E+02  0.4931E+02  0.7035E+03  0.7032E+03
      4.458  0.6511E+02  0.6635E+02  0.7070E+03  0.7068E+03
      4.512  0.8186E+02  0.7689E+02  0.7115E+03  0.7110E+03
      4.566  0.5439E+02  0.5489E+02  0.7144E+03  0.7139E+03
      4.620  0.6409E+02  0.6746E+02  0.7179E+03  0.7176E+03
      4.674  0.8072E+02  0.8094E+02  0.7222E+03  0.7219E+03
      4.728  0.8622E+02  0.8832E+02  0.7269E+03  0.7267E+03
      4.782  0.7431E+02  0.7492E+02  0.7309E+03  0.7308E+03
      4.836  0.8551E+02  0.8141E+02  0.7355E+03  0.7352E+03
      4.890  0.7958E+02  0.7824E+02  0.7398E+03  0.7394E+03
      4.944  0.1229E+03  0.1243E+03  0.7464E+03  0.7461E+03
      4.998  0.1003E+03  0.9771E+02  0.7519E+03  0.7514E+03
      5.052  0.1045E+03  0.1075E+03  0.7575E+03  0.7572E+03
      5.106  0.8355E+02  0.8077E+02  0.7620E+03  0.7615E+03
      5.160  0.1116E+03  0.1108E+03  0.7680E+03  0.7675E+03
      5.214  0.9944E+02  0.9867E+02  0.7734E+03  0.7729E+03
      5.268  0.8854E+02  0.8421E+02  0.7782E+03  0.7774E+03
      5.322  0.1213E+03  0.1292E+03  0.7848E+03  0.7844E+03
      5.376  0.1142E+03  0.1173E+03  0.7909E+03  0.7907E+03
      5.430  0.1165E+03  0.1240E+03  0.7972E+03  0.7974E+03
      5.484  0.9386E+02  0.8527E+02  0.8023E+03  0.8020E+03
      5.538  0.4117E+02  0.4325E+02  0.8045E+03  0.8044E+03
      5.592  0.4466E+02  0.4934E+02  0.8069E+03  0.8070E+03
      5.646  0.2001E+02  0.1824E+02  0.8080E+03  0.8080E+03
      5.700  0.0000E+00  0.0000E+00  0.8080E+03  0.8080E+03
      5.754  0.0000E+00  0.0000E+00  0.8080E+03  0.8080E+03
      5.808  0.0000E+00  0.0000E+00  0.8080E+03  0.8080E+03
      5.862  0.0000E+00  0.0000E+00  0.8080E+03  0.8080E+03
      5.916  0.0000E+00  0.0000E+00  0.8080E+03  0.8080E+03
      5.970  0.0000E+00  0.0000E+00  0.8080E+03  0.8080E+03
      6.024  0.0000E+00  0.0000E+00  0.8080E+03  0.8080E+03
      6.078  0.0000E+00  0.0000E+00  0.8080E+03  0.8080E+03
      6.132  0.0000E+00  0.0000E+00  0.8080E+03  0.8080E+03
      6.186  0.0000E+00  0.0000E+00  0.8080E+03  0.8080E+03
      6.240  0.0000E+00  0.0000E+00  0.8080E+03  0.8080E+03
      6.294  0.0000E+00  0.0000E+00  0.8080E+03  0.8080E+03
      6.348  0.0000E+00  0.0000E+00  0.8080E+03  0.8080E+03
