Si and Ge interface calculation         
           1
    13.303180    0.000000    0.000000
    -6.651589   14.873406    0.000000
     0.000000    0.000000    8.390059
   Si   C 
    36    84
Direct configuration=     1
   0.99715096  0.98005658  0.00000000
   0.96381754  0.74672317  0.14474383
   0.93048412  0.51338983  0.28948766
   0.33048421  0.31338987  0.00000000
   0.29715079  0.08005647  0.14474383
   0.26381737  0.84672308  0.28948766
   0.66381747  0.64672315  0.00000000
   0.63048405  0.41338971  0.14474383
   0.59715062  0.18005633  0.28948766
   0.31381753  0.94672334  0.07237176
   0.28048411  0.71338999  0.21711558
   0.24715069  0.48005658  0.36185935
   0.64715082  0.28005657  0.07237176
   0.61381739  0.04672319  0.21711555
   0.58048397  0.81338978  0.36185938
   0.98048443  0.61338985  0.07237179
   0.94715101  0.38005647  0.21711555
   0.91381758  0.14672309  0.36185935
   0.16381757  0.64672309  0.00000000
   0.13048416  0.41338971  0.14474383
   0.09715075  0.18005632  0.28948766
   0.49715090  0.98005664  0.00000000
   0.46381742  0.74672317  0.14474377
   0.43048406  0.51338983  0.28948760
   0.83048415  0.31338987  0.00000000
   0.79715073  0.08005653  0.14474377
   0.76381731  0.84672308  0.28948760
   0.14715090  0.28005657  0.07237177
   0.11381748  0.04672317  0.21711558
   0.08048407  0.81338978  0.36185938
   0.48048422  0.61338991  0.07237177
   0.44715083  0.38005653  0.21711555
   0.41381741  0.14672317  0.36185938
   0.81381750  0.94672328  0.07237176
   0.78048414  0.71338987  0.21711555
   0.74715072  0.48005646  0.36185938
   0.59601378  0.95775014  0.75222486
   0.39601368  0.55775022  0.56210440
   0.49601373  0.25775018  0.65716469
   0.88172811  0.10060728  0.75222486
   0.68172789  0.70060736  0.56210440
   0.78172803  0.40060732  0.65716469
   0.16744232  0.24346435  0.75222486
   0.96744221  0.84346443  0.56210440
   0.06744230  0.54346442  0.65716469
   0.45315668  0.38632160  0.75222486
   0.25315651  0.98632169  0.56210440
   0.35315660  0.68632168  0.65716469
   0.73887098  0.52917874  0.75222486
   0.53887081  0.12917885  0.56210440
   0.63887083  0.82917881  0.65716469
   0.02458525  0.67203587  0.75222486
   0.82458502  0.27203599  0.56210440
   0.92458510  0.97203594  0.65716469
   0.31029940  0.81489295  0.75222486
   0.11029935  0.41489312  0.56210440
   0.21029937  0.11489308  0.65716469
   0.57458526  0.27203596  0.79975486
   0.37458509  0.87203610  0.60963446
   0.47458518  0.57203609  0.70469463
   0.71744233  0.84346449  0.79975486
   0.51744223  0.44346458  0.60963446
   0.61744225  0.14346453  0.70469463
   0.00315666  0.98632181  0.79975486
   0.80315638  0.58632189  0.60963446
   0.90315646  0.28632182  0.70469469
   0.28887093  0.12917891  0.79975480
   0.08887076  0.72917897  0.60963446
   0.18887091  0.42917892  0.70469469
   0.86029953  0.41489303  0.79975486
   0.66029942  0.01489317  0.60963446
   0.76029944  0.71489304  0.70469463
   0.14601374  0.55775034  0.79975486
   0.94601357  0.15775044  0.60963446
   0.04601359  0.85775036  0.70469463
   0.43172789  0.70060736  0.79975486
   0.23172784  0.30060750  0.60963446
   0.33172786  0.00060749  0.70469463
   0.66744244  0.24346434  0.75222486
   0.46744219  0.84346449  0.56210440
   0.56744230  0.54346442  0.65716469
   0.52458525  0.67203587  0.75222486
   0.32458508  0.27203596  0.56210440
   0.42458516  0.97203588  0.65716469
   0.81029946  0.81489295  0.75222486
   0.61029935  0.41489309  0.56210440
   0.71029937  0.11489305  0.65716469
   0.09601378  0.95775008  0.75222486
   0.89601356  0.55775017  0.56210440
   0.99601376  0.25775015  0.65716469
   0.38172805  0.10060722  0.75222486
   0.18172789  0.70060736  0.56210440
   0.28172791  0.40060726  0.65716469
   0.95315659  0.38632160  0.75222486
   0.75315642  0.98632169  0.56210440
   0.85315657  0.68632162  0.65716469
   0.23887086  0.52917868  0.75222486
   0.03887069  0.12917882  0.56210440
   0.13887083  0.82917875  0.65716469
   0.50315666  0.98632181  0.79975486
   0.30315647  0.58632189  0.60963446
   0.40315652  0.28632182  0.70469469
   0.78887093  0.12917890  0.79975486
   0.58887076  0.72917897  0.60963446
   0.68887091  0.42917892  0.70469469
   0.07458520  0.27203602  0.79975486
   0.87458503  0.87203610  0.60963446
   0.97458512  0.57203597  0.70469469
   0.64601380  0.55775040  0.79975486
   0.44601366  0.15775049  0.60963446
   0.54601371  0.85775042  0.70469463
   0.93172807  0.70060748  0.79975480
   0.73172790  0.30060756  0.60963446
   0.83172792  0.00060749  0.70469469
   0.21744227  0.84346443  0.79975480
   0.01744199  0.44346452  0.60963446
   0.11744213  0.14346451  0.70469463
   0.36029947  0.41489303  0.79975492
   0.16029930  0.01489317  0.60963446
   0.26029932  0.71489304  0.70469469
