  72  72   0   0
  0.2358891E+02  0.8001338E-09  0.1600268E-08  0.1326432E-08  0.5000000E-15
  1.000000000000000E-004
  CAR 
 Si and Ge interface calculation         
      6.77983142     -9.60841790  301      3.59637265      1.00000000
     -9.608  0.0000E+00  0.0000E+00  0.0000E+00  0.0000E+00
     -9.554  0.0000E+00  0.0000E+00  0.0000E+00  0.0000E+00
     -9.499  0.0000E+00  0.0000E+00  0.0000E+00  0.0000E+00
     -9.445  0.0000E+00  0.0000E+00  0.0000E+00  0.0000E+00
     -9.390  0.0000E+00  0.0000E+00  0.0000E+00  0.0000E+00
     -9.335  0.0000E+00  0.0000E+00  0.0000E+00  0.0000E+00
     -9.281  0.0000E+00  0.0000E+00  0.0000E+00  0.0000E+00
     -9.226  0.0000E+00  0.0000E+00  0.0000E+00  0.0000E+00
     -9.171  0.0000E+00  0.0000E+00  0.0000E+00  0.0000E+00
     -9.117  0.0000E+00  0.0000E+00  0.0000E+00  0.0000E+00
     -9.062  0.0000E+00  0.0000E+00  0.0000E+00  0.0000E+00
     -9.008  0.0000E+00  0.0000E+00  0.0000E+00  0.0000E+00
     -8.953  0.0000E+00  0.0000E+00  0.0000E+00  0.0000E+00
     -8.898  0.1009E-05  0.1548E-08  0.5514E-07  0.8454E-10
     -8.844  0.2283E+01  0.2178E+01  0.1247E+00  0.1190E+00
     -8.789  0.4580E+01  0.4632E+01  0.3749E+00  0.3721E+00
     -8.734  0.6821E+01  0.6312E+01  0.7475E+00  0.7169E+00
     -8.680  0.9182E+01  0.9465E+01  0.1249E+01  0.1234E+01
     -8.625  0.6018E+01  0.4830E+01  0.1578E+01  0.1498E+01
     -8.570  0.3151E+01  0.4616E+01  0.1750E+01  0.1750E+01
     -8.516  0.1181E+01  0.1651E+00  0.1814E+01  0.1759E+01
     -8.461  0.1026E+02  0.1128E+02  0.2375E+01  0.2375E+01
     -8.407  0.8328E+01  0.5458E+01  0.2830E+01  0.2673E+01
     -8.352  0.1461E+02  0.1740E+02  0.3628E+01  0.3623E+01
     -8.297  0.1614E+02  0.1193E+02  0.4510E+01  0.4275E+01
     -8.243  0.3689E+01  0.6958E+01  0.4711E+01  0.4655E+01
     -8.188  0.9464E+01  0.7192E+01  0.5228E+01  0.5048E+01
     -8.133  0.1536E+02  0.1553E+02  0.6067E+01  0.5897E+01
     -8.079  0.1249E+02  0.1542E+02  0.6750E+01  0.6739E+01
     -8.024  0.7556E+01  0.4012E+01  0.7162E+01  0.6958E+01
     -7.970  0.1591E+02  0.1708E+02  0.8032E+01  0.7891E+01
     -7.915  0.1983E+02  0.2078E+02  0.9115E+01  0.9026E+01
     -7.860  0.1343E+02  0.1054E+02  0.9848E+01  0.9602E+01
     -7.806  0.1430E+02  0.1873E+02  0.1063E+02  0.1063E+02
     -7.751  0.1911E+02  0.1012E+02  0.1167E+02  0.1118E+02
     -7.696  0.3342E+02  0.4089E+02  0.1350E+02  0.1341E+02
     -7.642  0.1462E+02  0.1344E+02  0.1430E+02  0.1415E+02
     -7.587  0.1912E+02  0.1941E+02  0.1534E+02  0.1521E+02
     -7.533  0.1225E+02  0.1238E+02  0.1601E+02  0.1588E+02
     -7.478  0.1857E+02  0.1802E+02  0.1702E+02  0.1687E+02
     -7.423  0.2270E+02  0.2309E+02  0.1826E+02  0.1813E+02
     -7.369  0.1271E+02  0.1196E+02  0.1896E+02  0.1878E+02
     -7.314  0.2583E+02  0.2077E+02  0.2037E+02  0.1992E+02
     -7.259  0.2922E+02  0.3245E+02  0.2197E+02  0.2169E+02
     -7.205  0.9698E+01  0.1286E+02  0.2250E+02  0.2239E+02
     -7.150  0.2269E+02  0.2071E+02  0.2374E+02  0.2352E+02
     -7.096  0.1598E+02  0.1644E+02  0.2461E+02  0.2442E+02
     -7.041  0.1721E+02  0.1569E+02  0.2555E+02  0.2528E+02
     -6.986  0.2381E+02  0.2669E+02  0.2685E+02  0.2674E+02
     -6.932  0.4647E+02  0.4382E+02  0.2939E+02  0.2913E+02
     -6.877  0.1997E+02  0.2008E+02  0.3048E+02  0.3023E+02
     -6.822  0.1521E+02  0.1805E+02  0.3131E+02  0.3121E+02
     -6.768  0.1597E+02  0.1329E+02  0.3218E+02  0.3194E+02
     -6.713  0.2137E+02  0.2403E+02  0.3335E+02  0.3325E+02
     -6.659  0.1845E+02  0.1541E+02  0.3436E+02  0.3409E+02
     -6.604  0.3062E+02  0.2595E+02  0.3603E+02  0.3551E+02
     -6.549  0.2995E+02  0.2912E+02  0.3767E+02  0.3710E+02
     -6.495  0.4496E+02  0.5445E+02  0.4012E+02  0.4008E+02
     -6.440  0.1618E+02  0.1458E+02  0.4101E+02  0.4087E+02
     -6.385  0.1167E+02  0.1145E+02  0.4164E+02  0.4150E+02
     -6.331  0.1552E+02  0.1590E+02  0.4249E+02  0.4237E+02
     -6.276  0.9243E+01  0.9273E+01  0.4300E+02  0.4287E+02
     -6.222  0.9381E+01  0.7465E+01  0.4351E+02  0.4328E+02
     -6.167  0.1442E+02  0.1149E+02  0.4430E+02  0.4391E+02
     -6.112  0.1893E+02  0.2413E+02  0.4533E+02  0.4523E+02
     -6.058  0.1908E+02  0.1935E+02  0.4637E+02  0.4628E+02
     -6.003  0.1641E+02  0.1145E+02  0.4727E+02  0.4691E+02
     -5.948  0.3482E+02  0.3582E+02  0.4917E+02  0.4887E+02
     -5.894  0.4090E+02  0.3724E+02  0.5141E+02  0.5090E+02
     -5.839  0.1953E+02  0.2668E+02  0.5247E+02  0.5236E+02
     -5.784  0.1719E+02  0.1515E+02  0.5341E+02  0.5318E+02
     -5.730  0.1947E+02  0.1747E+02  0.5448E+02  0.5414E+02
     -5.675  0.1662E+02  0.1931E+02  0.5538E+02  0.5519E+02
     -5.621  0.2383E+02  0.1907E+02  0.5669E+02  0.5624E+02
     -5.566  0.1247E+02  0.1702E+02  0.5737E+02  0.5717E+02
     -5.511  0.1853E+02  0.2183E+02  0.5838E+02  0.5836E+02
     -5.457  0.9176E+01  0.9464E+01  0.5888E+02  0.5887E+02
     -5.402  0.9036E+01  0.9053E+01  0.5937E+02  0.5937E+02
     -5.347  0.1035E+02  0.7692E+01  0.5994E+02  0.5979E+02
     -5.293  0.1656E+02  0.1456E+02  0.6085E+02  0.6058E+02
     -5.238  0.1527E+02  0.1872E+02  0.6168E+02  0.6161E+02
     -5.184  0.2416E+02  0.2045E+02  0.6300E+02  0.6272E+02
     -5.129  0.1428E+02  0.1877E+02  0.6378E+02  0.6375E+02
     -5.074  0.2995E+02  0.2695E+02  0.6541E+02  0.6522E+02
     -5.020  0.8134E+01  0.1076E+02  0.6586E+02  0.6581E+02
     -4.965  0.7426E+01  0.4017E+01  0.6626E+02  0.6603E+02
     -4.910  0.2134E+02  0.2263E+02  0.6743E+02  0.6727E+02
     -4.856  0.2619E+02  0.2525E+02  0.6886E+02  0.6864E+02
     -4.801  0.1327E+02  0.1288E+02  0.6959E+02  0.6935E+02
     -4.747  0.2431E+02  0.2428E+02  0.7091E+02  0.7067E+02
     -4.692  0.2783E+02  0.2533E+02  0.7243E+02  0.7206E+02
     -4.637  0.1297E+02  0.1688E+02  0.7314E+02  0.7298E+02
     -4.583  0.2950E+02  0.2728E+02  0.7476E+02  0.7447E+02
     -4.528  0.2870E+02  0.2782E+02  0.7632E+02  0.7599E+02
     -4.473  0.6870E+01  0.1164E+02  0.7670E+02  0.7663E+02
     -4.419  0.2363E+02  0.2208E+02  0.7799E+02  0.7783E+02
     -4.364  0.7200E+01  0.4700E+01  0.7838E+02  0.7809E+02
     -4.310  0.1890E+02  0.1845E+02  0.7942E+02  0.7910E+02
     -4.255  0.1518E+02  0.1976E+02  0.8024E+02  0.8018E+02
     -4.200  0.2472E+02  0.2254E+02  0.8159E+02  0.8141E+02
     -4.146  0.1101E+02  0.8111E+01  0.8220E+02  0.8185E+02
     -4.091  0.2954E+02  0.2591E+02  0.8381E+02  0.8327E+02
     -4.036  0.1501E+02  0.2420E+02  0.8463E+02  0.8459E+02
     -3.982  0.2399E+02  0.2319E+02  0.8594E+02  0.8585E+02
     -3.927  0.1447E+02  0.1323E+02  0.8673E+02  0.8658E+02
     -3.873  0.8917E+01  0.8353E+01  0.8722E+02  0.8703E+02
     -3.818  0.9651E+01  0.1168E+02  0.8775E+02  0.8767E+02
     -3.763  0.8387E+01  0.6527E+01  0.8820E+02  0.8803E+02
     -3.709  0.3540E+02  0.3148E+02  0.9014E+02  0.8975E+02
     -3.654  0.1434E+02  0.1821E+02  0.9092E+02  0.9074E+02
     -3.599  0.1489E+02  0.1431E+02  0.9173E+02  0.9152E+02
     -3.545  0.2532E+02  0.2541E+02  0.9312E+02  0.9291E+02
     -3.490  0.1822E+02  0.1749E+02  0.9411E+02  0.9387E+02
     -3.436  0.4199E+02  0.4243E+02  0.9641E+02  0.9619E+02
     -3.381  0.1713E+02  0.1898E+02  0.9734E+02  0.9722E+02
     -3.326  0.2629E+02  0.2466E+02  0.9878E+02  0.9857E+02
     -3.272  0.2439E+02  0.2587E+02  0.1001E+03  0.9998E+02
     -3.217  0.1444E+02  0.1198E+02  0.1009E+03  0.1006E+03
     -3.162  0.1300E+02  0.1367E+02  0.1016E+03  0.1014E+03
     -3.108  0.1215E+02  0.7822E+01  0.1023E+03  0.1018E+03
     -3.053  0.1806E+02  0.2211E+02  0.1033E+03  0.1030E+03
     -2.998  0.1438E+02  0.1628E+02  0.1040E+03  0.1039E+03
     -2.944  0.2926E+02  0.2405E+02  0.1056E+03  0.1052E+03
     -2.889  0.1805E+02  0.2135E+02  0.1066E+03  0.1064E+03
     -2.835  0.2572E+02  0.2571E+02  0.1080E+03  0.1078E+03
     -2.780  0.2019E+02  0.1834E+02  0.1091E+03  0.1088E+03
     -2.725  0.1520E+02  0.1790E+02  0.1100E+03  0.1098E+03
     -2.671  0.1274E+02  0.1561E+02  0.1107E+03  0.1106E+03
     -2.616  0.1450E+02  0.1182E+02  0.1115E+03  0.1113E+03
     -2.561  0.1903E+02  0.2013E+02  0.1125E+03  0.1124E+03
     -2.507  0.2974E+02  0.2828E+02  0.1141E+03  0.1139E+03
     -2.452  0.1680E+02  0.1475E+02  0.1150E+03  0.1147E+03
     -2.398  0.1609E+02  0.1738E+02  0.1159E+03  0.1157E+03
     -2.343  0.2045E+02  0.2150E+02  0.1170E+03  0.1168E+03
     -2.288  0.1801E+02  0.1619E+02  0.1180E+03  0.1177E+03
     -2.234  0.1803E+02  0.1575E+02  0.1190E+03  0.1186E+03
     -2.179  0.1611E+02  0.2052E+02  0.1199E+03  0.1197E+03
     -2.124  0.1643E+02  0.1547E+02  0.1208E+03  0.1206E+03
     -2.070  0.5608E+01  0.7956E+01  0.1211E+03  0.1210E+03
     -2.015  0.1498E+02  0.1192E+02  0.1219E+03  0.1216E+03
     -1.961  0.1793E+02  0.1712E+02  0.1229E+03  0.1226E+03
     -1.906  0.8987E+01  0.1355E+02  0.1234E+03  0.1233E+03
     -1.851  0.9122E+01  0.9578E+01  0.1239E+03  0.1238E+03
     -1.797  0.1138E+02  0.6073E+01  0.1245E+03  0.1242E+03
     -1.742  0.2410E+02  0.2788E+02  0.1258E+03  0.1257E+03
     -1.687  0.9578E+01  0.1027E+02  0.1263E+03  0.1263E+03
     -1.633  0.1144E+02  0.8321E+01  0.1270E+03  0.1267E+03
     -1.578  0.1609E+02  0.1517E+02  0.1278E+03  0.1275E+03
     -1.524  0.1876E+02  0.1863E+02  0.1289E+03  0.1286E+03
     -1.469  0.1570E+02  0.1762E+02  0.1297E+03  0.1295E+03
     -1.414  0.1160E+02  0.1226E+02  0.1304E+03  0.1302E+03
     -1.360  0.1397E+02  0.1504E+02  0.1311E+03  0.1310E+03
     -1.305  0.1594E+02  0.9506E+01  0.1320E+03  0.1315E+03
     -1.250  0.1347E+02  0.1843E+02  0.1327E+03  0.1325E+03
     -1.196  0.1754E+02  0.1633E+02  0.1337E+03  0.1334E+03
     -1.141  0.1640E+02  0.1395E+02  0.1346E+03  0.1342E+03
     -1.087  0.9493E+01  0.1300E+02  0.1351E+03  0.1349E+03
     -1.032  0.7907E+01  0.1065E+02  0.1355E+03  0.1355E+03
     -0.977  0.1323E+02  0.1388E+02  0.1363E+03  0.1362E+03
     -0.923  0.1371E+02  0.1255E+02  0.1370E+03  0.1369E+03
     -0.868  0.1965E+02  0.1969E+02  0.1381E+03  0.1380E+03
     -0.813  0.8071E+01  0.9089E+01  0.1385E+03  0.1385E+03
     -0.759  0.1531E+02  0.1181E+02  0.1394E+03  0.1391E+03
     -0.704  0.1743E+02  0.1839E+02  0.1403E+03  0.1401E+03
     -0.650  0.9243E+01  0.9191E+01  0.1408E+03  0.1407E+03
     -0.595  0.1892E+02  0.1515E+02  0.1418E+03  0.1415E+03
     -0.540  0.2051E+02  0.2192E+02  0.1430E+03  0.1427E+03
     -0.486  0.2360E+02  0.2264E+02  0.1443E+03  0.1439E+03
     -0.431  0.1826E+02  0.2412E+02  0.1453E+03  0.1452E+03
     -0.376  0.1730E+02  0.1049E+02  0.1462E+03  0.1458E+03
     -0.322  0.4391E+02  0.4593E+02  0.1486E+03  0.1483E+03
     -0.267  0.2001E+02  0.1993E+02  0.1497E+03  0.1494E+03
     -0.212  0.3681E+02  0.3528E+02  0.1517E+03  0.1513E+03
     -0.158  0.3023E+02  0.3181E+02  0.1533E+03  0.1531E+03
     -0.103  0.3800E+02  0.3484E+02  0.1554E+03  0.1550E+03
     -0.049  0.4666E+02  0.5043E+02  0.1580E+03  0.1577E+03
      0.006  0.4268E+02  0.3914E+02  0.1603E+03  0.1599E+03
      0.061  0.3763E+02  0.4203E+02  0.1624E+03  0.1622E+03
      0.115  0.3167E+02  0.3187E+02  0.1641E+03  0.1639E+03
      0.170  0.3835E+02  0.3340E+02  0.1662E+03  0.1657E+03
      0.225  0.4836E+02  0.4380E+02  0.1688E+03  0.1681E+03
      0.279  0.4563E+02  0.4609E+02  0.1713E+03  0.1706E+03
      0.334  0.4489E+02  0.5196E+02  0.1738E+03  0.1735E+03
      0.388  0.4347E+02  0.3671E+02  0.1761E+03  0.1755E+03
      0.443  0.4782E+02  0.5105E+02  0.1788E+03  0.1783E+03
      0.498  0.3188E+02  0.3614E+02  0.1805E+03  0.1802E+03
      0.552  0.3943E+02  0.3905E+02  0.1827E+03  0.1824E+03
      0.607  0.4719E+02  0.4342E+02  0.1852E+03  0.1847E+03
      0.662  0.3392E+02  0.3370E+02  0.1871E+03  0.1866E+03
      0.716  0.4889E+02  0.5362E+02  0.1898E+03  0.1895E+03
      0.771  0.2848E+02  0.3138E+02  0.1913E+03  0.1912E+03
      0.825  0.4671E+02  0.3884E+02  0.1939E+03  0.1934E+03
      0.880  0.3786E+02  0.4132E+02  0.1959E+03  0.1956E+03
      0.935  0.4542E+02  0.3860E+02  0.1984E+03  0.1977E+03
      0.989  0.3338E+02  0.4132E+02  0.2002E+03  0.2000E+03
      1.044  0.5342E+02  0.4950E+02  0.2032E+03  0.2027E+03
      1.099  0.3966E+02  0.3930E+02  0.2053E+03  0.2048E+03
      1.153  0.5189E+02  0.4837E+02  0.2082E+03  0.2075E+03
      1.208  0.3566E+02  0.4161E+02  0.2101E+03  0.2097E+03
      1.262  0.4848E+02  0.4684E+02  0.2128E+03  0.2123E+03
      1.317  0.4187E+02  0.3920E+02  0.2150E+03  0.2144E+03
      1.372  0.4776E+02  0.4575E+02  0.2176E+03  0.2169E+03
      1.426  0.5182E+02  0.5700E+02  0.2205E+03  0.2201E+03
      1.481  0.4574E+02  0.4438E+02  0.2230E+03  0.2225E+03
      1.536  0.2777E+02  0.2690E+02  0.2245E+03  0.2239E+03
      1.590  0.3887E+02  0.4081E+02  0.2266E+03  0.2262E+03
      1.645  0.4910E+02  0.4570E+02  0.2293E+03  0.2287E+03
      1.699  0.4613E+02  0.4714E+02  0.2318E+03  0.2313E+03
      1.754  0.2948E+02  0.3609E+02  0.2334E+03  0.2332E+03
      1.809  0.4228E+02  0.3967E+02  0.2357E+03  0.2354E+03
      1.863  0.4254E+02  0.3418E+02  0.2381E+03  0.2373E+03
      1.918  0.2487E+02  0.3366E+02  0.2394E+03  0.2391E+03
      1.973  0.3334E+02  0.3385E+02  0.2412E+03  0.2409E+03
      2.027  0.2553E+02  0.1856E+02  0.2426E+03  0.2420E+03
      2.082  0.3892E+02  0.3924E+02  0.2448E+03  0.2441E+03
      2.136  0.2990E+02  0.3212E+02  0.2464E+03  0.2459E+03
      2.191  0.2973E+02  0.2603E+02  0.2480E+03  0.2473E+03
      2.246  0.3987E+02  0.3466E+02  0.2502E+03  0.2492E+03
      2.300  0.3780E+02  0.4365E+02  0.2523E+03  0.2516E+03
      2.355  0.3004E+02  0.2609E+02  0.2539E+03  0.2530E+03
      2.410  0.2401E+02  0.3724E+02  0.2552E+03  0.2550E+03
      2.464  0.3312E+02  0.3466E+02  0.2570E+03  0.2569E+03
      2.519  0.2909E+02  0.2731E+02  0.2586E+03  0.2584E+03
      2.574  0.1640E+02  0.1266E+02  0.2595E+03  0.2591E+03
      2.628  0.2121E+02  0.2539E+02  0.2607E+03  0.2605E+03
      2.683  0.4585E+02  0.4255E+02  0.2632E+03  0.2628E+03
      2.737  0.2422E+02  0.1944E+02  0.2645E+03  0.2639E+03
      2.792  0.2078E+02  0.1794E+02  0.2656E+03  0.2648E+03
      2.847  0.1676E+02  0.3011E+02  0.2666E+03  0.2665E+03
      2.901  0.3064E+02  0.1578E+02  0.2682E+03  0.2674E+03
      2.956  0.2848E+02  0.3565E+02  0.2698E+03  0.2693E+03
      3.011  0.2327E+02  0.2538E+02  0.2711E+03  0.2707E+03
      3.065  0.3864E+02  0.3352E+02  0.2732E+03  0.2725E+03
      3.120  0.3026E+02  0.3079E+02  0.2748E+03  0.2742E+03
      3.174  0.2139E+02  0.2652E+02  0.2760E+03  0.2756E+03
      3.229  0.2514E+02  0.2499E+02  0.2774E+03  0.2770E+03
      3.284  0.2352E+02  0.1957E+02  0.2786E+03  0.2781E+03
      3.338  0.3383E+02  0.2366E+02  0.2805E+03  0.2794E+03
      3.393  0.2386E+02  0.3829E+02  0.2818E+03  0.2815E+03
      3.448  0.3340E+02  0.2072E+02  0.2836E+03  0.2826E+03
      3.502  0.2130E+02  0.3712E+02  0.2848E+03  0.2846E+03
      3.557  0.3205E+02  0.2365E+02  0.2865E+03  0.2859E+03
      3.611  0.3463E+02  0.2726E+02  0.2884E+03  0.2874E+03
      3.666  0.3059E+02  0.3609E+02  0.2901E+03  0.2894E+03
      3.721  0.2532E+02  0.2327E+02  0.2915E+03  0.2907E+03
      3.775  0.2749E+02  0.2932E+02  0.2930E+03  0.2923E+03
      3.830  0.1193E+02  0.2485E+02  0.2936E+03  0.2936E+03
      3.885  0.2380E+02  0.1440E+02  0.2949E+03  0.2944E+03
      3.939  0.2556E+02  0.2694E+02  0.2963E+03  0.2959E+03
      3.994  0.2195E+02  0.1594E+02  0.2975E+03  0.2967E+03
      4.048  0.2072E+02  0.2624E+02  0.2987E+03  0.2982E+03
      4.103  0.1995E+02  0.1901E+02  0.2997E+03  0.2992E+03
      4.158  0.2646E+02  0.2334E+02  0.3012E+03  0.3005E+03
      4.212  0.2592E+02  0.2293E+02  0.3026E+03  0.3017E+03
      4.267  0.2863E+02  0.3610E+02  0.3042E+03  0.3037E+03
      4.322  0.3082E+02  0.2789E+02  0.3059E+03  0.3052E+03
      4.376  0.3548E+02  0.3793E+02  0.3078E+03  0.3073E+03
      4.431  0.2830E+02  0.2250E+02  0.3093E+03  0.3085E+03
      4.485  0.2949E+02  0.3166E+02  0.3110E+03  0.3103E+03
      4.540  0.2585E+02  0.2988E+02  0.3124E+03  0.3119E+03
      4.595  0.2950E+02  0.2869E+02  0.3140E+03  0.3135E+03
      4.649  0.3078E+02  0.3050E+02  0.3157E+03  0.3151E+03
      4.704  0.3510E+02  0.3666E+02  0.3176E+03  0.3171E+03
      4.759  0.2304E+02  0.2107E+02  0.3188E+03  0.3183E+03
      4.813  0.3147E+02  0.3330E+02  0.3206E+03  0.3201E+03
      4.868  0.3259E+02  0.3159E+02  0.3223E+03  0.3218E+03
      4.922  0.2331E+02  0.2390E+02  0.3236E+03  0.3231E+03
      4.977  0.3831E+02  0.3488E+02  0.3257E+03  0.3250E+03
      5.032  0.2748E+02  0.3331E+02  0.3272E+03  0.3269E+03
      5.086  0.3907E+02  0.3490E+02  0.3293E+03  0.3288E+03
      5.141  0.2570E+02  0.2792E+02  0.3307E+03  0.3303E+03
      5.196  0.2728E+02  0.2554E+02  0.3322E+03  0.3317E+03
      5.250  0.2918E+02  0.2423E+02  0.3338E+03  0.3330E+03
      5.305  0.3141E+02  0.3977E+02  0.3355E+03  0.3352E+03
      5.360  0.2422E+02  0.2720E+02  0.3369E+03  0.3367E+03
      5.414  0.3727E+02  0.2914E+02  0.3389E+03  0.3383E+03
      5.469  0.3761E+02  0.4547E+02  0.3410E+03  0.3407E+03
      5.523  0.2472E+02  0.2570E+02  0.3423E+03  0.3421E+03
      5.578  0.2868E+02  0.2076E+02  0.3439E+03  0.3433E+03
      5.633  0.2615E+02  0.3480E+02  0.3453E+03  0.3452E+03
      5.687  0.3452E+02  0.2236E+02  0.3472E+03  0.3464E+03
      5.742  0.2010E+02  0.2878E+02  0.3483E+03  0.3480E+03
      5.797  0.1621E+02  0.1591E+02  0.3492E+03  0.3488E+03
      5.851  0.1719E+02  0.2135E+02  0.3501E+03  0.3500E+03
      5.906  0.1652E+02  0.1458E+02  0.3510E+03  0.3508E+03
      5.960  0.4390E+01  0.8093E+01  0.3513E+03  0.3512E+03
      6.015  0.9948E+01  0.8850E+01  0.3518E+03  0.3517E+03
      6.070  0.3775E+01  0.4880E+01  0.3520E+03  0.3520E+03
      6.124  0.0000E+00  0.0000E+00  0.3520E+03  0.3520E+03
      6.179  0.0000E+00  0.0000E+00  0.3520E+03  0.3520E+03
      6.234  0.0000E+00  0.0000E+00  0.3520E+03  0.3520E+03
      6.288  0.0000E+00  0.0000E+00  0.3520E+03  0.3520E+03
      6.343  0.0000E+00  0.0000E+00  0.3520E+03  0.3520E+03
      6.397  0.0000E+00  0.0000E+00  0.3520E+03  0.3520E+03
      6.452  0.0000E+00  0.0000E+00  0.3520E+03  0.3520E+03
      6.507  0.0000E+00  0.0000E+00  0.3520E+03  0.3520E+03
      6.561  0.0000E+00  0.0000E+00  0.3520E+03  0.3520E+03
      6.616  0.0000E+00  0.0000E+00  0.3520E+03  0.3520E+03
      6.671  0.0000E+00  0.0000E+00  0.3520E+03  0.3520E+03
      6.725  0.0000E+00  0.0000E+00  0.3520E+03  0.3520E+03
      6.780  0.0000E+00  0.0000E+00  0.3520E+03  0.3520E+03
