  48  48   0   0
  0.3683667E+02  0.1297840E-08  0.1946760E-08  0.9389106E-09  0.5000000E-15
  1.000000000000000E-004
  CAR 
 Si and Ge interface calculation         
      3.63773150    -10.58549897  301      1.54545191      1.00000000
    -10.585  0.0000E+00  0.0000E+00  0.0000E+00  0.0000E+00
    -10.538  0.0000E+00  0.0000E+00  0.0000E+00  0.0000E+00
    -10.491  0.0000E+00  0.0000E+00  0.0000E+00  0.0000E+00
    -10.443  0.0000E+00  0.0000E+00  0.0000E+00  0.0000E+00
    -10.396  0.0000E+00  0.0000E+00  0.0000E+00  0.0000E+00
    -10.348  0.0000E+00  0.0000E+00  0.0000E+00  0.0000E+00
    -10.301  0.0000E+00  0.0000E+00  0.0000E+00  0.0000E+00
    -10.254  0.0000E+00  0.0000E+00  0.0000E+00  0.0000E+00
    -10.206  0.0000E+00  0.0000E+00  0.0000E+00  0.0000E+00
    -10.159  0.0000E+00  0.0000E+00  0.0000E+00  0.0000E+00
    -10.111  0.0000E+00  0.0000E+00  0.0000E+00  0.0000E+00
    -10.064  0.0000E+00  0.0000E+00  0.0000E+00  0.0000E+00
    -10.017  0.0000E+00  0.0000E+00  0.0000E+00  0.0000E+00
     -9.969  0.6967E-04  0.1451E-06  0.3303E-05  0.6878E-08
     -9.922  0.3985E+02  0.2889E+02  0.1889E+01  0.1370E+01
     -9.874  0.2339E+01  0.1330E+02  0.2000E+01  0.2000E+01
     -9.827  0.0000E+00  0.0000E+00  0.2000E+01  0.2000E+01
     -9.780  0.0000E+00  0.0000E+00  0.2000E+01  0.2000E+01
     -9.732  0.0000E+00  0.0000E+00  0.2000E+01  0.2000E+01
     -9.685  0.0000E+00  0.0000E+00  0.2000E+01  0.2000E+01
     -9.637  0.0000E+00  0.0000E+00  0.2000E+01  0.2000E+01
     -9.590  0.0000E+00  0.0000E+00  0.2000E+01  0.2000E+01
     -9.542  0.0000E+00  0.0000E+00  0.2000E+01  0.2000E+01
     -9.495  0.0000E+00  0.0000E+00  0.2000E+01  0.2000E+01
     -9.448  0.0000E+00  0.0000E+00  0.2000E+01  0.2000E+01
     -9.400  0.0000E+00  0.0000E+00  0.2000E+01  0.2000E+01
     -9.353  0.0000E+00  0.0000E+00  0.2000E+01  0.2000E+01
     -9.305  0.1448E-06  0.2637E-12  0.2000E+01  0.2000E+01
     -9.258  0.3732E+01  0.6415E+00  0.2177E+01  0.2030E+01
     -9.211  0.3546E+02  0.2675E+02  0.3858E+01  0.3299E+01
     -9.163  0.2996E+01  0.1480E+02  0.4000E+01  0.4000E+01
     -9.116  0.1691E-14  0.0000E+00  0.4000E+01  0.4000E+01
     -9.068  0.5413E+00  0.2759E-02  0.4026E+01  0.4000E+01
     -9.021  0.2514E+02  0.1992E+02  0.5217E+01  0.4945E+01
     -8.974  0.1649E+02  0.2121E+02  0.5999E+01  0.5950E+01
     -8.926  0.1527E-01  0.1053E+01  0.6000E+01  0.6000E+01
     -8.879  0.5031E+01  0.2410E+00  0.6239E+01  0.6011E+01
     -8.831  0.2967E+02  0.2787E+02  0.7645E+01  0.7333E+01
     -8.784  0.7484E+01  0.1405E+02  0.8000E+01  0.7999E+01
     -8.736  0.5971E-05  0.2350E-01  0.8000E+01  0.8000E+01
     -8.689  0.5724E-14  0.0000E+00  0.8000E+01  0.8000E+01
     -8.642  0.3742E+00  0.1137E-02  0.8018E+01  0.8000E+01
     -8.594  0.2120E+02  0.1853E+02  0.9023E+01  0.8879E+01
     -8.547  0.1894E+02  0.1744E+02  0.9921E+01  0.9705E+01
     -8.499  0.2867E+01  0.6226E+01  0.1006E+02  0.1000E+02
     -8.452  0.6120E+01  0.6694E+01  0.1035E+02  0.1032E+02
     -8.405  0.9246E+01  0.4960E+01  0.1079E+02  0.1055E+02
     -8.357  0.1501E+02  0.1644E+02  0.1150E+02  0.1133E+02
     -8.310  0.1062E+02  0.1408E+02  0.1200E+02  0.1200E+02
     -8.262  0.7678E-02  0.1222E-02  0.1200E+02  0.1200E+02
     -8.215  0.7745E+01  0.5357E+01  0.1237E+02  0.1225E+02
     -8.168  0.2262E+02  0.1576E+02  0.1344E+02  0.1300E+02
     -8.120  0.1707E+02  0.2123E+02  0.1425E+02  0.1401E+02
     -8.073  0.1985E+02  0.1910E+02  0.1519E+02  0.1491E+02
     -8.025  0.1708E+02  0.2232E+02  0.1600E+02  0.1597E+02
     -7.978  0.4460E+00  0.6005E+00  0.1602E+02  0.1600E+02
     -7.930  0.8929E+01  0.9233E+01  0.1644E+02  0.1644E+02
     -7.883  0.1670E+02  0.2258E+01  0.1724E+02  0.1654E+02
     -7.836  0.1611E+02  0.3062E+02  0.1800E+02  0.1800E+02
     -7.788  0.3603E+01  0.1292E+00  0.1817E+02  0.1800E+02
     -7.741  0.3249E+02  0.2553E+02  0.1971E+02  0.1921E+02
     -7.693  0.6045E+01  0.1515E+02  0.2000E+02  0.1993E+02
     -7.646  0.2241E+00  0.1453E+01  0.2001E+02  0.2000E+02
     -7.599  0.2253E+02  0.1418E+02  0.2108E+02  0.2067E+02
     -7.551  0.1224E+02  0.1789E+02  0.2166E+02  0.2152E+02
     -7.504  0.2002E+02  0.1242E+02  0.2261E+02  0.2211E+02
     -7.456  0.1653E+02  0.2557E+02  0.2339E+02  0.2332E+02
     -7.409  0.1039E+02  0.3761E+01  0.2388E+02  0.2350E+02
     -7.362  0.2355E+02  0.2871E+02  0.2500E+02  0.2486E+02
     -7.314  0.8553E+01  0.5542E+01  0.2540E+02  0.2512E+02
     -7.267  0.9317E+01  0.1128E+02  0.2585E+02  0.2566E+02
     -7.219  0.1834E+02  0.2009E+02  0.2672E+02  0.2661E+02
     -7.172  0.3103E+02  0.2344E+02  0.2819E+02  0.2772E+02
     -7.125  0.7634E+01  0.1347E+02  0.2855E+02  0.2836E+02
     -7.077  0.3165E+02  0.2719E+02  0.3005E+02  0.2965E+02
     -7.030  0.8024E+01  0.1442E+02  0.3043E+02  0.3033E+02
     -6.982  0.1298E+02  0.1119E+02  0.3104E+02  0.3086E+02
     -6.935  0.3236E+02  0.3093E+02  0.3258E+02  0.3233E+02
     -6.887  0.1047E+02  0.1213E+02  0.3308E+02  0.3291E+02
     -6.840  0.2334E+02  0.1679E+02  0.3418E+02  0.3370E+02
     -6.793  0.2659E+02  0.2404E+02  0.3544E+02  0.3484E+02
     -6.745  0.1985E+02  0.2404E+02  0.3638E+02  0.3598E+02
     -6.698  0.3085E+02  0.2394E+02  0.3785E+02  0.3712E+02
     -6.650  0.1671E+02  0.2571E+02  0.3864E+02  0.3833E+02
     -6.603  0.1122E+02  0.1365E+02  0.3917E+02  0.3898E+02
     -6.556  0.1874E+02  0.1675E+02  0.4006E+02  0.3978E+02
     -6.508  0.2332E+02  0.2084E+02  0.4116E+02  0.4076E+02
     -6.461  0.5518E+01  0.9775E+01  0.4143E+02  0.4123E+02
     -6.413  0.2375E+02  0.2480E+02  0.4255E+02  0.4240E+02
     -6.366  0.1005E+02  0.8346E+01  0.4303E+02  0.4280E+02
     -6.319  0.1486E+02  0.1671E+02  0.4373E+02  0.4359E+02
     -6.271  0.4247E+01  0.6277E+01  0.4393E+02  0.4389E+02
     -6.224  0.1921E+02  0.1429E+02  0.4485E+02  0.4457E+02
     -6.176  0.1981E+02  0.2256E+02  0.4578E+02  0.4564E+02
     -6.129  0.1245E+02  0.1386E+02  0.4638E+02  0.4629E+02
     -6.081  0.1717E+02  0.1323E+02  0.4719E+02  0.4692E+02
     -6.034  0.1622E+02  0.1484E+02  0.4796E+02  0.4762E+02
     -5.987  0.9240E+01  0.1499E+02  0.4840E+02  0.4833E+02
     -5.939  0.1009E+02  0.9000E+01  0.4888E+02  0.4876E+02
     -5.892  0.1932E+02  0.1429E+02  0.4979E+02  0.4944E+02
     -5.844  0.6988E+01  0.1407E+02  0.5012E+02  0.5011E+02
     -5.797  0.9368E+01  0.2754E+01  0.5057E+02  0.5024E+02
     -5.750  0.1907E+02  0.1918E+02  0.5147E+02  0.5115E+02
     -5.702  0.1332E+02  0.1469E+02  0.5210E+02  0.5184E+02
     -5.655  0.7147E+01  0.1008E+02  0.5244E+02  0.5232E+02
     -5.607  0.1544E+00  0.2628E+01  0.5245E+02  0.5244E+02
     -5.560  0.1459E+02  0.1212E+02  0.5314E+02  0.5302E+02
     -5.513  0.1815E+02  0.1455E+02  0.5400E+02  0.5371E+02
     -5.465  0.1403E+02  0.1956E+02  0.5467E+02  0.5464E+02
     -5.418  0.8891E+01  0.1796E+01  0.5509E+02  0.5472E+02
     -5.370  0.1455E+02  0.2227E+02  0.5578E+02  0.5578E+02
     -5.323  0.1085E+02  0.4217E+01  0.5629E+02  0.5598E+02
     -5.275  0.1318E+02  0.1583E+02  0.5692E+02  0.5673E+02
     -5.228  0.7391E+01  0.8742E+01  0.5727E+02  0.5714E+02
     -5.181  0.1729E+02  0.1146E+02  0.5809E+02  0.5769E+02
     -5.133  0.2146E+02  0.2657E+02  0.5910E+02  0.5894E+02
     -5.086  0.9785E+01  0.9671E+01  0.5957E+02  0.5940E+02
     -5.038  0.7570E+01  0.1024E+02  0.5993E+02  0.5989E+02
     -4.991  0.2299E+02  0.1700E+02  0.6102E+02  0.6069E+02
     -4.944  0.1137E+02  0.1718E+02  0.6156E+02  0.6151E+02
     -4.896  0.1270E+02  0.8854E+01  0.6216E+02  0.6193E+02
     -4.849  0.1396E+02  0.1705E+02  0.6282E+02  0.6274E+02
     -4.801  0.1579E+02  0.7574E+01  0.6357E+02  0.6310E+02
     -4.754  0.2888E+02  0.3239E+02  0.6494E+02  0.6463E+02
     -4.707  0.1711E+02  0.1354E+02  0.6575E+02  0.6527E+02
     -4.659  0.7926E+01  0.1536E+02  0.6612E+02  0.6600E+02
     -4.612  0.5685E+01  0.5287E+01  0.6639E+02  0.6625E+02
     -4.564  0.3775E+02  0.2168E+02  0.6818E+02  0.6728E+02
     -4.517  0.6631E+01  0.2454E+02  0.6850E+02  0.6844E+02
     -4.470  0.2123E+02  0.1220E+02  0.6951E+02  0.6902E+02
     -4.422  0.2048E+02  0.2443E+02  0.7048E+02  0.7018E+02
     -4.375  0.6165E+01  0.1026E+02  0.7077E+02  0.7067E+02
     -4.327  0.2458E+02  0.1218E+02  0.7193E+02  0.7125E+02
     -4.280  0.1845E+02  0.2613E+02  0.7281E+02  0.7248E+02
     -4.232  0.8982E+01  0.1431E+02  0.7323E+02  0.7316E+02
     -4.185  0.2311E+02  0.1557E+02  0.7433E+02  0.7390E+02
     -4.138  0.1305E+02  0.1538E+02  0.7495E+02  0.7463E+02
     -4.090  0.1739E+02  0.2050E+02  0.7577E+02  0.7560E+02
     -4.043  0.8643E+01  0.8449E+01  0.7618E+02  0.7600E+02
     -3.995  0.1045E+02  0.6981E+01  0.7668E+02  0.7633E+02
     -3.948  0.1997E+02  0.2111E+02  0.7763E+02  0.7733E+02
     -3.901  0.5458E+01  0.9352E+01  0.7788E+02  0.7778E+02
     -3.853  0.3397E+01  0.4698E+01  0.7804E+02  0.7800E+02
     -3.806  0.2952E+02  0.2639E+02  0.7944E+02  0.7925E+02
     -3.758  0.1177E+02  0.1481E+02  0.8000E+02  0.7995E+02
     -3.711  0.1400E+02  0.1404E+02  0.8067E+02  0.8062E+02
     -3.664  0.8335E+01  0.2615E+01  0.8106E+02  0.8074E+02
     -3.616  0.1072E+02  0.1380E+02  0.8157E+02  0.8140E+02
     -3.569  0.4284E+01  0.6252E+01  0.8177E+02  0.8169E+02
     -3.521  0.6976E+01  0.5188E+01  0.8210E+02  0.8194E+02
     -3.474  0.1941E+02  0.1383E+02  0.8302E+02  0.8259E+02
     -3.426  0.8816E+01  0.1613E+02  0.8344E+02  0.8336E+02
     -3.379  0.1386E+00  0.1788E+01  0.8345E+02  0.8344E+02
     -3.332  0.1412E+02  0.1121E+02  0.8412E+02  0.8398E+02
     -3.284  0.1668E+02  0.1705E+02  0.8491E+02  0.8478E+02
     -3.237  0.1470E+02  0.1354E+02  0.8561E+02  0.8543E+02
     -3.189  0.5962E+01  0.8555E+01  0.8589E+02  0.8583E+02
     -3.142  0.4654E+01  0.3760E+01  0.8611E+02  0.8601E+02
     -3.095  0.4736E+01  0.2339E+01  0.8633E+02  0.8612E+02
     -3.047  0.2039E+02  0.1795E+02  0.8730E+02  0.8697E+02
     -3.000  0.7986E+01  0.1049E+02  0.8768E+02  0.8747E+02
     -2.952  0.1214E+02  0.8250E+01  0.8825E+02  0.8786E+02
     -2.905  0.4011E+01  0.1231E+02  0.8844E+02  0.8844E+02
     -2.858  0.8466E+01  0.2912E+01  0.8885E+02  0.8858E+02
     -2.810  0.1713E+02  0.1656E+02  0.8966E+02  0.8937E+02
     -2.763  0.8552E+01  0.9625E+01  0.9006E+02  0.8982E+02
     -2.715  0.1038E+02  0.1537E+02  0.9056E+02  0.9055E+02
     -2.668  0.8332E+01  0.1296E+01  0.9095E+02  0.9061E+02
     -2.620  0.1407E+02  0.1984E+02  0.9162E+02  0.9155E+02
     -2.573  0.8039E+01  0.7952E+01  0.9200E+02  0.9193E+02
     -2.526  0.2345E+01  0.3011E+01  0.9211E+02  0.9207E+02
     -2.478  0.4457E+01  0.2100E+01  0.9232E+02  0.9217E+02
     -2.431  0.1316E+02  0.1183E+02  0.9294E+02  0.9273E+02
     -2.383  0.4916E+01  0.6146E+01  0.9318E+02  0.9303E+02
     -2.336  0.1755E+01  0.4142E+01  0.9326E+02  0.9322E+02
     -2.289  0.8554E+01  0.9353E+01  0.9367E+02  0.9367E+02
     -2.241  0.2960E+00  0.1816E-01  0.9368E+02  0.9367E+02
     -2.194  0.4516E+01  0.4681E+01  0.9389E+02  0.9389E+02
     -2.146  0.7133E+01  0.6623E+01  0.9423E+02  0.9420E+02
     -2.099  0.1400E+02  0.1180E+02  0.9490E+02  0.9476E+02
     -2.052  0.7131E+01  0.7570E+01  0.9523E+02  0.9512E+02
     -2.004  0.8182E+01  0.6931E+01  0.9562E+02  0.9545E+02
     -1.957  0.9262E+00  0.4583E+01  0.9567E+02  0.9567E+02
     -1.909  0.1958E+01  0.3519E+00  0.9576E+02  0.9568E+02
     -1.862  0.1949E+01  0.2029E+01  0.9585E+02  0.9578E+02
     -1.815  0.3124E+01  0.4650E+01  0.9600E+02  0.9600E+02
     -1.767  0.8272E+01  0.3561E+01  0.9639E+02  0.9617E+02
     -1.720  0.2070E+02  0.2279E+02  0.9737E+02  0.9725E+02
     -1.672  0.1075E+02  0.9511E+01  0.9788E+02  0.9770E+02
     -1.625  0.2458E+01  0.6323E+01  0.9800E+02  0.9800E+02
     -1.577  0.3898E+01  0.7216E+00  0.9818E+02  0.9803E+02
     -1.530  0.3136E+02  0.2313E+02  0.9967E+02  0.9913E+02
     -1.483  0.1493E+02  0.2312E+02  0.1004E+03  0.1002E+03
     -1.435  0.3374E+02  0.3081E+02  0.1020E+03  0.1017E+03
     -1.388  0.5694E+01  0.7767E+01  0.1022E+03  0.1021E+03
     -1.340  0.1481E+02  0.1301E+02  0.1030E+03  0.1027E+03
     -1.293  0.2872E+02  0.2780E+02  0.1043E+03  0.1040E+03
     -1.246  0.2910E+02  0.1866E+02  0.1057E+03  0.1049E+03
     -1.198  0.2154E+02  0.3075E+02  0.1067E+03  0.1063E+03
     -1.151  0.3326E+02  0.2952E+02  0.1083E+03  0.1077E+03
     -1.103  0.2938E+02  0.3587E+02  0.1097E+03  0.1094E+03
     -1.056  0.2319E+02  0.2382E+02  0.1108E+03  0.1106E+03
     -1.009  0.2640E+02  0.2045E+02  0.1120E+03  0.1115E+03
     -0.961  0.2102E+02  0.2599E+02  0.1130E+03  0.1128E+03
     -0.914  0.4071E+02  0.3777E+02  0.1150E+03  0.1146E+03
     -0.866  0.2918E+02  0.2412E+02  0.1163E+03  0.1157E+03
     -0.819  0.3546E+02  0.3922E+02  0.1180E+03  0.1176E+03
     -0.771  0.2680E+02  0.2136E+02  0.1193E+03  0.1186E+03
     -0.724  0.3600E+02  0.4134E+02  0.1210E+03  0.1205E+03
     -0.677  0.3264E+02  0.2571E+02  0.1225E+03  0.1218E+03
     -0.629  0.3432E+02  0.4111E+02  0.1242E+03  0.1237E+03
     -0.582  0.2661E+02  0.2526E+02  0.1254E+03  0.1249E+03
     -0.534  0.3942E+02  0.3572E+02  0.1273E+03  0.1266E+03
     -0.487  0.2991E+02  0.4022E+02  0.1287E+03  0.1285E+03
     -0.440  0.2365E+02  0.1963E+02  0.1298E+03  0.1294E+03
     -0.392  0.2879E+02  0.2298E+02  0.1312E+03  0.1305E+03
     -0.345  0.4187E+02  0.4662E+02  0.1332E+03  0.1327E+03
     -0.297  0.2522E+02  0.2635E+02  0.1344E+03  0.1340E+03
     -0.250  0.2535E+02  0.1956E+02  0.1356E+03  0.1349E+03
     -0.203  0.5109E+02  0.5522E+02  0.1380E+03  0.1375E+03
     -0.155  0.3332E+02  0.2753E+02  0.1396E+03  0.1388E+03
     -0.108  0.3437E+02  0.3585E+02  0.1412E+03  0.1405E+03
     -0.060  0.3085E+02  0.3760E+02  0.1427E+03  0.1423E+03
     -0.013  0.2748E+02  0.2957E+02  0.1440E+03  0.1437E+03
      0.035  0.3082E+02  0.2072E+02  0.1455E+03  0.1447E+03
      0.082  0.3384E+02  0.3221E+02  0.1471E+03  0.1462E+03
      0.129  0.2518E+02  0.2938E+02  0.1482E+03  0.1476E+03
      0.177  0.2975E+02  0.3391E+02  0.1497E+03  0.1492E+03
      0.224  0.2716E+02  0.2927E+02  0.1509E+03  0.1506E+03
      0.272  0.3448E+02  0.2591E+02  0.1526E+03  0.1518E+03
      0.319  0.2902E+02  0.3584E+02  0.1540E+03  0.1535E+03
      0.366  0.4101E+02  0.3485E+02  0.1559E+03  0.1552E+03
      0.414  0.2454E+02  0.2751E+02  0.1571E+03  0.1565E+03
      0.461  0.2723E+02  0.2877E+02  0.1584E+03  0.1579E+03
      0.509  0.2730E+02  0.2701E+02  0.1597E+03  0.1591E+03
      0.556  0.3665E+02  0.3622E+02  0.1614E+03  0.1609E+03
      0.603  0.2994E+02  0.3108E+02  0.1628E+03  0.1623E+03
      0.651  0.2898E+02  0.2645E+02  0.1642E+03  0.1636E+03
      0.698  0.3077E+02  0.3526E+02  0.1656E+03  0.1653E+03
      0.746  0.3883E+02  0.2563E+02  0.1675E+03  0.1665E+03
      0.793  0.2638E+02  0.3945E+02  0.1687E+03  0.1683E+03
      0.840  0.2517E+02  0.2166E+02  0.1699E+03  0.1694E+03
      0.888  0.3458E+02  0.2964E+02  0.1716E+03  0.1708E+03
      0.935  0.3082E+02  0.3326E+02  0.1730E+03  0.1724E+03
      0.983  0.3033E+02  0.3286E+02  0.1745E+03  0.1739E+03
      1.030  0.2409E+02  0.2410E+02  0.1756E+03  0.1751E+03
      1.078  0.3910E+02  0.3405E+02  0.1775E+03  0.1767E+03
      1.125  0.2722E+02  0.3148E+02  0.1788E+03  0.1782E+03
      1.172  0.3139E+02  0.2999E+02  0.1802E+03  0.1796E+03
      1.220  0.3911E+02  0.4057E+02  0.1821E+03  0.1815E+03
      1.267  0.1119E+02  0.1958E+02  0.1826E+03  0.1824E+03
      1.315  0.4006E+02  0.2508E+02  0.1845E+03  0.1836E+03
      1.362  0.2906E+02  0.3491E+02  0.1859E+03  0.1853E+03
      1.409  0.3930E+02  0.3642E+02  0.1878E+03  0.1870E+03
      1.457  0.3097E+02  0.3016E+02  0.1892E+03  0.1884E+03
      1.504  0.2299E+02  0.2957E+02  0.1903E+03  0.1898E+03
      1.552  0.3786E+02  0.2660E+02  0.1921E+03  0.1911E+03
      1.599  0.4401E+02  0.4293E+02  0.1942E+03  0.1931E+03
      1.646  0.2404E+02  0.3616E+02  0.1953E+03  0.1948E+03
      1.694  0.2836E+02  0.2475E+02  0.1967E+03  0.1960E+03
      1.741  0.2603E+02  0.3193E+02  0.1979E+03  0.1975E+03
      1.789  0.3157E+02  0.2389E+02  0.1994E+03  0.1987E+03
      1.836  0.1263E+02  0.1918E+02  0.2000E+03  0.1996E+03
      1.884  0.4594E+02  0.3523E+02  0.2022E+03  0.2012E+03
      1.931  0.2728E+02  0.3580E+02  0.2035E+03  0.2029E+03
      1.978  0.2539E+02  0.2363E+02  0.2047E+03  0.2041E+03
      2.026  0.3873E+02  0.2999E+02  0.2065E+03  0.2055E+03
      2.073  0.1384E+02  0.2806E+02  0.2072E+03  0.2068E+03
      2.121  0.3850E+02  0.2811E+02  0.2090E+03  0.2081E+03
      2.168  0.3143E+02  0.4195E+02  0.2105E+03  0.2101E+03
      2.215  0.2963E+02  0.2526E+02  0.2119E+03  0.2113E+03
      2.263  0.2895E+02  0.2482E+02  0.2133E+03  0.2125E+03
      2.310  0.2658E+02  0.2840E+02  0.2145E+03  0.2139E+03
      2.358  0.2992E+02  0.2976E+02  0.2160E+03  0.2153E+03
      2.405  0.2586E+02  0.2694E+02  0.2172E+03  0.2165E+03
      2.452  0.2468E+02  0.2885E+02  0.2184E+03  0.2179E+03
      2.500  0.3402E+02  0.2797E+02  0.2200E+03  0.2192E+03
      2.547  0.2453E+02  0.2897E+02  0.2211E+03  0.2206E+03
      2.595  0.2982E+02  0.3104E+02  0.2225E+03  0.2221E+03
      2.642  0.2977E+02  0.2974E+02  0.2240E+03  0.2235E+03
      2.690  0.2061E+02  0.2662E+02  0.2249E+03  0.2248E+03
      2.737  0.3735E+02  0.2632E+02  0.2267E+03  0.2260E+03
      2.784  0.3639E+02  0.3956E+02  0.2284E+03  0.2279E+03
      2.832  0.2287E+02  0.1851E+02  0.2295E+03  0.2288E+03
      2.879  0.2892E+02  0.3674E+02  0.2309E+03  0.2305E+03
      2.927  0.6582E+01  0.1289E+02  0.2312E+03  0.2311E+03
      2.974  0.1581E+02  0.9304E+01  0.2319E+03  0.2316E+03
      3.021  0.1133E+01  0.9440E+01  0.2320E+03  0.2320E+03
      3.069  0.0000E+00  0.4648E-04  0.2320E+03  0.2320E+03
      3.116  0.0000E+00  0.0000E+00  0.2320E+03  0.2320E+03
      3.164  0.0000E+00  0.0000E+00  0.2320E+03  0.2320E+03
      3.211  0.0000E+00  0.0000E+00  0.2320E+03  0.2320E+03
      3.258  0.0000E+00  0.0000E+00  0.2320E+03  0.2320E+03
      3.306  0.0000E+00  0.0000E+00  0.2320E+03  0.2320E+03
      3.353  0.0000E+00  0.0000E+00  0.2320E+03  0.2320E+03
      3.401  0.0000E+00  0.0000E+00  0.2320E+03  0.2320E+03
      3.448  0.0000E+00  0.0000E+00  0.2320E+03  0.2320E+03
      3.495  0.0000E+00  0.0000E+00  0.2320E+03  0.2320E+03
      3.543  0.0000E+00  0.0000E+00  0.2320E+03  0.2320E+03
      3.590  0.0000E+00  0.0000E+00  0.2320E+03  0.2320E+03
      3.638  0.0000E+00  0.0000E+00  0.2320E+03  0.2320E+03
