Si and Ge interface calculation         
           1
    12.978400    0.000000    0.000000
   -12.978400   14.510293    0.000000
     0.000000    0.000000    9.389106
   Sn   Ge
    24    24
Direct configuration=     1
   0.97956431  0.03065353  0.00000001
   0.77956426  0.33065358  0.15454395
   0.57956415  0.63065362  0.30908790
   0.47956425  0.03065353  0.00000001
   0.27956420  0.33065358  0.15454395
   0.07956413  0.63065362  0.30908790
   0.25456432  0.68065351  0.07727182
   0.05456416  0.98065347  0.23181579
   0.85456413  0.28065360  0.38635969
   0.75456440  0.68065351  0.07727182
   0.55456424  0.98065347  0.23181579
   0.35456416  0.28065360  0.38635969
   0.22956428  0.53065348  0.00000000
   0.02956419  0.83065349  0.15454395
   0.82956403  0.13065362  0.30908790
   0.72956419  0.53065348  0.00000000
   0.52956414  0.83065349  0.15454395
   0.32956403  0.13065362  0.30908790
   0.00456433  0.18065351  0.07727183
   0.80456418  0.48065358  0.23181579
   0.60456425  0.78065366  0.38635969
   0.50456429  0.18065351  0.07727183
   0.30456418  0.48065358  0.23181579
   0.10456417  0.78065366  0.38635969
   0.04277468  0.83143258  0.55565727
   0.92610800  0.41476583  0.61066627
   0.80944121  0.99809903  0.66567528
   0.69277442  0.58143234  0.72068435
   0.57610774  0.16476560  0.77569330
   0.45944086  0.74809861  0.83070236
   0.54277468  0.08143246  0.55565727
   0.42610794  0.66476572  0.61066627
   0.30944121  0.24809909  0.66567528
   0.19277438  0.83143234  0.72068423
   0.07610764  0.41476560  0.77569324
   0.95944095  0.99809867  0.83070231
   0.54277468  0.33143246  0.55565733
   0.42610791  0.91476583  0.61066633
   0.30944115  0.49809909  0.66567528
   0.19277442  0.08143222  0.72068429
   0.07610770  0.66476560  0.77569330
   0.95944083  0.24809861  0.83070236
   0.04277468  0.58143258  0.55565733
   0.92610788  0.16476572  0.61066633
   0.80944121  0.74809897  0.66567528
   0.69277442  0.33143222  0.72068429
   0.57610762  0.91476560  0.77569336
   0.45944086  0.49809861  0.83070236
