<?xml version="1.0" encoding="ISO-8859-1"?>
<modeling>
 <generator>
  <i name="program" type="string">vasp </i>
  <i name="version" type="string">6.4.3  </i>
  <i name="subversion" type="string">19Mar24 (build Oct 22 2024 11:23:12) complex                          parallel </i>
  <i name="platform" type="string">LinuxIFC </i>
  <i name="date" type="string">2025 04 30 </i>
  <i name="time" type="string">03:33:59 </i>
 </generator>
 <incar>
  <i type="string" name="SYSTEM">Si001 and Ge122 interface calculation</i>
  <i type="int" name="ISTART">     0</i>
  <i type="logical" name="ADDGRID"> T  </i>
  <i type="int" name="ISPIN">     2</i>
  <i name="AMIX">      0.60000000</i>
  <i type="int" name="ICHARG">     2</i>
  <i type="int" name="NELM">   100</i>
  <i name="EDIFF">      0.00000010</i>
  <i name="ENCUT">    700.00000000</i>
  <i name="ENAUG">    900.00000000</i>
  <i type="int" name="NBANDS">   188</i>
  <i name="NUPDOWN">      1.00000000</i>
  <i name="NELECT">    312.00000000</i>
  <i type="string" name="LREAL">AUTO</i>
  <i type="int" name="ISMEAR">     0</i>
  <i name="SIGMA">      0.01000000</i>
  <i type="int" name="LMAXMIX">     6</i>
  <i type="logical" name="LWAVE"> F  </i>
  <i type="logical" name="LVTOT"> F  </i>
  <i type="logical" name="LVHAR"> T  </i>
  <i type="logical" name="LASPH"> T  </i>
  <i type="logical" name="LMIXTAU"> T  </i>
 </incar>
 <primitive_cell>
  <structure name="primitive_cell" >
   <crystal>
    <varray name="basis" >
     <v>       1.22536525       3.67609575       0.00000000 </v>
     <v>     -11.02828726       3.67609576       0.00000000 </v>
     <v>       0.00000000       0.00000000      19.65833333 </v>
    </varray>
    <i name="volume">    885.52142000 </i>
    <varray name="rec_basis" >
     <v>       0.08160832       0.24482496       0.00000000 </v>
     <v>      -0.08160832       0.02720277       0.00000000 </v>
     <v>       0.00000000       0.00000000       0.05086901 </v>
    </varray>
   </crystal>
   <varray name="positions" >
    <v>       0.25000000       0.25000000       0.06969055 </v>
    <v>       0.75000000       0.08333333       0.20907164 </v>
    <v>       0.25000000       0.91666667       0.34845273 </v>
    <v>       0.75000000       0.75000000       0.48783383 </v>
    <v>       0.25000000       0.58333333       0.62721492 </v>
    <v>       0.25000000       0.91666667       0.06969055 </v>
    <v>       0.75000000       0.75000000       0.20907164 </v>
    <v>       0.25000000       0.58333333       0.34845273 </v>
    <v>       0.75000000       0.41666667       0.48783383 </v>
    <v>       0.25000000       0.25000000       0.62721492 </v>
    <v>       0.25000000       0.58333333       0.06969055 </v>
    <v>       0.75000000       0.41666667       0.20907164 </v>
    <v>       0.25000000       0.25000000       0.34845273 </v>
    <v>       0.75000000       0.08333333       0.48783383 </v>
    <v>       0.25000000       0.91666667       0.62721492 </v>
    <v>       0.75000000       0.91666667       0.00000000 </v>
    <v>       0.25000000       0.75000000       0.13938109 </v>
    <v>       0.75000000       0.58333333       0.27876219 </v>
    <v>       0.25000000       0.41666667       0.41814328 </v>
    <v>       0.75000000       0.25000000       0.55752437 </v>
    <v>       0.25000000       0.08333333       0.69690547 </v>
    <v>       0.75000000       0.25000000       0.00000000 </v>
    <v>       0.25000000       0.08333333       0.13938109 </v>
    <v>       0.75000000       0.91666667       0.27876219 </v>
    <v>       0.25000000       0.75000000       0.41814328 </v>
    <v>       0.75000000       0.58333333       0.55752437 </v>
    <v>       0.25000000       0.41666667       0.69690547 </v>
    <v>       0.75000000       0.58333333       0.00000000 </v>
    <v>       0.25000000       0.41666667       0.13938109 </v>
    <v>       0.75000000       0.25000000       0.27876219 </v>
    <v>       0.25000000       0.08333333       0.41814328 </v>
    <v>       0.75000000       0.91666667       0.55752437 </v>
    <v>       0.25000000       0.75000000       0.69690547 </v>
    <v>       0.63934426       0.01639344       0.78846969 </v>
    <v>       0.13934426       0.73861566       0.83645612 </v>
    <v>       0.63934426       0.46083789       0.88444256 </v>
    <v>       0.13934426       0.12750455       0.81246291 </v>
    <v>       0.63934426       0.84972678       0.86044934 </v>
    <v>       0.13934426       0.57194900       0.90843578 </v>
   </varray>
  </structure>
  <varray name="primitive_index" >
   <v type="int" >        1 </v>
   <v type="int" >        2 </v>
   <v type="int" >       28 </v>
   <v type="int" >        4 </v>
   <v type="int" >       30 </v>
   <v type="int" >       21 </v>
   <v type="int" >        7 </v>
   <v type="int" >       23 </v>
   <v type="int" >        9 </v>
   <v type="int" >       10 </v>
   <v type="int" >       16 </v>
   <v type="int" >       12 </v>
   <v type="int" >       13 </v>
   <v type="int" >       14 </v>
   <v type="int" >       20 </v>
   <v type="int" >       31 </v>
   <v type="int" >       32 </v>
   <v type="int" >       33 </v>
   <v type="int" >       58 </v>
   <v type="int" >       35 </v>
   <v type="int" >       36 </v>
   <v type="int" >       37 </v>
   <v type="int" >       38 </v>
   <v type="int" >       39 </v>
   <v type="int" >       40 </v>
   <v type="int" >       41 </v>
   <v type="int" >       66 </v>
   <v type="int" >       43 </v>
   <v type="int" >       50 </v>
   <v type="int" >       45 </v>
   <v type="int" >       46 </v>
   <v type="int" >       47 </v>
   <v type="int" >       48 </v>
   <v type="int" >       70 </v>
   <v type="int" >       68 </v>
   <v type="int" >       72 </v>
   <v type="int" >       73 </v>
   <v type="int" >       77 </v>
   <v type="int" >       75 </v>
  </varray>
 </primitive_cell>
 <kpoints>
  <generation param="Gamma">
   <v type="int" name="divisions">       4        4        2 </v>
   <v name="usershift">      0.00000000       0.00000000       0.00000000 </v>
   <v name="genvec1">      0.25000000       0.00000000       0.00000000 </v>
   <v name="genvec2">      0.00000000       0.25000000       0.00000000 </v>
   <v name="genvec3">      0.00000000       0.00000000       0.50000000 </v>
   <v name="shift">      0.00000000       0.00000000       0.00000000 </v>
  </generation>
  <varray name="kpointlist" >
   <v>       0.00000000       0.00000000       0.00000000 </v>
   <v>       0.25000000       0.00000000       0.00000000 </v>
   <v>       0.00000000       0.25000000       0.00000000 </v>
   <v>       0.50000000       0.00000000       0.00000000 </v>
   <v>       0.00000000       0.50000000       0.00000000 </v>
   <v>       0.25000000       0.25000000       0.00000000 </v>
   <v>       0.50000000       0.25000000       0.00000000 </v>
   <v>       0.25000000       0.50000000       0.00000000 </v>
   <v>      -0.25000000       0.25000000       0.00000000 </v>
   <v>       0.50000000       0.50000000       0.00000000 </v>
   <v>       0.00000000       0.00000000       0.50000000 </v>
   <v>       0.25000000       0.00000000       0.50000000 </v>
   <v>       0.00000000       0.25000000       0.50000000 </v>
   <v>       0.50000000       0.00000000       0.50000000 </v>
   <v>       0.00000000       0.50000000       0.50000000 </v>
   <v>       0.25000000       0.25000000       0.50000000 </v>
   <v>       0.50000000       0.25000000       0.50000000 </v>
   <v>       0.25000000       0.50000000       0.50000000 </v>
   <v>      -0.25000000       0.25000000       0.50000000 </v>
   <v>       0.50000000       0.50000000       0.50000000 </v>
  </varray>
  <varray name="weights" >
   <v>       0.03125000 </v>
   <v>       0.06250000 </v>
   <v>       0.06250000 </v>
   <v>       0.03125000 </v>
   <v>       0.03125000 </v>
   <v>       0.06250000 </v>
   <v>       0.06250000 </v>
   <v>       0.06250000 </v>
   <v>       0.06250000 </v>
   <v>       0.03125000 </v>
   <v>       0.03125000 </v>
   <v>       0.06250000 </v>
   <v>       0.06250000 </v>
   <v>       0.03125000 </v>
   <v>       0.03125000 </v>
   <v>       0.06250000 </v>
   <v>       0.06250000 </v>
   <v>       0.06250000 </v>
   <v>       0.06250000 </v>
   <v>       0.03125000 </v>
  </varray>
 </kpoints>
 <parameters>
  <separator name="general" >
   <i type="string" name="SYSTEM">Si001 and Ge122 interface calculation</i>
   <i type="logical" name="LCOMPAT"> F  </i>
  </separator>
  <separator name="electronic" >
   <i type="string" name="PREC">normal</i>
   <i name="ENMAX">    700.00000000</i>
   <i name="ENAUG">    900.00000000</i>
   <i name="EDIFF">      0.00000010</i>
   <i type="int" name="IALGO">    38</i>
   <i type="int" name="IWAVPR">    10</i>
   <i type="int" name="NBANDS">   188</i>
   <i type="int" name="NBANDSLOW">    -1</i>
   <i type="int" name="NBANDSHIGH">    -1</i>
   <i name="NELECT">    312.00000000</i>
   <i type="int" name="TURBO">     0</i>
   <i type="int" name="IRESTART">     0</i>
   <i type="int" name="NREBOOT">     0</i>
   <i type="int" name="NMIN">     0</i>
   <i name="EREF">      0.00000000</i>
   <separator name="electronic smearing" >
    <i type="int" name="ISMEAR">     0</i>
    <i name="SIGMA">      0.01000000</i>
    <i name="KSPACING">      0.50000000</i>
    <i type="logical" name="KGAMMA"> T  </i>
    <i type="logical" name="KBLOWUP"> T  </i>
   </separator>
   <separator name="electronic projectors" >
    <i type="logical" name="LREAL"> T  </i>
    <v name="ROPT">     -0.00050000     -0.00050000</v>
    <i type="int" name="LMAXPAW">  -100</i>
    <i type="int" name="LMAXMIX">     6</i>
    <i type="logical" name="NLSPLINE"> F  </i>
   </separator>
   <separator name="electronic startup" >
    <i type="int" name="ISTART">     0</i>
    <i type="int" name="ICHARG">     2</i>
    <i type="int" name="INIWAV">     1</i>
   </separator>
   <separator name="electronic spin" >
    <i type="int" name="ISPIN">     2</i>
    <i type="logical" name="LNONCOLLINEAR"> F  </i>
    <v name="MAGMOM">      0.01282051      0.01282051      0.01282051      0.01282051      0.01282051      0.01282051      0.01282051      0.01282051      0.01282051      0.01282051      0.01282051      0.01282051      0.01282051      0.01282051      0.01282051      0.01282051      0.01282051      0.01282051      0.01282051      0.01282051
      0.01282051      0.01282051      0.01282051      0.01282051      0.01282051      0.01282051      0.01282051      0.01282051      0.01282051      0.01282051      0.01282051      0.01282051      0.01282051      0.01282051      0.01282051      0.01282051      0.01282051      0.01282051      0.01282051      0.01282051
      0.01282051      0.01282051      0.01282051      0.01282051      0.01282051      0.01282051      0.01282051      0.01282051      0.01282051      0.01282051      0.01282051      0.01282051      0.01282051      0.01282051      0.01282051      0.01282051      0.01282051      0.01282051      0.01282051      0.01282051
      0.01282051      0.01282051      0.01282051      0.01282051      0.01282051      0.01282051      0.01282051      0.01282051      0.01282051      0.01282051      0.01282051      0.01282051      0.01282051      0.01282051      0.01282051      0.01282051      0.01282051      0.01282051</v>
    <i name="NUPDOWN">      1.00000000</i>
    <i type="logical" name="LSORBIT"> F  </i>
    <v name="SAXIS">      0.00000000      0.00000000      1.00000000</v>
    <i type="logical" name="LSPIRAL"> F  </i>
    <v name="QSPIRAL">      0.00000000      0.00000000      0.00000000</v>
    <i type="logical" name="LZEROZ"> F  </i>
   </separator>
   <separator name="electronic exchange-correlation" >
    <i type="logical" name="LASPH"> T  </i>
   </separator>
   <separator name="electronic convergence" >
    <i type="int" name="NELM">   100</i>
    <i type="int" name="NELMDL">    -5</i>
    <i type="int" name="NELMIN">     2</i>
    <i name="ENINI">    700.00000000</i>
    <separator name="electronic convergence detail" >
     <i type="logical" name="LDIAG"> T  </i>
     <i type="logical" name="LSUBROT"> F  </i>
     <i name="WEIMIN">      0.00000000</i>
     <i name="EBREAK">      0.00000000</i>
     <i name="DEPER">      0.30000000</i>
     <i type="int" name="NRMM">     4</i>
     <i name="TIME">      0.40000000</i>
    </separator>
   </separator>
   <separator name="electronic mixer" >
    <i name="AMIX">      0.60000000</i>
    <i name="BMIX">      1.00000000</i>
    <i name="AMIN">      0.10000000</i>
    <i name="AMIX_MAG">      2.40000000</i>
    <i name="BMIX_MAG">      1.00000000</i>
    <separator name="electronic mixer details" >
     <i type="int" name="IMIX">     4</i>
     <i type="logical" name="MIXFIRST"> F  </i>
     <i type="int" name="MAXMIX">   -45</i>
     <i name="WC">    100.00000000</i>
     <i type="int" name="INIMIX">     1</i>
     <i type="int" name="MIXPRE">     1</i>
     <i type="int" name="MREMOVE">     5</i>
    </separator>
   </separator>
   <separator name="electronic dipolcorrection" >
    <i type="logical" name="LDIPOL"> F  </i>
    <i type="logical" name="LMONO"> F  </i>
    <i type="int" name="IDIPOL">     0</i>
    <i name="EPSILON">      1.00000000</i>
    <v name="DIPOL">   -100.00000000   -100.00000000   -100.00000000</v>
    <i name="EFIELD">      0.00000000</i>
    <i type="logical" name="LVACPOTAV"> F  </i>
   </separator>
  </separator>
  <separator name="grids" >
   <i type="int" name="NGX">    80</i>
   <i type="int" name="NGY">    80</i>
   <i type="int" name="NGZ">   128</i>
   <i type="int" name="NGXF">   160</i>
   <i type="int" name="NGYF">   160</i>
   <i type="int" name="NGZF">   256</i>
   <i type="logical" name="ADDGRID"> T  </i>
  </separator>
  <separator name="ionic" >
   <i type="int" name="NSW">     0</i>
   <i type="int" name="IBRION">    -1</i>
   <i type="int" name="MDALGO">     0</i>
   <i type="int" name="ISIF">     2</i>
   <i name="PSTRESS">      0.00000000</i>
   <i name="EDIFFG">      0.00000100</i>
   <i type="int" name="NFREE">     0</i>
   <i name="POTIM">      0.50000000</i>
   <i name="SMASS">     -3.00000000</i>
   <i name="SCALEE">      1.00000000</i>
  </separator>
  <separator name="ionic md" >
   <i name="TEBEG">      0.00010000</i>
   <i name="TEEND">      0.00010000</i>
   <i type="int" name="NBLOCK">     1</i>
   <i type="int" name="KBLOCK">     1</i>
   <i type="int" name="NPACO">   256</i>
   <i name="APACO">     10.00000000</i>
  </separator>
  <separator name="symmetry" >
   <i type="int" name="ISYM">     2</i>
   <i name="SYMPREC">      0.00001000</i>
  </separator>
  <separator name="dos" >
   <i type="int" name="LORBIT">     0</i>
   <v name="RWIGS">     -1.00000000     -1.00000000</v>
   <i type="int" name="NEDOS">   301</i>
   <i name="EMIN">     10.00000000</i>
   <i name="EMAX">    -10.00000000</i>
   <i name="EFERMI">      0.00000000</i>
  </separator>
  <separator name="writing" >
   <i type="int" name="NWRITE">     2</i>
   <i type="logical" name="LWAVE"> F  </i>
   <i type="logical" name="LDOWNSAMPLE"> F  </i>
   <i type="logical" name="LCHARG"> T  </i>
   <i type="logical" name="LPARD"> F  </i>
   <i type="logical" name="LVTOT"> F  </i>
   <i type="logical" name="LVHAR"> T  </i>
   <i type="logical" name="LELF"> F  </i>
   <i type="logical" name="LOPTICS"> F  </i>
   <v name="STM">      0.00000000      0.00000000      0.00000000      0.00000000      0.00000000      0.00000000      0.00000000</v>
  </separator>
  <separator name="performance" >
   <i type="int" name="NPAR">     1</i>
   <i type="int" name="NSIM">     4</i>
   <i type="int" name="NBLK">    -1</i>
   <i type="logical" name="LPLANE"> T  </i>
   <i type="logical" name="LSCALAPACK"> T  </i>
   <i type="logical" name="LSCAAWARE"> F  </i>
   <i type="logical" name="LSCALU"> F  </i>
   <i type="logical" name="LASYNC"> F  </i>
   <i type="logical" name="LORBITALREAL"> F  </i>
  </separator>
  <separator name="miscellaneous" >
   <i type="int" name="IDIOT">     3</i>
   <i type="int" name="PHON_NSTRUCT">    -1</i>
   <i type="logical" name="LMUSIC"> F  </i>
   <v name="POMASS">     28.08500000     72.61000000</v>
   <v name="DARWINR">      0.00000000      0.00000000</v>
   <v name="DARWINV">      1.00000000      1.00000000</v>
   <i type="logical" name="LCORR"> T  </i>
  </separator>
  <i type="logical" name="GGA_COMPAT"> T  </i>
  <i type="logical" name="LBERRY"> F  </i>
  <i type="int" name="ICORELEVEL">     0</i>
  <i type="logical" name="LDAU"> F  </i>
  <i type="int" name="I_CONSTRAINED_M">     0</i>
  <separator name="electronic exchange-correlation" >
   <i type="string" name="GGA    ">PE</i>
   <i type="string" name="XC_C">1</i>
   <i type="int" name="VOSKOWN">     0</i>
   <i type="logical" name="LHFCALC"> F  </i>
   <i type="string" name="PRECFOCK"></i>
   <i type="logical" name="LSYMGRAD"> F  </i>
   <i type="logical" name="LHFONE"> F  </i>
   <i type="logical" name="LRHFCALC"> F  </i>
   <i type="logical" name="LTHOMAS"> F  </i>
   <i type="logical" name="LMODELHF"> F  </i>
   <i type="logical" name="LFOCKACE"> F  </i>
   <i name="ENCUT4O">     -1.00000000</i>
   <i type="int" name="EXXOEP">     0</i>
   <i type="int" name="FOURORBIT">     0</i>
   <i name="AEXX">      0.00000000</i>
   <i name="HFALPHA">      0.00000000</i>
   <i name="MCALPHA">      0.00000000</i>
   <i name="ALDAX">      1.00000000</i>
   <i name="AGGAX">      1.00000000</i>
   <i name="AMGGAX">      1.00000000</i>
   <i name="ALDAC">      1.00000000</i>
   <i name="AGGAC">      1.00000000</i>
   <i name="AMGGAC">      1.00000000</i>
   <i type="int" name="NKREDX">     1</i>
   <i type="int" name="NKREDY">     1</i>
   <i type="int" name="NKREDZ">     1</i>
   <i type="logical" name="SHIFTRED"> F  </i>
   <i type="logical" name="ODDONLY"> F  </i>
   <i type="logical" name="EVENONLY"> F  </i>
   <i type="int" name="LMAXFOCK">     0</i>
   <i type="int" name="NMAXFOCKAE">     0</i>
   <i type="logical" name="LFOCKAEDFT"> F  </i>
   <i name="HFSCREEN">      0.00000000</i>
   <i name="HFSCREENC">      0.00000000</i>
   <i type="int" name="NBANDSGWLOW">     0</i>
  </separator>
  <separator name="vdW DFT" >
   <i type="logical" name="LUSE_VDW"> F  </i>
   <i type="int" name="IVDW_NL">    -1</i>
   <i type="logical" name="LSPIN_VDW"> F  </i>
   <i name="ZAB_VDW">     -0.84910000</i>
   <i name="GAMMA_VDW">      1.39626340</i>
   <i name="ALPHA_VDW">      0.00000000</i>
   <i name="PARAM1">      0.12340000</i>
   <i name="PARAM2">      1.00000000</i>
   <i name="BPARAM">      6.30000000</i>
   <i name="CPARAM">      0.00930000</i>
  </separator>
  <separator name="model GW" >
   <i type="int" name="MODEL_GW">     0</i>
   <i name="MODEL_EPS0">     13.62340646</i>
   <i name="MODEL_ALPHA">      1.00000000</i>
  </separator>
  <separator name="linear response parameters" >
   <i type="logical" name="LEPSILON"> F  </i>
   <i type="logical" name="LRPA"> F  </i>
   <i type="logical" name="LNABLA"> F  </i>
   <i type="logical" name="LVEL"> F  </i>
   <i name="CSHIFT">      0.10000000</i>
   <i name="OMEGAMAX">     -1.00000000</i>
   <i name="DEG_THRESHOLD">      0.00200000</i>
   <i name="RTIME">     -0.10000000</i>
   <i name="WPLASMAI">      0.00000000</i>
   <v name="DFIELD">      0.00000000      0.00000000      0.00000000</v>
   <v name="WPLASMA">      0.00000000      0.00000000      0.00000000      0.00000000      0.00000000      0.00000000      0.00000000      0.00000000      0.00000000</v>
  </separator>
  <separator name="orbital magnetization" >
   <i type="logical" name="NUCIND"> F  </i>
   <v name="MAGPOS">      0.00000000      0.00000000      0.00000000</v>
   <i type="logical" name="LNICSALL"> T  </i>
   <i type="logical" name="ORBITALMAG"> F  </i>
   <i type="logical" name="LMAGBLOCH"> F  </i>
   <i type="logical" name="LCHIMAG"> F  </i>
   <i type="logical" name="LGAUGE"> T  </i>
   <i type="int" name="MAGATOM">     0</i>
   <v name="MAGDIPOL">      0.00000000      0.00000000      0.00000000</v>
   <v name="AVECCONST">      0.00000000      0.00000000      0.00000000</v>
  </separator>
  <separator name="response functions" >
   <i type="logical" name="LALL_IN_ONE"> F  </i>
   <i type="int" name="IALL_IN_ONE">    -1</i>
   <i type="int" name="NBANDS_WAVE">    -1</i>
   <i type="logical" name="LFINITE_TEMPERATURE"> F  </i>
   <i type="logical" name="LADDER"> F  </i>
   <i type="logical" name="LRPAFORCE"> F  </i>
   <i type="logical" name="LFXC"> F  </i>
   <i type="logical" name="LHARTREE"> T  </i>
   <i type="int" name="IBSE">     0</i>
   <v type="int" name="KPOINT">    -1     0     0     0</v>
   <i type="logical" name="LTCTC"> F  </i>
   <i type="logical" name="LTCTE"> F  </i>
   <i type="logical" name="LTETE"> F  </i>
   <i type="logical" name="LTRIPLET"> F  </i>
   <i type="logical" name="LFXCEPS"> F  </i>
   <i type="logical" name="LFXHEG"> F  </i>
   <i type="int" name="NATURALO">     2</i>
   <i type="logical" name="LHOLEGF"> F  </i>
   <i type="logical" name="L2ORDER"> F  </i>
   <i type="logical" name="LDMP1"> F  </i>
   <i type="logical" name="LMP2LT"> F  </i>
   <i type="logical" name="LSMP2LT"> F  </i>
   <i type="logical" name="LGWLF"> F  </i>
   <i name="ENCUTGW">     -1.60000002</i>
   <i name="ENCUTGWSOFT">     -1.60000002</i>
   <i name="ENCUTLF">     -1.00000000</i>
   <i type="logical" name="ESF_SPLINES"> F  </i>
   <i name="ESF_CONV">      0.01000000</i>
   <i type="int" name="ESF_NINTER">    15</i>
   <i type="int" name="LMAXMP2">    -1</i>
   <i name="SCISSOR">      0.00000000</i>
   <i type="int" name="NOMEGA">     0</i>
   <i type="int" name="NOMEGAR">     0</i>
   <i type="int" name="NBANDSGW">    -1</i>
   <i type="int" name="NBANDSO">    -1</i>
   <i type="int" name="NBANDSV">    -1</i>
   <i type="int" name="NELMGW">     1</i>
   <i type="int" name="NELMHF">     1</i>
   <i type="int" name="DIM">     3</i>
   <i type="int" name="IESPILON">     4</i>
   <i type="int" name="ANTIRES">     0</i>
   <i name="OMEGAMAX">    -30.00000000</i>
   <i name="OMEGAMIN">    -30.00000000</i>
   <i name="OMEGATL">   -200.00000000</i>
   <i type="int" name="OMEGAGRID">     0</i>
   <i name="CSHIFT">     -0.10000000</i>
   <i type="logical" name="LSELFENERGY"> F  </i>
   <i type="logical" name="LSPECTRAL"> F  </i>
   <i type="logical" name="LSPECTRALGW"> F  </i>
   <i type="logical" name="LSINGLES"> F  </i>
   <i type="logical" name="LFERMIGW"> F  </i>
   <i type="logical" name="ODDONLYGW"> F  </i>
   <i type="logical" name="EVENONLYGW"> F  </i>
   <i type="int" name="NKREDLFX">     1</i>
   <i type="int" name="NKREDLFY">     1</i>
   <i type="int" name="NKREDLFZ">     1</i>
   <i type="int" name="MAXMEM">  2800</i>
   <i type="int" name="TELESCOPE">     0</i>
   <i type="int" name="NTAUPAR">    -1</i>
   <i type="int" name="NOMEGAPAR">    -1</i>
   <i name="DAMP_NEWTON">      0.80000001</i>
   <i name="LAMBDA">      1.00000000</i>
  </separator>
  <separator name="External order field" >
   <i name="OFIELD_KAPPA">      0.00000000</i>
   <v name="OFIELD_K">      0.00000000      0.00000000      0.00000000</v>
   <i name="OFIELD_Q6_NEAR">      0.00000000</i>
   <i name="OFIELD_Q6_FAR">      0.00000000</i>
   <i name="OFIELD_A">      0.00000000</i>
  </separator>
  <separator name="optional k-points parameters" >
   <i type="int" name="KPOINTS_OPT_MODE">     1</i>
   <i type="logical" name="LKPOINTS_OPT"> F  </i>
  </separator>
 </parameters>
 <atominfo>
  <atoms>      78 </atoms>
  <types>       2 </types>
  <array name="atoms" >
   <dimension dim="1">ion</dimension>
   <field type="string">element</field>
   <field type="int">atomtype</field>
   <set>
    <rc><c>Si</c><c>   1</c></rc>
    <rc><c>Si</c><c>   1</c></rc>
    <rc><c>Si</c><c>   1</c></rc>
    <rc><c>Si</c><c>   1</c></rc>
    <rc><c>Si</c><c>   1</c></rc>
    <rc><c>Si</c><c>   1</c></rc>
    <rc><c>Si</c><c>   1</c></rc>
    <rc><c>Si</c><c>   1</c></rc>
    <rc><c>Si</c><c>   1</c></rc>
    <rc><c>Si</c><c>   1</c></rc>
    <rc><c>Si</c><c>   1</c></rc>
    <rc><c>Si</c><c>   1</c></rc>
    <rc><c>Si</c><c>   1</c></rc>
    <rc><c>Si</c><c>   1</c></rc>
    <rc><c>Si</c><c>   1</c></rc>
    <rc><c>Si</c><c>   1</c></rc>
    <rc><c>Si</c><c>   1</c></rc>
    <rc><c>Si</c><c>   1</c></rc>
    <rc><c>Si</c><c>   1</c></rc>
    <rc><c>Si</c><c>   1</c></rc>
    <rc><c>Si</c><c>   1</c></rc>
    <rc><c>Si</c><c>   1</c></rc>
    <rc><c>Si</c><c>   1</c></rc>
    <rc><c>Si</c><c>   1</c></rc>
    <rc><c>Si</c><c>   1</c></rc>
    <rc><c>Si</c><c>   1</c></rc>
    <rc><c>Si</c><c>   1</c></rc>
    <rc><c>Si</c><c>   1</c></rc>
    <rc><c>Si</c><c>   1</c></rc>
    <rc><c>Si</c><c>   1</c></rc>
    <rc><c>Si</c><c>   1</c></rc>
    <rc><c>Si</c><c>   1</c></rc>
    <rc><c>Si</c><c>   1</c></rc>
    <rc><c>Si</c><c>   1</c></rc>
    <rc><c>Si</c><c>   1</c></rc>
    <rc><c>Si</c><c>   1</c></rc>
    <rc><c>Si</c><c>   1</c></rc>
    <rc><c>Si</c><c>   1</c></rc>
    <rc><c>Si</c><c>   1</c></rc>
    <rc><c>Si</c><c>   1</c></rc>
    <rc><c>Si</c><c>   1</c></rc>
    <rc><c>Si</c><c>   1</c></rc>
    <rc><c>Si</c><c>   1</c></rc>
    <rc><c>Si</c><c>   1</c></rc>
    <rc><c>Si</c><c>   1</c></rc>
    <rc><c>Si</c><c>   1</c></rc>
    <rc><c>Si</c><c>   1</c></rc>
    <rc><c>Si</c><c>   1</c></rc>
    <rc><c>Si</c><c>   1</c></rc>
    <rc><c>Si</c><c>   1</c></rc>
    <rc><c>Si</c><c>   1</c></rc>
    <rc><c>Si</c><c>   1</c></rc>
    <rc><c>Si</c><c>   1</c></rc>
    <rc><c>Si</c><c>   1</c></rc>
    <rc><c>Si</c><c>   1</c></rc>
    <rc><c>Si</c><c>   1</c></rc>
    <rc><c>Si</c><c>   1</c></rc>
    <rc><c>Si</c><c>   1</c></rc>
    <rc><c>Si</c><c>   1</c></rc>
    <rc><c>Si</c><c>   1</c></rc>
    <rc><c>Si</c><c>   1</c></rc>
    <rc><c>Si</c><c>   1</c></rc>
    <rc><c>Si</c><c>   1</c></rc>
    <rc><c>Si</c><c>   1</c></rc>
    <rc><c>Si</c><c>   1</c></rc>
    <rc><c>Si</c><c>   1</c></rc>
    <rc><c>Ge</c><c>   2</c></rc>
    <rc><c>Ge</c><c>   2</c></rc>
    <rc><c>Ge</c><c>   2</c></rc>
    <rc><c>Ge</c><c>   2</c></rc>
    <rc><c>Ge</c><c>   2</c></rc>
    <rc><c>Ge</c><c>   2</c></rc>
    <rc><c>Ge</c><c>   2</c></rc>
    <rc><c>Ge</c><c>   2</c></rc>
    <rc><c>Ge</c><c>   2</c></rc>
    <rc><c>Ge</c><c>   2</c></rc>
    <rc><c>Ge</c><c>   2</c></rc>
    <rc><c>Ge</c><c>   2</c></rc>
   </set>
  </array>
  <array name="atomtypes" >
   <dimension dim="1">type</dimension>
   <field type="int">atomspertype</field>
   <field type="string">element</field>
   <field>mass</field>
   <field>valence</field>
   <field type="string">pseudopotential</field>
   <set>
    <rc><c>  66</c><c>Si</c><c>     28.08500000</c><c>      4.00000000</c><c>  PAW_PBE Si 05Jan2001                  </c></rc>
    <rc><c>  12</c><c>Ge</c><c>     72.61000000</c><c>      4.00000000</c><c>  PAW_PBE Ge 05Jan2001                  </c></rc>
   </set>
  </array>
 </atominfo>
 <structure name="initialpos" >
  <crystal>
   <varray name="basis" >
    <v>      12.25365252       0.00000000       0.00000000 </v>
    <v>      -9.80292201       7.35219151       0.00000000 </v>
    <v>       0.00000000       0.00000000      19.65833333 </v>
   </varray>
   <i name="volume">   1771.04284001 </i>
   <varray name="rec_basis" >
    <v>       0.08160832       0.10881109       0.00000000 </v>
    <v>       0.00000000       0.13601387       0.00000000 </v>
    <v>       0.00000000       0.00000000       0.05086901 </v>
   </varray>
  </crystal>
  <varray name="positions" >
   <v>       0.50000000       0.75000000       0.06969055 </v>
   <v>       0.83333333       0.91666667       0.20907164 </v>
   <v>       0.16666667       0.08333333       0.34845273 </v>
   <v>       0.50000000       0.25000000       0.48783383 </v>
   <v>       0.83333333       0.41666667       0.62721492 </v>
   <v>       0.16666667       0.08333333       0.06969055 </v>
   <v>       0.50000000       0.25000000       0.20907164 </v>
   <v>       0.83333333       0.41666667       0.34845273 </v>
   <v>       0.16666667       0.58333333       0.48783383 </v>
   <v>       0.50000000       0.75000000       0.62721492 </v>
   <v>       0.83333333       0.41666667       0.06969055 </v>
   <v>       0.16666667       0.58333333       0.20907164 </v>
   <v>       0.50000000       0.75000000       0.34845273 </v>
   <v>       0.83333333       0.91666667       0.48783383 </v>
   <v>       0.16666667       0.08333333       0.62721492 </v>
   <v>       0.33333333       0.91666667       0.06969055 </v>
   <v>       0.66666667       0.08333333       0.20907164 </v>
   <v>       0.00000000       0.25000000       0.34845273 </v>
   <v>       0.33333333       0.41666667       0.48783383 </v>
   <v>       0.66666667       0.58333333       0.62721492 </v>
   <v>       0.66666667       0.58333333       0.06969055 </v>
   <v>       0.00000000       0.75000000       0.20907164 </v>
   <v>       0.33333333       0.91666667       0.34845273 </v>
   <v>       0.66666667       0.08333333       0.48783383 </v>
   <v>       0.00000000       0.25000000       0.62721492 </v>
   <v>       0.00000000       0.25000000       0.06969055 </v>
   <v>       0.33333333       0.41666667       0.20907164 </v>
   <v>       0.66666667       0.58333333       0.34845273 </v>
   <v>       0.00000000       0.75000000       0.48783383 </v>
   <v>       0.33333333       0.91666667       0.62721492 </v>
   <v>       0.91666667       0.83333333       0.00000000 </v>
   <v>       0.25000000       0.00000000       0.13938109 </v>
   <v>       0.58333333       0.16666667       0.27876219 </v>
   <v>       0.91666667       0.33333333       0.41814328 </v>
   <v>       0.25000000       0.50000000       0.55752437 </v>
   <v>       0.58333333       0.66666667       0.69690547 </v>
   <v>       0.25000000       0.50000000       0.00000000 </v>
   <v>       0.58333333       0.66666667       0.13938109 </v>
   <v>       0.91666667       0.83333333       0.27876219 </v>
   <v>       0.25000000       0.00000000       0.41814328 </v>
   <v>       0.58333333       0.16666667       0.55752437 </v>
   <v>       0.91666667       0.33333333       0.69690547 </v>
   <v>       0.58333333       0.16666667       0.00000000 </v>
   <v>       0.91666667       0.33333333       0.13938109 </v>
   <v>       0.25000000       0.50000000       0.27876219 </v>
   <v>       0.58333333       0.66666667       0.41814328 </v>
   <v>       0.91666667       0.83333333       0.55752437 </v>
   <v>       0.25000000       0.00000000       0.69690547 </v>
   <v>       0.08333333       0.66666667       0.00000000 </v>
   <v>       0.41666667       0.83333333       0.13938109 </v>
   <v>       0.75000000       0.00000000       0.27876219 </v>
   <v>       0.08333333       0.16666667       0.41814328 </v>
   <v>       0.41666667       0.33333333       0.55752437 </v>
   <v>       0.75000000       0.50000000       0.69690547 </v>
   <v>       0.41666667       0.33333333       0.00000000 </v>
   <v>       0.75000000       0.50000000       0.13938109 </v>
   <v>       0.08333333       0.66666667       0.27876219 </v>
   <v>       0.41666667       0.83333333       0.41814328 </v>
   <v>       0.75000000       0.00000000       0.55752437 </v>
   <v>       0.08333333       0.16666667       0.69690547 </v>
   <v>       0.75000000       0.00000000       0.00000000 </v>
   <v>       0.08333333       0.16666667       0.13938109 </v>
   <v>       0.41666667       0.33333333       0.27876219 </v>
   <v>       0.75000000       0.50000000       0.41814328 </v>
   <v>       0.08333333       0.66666667       0.55752437 </v>
   <v>       0.41666667       0.83333333       0.69690547 </v>
   <v>       0.31147541       0.32786885       0.78846969 </v>
   <v>       0.20036430       0.93897996       0.83645612 </v>
   <v>       0.08925319       0.55009107       0.88444256 </v>
   <v>       0.81147541       0.82786885       0.78846969 </v>
   <v>       0.70036430       0.43897996       0.83645612 </v>
   <v>       0.58925319       0.05009107       0.88444256 </v>
   <v>       0.50591985       0.63342441       0.81246291 </v>
   <v>       0.39480874       0.24453552       0.86044934 </v>
   <v>       0.28369763       0.85564663       0.90843578 </v>
   <v>       0.00591985       0.13342441       0.81246291 </v>
   <v>       0.89480874       0.74453552       0.86044934 </v>
   <v>       0.78369763       0.35564663       0.90843578 </v>
  </varray>
 </structure>
 <calculation>
  <scstep>
   <time name="dav">  101.99  102.96</time>
   <time name="total">  104.67  105.66</time>
   <energy>
    <i name="alphaZ">    198.86455436 </i>
    <i name="ewald">  -7510.44894178 </i>
    <i name="hartreedc">  -1465.86988414 </i>
    <i name="XCdc">   -714.25868927 </i>
    <i name="pawpsdc">   6873.91199678 </i>
    <i name="pawaedc">  -5538.90444916 </i>
    <i name="eentropy">     -0.00087887 </i>
    <i name="bandstr">   1267.14485078 </i>
    <i name="atom">   8062.34808054 </i>
    <i name="e_fr_energy">   1172.78663924 </i>
    <i name="e_wo_entrp">   1172.78751811 </i>
    <i name="e_0_energy">   1172.78707868 </i>
   </energy>
  </scstep>
  <scstep>
   <time name="dav">  115.66  116.73</time>
   <time name="total">  115.66  116.73</time>
   <energy>
    <i name="e_fr_energy">   -264.56144702 </i>
    <i name="e_wo_entrp">   -264.56031501 </i>
    <i name="e_0_energy">   -264.56088102 </i>
   </energy>
  </scstep>
  <scstep>
   <time name="dav">  121.71  122.78</time>
   <time name="total">  121.72  122.79</time>
   <energy>
    <i name="e_fr_energy">   -391.76945177 </i>
    <i name="e_wo_entrp">   -391.76851380 </i>
    <i name="e_0_energy">   -391.76898278 </i>
   </energy>
  </scstep>
  <scstep>
   <time name="dav">  120.23  121.30</time>
   <time name="total">  120.24  121.31</time>
   <energy>
    <i name="e_fr_energy">   -396.38508359 </i>
    <i name="e_wo_entrp">   -396.38406712 </i>
    <i name="e_0_energy">   -396.38457536 </i>
   </energy>
  </scstep>
  <scstep>
   <time name="dav">  127.66  128.81</time>
   <time name="total">  133.70  134.90</time>
   <energy>
    <i name="e_fr_energy">   -396.56529740 </i>
    <i name="e_wo_entrp">   -396.56429950 </i>
    <i name="e_0_energy">   -396.56479845 </i>
   </energy>
  </scstep>
  <scstep>
   <time name="dav">  117.68  118.68</time>
   <time name="total">  126.37  127.44</time>
   <energy>
    <i name="e_fr_energy">   -390.37457829 </i>
    <i name="e_wo_entrp">   -390.37373400 </i>
    <i name="e_0_energy">   -390.37415615 </i>
   </energy>
  </scstep>
  <scstep>
   <time name="dav">  119.30  120.35</time>
   <time name="total">  127.99  129.11</time>
   <energy>
    <i name="e_fr_energy">   -390.44119082 </i>
    <i name="e_wo_entrp">   -390.44046627 </i>
    <i name="e_0_energy">   -390.44082855 </i>
   </energy>
  </scstep>
  <scstep>
   <time name="dav">  122.46  123.54</time>
   <time name="total">  131.23  132.37</time>
   <energy>
    <i name="e_fr_energy">   -389.98904618 </i>
    <i name="e_wo_entrp">   -389.98817961 </i>
    <i name="e_0_energy">   -389.98861289 </i>
   </energy>
  </scstep>
  <scstep>
   <time name="dav">  118.73  119.73</time>
   <time name="total">  127.47  128.54</time>
   <energy>
    <i name="e_fr_energy">   -389.87783495 </i>
    <i name="e_wo_entrp">   -389.87708143 </i>
    <i name="e_0_energy">   -389.87745819 </i>
   </energy>
  </scstep>
  <scstep>
   <time name="dav">  113.95  114.97</time>
   <time name="total">  122.65  123.74</time>
   <energy>
    <i name="e_fr_energy">   -389.87667554 </i>
    <i name="e_wo_entrp">   -389.87620343 </i>
    <i name="e_0_energy">   -389.87643949 </i>
   </energy>
  </scstep>
  <scstep>
   <time name="dav">  112.65  113.66</time>
   <time name="total">  121.28  122.36</time>
   <energy>
    <i name="e_fr_energy">   -389.87218719 </i>
    <i name="e_wo_entrp">   -389.87134393 </i>
    <i name="e_0_energy">   -389.87176556 </i>
   </energy>
  </scstep>
  <scstep>
   <time name="dav">  113.39  114.37</time>
   <time name="total">  122.00  123.04</time>
   <energy>
    <i name="e_fr_energy">   -389.87251560 </i>
    <i name="e_wo_entrp">   -389.87162622 </i>
    <i name="e_0_energy">   -389.87207091 </i>
   </energy>
  </scstep>
  <scstep>
   <time name="dav">  113.56  114.58</time>
   <time name="total">  122.17  123.24</time>
   <energy>
    <i name="e_fr_energy">   -389.87278378 </i>
    <i name="e_wo_entrp">   -389.87199179 </i>
    <i name="e_0_energy">   -389.87238779 </i>
   </energy>
  </scstep>
  <scstep>
   <time name="dav">  113.85  114.88</time>
   <time name="total">  122.49  123.59</time>
   <energy>
    <i name="e_fr_energy">   -389.87283301 </i>
    <i name="e_wo_entrp">   -389.87196106 </i>
    <i name="e_0_energy">   -389.87239703 </i>
   </energy>
  </scstep>
  <scstep>
   <time name="dav">  116.17  117.20</time>
   <time name="total">  124.82  125.91</time>
   <energy>
    <i name="e_fr_energy">   -389.87289650 </i>
    <i name="e_wo_entrp">   -389.87201048 </i>
    <i name="e_0_energy">   -389.87245349 </i>
   </energy>
  </scstep>
  <scstep>
   <time name="dav">  113.38  114.34</time>
   <time name="total">  122.15  123.18</time>
   <energy>
    <i name="e_fr_energy">   -389.87290664 </i>
    <i name="e_wo_entrp">   -389.87203928 </i>
    <i name="e_0_energy">   -389.87247296 </i>
   </energy>
  </scstep>
  <scstep>
   <time name="dav">  114.53  115.56</time>
   <time name="total">  123.28  124.37</time>
   <energy>
    <i name="e_fr_energy">   -389.87291761 </i>
    <i name="e_wo_entrp">   -389.87205051 </i>
    <i name="e_0_energy">   -389.87248406 </i>
   </energy>
  </scstep>
  <scstep>
   <time name="dav">  115.23  116.28</time>
   <time name="total">  123.89  125.00</time>
   <energy>
    <i name="e_fr_energy">   -389.87292346 </i>
    <i name="e_wo_entrp">   -389.87205321 </i>
    <i name="e_0_energy">   -389.87248833 </i>
   </energy>
  </scstep>
  <scstep>
   <time name="dav">  114.10  115.08</time>
   <time name="total">  122.81  123.85</time>
   <energy>
    <i name="e_fr_energy">   -389.87292612 </i>
    <i name="e_wo_entrp">   -389.87205796 </i>
    <i name="e_0_energy">   -389.87249204 </i>
   </energy>
  </scstep>
  <scstep>
   <time name="dav">  116.31  117.32</time>
   <time name="total">  125.03  126.10</time>
   <energy>
    <i name="e_fr_energy">   -389.87292774 </i>
    <i name="e_wo_entrp">   -389.87206061 </i>
    <i name="e_0_energy">   -389.87249417 </i>
   </energy>
  </scstep>
  <scstep>
   <time name="dav">  115.25  116.24</time>
   <time name="total">  123.92  124.98</time>
   <energy>
    <i name="e_fr_energy">   -389.87292897 </i>
    <i name="e_wo_entrp">   -389.87206201 </i>
    <i name="e_0_energy">   -389.87249549 </i>
   </energy>
  </scstep>
  <scstep>
   <time name="dav">  106.61  107.50</time>
   <time name="total">  115.26  116.22</time>
   <energy>
    <i name="e_fr_energy">   -389.87292961 </i>
    <i name="e_wo_entrp">   -389.87206305 </i>
    <i name="e_0_energy">   -389.87249633 </i>
   </energy>
  </scstep>
  <scstep>
   <time name="dav">   76.53   77.20</time>
   <time name="total">   79.20   79.89</time>
   <energy>
    <i name="alphaZ">    198.86455436 </i>
    <i name="ewald">  -7510.44894178 </i>
    <i name="hartreedc">  -1607.21703549 </i>
    <i name="XCdc">   -693.22007089 </i>
    <i name="pawpsdc">  27504.95600566 </i>
    <i name="pawaedc"> -26177.58149217 </i>
    <i name="eentropy">     -0.00086659 </i>
    <i name="bandstr">   -167.57316333 </i>
    <i name="atom">   8062.34808054 </i>
    <i name="e_fr_energy">   -389.87292970 </i>
    <i name="e_wo_entrp">   -389.87206311 </i>
    <i name="e_0_energy">   -389.87249641 </i>
   </energy>
  </scstep>
  <structure>
   <crystal>
    <varray name="basis" >
     <v>      12.25365252       0.00000000       0.00000000 </v>
     <v>      -9.80292201       7.35219151       0.00000000 </v>
     <v>       0.00000000       0.00000000      19.65833333 </v>
    </varray>
    <i name="volume">   1771.04284001 </i>
    <varray name="rec_basis" >
     <v>       0.08160832       0.10881109       0.00000000 </v>
     <v>       0.00000000       0.13601387       0.00000000 </v>
     <v>       0.00000000       0.00000000       0.05086901 </v>
    </varray>
   </crystal>
   <varray name="positions" >
    <v>       0.50000000       0.75000000       0.06969055 </v>
    <v>       0.83333333       0.91666667       0.20907164 </v>
    <v>       0.16666667       0.08333333       0.34845273 </v>
    <v>       0.50000000       0.25000000       0.48783383 </v>
    <v>       0.83333333       0.41666667       0.62721492 </v>
    <v>       0.16666667       0.08333333       0.06969055 </v>
    <v>       0.50000000       0.25000000       0.20907164 </v>
    <v>       0.83333333       0.41666667       0.34845273 </v>
    <v>       0.16666667       0.58333333       0.48783383 </v>
    <v>       0.50000000       0.75000000       0.62721492 </v>
    <v>       0.83333333       0.41666667       0.06969055 </v>
    <v>       0.16666667       0.58333333       0.20907164 </v>
    <v>       0.50000000       0.75000000       0.34845273 </v>
    <v>       0.83333333       0.91666667       0.48783383 </v>
    <v>       0.16666667       0.08333333       0.62721492 </v>
    <v>       0.33333333       0.91666667       0.06969055 </v>
    <v>       0.66666667       0.08333333       0.20907164 </v>
    <v>       0.00000000       0.25000000       0.34845273 </v>
    <v>       0.33333333       0.41666667       0.48783383 </v>
    <v>       0.66666667       0.58333333       0.62721492 </v>
    <v>       0.66666667       0.58333333       0.06969055 </v>
    <v>       0.00000000       0.75000000       0.20907164 </v>
    <v>       0.33333333       0.91666667       0.34845273 </v>
    <v>       0.66666667       0.08333333       0.48783383 </v>
    <v>       0.00000000       0.25000000       0.62721492 </v>
    <v>       0.00000000       0.25000000       0.06969055 </v>
    <v>       0.33333333       0.41666667       0.20907164 </v>
    <v>       0.66666667       0.58333333       0.34845273 </v>
    <v>       0.00000000       0.75000000       0.48783383 </v>
    <v>       0.33333333       0.91666667       0.62721492 </v>
    <v>       0.91666667       0.83333333       0.00000000 </v>
    <v>       0.25000000       0.00000000       0.13938109 </v>
    <v>       0.58333333       0.16666667       0.27876219 </v>
    <v>       0.91666667       0.33333333       0.41814328 </v>
    <v>       0.25000000       0.50000000       0.55752437 </v>
    <v>       0.58333333       0.66666667       0.69690547 </v>
    <v>       0.25000000       0.50000000       0.00000000 </v>
    <v>       0.58333333       0.66666667       0.13938109 </v>
    <v>       0.91666667       0.83333333       0.27876219 </v>
    <v>       0.25000000       0.00000000       0.41814328 </v>
    <v>       0.58333333       0.16666667       0.55752437 </v>
    <v>       0.91666667       0.33333333       0.69690547 </v>
    <v>       0.58333333       0.16666667       0.00000000 </v>
    <v>       0.91666667       0.33333333       0.13938109 </v>
    <v>       0.25000000       0.50000000       0.27876219 </v>
    <v>       0.58333333       0.66666667       0.41814328 </v>
    <v>       0.91666667       0.83333333       0.55752437 </v>
    <v>       0.25000000       0.00000000       0.69690547 </v>
    <v>       0.08333333       0.66666667       0.00000000 </v>
    <v>       0.41666667       0.83333333       0.13938109 </v>
    <v>       0.75000000       0.00000000       0.27876219 </v>
    <v>       0.08333333       0.16666667       0.41814328 </v>
    <v>       0.41666667       0.33333333       0.55752437 </v>
    <v>       0.75000000       0.50000000       0.69690547 </v>
    <v>       0.41666667       0.33333333       0.00000000 </v>
    <v>       0.75000000       0.50000000       0.13938109 </v>
    <v>       0.08333333       0.66666667       0.27876219 </v>
    <v>       0.41666667       0.83333333       0.41814328 </v>
    <v>       0.75000000       0.00000000       0.55752437 </v>
    <v>       0.08333333       0.16666667       0.69690547 </v>
    <v>       0.75000000       0.00000000       0.00000000 </v>
    <v>       0.08333333       0.16666667       0.13938109 </v>
    <v>       0.41666667       0.33333333       0.27876219 </v>
    <v>       0.75000000       0.50000000       0.41814328 </v>
    <v>       0.08333333       0.66666667       0.55752437 </v>
    <v>       0.41666667       0.83333333       0.69690547 </v>
    <v>       0.31147541       0.32786885       0.78846969 </v>
    <v>       0.20036430       0.93897996       0.83645612 </v>
    <v>       0.08925319       0.55009107       0.88444256 </v>
    <v>       0.81147541       0.82786885       0.78846969 </v>
    <v>       0.70036430       0.43897996       0.83645612 </v>
    <v>       0.58925319       0.05009107       0.88444256 </v>
    <v>       0.50591985       0.63342441       0.81246291 </v>
    <v>       0.39480874       0.24453552       0.86044934 </v>
    <v>       0.28369763       0.85564663       0.90843578 </v>
    <v>       0.00591985       0.13342441       0.81246291 </v>
    <v>       0.89480874       0.74453552       0.86044934 </v>
    <v>       0.78369763       0.35564663       0.90843578 </v>
   </varray>
  </structure>
  <varray name="forces" >
   <v>      -0.20207419       0.10605239      -0.20938064 </v>
   <v>       0.05816780       0.00018911      -0.00642886 </v>
   <v>       0.00308598       0.00362567      -0.01271276 </v>
   <v>       0.00629747      -0.02383206      -0.00611330 </v>
   <v>       0.26252159      -0.04521802       0.16951952 </v>
   <v>       0.20238858       0.03703237      -0.53720556 </v>
   <v>       0.02675357      -0.01512295       0.03438366 </v>
   <v>      -0.02686165       0.01488745       0.00812337 </v>
   <v>       0.03503148       0.04276241       0.03212042 </v>
   <v>      -0.28002794       0.36969307      -0.15352630 </v>
   <v>       0.01625319      -0.08237579       0.26486161 </v>
   <v>      -0.09219499      -0.03399005       0.00850792 </v>
   <v>       0.01784070      -0.01549110       0.01971621 </v>
   <v>      -0.05291823       0.00910433      -0.03297237 </v>
   <v>      -0.11145350      -0.16221320       0.45286644 </v>
   <v>       0.01625319      -0.08237579       0.26486161 </v>
   <v>      -0.09219499      -0.03399005       0.00850792 </v>
   <v>       0.01784070      -0.01549110       0.01971621 </v>
   <v>      -0.05291823       0.00910433      -0.03297237 </v>
   <v>      -0.11145350      -0.16221320       0.45286644 </v>
   <v>       0.20238858       0.03703237      -0.53720556 </v>
   <v>       0.02675357      -0.01512295       0.03438366 </v>
   <v>      -0.02686165       0.01488745       0.00812337 </v>
   <v>       0.03503148       0.04276241       0.03212042 </v>
   <v>      -0.28002794       0.36969307      -0.15352630 </v>
   <v>      -0.20207419       0.10605239      -0.20938064 </v>
   <v>       0.05816780       0.00018911      -0.00642886 </v>
   <v>       0.00308598       0.00362567      -0.01271276 </v>
   <v>       0.00629747      -0.02383206      -0.00611330 </v>
   <v>       0.26252159      -0.04521802       0.16951952 </v>
   <v>      -0.05091482      -0.35281302      -0.80853714 </v>
   <v>       0.06334968      -0.01335519       0.04818859 </v>
   <v>       0.03155752      -0.01410912       0.02524880 </v>
   <v>      -0.02083095      -0.00936919       0.00173282 </v>
   <v>       0.14743859      -0.08440753      -0.04908035 </v>
   <v>       0.02368848      -0.41607863      -1.48095871 </v>
   <v>      -0.20614248      -0.10808196      -0.57144205 </v>
   <v>      -0.12830169      -0.03827096       0.01223857 </v>
   <v>      -0.00057666       0.00301134       0.01264208 </v>
   <v>      -0.03382858       0.01297189      -0.01177040 </v>
   <v>      -0.19746582       0.04253749      -0.05045848 </v>
   <v>       0.05098545      -0.01992876       0.49368929 </v>
   <v>      -0.23486486      -0.14879071       0.93829973 </v>
   <v>       0.10353485       0.15538085       0.22109261 </v>
   <v>      -0.01711612       0.03717973      -0.00310393 </v>
   <v>       0.06640406      -0.01027099      -0.00022780 </v>
   <v>       0.07752544      -0.00806769      -0.12772211 </v>
   <v>       0.09908085      -0.20349119       0.65297927 </v>
   <v>      -0.23486486      -0.14879071       0.93829973 </v>
   <v>       0.10353485       0.15538085       0.22109261 </v>
   <v>      -0.01711612       0.03717973      -0.00310393 </v>
   <v>       0.06640406      -0.01027099      -0.00022780 </v>
   <v>       0.07752544      -0.00806769      -0.12772211 </v>
   <v>       0.09908085      -0.20349119       0.65297927 </v>
   <v>      -0.05091482      -0.35281302      -0.80853714 </v>
   <v>       0.06334968      -0.01335519       0.04818859 </v>
   <v>       0.03155752      -0.01410912       0.02524880 </v>
   <v>      -0.02083095      -0.00936919       0.00173282 </v>
   <v>       0.14743859      -0.08440753      -0.04908035 </v>
   <v>       0.02368848      -0.41607863      -1.48095871 </v>
   <v>      -0.20614248      -0.10808196      -0.57144205 </v>
   <v>      -0.12830169      -0.03827096       0.01223857 </v>
   <v>      -0.00057666       0.00301134       0.01264208 </v>
   <v>      -0.03382858       0.01297189      -0.01177040 </v>
   <v>      -0.19746582       0.04253749      -0.05045848 </v>
   <v>       0.05098545      -0.01992876       0.49368929 </v>
   <v>       0.75890866       0.52862949      -0.28182572 </v>
   <v>       0.20136093       0.02402914      -1.76875526 </v>
   <v>       2.31822434      -0.83304357      -0.02227151 </v>
   <v>       0.75890866       0.52862949      -0.28182572 </v>
   <v>       0.20136093       0.02402914      -1.76875526 </v>
   <v>       2.31822434      -0.83304357      -0.02227151 </v>
   <v>      -1.82051287       0.19852433       1.39020658 </v>
   <v>      -0.30849023       0.41117948       1.73795956 </v>
   <v>      -0.78582364       0.64153113      -0.38988380 </v>
   <v>      -1.82051287       0.19852433       1.39020658 </v>
   <v>      -0.30849023       0.41117948       1.73795956 </v>
   <v>      -0.78582364       0.64153113      -0.38988380 </v>
  </varray>
  <varray name="stress" >
   <v>      -1.44431839       1.96387052      -0.31728841 </v>
   <v>       1.96386901       6.21965468      -0.45389791 </v>
   <v>      -0.31728832      -0.45389709      -9.19919623 </v>
  </varray>
  <energy>
   <i name="e_fr_energy">   -389.87292970 </i>
   <i name="e_wo_entrp">   -389.87206311 </i>
   <i name="e_0_energy">   -389.87249641 </i>
  </energy>
  <time name="totalsc"> 2923.96 2950.44</time>
  <eigenvalues>
   <array>
    <dimension dim="1">band</dimension>
    <dimension dim="2">kpoint</dimension>
    <dimension dim="3">spin</dimension>
    <field>eigene</field>
    <field>occ</field>
    <set>
     <set comment="spin 1">
      <set comment="kpoint 1">
       <r>   -7.8660    1.0000 </r>
       <r>   -7.5374    1.0000 </r>
       <r>   -7.2665    1.0000 </r>
       <r>   -6.8434    1.0000 </r>
       <r>   -6.4437    1.0000 </r>
       <r>   -6.3712    1.0000 </r>
       <r>   -6.3578    1.0000 </r>
       <r>   -6.1913    1.0000 </r>
       <r>   -6.0293    1.0000 </r>
       <r>   -5.9369    1.0000 </r>
       <r>   -5.9320    1.0000 </r>
       <r>   -5.8707    1.0000 </r>
       <r>   -5.4909    1.0000 </r>
       <r>   -5.4798    1.0000 </r>
       <r>   -5.3950    1.0000 </r>
       <r>   -5.2233    1.0000 </r>
       <r>   -5.1446    1.0000 </r>
       <r>   -5.1243    1.0000 </r>
       <r>   -5.1090    1.0000 </r>
       <r>   -5.1021    1.0000 </r>
       <r>   -5.0338    1.0000 </r>
       <r>   -4.9932    1.0000 </r>
       <r>   -4.9823    1.0000 </r>
       <r>   -4.9654    1.0000 </r>
       <r>   -4.9370    1.0000 </r>
       <r>   -4.8907    1.0000 </r>
       <r>   -4.8383    1.0000 </r>
       <r>   -4.6525    1.0000 </r>
       <r>   -4.3976    1.0000 </r>
       <r>   -4.3763    1.0000 </r>
       <r>   -4.3030    1.0000 </r>
       <r>   -4.1299    1.0000 </r>
       <r>   -3.7716    1.0000 </r>
       <r>   -3.5038    1.0000 </r>
       <r>   -3.3821    1.0000 </r>
       <r>   -3.3383    1.0000 </r>
       <r>   -3.3298    1.0000 </r>
       <r>   -3.3259    1.0000 </r>
       <r>   -3.3184    1.0000 </r>
       <r>   -3.2602    1.0000 </r>
       <r>   -3.2441    1.0000 </r>
       <r>   -3.2427    1.0000 </r>
       <r>   -3.2000    1.0000 </r>
       <r>   -3.1541    1.0000 </r>
       <r>   -3.0779    1.0000 </r>
       <r>   -2.9792    1.0000 </r>
       <r>   -2.9061    1.0000 </r>
       <r>   -2.6504    1.0000 </r>
       <r>   -2.4391    1.0000 </r>
       <r>   -2.3623    1.0000 </r>
       <r>   -2.2456    1.0000 </r>
       <r>   -2.2186    1.0000 </r>
       <r>   -2.1820    1.0000 </r>
       <r>   -2.1286    1.0000 </r>
       <r>   -2.0983    1.0000 </r>
       <r>   -2.0570    1.0000 </r>
       <r>   -2.0305    1.0000 </r>
       <r>   -1.9654    1.0000 </r>
       <r>   -1.8323    1.0000 </r>
       <r>   -1.7647    1.0000 </r>
       <r>   -1.6141    1.0000 </r>
       <r>   -1.5489    1.0000 </r>
       <r>   -1.5195    1.0000 </r>
       <r>   -1.4943    1.0000 </r>
       <r>   -1.4395    1.0000 </r>
       <r>   -1.2431    1.0000 </r>
       <r>   -0.9970    1.0000 </r>
       <r>   -0.8058    1.0000 </r>
       <r>   -0.7684    1.0000 </r>
       <r>   -0.5812    1.0000 </r>
       <r>   -0.5339    1.0000 </r>
       <r>   -0.2894    1.0000 </r>
       <r>    0.1701    1.0000 </r>
       <r>    0.2388    1.0000 </r>
       <r>    0.4541    1.0000 </r>
       <r>    0.5147    1.0000 </r>
       <r>    0.6045    1.0000 </r>
       <r>    0.6215    1.0000 </r>
       <r>    0.7666    1.0000 </r>
       <r>    0.7876    1.0000 </r>
       <r>    0.8012    1.0000 </r>
       <r>    0.8208    1.0000 </r>
       <r>    0.8536    1.0000 </r>
       <r>    0.8847    1.0000 </r>
       <r>    0.9112    1.0000 </r>
       <r>    1.0508    1.0000 </r>
       <r>    1.1793    1.0000 </r>
       <r>    1.2544    1.0000 </r>
       <r>    1.2795    1.0000 </r>
       <r>    1.3052    1.0000 </r>
       <r>    1.3118    1.0000 </r>
       <r>    1.3349    1.0000 </r>
       <r>    1.3368    1.0000 </r>
       <r>    1.4457    1.0000 </r>
       <r>    1.4470    1.0000 </r>
       <r>    1.4998    1.0000 </r>
       <r>    1.5859    1.0000 </r>
       <r>    1.6294    1.0000 </r>
       <r>    1.6379    1.0000 </r>
       <r>    1.6625    1.0000 </r>
       <r>    1.6854    1.0000 </r>
       <r>    1.7015    1.0000 </r>
       <r>    1.7125    1.0000 </r>
       <r>    1.7854    1.0000 </r>
       <r>    1.8266    1.0000 </r>
       <r>    1.8464    1.0000 </r>
       <r>    1.9640    1.0000 </r>
       <r>    1.9950    1.0000 </r>
       <r>    1.9975    1.0000 </r>
       <r>    2.0536    1.0000 </r>
       <r>    2.0946    1.0000 </r>
       <r>    2.1506    1.0000 </r>
       <r>    2.2051    1.0000 </r>
       <r>    2.2417    1.0000 </r>
       <r>    2.3250    1.0000 </r>
       <r>    2.3307    1.0000 </r>
       <r>    2.3972    1.0000 </r>
       <r>    2.3990    1.0000 </r>
       <r>    2.4234    1.0000 </r>
       <r>    2.4447    1.0000 </r>
       <r>    2.4469    1.0000 </r>
       <r>    2.4764    1.0000 </r>
       <r>    2.5354    1.0000 </r>
       <r>    2.5626    1.0000 </r>
       <r>    2.6053    1.0000 </r>
       <r>    2.6426    1.0000 </r>
       <r>    2.6749    1.0000 </r>
       <r>    2.6995    1.0000 </r>
       <r>    2.7370    1.0000 </r>
       <r>    2.7911    1.0000 </r>
       <r>    2.8259    1.0000 </r>
       <r>    2.8559    1.0000 </r>
       <r>    2.8828    1.0000 </r>
       <r>    3.0301    1.0000 </r>
       <r>    3.0348    1.0000 </r>
       <r>    3.0734    1.0000 </r>
       <r>    3.1783    1.0000 </r>
       <r>    3.2544    1.0000 </r>
       <r>    3.2853    1.0000 </r>
       <r>    3.3055    1.0000 </r>
       <r>    3.4457    1.0000 </r>
       <r>    3.4727    1.0000 </r>
       <r>    3.4945    1.0000 </r>
       <r>    3.5502    1.0000 </r>
       <r>    3.6037    1.0000 </r>
       <r>    3.6706    1.0000 </r>
       <r>    3.6949    1.0000 </r>
       <r>    3.7083    1.0000 </r>
       <r>    3.7339    1.0000 </r>
       <r>    3.7879    1.0000 </r>
       <r>    3.9119    1.0000 </r>
       <r>    4.0028    1.0000 </r>
       <r>    4.0087    1.0000 </r>
       <r>    4.0283    1.0000 </r>
       <r>    4.0986    1.0000 </r>
       <r>    4.2329    1.0000 </r>
       <r>    4.3670    1.0000 </r>
       <r>    4.5521    0.0000 </r>
       <r>    4.7902    0.0000 </r>
       <r>    4.9562    0.0000 </r>
       <r>    4.9939    0.0000 </r>
       <r>    5.0609    0.0000 </r>
       <r>    5.1425    0.0000 </r>
       <r>    5.1729    0.0000 </r>
       <r>    5.1907    0.0000 </r>
       <r>    5.4853    0.0000 </r>
       <r>    5.4897    0.0000 </r>
       <r>    5.5622    0.0000 </r>
       <r>    5.5699    0.0000 </r>
       <r>    5.6353    0.0000 </r>
       <r>    5.6466    0.0000 </r>
       <r>    5.6762    0.0000 </r>
       <r>    5.7926    0.0000 </r>
       <r>    5.8292    0.0000 </r>
       <r>    5.9758    0.0000 </r>
       <r>    6.0238    0.0000 </r>
       <r>    6.0687    0.0000 </r>
       <r>    6.0940    0.0000 </r>
       <r>    6.1290    0.0000 </r>
       <r>    6.2195    0.0000 </r>
       <r>    6.2215    0.0000 </r>
       <r>    6.2740    0.0000 </r>
       <r>    6.3331    0.0000 </r>
       <r>    6.3845    0.0000 </r>
       <r>    6.4037    0.0000 </r>
       <r>    6.4289    0.0000 </r>
       <r>    6.4756    0.0000 </r>
       <r>    6.5534    0.0000 </r>
      </set>
      <set comment="kpoint 2">
       <r>   -7.7203    1.0000 </r>
       <r>   -7.3977    1.0000 </r>
       <r>   -7.1194    1.0000 </r>
       <r>   -6.7061    1.0000 </r>
       <r>   -6.6031    1.0000 </r>
       <r>   -6.4382    1.0000 </r>
       <r>   -6.3479    1.0000 </r>
       <r>   -6.3088    1.0000 </r>
       <r>   -6.1018    1.0000 </r>
       <r>   -6.0237    1.0000 </r>
       <r>   -5.9901    1.0000 </r>
       <r>   -5.9506    1.0000 </r>
       <r>   -5.7648    1.0000 </r>
       <r>   -5.6702    1.0000 </r>
       <r>   -5.6632    1.0000 </r>
       <r>   -5.5067    1.0000 </r>
       <r>   -5.4883    1.0000 </r>
       <r>   -5.2947    1.0000 </r>
       <r>   -5.2438    1.0000 </r>
       <r>   -5.1973    1.0000 </r>
       <r>   -5.1121    1.0000 </r>
       <r>   -4.9704    1.0000 </r>
       <r>   -4.8148    1.0000 </r>
       <r>   -4.7276    1.0000 </r>
       <r>   -4.7067    1.0000 </r>
       <r>   -4.4942    1.0000 </r>
       <r>   -4.4496    1.0000 </r>
       <r>   -4.4136    1.0000 </r>
       <r>   -4.3967    1.0000 </r>
       <r>   -4.2601    1.0000 </r>
       <r>   -4.2473    1.0000 </r>
       <r>   -4.2195    1.0000 </r>
       <r>   -4.1132    1.0000 </r>
       <r>   -4.0355    1.0000 </r>
       <r>   -3.9661    1.0000 </r>
       <r>   -3.9009    1.0000 </r>
       <r>   -3.7444    1.0000 </r>
       <r>   -3.3575    1.0000 </r>
       <r>   -3.3461    1.0000 </r>
       <r>   -3.0490    1.0000 </r>
       <r>   -3.0480    1.0000 </r>
       <r>   -2.9415    1.0000 </r>
       <r>   -2.7732    1.0000 </r>
       <r>   -2.6904    1.0000 </r>
       <r>   -2.6581    1.0000 </r>
       <r>   -2.5362    1.0000 </r>
       <r>   -2.5106    1.0000 </r>
       <r>   -2.3724    1.0000 </r>
       <r>   -2.2684    1.0000 </r>
       <r>   -2.2266    1.0000 </r>
       <r>   -2.2056    1.0000 </r>
       <r>   -2.1999    1.0000 </r>
       <r>   -2.1800    1.0000 </r>
       <r>   -2.0109    1.0000 </r>
       <r>   -1.9973    1.0000 </r>
       <r>   -1.9177    1.0000 </r>
       <r>   -1.8841    1.0000 </r>
       <r>   -1.8784    1.0000 </r>
       <r>   -1.7027    1.0000 </r>
       <r>   -1.6836    1.0000 </r>
       <r>   -1.5146    1.0000 </r>
       <r>   -1.3562    1.0000 </r>
       <r>   -1.2543    1.0000 </r>
       <r>   -1.2221    1.0000 </r>
       <r>   -0.9708    1.0000 </r>
       <r>   -0.8597    1.0000 </r>
       <r>   -0.8118    1.0000 </r>
       <r>   -0.6685    1.0000 </r>
       <r>   -0.6274    1.0000 </r>
       <r>   -0.3511    1.0000 </r>
       <r>   -0.2900    1.0000 </r>
       <r>   -0.1992    1.0000 </r>
       <r>   -0.1781    1.0000 </r>
       <r>    0.1512    1.0000 </r>
       <r>    0.3427    1.0000 </r>
       <r>    0.3713    1.0000 </r>
       <r>    0.4412    1.0000 </r>
       <r>    0.4912    1.0000 </r>
       <r>    0.5151    1.0000 </r>
       <r>    0.5422    1.0000 </r>
       <r>    0.5546    1.0000 </r>
       <r>    0.6233    1.0000 </r>
       <r>    0.6927    1.0000 </r>
       <r>    0.7366    1.0000 </r>
       <r>    0.8457    1.0000 </r>
       <r>    0.8846    1.0000 </r>
       <r>    0.9411    1.0000 </r>
       <r>    1.0247    1.0000 </r>
       <r>    1.0508    1.0000 </r>
       <r>    1.1481    1.0000 </r>
       <r>    1.1586    1.0000 </r>
       <r>    1.2585    1.0000 </r>
       <r>    1.3006    1.0000 </r>
       <r>    1.4044    1.0000 </r>
       <r>    1.4273    1.0000 </r>
       <r>    1.4496    1.0000 </r>
       <r>    1.5056    1.0000 </r>
       <r>    1.5371    1.0000 </r>
       <r>    1.5460    1.0000 </r>
       <r>    1.5772    1.0000 </r>
       <r>    1.6117    1.0000 </r>
       <r>    1.6259    1.0000 </r>
       <r>    1.6899    1.0000 </r>
       <r>    1.7043    1.0000 </r>
       <r>    1.7293    1.0000 </r>
       <r>    1.7455    1.0000 </r>
       <r>    1.7763    1.0000 </r>
       <r>    1.8547    1.0000 </r>
       <r>    1.8558    1.0000 </r>
       <r>    1.9133    1.0000 </r>
       <r>    1.9240    1.0000 </r>
       <r>    2.0152    1.0000 </r>
       <r>    2.0342    1.0000 </r>
       <r>    2.0456    1.0000 </r>
       <r>    2.0555    1.0000 </r>
       <r>    2.0792    1.0000 </r>
       <r>    2.1410    1.0000 </r>
       <r>    2.1542    1.0000 </r>
       <r>    2.1849    1.0000 </r>
       <r>    2.2269    1.0000 </r>
       <r>    2.3027    1.0000 </r>
       <r>    2.3749    1.0000 </r>
       <r>    2.3942    1.0000 </r>
       <r>    2.4872    1.0000 </r>
       <r>    2.4889    1.0000 </r>
       <r>    2.4955    1.0000 </r>
       <r>    2.5452    1.0000 </r>
       <r>    2.5623    1.0000 </r>
       <r>    2.6329    1.0000 </r>
       <r>    2.6330    1.0000 </r>
       <r>    2.6512    1.0000 </r>
       <r>    2.6609    1.0000 </r>
       <r>    2.7228    1.0000 </r>
       <r>    2.7993    1.0000 </r>
       <r>    2.8573    1.0000 </r>
       <r>    2.9165    1.0000 </r>
       <r>    2.9457    1.0000 </r>
       <r>    3.0081    1.0000 </r>
       <r>    3.0145    1.0000 </r>
       <r>    3.0926    1.0000 </r>
       <r>    3.0941    1.0000 </r>
       <r>    3.1609    1.0000 </r>
       <r>    3.3271    1.0000 </r>
       <r>    3.3274    1.0000 </r>
       <r>    3.5465    1.0000 </r>
       <r>    3.5609    1.0000 </r>
       <r>    3.6813    1.0000 </r>
       <r>    3.7056    1.0000 </r>
       <r>    3.8387    1.0000 </r>
       <r>    3.8502    1.0000 </r>
       <r>    3.9243    1.0000 </r>
       <r>    3.9404    1.0000 </r>
       <r>    4.1599    1.0000 </r>
       <r>    4.2077    1.0000 </r>
       <r>    4.2542    1.0000 </r>
       <r>    4.4358    1.0000 </r>
       <r>    4.4958    0.3572 </r>
       <r>    4.6390    0.0000 </r>
       <r>    4.9429    0.0000 </r>
       <r>    5.0175    0.0000 </r>
       <r>    5.1275    0.0000 </r>
       <r>    5.1448    0.0000 </r>
       <r>    5.3475    0.0000 </r>
       <r>    5.4131    0.0000 </r>
       <r>    5.5110    0.0000 </r>
       <r>    5.5499    0.0000 </r>
       <r>    5.6674    0.0000 </r>
       <r>    5.6826    0.0000 </r>
       <r>    5.8031    0.0000 </r>
       <r>    5.8093    0.0000 </r>
       <r>    5.8654    0.0000 </r>
       <r>    5.9282    0.0000 </r>
       <r>    6.0027    0.0000 </r>
       <r>    6.0558    0.0000 </r>
       <r>    6.1284    0.0000 </r>
       <r>    6.1994    0.0000 </r>
       <r>    6.2584    0.0000 </r>
       <r>    6.2802    0.0000 </r>
       <r>    6.4071    0.0000 </r>
       <r>    6.4238    0.0000 </r>
       <r>    6.4708    0.0000 </r>
       <r>    6.5800    0.0000 </r>
       <r>    6.6280    0.0000 </r>
       <r>    6.7439    0.0000 </r>
       <r>    6.7743    0.0000 </r>
       <r>    6.8083    0.0000 </r>
       <r>    6.8223    0.0000 </r>
       <r>    6.8301    0.0000 </r>
      </set>
      <set comment="kpoint 3">
       <r>   -7.7203    1.0000 </r>
       <r>   -7.3977    1.0000 </r>
       <r>   -7.1195    1.0000 </r>
       <r>   -6.7060    1.0000 </r>
       <r>   -6.6033    1.0000 </r>
       <r>   -6.4380    1.0000 </r>
       <r>   -6.3473    1.0000 </r>
       <r>   -6.3092    1.0000 </r>
       <r>   -6.1020    1.0000 </r>
       <r>   -6.0235    1.0000 </r>
       <r>   -5.9917    1.0000 </r>
       <r>   -5.9503    1.0000 </r>
       <r>   -5.7643    1.0000 </r>
       <r>   -5.6651    1.0000 </r>
       <r>   -5.6633    1.0000 </r>
       <r>   -5.5063    1.0000 </r>
       <r>   -5.4930    1.0000 </r>
       <r>   -5.2945    1.0000 </r>
       <r>   -5.2453    1.0000 </r>
       <r>   -5.1983    1.0000 </r>
       <r>   -5.1192    1.0000 </r>
       <r>   -4.9557    1.0000 </r>
       <r>   -4.8144    1.0000 </r>
       <r>   -4.7344    1.0000 </r>
       <r>   -4.7066    1.0000 </r>
       <r>   -4.4968    1.0000 </r>
       <r>   -4.4502    1.0000 </r>
       <r>   -4.4138    1.0000 </r>
       <r>   -4.4075    1.0000 </r>
       <r>   -4.2598    1.0000 </r>
       <r>   -4.2481    1.0000 </r>
       <r>   -4.1861    1.0000 </r>
       <r>   -4.1137    1.0000 </r>
       <r>   -4.0427    1.0000 </r>
       <r>   -3.9700    1.0000 </r>
       <r>   -3.9045    1.0000 </r>
       <r>   -3.7487    1.0000 </r>
       <r>   -3.3430    1.0000 </r>
       <r>   -3.3412    1.0000 </r>
       <r>   -3.0786    1.0000 </r>
       <r>   -3.0483    1.0000 </r>
       <r>   -2.9427    1.0000 </r>
       <r>   -2.7885    1.0000 </r>
       <r>   -2.6858    1.0000 </r>
       <r>   -2.6660    1.0000 </r>
       <r>   -2.5175    1.0000 </r>
       <r>   -2.5116    1.0000 </r>
       <r>   -2.3525    1.0000 </r>
       <r>   -2.2693    1.0000 </r>
       <r>   -2.2198    1.0000 </r>
       <r>   -2.2020    1.0000 </r>
       <r>   -2.1983    1.0000 </r>
       <r>   -2.1598    1.0000 </r>
       <r>   -2.0234    1.0000 </r>
       <r>   -1.9943    1.0000 </r>
       <r>   -1.9082    1.0000 </r>
       <r>   -1.8974    1.0000 </r>
       <r>   -1.8899    1.0000 </r>
       <r>   -1.7371    1.0000 </r>
       <r>   -1.6993    1.0000 </r>
       <r>   -1.4817    1.0000 </r>
       <r>   -1.3684    1.0000 </r>
       <r>   -1.2505    1.0000 </r>
       <r>   -1.1311    1.0000 </r>
       <r>   -1.0103    1.0000 </r>
       <r>   -0.8647    1.0000 </r>
       <r>   -0.8256    1.0000 </r>
       <r>   -0.7062    1.0000 </r>
       <r>   -0.6660    1.0000 </r>
       <r>   -0.3502    1.0000 </r>
       <r>   -0.2621    1.0000 </r>
       <r>   -0.1780    1.0000 </r>
       <r>   -0.1637    1.0000 </r>
       <r>    0.1199    1.0000 </r>
       <r>    0.3462    1.0000 </r>
       <r>    0.3938    1.0000 </r>
       <r>    0.4359    1.0000 </r>
       <r>    0.4988    1.0000 </r>
       <r>    0.5245    1.0000 </r>
       <r>    0.5610    1.0000 </r>
       <r>    0.5851    1.0000 </r>
       <r>    0.6060    1.0000 </r>
       <r>    0.6734    1.0000 </r>
       <r>    0.7408    1.0000 </r>
       <r>    0.8353    1.0000 </r>
       <r>    0.8852    1.0000 </r>
       <r>    0.9506    1.0000 </r>
       <r>    1.0048    1.0000 </r>
       <r>    1.0590    1.0000 </r>
       <r>    1.1342    1.0000 </r>
       <r>    1.1637    1.0000 </r>
       <r>    1.2993    1.0000 </r>
       <r>    1.3056    1.0000 </r>
       <r>    1.3937    1.0000 </r>
       <r>    1.3994    1.0000 </r>
       <r>    1.4400    1.0000 </r>
       <r>    1.5211    1.0000 </r>
       <r>    1.5510    1.0000 </r>
       <r>    1.5522    1.0000 </r>
       <r>    1.5745    1.0000 </r>
       <r>    1.6040    1.0000 </r>
       <r>    1.6158    1.0000 </r>
       <r>    1.6585    1.0000 </r>
       <r>    1.6813    1.0000 </r>
       <r>    1.7153    1.0000 </r>
       <r>    1.7464    1.0000 </r>
       <r>    1.7771    1.0000 </r>
       <r>    1.8455    1.0000 </r>
       <r>    1.8901    1.0000 </r>
       <r>    1.9276    1.0000 </r>
       <r>    1.9378    1.0000 </r>
       <r>    1.9877    1.0000 </r>
       <r>    2.0204    1.0000 </r>
       <r>    2.0259    1.0000 </r>
       <r>    2.0578    1.0000 </r>
       <r>    2.0723    1.0000 </r>
       <r>    2.1291    1.0000 </r>
       <r>    2.1666    1.0000 </r>
       <r>    2.2256    1.0000 </r>
       <r>    2.2289    1.0000 </r>
       <r>    2.2844    1.0000 </r>
       <r>    2.3710    1.0000 </r>
       <r>    2.4334    1.0000 </r>
       <r>    2.4812    1.0000 </r>
       <r>    2.4836    1.0000 </r>
       <r>    2.5041    1.0000 </r>
       <r>    2.5317    1.0000 </r>
       <r>    2.5583    1.0000 </r>
       <r>    2.6055    1.0000 </r>
       <r>    2.6209    1.0000 </r>
       <r>    2.6747    1.0000 </r>
       <r>    2.6834    1.0000 </r>
       <r>    2.7114    1.0000 </r>
       <r>    2.8075    1.0000 </r>
       <r>    2.8719    1.0000 </r>
       <r>    2.9282    1.0000 </r>
       <r>    2.9307    1.0000 </r>
       <r>    2.9889    1.0000 </r>
       <r>    3.0140    1.0000 </r>
       <r>    3.0814    1.0000 </r>
       <r>    3.1048    1.0000 </r>
       <r>    3.1632    1.0000 </r>
       <r>    3.3152    1.0000 </r>
       <r>    3.3468    1.0000 </r>
       <r>    3.5649    1.0000 </r>
       <r>    3.5958    1.0000 </r>
       <r>    3.6988    1.0000 </r>
       <r>    3.7363    1.0000 </r>
       <r>    3.8021    1.0000 </r>
       <r>    3.8396    1.0000 </r>
       <r>    3.9037    1.0000 </r>
       <r>    3.9515    1.0000 </r>
       <r>    4.1707    1.0000 </r>
       <r>    4.1772    1.0000 </r>
       <r>    4.2509    1.0000 </r>
       <r>    4.4321    1.0000 </r>
       <r>    4.5286    0.0000 </r>
       <r>    4.6242    0.0000 </r>
       <r>    4.9734    0.0000 </r>
       <r>    4.9983    0.0000 </r>
       <r>    5.0684    0.0000 </r>
       <r>    5.1239    0.0000 </r>
       <r>    5.3291    0.0000 </r>
       <r>    5.4900    0.0000 </r>
       <r>    5.5048    0.0000 </r>
       <r>    5.5531    0.0000 </r>
       <r>    5.6706    0.0000 </r>
       <r>    5.6909    0.0000 </r>
       <r>    5.7532    0.0000 </r>
       <r>    5.7765    0.0000 </r>
       <r>    5.8799    0.0000 </r>
       <r>    5.9070    0.0000 </r>
       <r>    5.9576    0.0000 </r>
       <r>    6.1307    0.0000 </r>
       <r>    6.1546    0.0000 </r>
       <r>    6.2503    0.0000 </r>
       <r>    6.2649    0.0000 </r>
       <r>    6.3292    0.0000 </r>
       <r>    6.3733    0.0000 </r>
       <r>    6.3903    0.0000 </r>
       <r>    6.4664    0.0000 </r>
       <r>    6.5595    0.0000 </r>
       <r>    6.5648    0.0000 </r>
       <r>    6.7409    0.0000 </r>
       <r>    6.7596    0.0000 </r>
       <r>    6.7886    0.0000 </r>
       <r>    6.8235    0.0000 </r>
       <r>    6.8336    0.0000 </r>
      </set>
      <set comment="kpoint 4">
       <r>   -7.2891    1.0000 </r>
       <r>   -7.2891    1.0000 </r>
       <r>   -6.9864    1.0000 </r>
       <r>   -6.9864    1.0000 </r>
       <r>   -6.6850    1.0000 </r>
       <r>   -6.6850    1.0000 </r>
       <r>   -6.3070    1.0000 </r>
       <r>   -6.3070    1.0000 </r>
       <r>   -6.2216    1.0000 </r>
       <r>   -6.2216    1.0000 </r>
       <r>   -5.9698    1.0000 </r>
       <r>   -5.9698    1.0000 </r>
       <r>   -5.7790    1.0000 </r>
       <r>   -5.7790    1.0000 </r>
       <r>   -5.6294    1.0000 </r>
       <r>   -5.6294    1.0000 </r>
       <r>   -5.3520    1.0000 </r>
       <r>   -5.3520    1.0000 </r>
       <r>   -5.3046    1.0000 </r>
       <r>   -5.3046    1.0000 </r>
       <r>   -5.0744    1.0000 </r>
       <r>   -5.0744    1.0000 </r>
       <r>   -4.9800    1.0000 </r>
       <r>   -4.9800    1.0000 </r>
       <r>   -4.6961    1.0000 </r>
       <r>   -4.6961    1.0000 </r>
       <r>   -4.5835    1.0000 </r>
       <r>   -4.5835    1.0000 </r>
       <r>   -4.3717    1.0000 </r>
       <r>   -4.3717    1.0000 </r>
       <r>   -4.2142    1.0000 </r>
       <r>   -4.2142    1.0000 </r>
       <r>   -4.1169    1.0000 </r>
       <r>   -4.1169    1.0000 </r>
       <r>   -3.8175    1.0000 </r>
       <r>   -3.8175    1.0000 </r>
       <r>   -3.4105    1.0000 </r>
       <r>   -3.4105    1.0000 </r>
       <r>   -3.0239    1.0000 </r>
       <r>   -3.0239    1.0000 </r>
       <r>   -2.9676    1.0000 </r>
       <r>   -2.9676    1.0000 </r>
       <r>   -2.7013    1.0000 </r>
       <r>   -2.7013    1.0000 </r>
       <r>   -2.3819    1.0000 </r>
       <r>   -2.3819    1.0000 </r>
       <r>   -2.2706    1.0000 </r>
       <r>   -2.2706    1.0000 </r>
       <r>   -2.1604    1.0000 </r>
       <r>   -2.1604    1.0000 </r>
       <r>   -2.1001    1.0000 </r>
       <r>   -2.1001    1.0000 </r>
       <r>   -1.9567    1.0000 </r>
       <r>   -1.9567    1.0000 </r>
       <r>   -1.6907    1.0000 </r>
       <r>   -1.6907    1.0000 </r>
       <r>   -1.6082    1.0000 </r>
       <r>   -1.6082    1.0000 </r>
       <r>   -1.3258    1.0000 </r>
       <r>   -1.3258    1.0000 </r>
       <r>   -1.1738    1.0000 </r>
       <r>   -1.1738    1.0000 </r>
       <r>   -1.0197    1.0000 </r>
       <r>   -1.0197    1.0000 </r>
       <r>   -0.8043    1.0000 </r>
       <r>   -0.8043    1.0000 </r>
       <r>   -0.6791    1.0000 </r>
       <r>   -0.6791    1.0000 </r>
       <r>   -0.4436    1.0000 </r>
       <r>   -0.4436    1.0000 </r>
       <r>   -0.1377    1.0000 </r>
       <r>   -0.1377    1.0000 </r>
       <r>    0.1558    1.0000 </r>
       <r>    0.1558    1.0000 </r>
       <r>    0.3448    1.0000 </r>
       <r>    0.3448    1.0000 </r>
       <r>    0.4233    1.0000 </r>
       <r>    0.4233    1.0000 </r>
       <r>    0.4611    1.0000 </r>
       <r>    0.4611    1.0000 </r>
       <r>    0.5692    1.0000 </r>
       <r>    0.5692    1.0000 </r>
       <r>    0.6272    1.0000 </r>
       <r>    0.6272    1.0000 </r>
       <r>    0.6894    1.0000 </r>
       <r>    0.6894    1.0000 </r>
       <r>    0.7104    1.0000 </r>
       <r>    0.7104    1.0000 </r>
       <r>    0.8438    1.0000 </r>
       <r>    0.8438    1.0000 </r>
       <r>    0.9117    1.0000 </r>
       <r>    0.9117    1.0000 </r>
       <r>    1.0234    1.0000 </r>
       <r>    1.0234    1.0000 </r>
       <r>    1.0767    1.0000 </r>
       <r>    1.0767    1.0000 </r>
       <r>    1.1279    1.0000 </r>
       <r>    1.1279    1.0000 </r>
       <r>    1.2366    1.0000 </r>
       <r>    1.2366    1.0000 </r>
       <r>    1.3671    1.0000 </r>
       <r>    1.3671    1.0000 </r>
       <r>    1.4280    1.0000 </r>
       <r>    1.4280    1.0000 </r>
       <r>    1.6224    1.0000 </r>
       <r>    1.6224    1.0000 </r>
       <r>    1.6582    1.0000 </r>
       <r>    1.6582    1.0000 </r>
       <r>    1.7134    1.0000 </r>
       <r>    1.7134    1.0000 </r>
       <r>    1.7912    1.0000 </r>
       <r>    1.7912    1.0000 </r>
       <r>    1.8662    1.0000 </r>
       <r>    1.8662    1.0000 </r>
       <r>    1.9231    1.0000 </r>
       <r>    1.9231    1.0000 </r>
       <r>    2.0193    1.0000 </r>
       <r>    2.0193    1.0000 </r>
       <r>    2.0622    1.0000 </r>
       <r>    2.0622    1.0000 </r>
       <r>    2.2062    1.0000 </r>
       <r>    2.2062    1.0000 </r>
       <r>    2.3006    1.0000 </r>
       <r>    2.3006    1.0000 </r>
       <r>    2.3391    1.0000 </r>
       <r>    2.3391    1.0000 </r>
       <r>    2.4920    1.0000 </r>
       <r>    2.4920    1.0000 </r>
       <r>    2.5835    1.0000 </r>
       <r>    2.5835    1.0000 </r>
       <r>    2.6590    1.0000 </r>
       <r>    2.6590    1.0000 </r>
       <r>    2.8220    1.0000 </r>
       <r>    2.8220    1.0000 </r>
       <r>    2.8835    1.0000 </r>
       <r>    2.8835    1.0000 </r>
       <r>    3.0136    1.0000 </r>
       <r>    3.0136    1.0000 </r>
       <r>    3.0772    1.0000 </r>
       <r>    3.0772    1.0000 </r>
       <r>    3.2009    1.0000 </r>
       <r>    3.2009    1.0000 </r>
       <r>    3.3940    1.0000 </r>
       <r>    3.3940    1.0000 </r>
       <r>    3.4930    1.0000 </r>
       <r>    3.4930    1.0000 </r>
       <r>    3.7406    1.0000 </r>
       <r>    3.7406    1.0000 </r>
       <r>    3.9557    1.0000 </r>
       <r>    3.9557    1.0000 </r>
       <r>    4.1074    1.0000 </r>
       <r>    4.1074    1.0000 </r>
       <r>    4.2291    1.0000 </r>
       <r>    4.2291    1.0000 </r>
       <r>    4.3002    1.0000 </r>
       <r>    4.3002    1.0000 </r>
       <r>    4.5585    0.0000 </r>
       <r>    4.5585    0.0000 </r>
       <r>    4.7877    0.0000 </r>
       <r>    4.7877    0.0000 </r>
       <r>    5.0338    0.0000 </r>
       <r>    5.0338    0.0000 </r>
       <r>    5.2638    0.0000 </r>
       <r>    5.2638    0.0000 </r>
       <r>    5.5170    0.0000 </r>
       <r>    5.5170    0.0000 </r>
       <r>    5.7171    0.0000 </r>
       <r>    5.7171    0.0000 </r>
       <r>    5.9143    0.0000 </r>
       <r>    5.9143    0.0000 </r>
       <r>    6.2223    0.0000 </r>
       <r>    6.2223    0.0000 </r>
       <r>    6.2264    0.0000 </r>
       <r>    6.2264    0.0000 </r>
       <r>    6.2931    0.0000 </r>
       <r>    6.2931    0.0000 </r>
       <r>    6.4314    0.0000 </r>
       <r>    6.4314    0.0000 </r>
       <r>    6.5307    0.0000 </r>
       <r>    6.5307    0.0000 </r>
       <r>    6.6199    0.0000 </r>
       <r>    6.6199    0.0000 </r>
       <r>    6.6683    0.0000 </r>
       <r>    6.6683    0.0000 </r>
       <r>    6.7804    0.0000 </r>
       <r>    6.7804    0.0000 </r>
       <r>    6.8981    0.0000 </r>
       <r>    6.8987    0.0000 </r>
      </set>
      <set comment="kpoint 5">
       <r>   -7.2892    1.0000 </r>
       <r>   -7.2892    1.0000 </r>
       <r>   -6.9862    1.0000 </r>
       <r>   -6.9862    1.0000 </r>
       <r>   -6.6855    1.0000 </r>
       <r>   -6.6855    1.0000 </r>
       <r>   -6.3063    1.0000 </r>
       <r>   -6.3063    1.0000 </r>
       <r>   -6.2208    1.0000 </r>
       <r>   -6.2208    1.0000 </r>
       <r>   -5.9716    1.0000 </r>
       <r>   -5.9716    1.0000 </r>
       <r>   -5.7789    1.0000 </r>
       <r>   -5.7789    1.0000 </r>
       <r>   -5.6297    1.0000 </r>
       <r>   -5.6297    1.0000 </r>
       <r>   -5.3523    1.0000 </r>
       <r>   -5.3523    1.0000 </r>
       <r>   -5.3023    1.0000 </r>
       <r>   -5.3023    1.0000 </r>
       <r>   -5.0746    1.0000 </r>
       <r>   -5.0746    1.0000 </r>
       <r>   -4.9818    1.0000 </r>
       <r>   -4.9818    1.0000 </r>
       <r>   -4.6981    1.0000 </r>
       <r>   -4.6981    1.0000 </r>
       <r>   -4.5804    1.0000 </r>
       <r>   -4.5804    1.0000 </r>
       <r>   -4.3715    1.0000 </r>
       <r>   -4.3715    1.0000 </r>
       <r>   -4.2150    1.0000 </r>
       <r>   -4.2150    1.0000 </r>
       <r>   -4.1221    1.0000 </r>
       <r>   -4.1221    1.0000 </r>
       <r>   -3.8122    1.0000 </r>
       <r>   -3.8122    1.0000 </r>
       <r>   -3.3851    1.0000 </r>
       <r>   -3.3851    1.0000 </r>
       <r>   -3.0681    1.0000 </r>
       <r>   -3.0681    1.0000 </r>
       <r>   -2.9507    1.0000 </r>
       <r>   -2.9507    1.0000 </r>
       <r>   -2.7294    1.0000 </r>
       <r>   -2.7294    1.0000 </r>
       <r>   -2.3254    1.0000 </r>
       <r>   -2.3254    1.0000 </r>
       <r>   -2.2604    1.0000 </r>
       <r>   -2.2604    1.0000 </r>
       <r>   -2.2206    1.0000 </r>
       <r>   -2.2206    1.0000 </r>
[...]
       <r>    -8.1728     0.0000     0.0000 </r>
       <r>    -8.1184     0.0000     0.0000 </r>
       <r>    -8.0639     0.0000     0.0000 </r>
       <r>    -8.0095     0.0000     0.0000 </r>
       <r>    -7.9551     0.0000     0.0000 </r>
       <r>    -7.9007     0.0000     0.0000 </r>
       <r>    -7.8462     5.4746     0.2979 </r>
       <r>    -7.7918     3.7128     0.5000 </r>
       <r>    -7.7374     0.0001     0.5000 </r>
       <r>    -7.6830    18.3102     1.4965 </r>
       <r>    -7.6286     0.0645     1.5000 </r>
       <r>    -7.5741     0.0000     1.5000 </r>
       <r>    -7.5197     8.2014     1.9463 </r>
       <r>    -7.4653     0.9860     2.0000 </r>
       <r>    -7.4109     0.0275     2.0015 </r>
       <r>    -7.3564    18.3470     3.0000 </r>
       <r>    -7.3020     0.0063     3.0003 </r>
       <r>    -7.2476    19.8014     4.0780 </r>
       <r>    -7.1932     4.4964     4.3227 </r>
       <r>    -7.1388     0.9628     4.3751 </r>
       <r>    -7.0843     9.0985     4.8703 </r>
       <r>    -7.0299     3.0550     5.0365 </r>
       <r>    -6.9755    19.4864     6.0970 </r>
       <r>    -6.9211     9.7014     6.6250 </r>
       <r>    -6.8666     0.0870     6.6297 </r>
       <r>    -6.8122     2.6839     6.7758 </r>
       <r>    -6.7578    14.8638     7.5847 </r>
       <r>    -6.7034    12.9751     8.2909 </r>
       <r>    -6.6489    16.3753     9.1820 </r>
       <r>    -6.5945    17.1578    10.1158 </r>
       <r>    -6.5401    11.6710    10.7510 </r>
       <r>    -6.4857     9.7790    11.2832 </r>
       <r>    -6.4313    15.5334    12.1285 </r>
       <r>    -6.3768     6.8796    12.5030 </r>
       <r>    -6.3224    30.9502    14.1874 </r>
       <r>    -6.2680    18.2342    15.1797 </r>
       <r>    -6.2136    18.7894    16.2023 </r>
       <r>    -6.1591     7.5904    16.6154 </r>
       <r>    -6.1047    13.6079    17.3559 </r>
       <r>    -6.0503    23.0511    18.6104 </r>
       <r>    -5.9959    10.3659    19.1746 </r>
       <r>    -5.9415    31.7739    20.9038 </r>
       <r>    -5.8870    17.4396    21.8529 </r>
       <r>    -5.8326    27.1633    23.3312 </r>
       <r>    -5.7782     6.8943    23.7064 </r>
       <r>    -5.7238    37.5495    25.7499 </r>
       <r>    -5.6693    13.1136    26.4636 </r>
       <r>    -5.6149    20.7447    27.5926 </r>
       <r>    -5.5605     9.3706    28.1026 </r>
       <r>    -5.5061     3.4245    28.2889 </r>
       <r>    -5.4517    32.9788    30.0837 </r>
       <r>    -5.3972    17.1507    31.0171 </r>
       <r>    -5.3428    25.9829    32.4312 </r>
       <r>    -5.2884    28.6107    33.9883 </r>
       <r>    -5.2340    30.6373    35.6556 </r>
       <r>    -5.1795    38.8696    37.7710 </r>
       <r>    -5.1251    26.9796    39.2393 </r>
       <r>    -5.0707    21.6848    40.4194 </r>
       <r>    -5.0163    20.7252    41.5474 </r>
       <r>    -4.9619    44.3704    43.9621 </r>
       <r>    -4.9074    32.2890    45.7194 </r>
       <r>    -4.8530    17.2020    46.6556 </r>
       <r>    -4.7986    35.4554    48.5851 </r>
       <r>    -4.7442    11.5876    49.2158 </r>
       <r>    -4.6897    42.4919    51.5283 </r>
       <r>    -4.6353    30.8087    53.2049 </r>
       <r>    -4.5809    15.4613    54.0464 </r>
       <r>    -4.5265    12.5538    54.7296 </r>
       <r>    -4.4721    11.3738    55.3486 </r>
       <r>    -4.4176    19.2917    56.3985 </r>
       <r>    -4.3632    41.7105    58.6685 </r>
       <r>    -4.3088    17.7161    59.6326 </r>
       <r>    -4.2544    23.9715    60.9372 </r>
       <r>    -4.1999    36.2631    62.9108 </r>
       <r>    -4.1455    24.3404    64.2354 </r>
       <r>    -4.0911    21.9788    65.4316 </r>
       <r>    -4.0367    20.3975    66.5416 </r>
       <r>    -3.9823    13.3839    67.2701 </r>
       <r>    -3.9278    14.5924    68.0642 </r>
       <r>    -3.8734    17.7064    69.0278 </r>
       <r>    -3.8190    21.6993    70.2088 </r>
       <r>    -3.7646    14.9755    71.0238 </r>
       <r>    -3.7101    22.4382    72.2450 </r>
       <r>    -3.6557     0.0924    72.2500 </r>
       <r>    -3.6013     4.4962    72.4947 </r>
       <r>    -3.5469     0.0975    72.5000 </r>
       <r>    -3.4925     4.6609    72.7537 </r>
       <r>    -3.4380    15.8193    73.6146 </r>
       <r>    -3.3836     5.0443    73.8891 </r>
       <r>    -3.3292    32.9272    75.6811 </r>
       <r>    -3.2748    19.6105    76.7483 </r>
       <r>    -3.2203    13.9080    77.5052 </r>
       <r>    -3.1659     7.4381    77.9100 </r>
       <r>    -3.1115    11.5819    78.5404 </r>
       <r>    -3.0571    33.1884    80.3465 </r>
       <r>    -3.0027    34.0942    82.2020 </r>
       <r>    -2.9482    14.8173    83.0084 </r>
       <r>    -2.8938    36.7177    85.0067 </r>
       <r>    -2.8394     9.0917    85.5015 </r>
       <r>    -2.7850     9.7288    86.0310 </r>
       <r>    -2.7305    15.5566    86.8776 </r>
       <r>    -2.6761    38.8416    88.9914 </r>
       <r>    -2.6217    24.7669    90.3393 </r>
       <r>    -2.5673    15.3605    91.1753 </r>
       <r>    -2.5129    15.8020    92.0353 </r>
       <r>    -2.4584    19.3904    93.0906 </r>
       <r>    -2.4040    10.8727    93.6823 </r>
       <r>    -2.3496    21.1147    94.8314 </r>
       <r>    -2.2952    18.0640    95.8145 </r>
       <r>    -2.2407    42.8637    98.1472 </r>
       <r>    -2.1863    48.3645   100.7794 </r>
       <r>    -2.1319    47.7861   103.3800 </r>
       <r>    -2.0775    47.6745   105.9746 </r>
       <r>    -2.0231    22.5917   107.2041 </r>
       <r>    -1.9686    37.2524   109.2315 </r>
       <r>    -1.9142    36.0366   111.1927 </r>
       <r>    -1.8598    25.6441   112.5883 </r>
       <r>    -1.8054    18.9869   113.6216 </r>
       <r>    -1.7509     7.3080   114.0194 </r>
       <r>    -1.6965    38.3606   116.1070 </r>
       <r>    -1.6421    23.2378   117.3717 </r>
       <r>    -1.5877    12.1871   118.0350 </r>
       <r>    -1.5332     6.3705   118.3817 </r>
       <r>    -1.4788    31.8205   120.1134 </r>
       <r>    -1.4244    29.0202   121.6928 </r>
       <r>    -1.3700    22.6871   122.9275 </r>
       <r>    -1.3156    14.7174   123.7284 </r>
       <r>    -1.2611    25.4049   125.1110 </r>
       <r>    -1.2067    22.7033   126.3466 </r>
       <r>    -1.1523    24.2631   127.6670 </r>
       <r>    -1.0979    13.5752   128.4058 </r>
       <r>    -1.0434     7.9170   128.8367 </r>
       <r>    -0.9890    18.3435   129.8350 </r>
       <r>    -0.9346    14.2750   130.6119 </r>
       <r>    -0.8802    15.2124   131.4398 </r>
       <r>    -0.8258    17.9112   132.4146 </r>
       <r>    -0.7713    16.6392   133.3201 </r>
       <r>    -0.7169    17.4265   134.2685 </r>
       <r>    -0.6625    23.1766   135.5299 </r>
       <r>    -0.6081    21.2496   136.6863 </r>
       <r>    -0.5536    15.5359   137.5318 </r>
       <r>    -0.4992    22.0853   138.7338 </r>
       <r>    -0.4448    13.7525   139.4822 </r>
       <r>    -0.3904    13.4230   140.2127 </r>
       <r>    -0.3360    16.6687   141.1199 </r>
       <r>    -0.2815     2.4393   141.2526 </r>
       <r>    -0.2271     9.9862   141.7961 </r>
       <r>    -0.1727    21.3726   142.9593 </r>
       <r>    -0.1183    18.9113   143.9885 </r>
       <r>    -0.0638     7.3411   144.3880 </r>
       <r>    -0.0094    11.5245   145.0152 </r>
       <r>     0.0450     9.8841   145.5531 </r>
       <r>     0.0994     2.4712   145.6876 </r>
       <r>     0.1538     5.8124   146.0039 </r>
       <r>     0.2083    12.8761   146.7046 </r>
       <r>     0.2627    20.6552   147.8288 </r>
       <r>     0.3171    19.4264   148.8860 </r>
       <r>     0.3715    30.5138   150.5466 </r>
       <r>     0.4260    30.3487   152.1983 </r>
       <r>     0.4804    51.1141   154.9800 </r>
       <r>     0.5348    39.7658   157.1442 </r>
       <r>     0.5892    59.4778   160.3811 </r>
       <r>     0.6436    33.2297   162.1896 </r>
       <r>     0.6981    25.5609   163.5807 </r>
       <r>     0.7525    36.8107   165.5840 </r>
       <r>     0.8069    34.8237   167.4792 </r>
       <r>     0.8613    42.6174   169.7985 </r>
       <r>     0.9158    38.6019   171.8994 </r>
       <r>     0.9702    35.1829   173.8141 </r>
       <r>     1.0246    54.8633   176.7999 </r>
       <r>     1.0790    40.6417   179.0118 </r>
       <r>     1.1334    41.6891   181.2806 </r>
       <r>     1.1879    48.7088   183.9314 </r>
       <r>     1.2423    34.7842   185.8245 </r>
       <r>     1.2967    39.0639   187.9504 </r>
       <r>     1.3511    51.5043   190.7534 </r>
       <r>     1.4056    41.5804   193.0164 </r>
       <r>     1.4600    65.7125   196.5926 </r>
       <r>     1.5144    43.7561   198.9739 </r>
       <r>     1.5688    49.9327   201.6914 </r>
       <r>     1.6232    45.9471   204.1919 </r>
       <r>     1.6777    54.1471   207.1387 </r>
       <r>     1.7321    49.2864   209.8210 </r>
       <r>     1.7865    58.0437   212.9799 </r>
       <r>     1.8409    50.4588   215.7260 </r>
       <r>     1.8954    61.1809   219.0556 </r>
       <r>     1.9498    49.7934   221.7655 </r>
       <r>     2.0042    47.4036   224.3453 </r>
       <r>     2.0586    61.1236   227.6718 </r>
       <r>     2.1130    51.3830   230.4682 </r>
       <r>     2.1675    41.6525   232.7351 </r>
       <r>     2.2219    50.4813   235.4824 </r>
       <r>     2.2763    58.0035   238.6391 </r>
       <r>     2.3307    38.1656   240.7161 </r>
       <r>     2.3852    47.2588   243.2881 </r>
       <r>     2.4396    53.7938   246.2157 </r>
       <r>     2.4940    54.1752   249.1640 </r>
       <r>     2.5484    57.5946   252.2985 </r>
       <r>     2.6028    39.0292   254.4225 </r>
       <r>     2.6573    46.6529   256.9615 </r>
       <r>     2.7117    46.4748   259.4908 </r>
       <r>     2.7661    40.5598   261.6981 </r>
       <r>     2.8205    42.6437   264.0189 </r>
       <r>     2.8750    45.2925   266.4838 </r>
       <r>     2.9294    29.4290   268.0854 </r>
       <r>     2.9838    42.3598   270.3908 </r>
       <r>     3.0382    35.7183   272.3346 </r>
       <r>     3.0926    38.8938   274.4513 </r>
       <r>     3.1471    54.6374   277.4249 </r>
       <r>     3.2015    31.7309   279.1517 </r>
       <r>     3.2559    28.2261   280.6879 </r>
       <r>     3.3103    19.0626   281.7253 </r>
       <r>     3.3648    36.0529   283.6874 </r>
       <r>     3.4192    30.4197   285.3429 </r>
       <r>     3.4736    28.0808   286.8712 </r>
       <r>     3.5280    33.5941   288.6994 </r>
       <r>     3.5824    21.0590   289.8455 </r>
       <r>     3.6369    31.9572   291.5847 </r>
       <r>     3.6913    17.5831   292.5416 </r>
       <r>     3.7457    28.9259   294.1158 </r>
       <r>     3.8001    37.6030   296.1623 </r>
       <r>     3.8546    21.9743   297.3582 </r>
       <r>     3.9090    40.3679   299.5551 </r>
       <r>     3.9634    20.3528   300.6628 </r>
       <r>     4.0178    40.9265   302.8901 </r>
       <r>     4.0723    11.3865   303.5098 </r>
       <r>     4.1267    15.8963   304.3749 </r>
       <r>     4.1811    30.7245   306.0470 </r>
       <r>     4.2355    26.6123   307.4953 </r>
       <r>     4.2899    38.2898   309.5791 </r>
       <r>     4.3444    13.3974   310.3082 </r>
       <r>     4.3988     8.2001   310.7545 </r>
       <r>     4.4532    11.9099   311.4027 </r>
       <r>     4.5076    15.3857   312.2400 </r>
       <r>     4.5621    26.4331   313.6786 </r>
       <r>     4.6165    19.9964   314.7668 </r>
       <r>     4.6709    15.1030   315.5888 </r>
       <r>     4.7253     7.5563   316.0000 </r>
       <r>     4.7797     3.5866   316.1952 </r>
       <r>     4.8342    16.7303   317.1057 </r>
       <r>     4.8886     2.8727   317.2620 </r>
       <r>     4.9430    14.9005   318.0730 </r>
       <r>     4.9974    26.0799   319.4923 </r>
       <r>     5.0519    18.5340   320.5010 </r>
       <r>     5.1063    13.3430   321.2271 </r>
       <r>     5.1607    27.1051   322.7022 </r>
       <r>     5.2151    29.8955   324.3292 </r>
       <r>     5.2695    12.6328   325.0168 </r>
       <r>     5.3240    20.2116   326.1167 </r>
       <r>     5.3784     8.2147   326.5638 </r>
       <r>     5.4328    23.2792   327.8307 </r>
       <r>     5.4872    11.4922   328.4561 </r>
       <r>     5.5417    39.4816   330.6048 </r>
       <r>     5.5961    28.7008   332.1668 </r>
       <r>     5.6505    13.3466   332.8932 </r>
       <r>     5.7049    41.0668   335.1281 </r>
       <r>     5.7593    21.8015   336.3146 </r>
       <r>     5.8138    39.0037   338.4373 </r>
       <r>     5.8682    21.7262   339.6197 </r>
       <r>     5.9226    31.6022   341.3396 </r>
       <r>     5.9770    22.7992   342.5804 </r>
       <r>     6.0315    30.8363   344.2586 </r>
       <r>     6.0859    30.8939   345.9399 </r>
       <r>     6.1403    44.7649   348.3761 </r>
       <r>     6.1947    22.6823   349.6105 </r>
       <r>     6.2491    32.4695   351.3776 </r>
       <r>     6.3036    54.6112   354.3497 </r>
       <r>     6.3580    27.8310   355.8643 </r>
       <r>     6.4124    59.7119   359.1140 </r>
       <r>     6.4668    53.7328   362.0382 </r>
       <r>     6.5213    37.6776   364.0888 </r>
       <r>     6.5757    26.3329   365.5219 </r>
       <r>     6.6301    35.9840   367.4802 </r>
       <r>     6.6845    35.2337   369.3977 </r>
       <r>     6.7389    32.2743   371.1542 </r>
       <r>     6.7934    30.6237   372.8208 </r>
       <r>     6.8478    24.5262   374.1556 </r>
       <r>     6.9022    17.4507   375.1053 </r>
       <r>     6.9566    11.9044   375.7532 </r>
       <r>     7.0111     4.5355   376.0000 </r>
       <r>     7.0655     0.0000   376.0000 </r>
       <r>     7.1199     0.0000   376.0000 </r>
       <r>     7.1743     0.0000   376.0000 </r>
       <r>     7.2287     0.0000   376.0000 </r>
       <r>     7.2832     0.0000   376.0000 </r>
       <r>     7.3376     0.0000   376.0000 </r>
       <r>     7.3920     0.0000   376.0000 </r>
       <r>     7.4464     0.0000   376.0000 </r>
       <r>     7.5009     0.0000   376.0000 </r>
       <r>     7.5553     0.0000   376.0000 </r>
       <r>     7.6097     0.0000   376.0000 </r>
       <r>     7.6641     0.0000   376.0000 </r>
       <r>     7.7185     0.0000   376.0000 </r>
      </set>
     </set>
    </array>
   </total>
  </dos>
 </calculation>
 <structure name="finalpos" >
  <crystal>
   <varray name="basis" >
    <v>      12.25365252       0.00000000       0.00000000 </v>
    <v>      -9.80292201       7.35219151       0.00000000 </v>
    <v>       0.00000000       0.00000000      19.65833333 </v>
   </varray>
   <i name="volume">   1771.04284001 </i>
   <varray name="rec_basis" >
    <v>       0.08160832       0.10881109       0.00000000 </v>
    <v>       0.00000000       0.13601387       0.00000000 </v>
    <v>       0.00000000       0.00000000       0.05086901 </v>
   </varray>
  </crystal>
  <varray name="positions" >
   <v>       0.50000000       0.75000000       0.06969055 </v>
   <v>       0.83333333       0.91666667       0.20907164 </v>
   <v>       0.16666667       0.08333333       0.34845273 </v>
   <v>       0.50000000       0.25000000       0.48783383 </v>
   <v>       0.83333333       0.41666667       0.62721492 </v>
   <v>       0.16666667       0.08333333       0.06969055 </v>
   <v>       0.50000000       0.25000000       0.20907164 </v>
   <v>       0.83333333       0.41666667       0.34845273 </v>
   <v>       0.16666667       0.58333333       0.48783383 </v>
   <v>       0.50000000       0.75000000       0.62721492 </v>
   <v>       0.83333333       0.41666667       0.06969055 </v>
   <v>       0.16666667       0.58333333       0.20907164 </v>
   <v>       0.50000000       0.75000000       0.34845273 </v>
   <v>       0.83333333       0.91666667       0.48783383 </v>
   <v>       0.16666667       0.08333333       0.62721492 </v>
   <v>       0.33333333       0.91666667       0.06969055 </v>
   <v>       0.66666667       0.08333333       0.20907164 </v>
   <v>       0.00000000       0.25000000       0.34845273 </v>
   <v>       0.33333333       0.41666667       0.48783383 </v>
   <v>       0.66666667       0.58333333       0.62721492 </v>
   <v>       0.66666667       0.58333333       0.06969055 </v>
   <v>       0.00000000       0.75000000       0.20907164 </v>
   <v>       0.33333333       0.91666667       0.34845273 </v>
   <v>       0.66666667       0.08333333       0.48783383 </v>
   <v>       0.00000000       0.25000000       0.62721492 </v>
   <v>       0.00000000       0.25000000       0.06969055 </v>
   <v>       0.33333333       0.41666667       0.20907164 </v>
   <v>       0.66666667       0.58333333       0.34845273 </v>
   <v>       0.00000000       0.75000000       0.48783383 </v>
   <v>       0.33333333       0.91666667       0.62721492 </v>
   <v>       0.91666667       0.83333333       0.00000000 </v>
   <v>       0.25000000       0.00000000       0.13938109 </v>
   <v>       0.58333333       0.16666667       0.27876219 </v>
   <v>       0.91666667       0.33333333       0.41814328 </v>
   <v>       0.25000000       0.50000000       0.55752437 </v>
   <v>       0.58333333       0.66666667       0.69690547 </v>
   <v>       0.25000000       0.50000000       0.00000000 </v>
   <v>       0.58333333       0.66666667       0.13938109 </v>
   <v>       0.91666667       0.83333333       0.27876219 </v>
   <v>       0.25000000       0.00000000       0.41814328 </v>
   <v>       0.58333333       0.16666667       0.55752437 </v>
   <v>       0.91666667       0.33333333       0.69690547 </v>
   <v>       0.58333333       0.16666667       0.00000000 </v>
   <v>       0.91666667       0.33333333       0.13938109 </v>
   <v>       0.25000000       0.50000000       0.27876219 </v>
   <v>       0.58333333       0.66666667       0.41814328 </v>
   <v>       0.91666667       0.83333333       0.55752437 </v>
   <v>       0.25000000       0.00000000       0.69690547 </v>
   <v>       0.08333333       0.66666667       0.00000000 </v>
   <v>       0.41666667       0.83333333       0.13938109 </v>
   <v>       0.75000000       0.00000000       0.27876219 </v>
   <v>       0.08333333       0.16666667       0.41814328 </v>
   <v>       0.41666667       0.33333333       0.55752437 </v>
   <v>       0.75000000       0.50000000       0.69690547 </v>
   <v>       0.41666667       0.33333333       0.00000000 </v>
   <v>       0.75000000       0.50000000       0.13938109 </v>
   <v>       0.08333333       0.66666667       0.27876219 </v>
   <v>       0.41666667       0.83333333       0.41814328 </v>
   <v>       0.75000000       0.00000000       0.55752437 </v>
   <v>       0.08333333       0.16666667       0.69690547 </v>
   <v>       0.75000000       0.00000000       0.00000000 </v>
   <v>       0.08333333       0.16666667       0.13938109 </v>
   <v>       0.41666667       0.33333333       0.27876219 </v>
   <v>       0.75000000       0.50000000       0.41814328 </v>
   <v>       0.08333333       0.66666667       0.55752437 </v>
   <v>       0.41666667       0.83333333       0.69690547 </v>
   <v>       0.31147541       0.32786885       0.78846969 </v>
   <v>       0.20036430       0.93897996       0.83645612 </v>
   <v>       0.08925319       0.55009107       0.88444256 </v>
   <v>       0.81147541       0.82786885       0.78846969 </v>
   <v>       0.70036430       0.43897996       0.83645612 </v>
   <v>       0.58925319       0.05009107       0.88444256 </v>
   <v>       0.50591985       0.63342441       0.81246291 </v>
   <v>       0.39480874       0.24453552       0.86044934 </v>
   <v>       0.28369763       0.85564663       0.90843578 </v>
   <v>       0.00591985       0.13342441       0.81246291 </v>
   <v>       0.89480874       0.74453552       0.86044934 </v>
   <v>       0.78369763       0.35564663       0.90843578 </v>
  </varray>
 </structure>
</modeling>
