<?xml version="1.0" encoding="ISO-8859-1"?>
<modeling>
 <generator>
  <i name="program" type="string">vasp </i>
  <i name="version" type="string">6.4.3  </i>
  <i name="subversion" type="string">19Mar24 (build Oct 22 2024 11:23:12) complex                          parallel </i>
  <i name="platform" type="string">LinuxIFC </i>
  <i name="date" type="string">2025 04 30 </i>
  <i name="time" type="string">04:27:41 </i>
 </generator>
 <incar>
  <i type="string" name="SYSTEM">Si122 and Ge001 interface calculation</i>
  <i type="int" name="ISTART">     0</i>
  <i type="logical" name="ADDGRID"> T  </i>
  <i type="int" name="ISPIN">     2</i>
  <i name="AMIX">      0.60000000</i>
  <i type="int" name="ICHARG">     2</i>
  <i type="int" name="NELM">   100</i>
  <i name="EDIFF">      0.00000010</i>
  <i name="ENCUT">    700.00000000</i>
  <i name="ENAUG">    900.00000000</i>
  <i type="int" name="NBANDS">   188</i>
  <i name="NUPDOWN">      1.00000000</i>
  <i name="NELECT">    312.00000000</i>
  <i type="string" name="LREAL">AUTO</i>
  <i type="int" name="ISMEAR">     0</i>
  <i name="SIGMA">      0.01000000</i>
  <i type="int" name="LMAXMIX">     6</i>
  <i type="logical" name="LWAVE"> F  </i>
  <i type="logical" name="LVTOT"> F  </i>
  <i type="logical" name="LVHAR"> T  </i>
  <i type="logical" name="LASPH"> T  </i>
  <i type="logical" name="LMIXTAU"> T  </i>
 </incar>
 <primitive_cell>
  <structure name="primitive_cell" >
   <crystal>
    <varray name="basis" >
     <v>       3.87494516       0.00000000       0.00000000 </v>
     <v>       0.00000000      11.62483548       0.00000000 </v>
     <v>       0.00000000       0.00000000      18.63333333 </v>
    </varray>
    <i name="volume">    839.34968003 </i>
    <varray name="rec_basis" >
     <v>       0.25806817       0.00000000       0.00000000 </v>
     <v>       0.00000000       0.08602272       0.00000000 </v>
     <v>       0.00000000       0.00000000       0.05366726 </v>
    </varray>
   </crystal>
   <varray name="positions" >
    <v>       0.00000000       0.00000000       0.00000000 </v>
    <v>       0.50000000       0.27777778       0.04901610 </v>
    <v>       0.00000000       0.55555556       0.09803220 </v>
    <v>       0.50000000       0.88888889       0.02450805 </v>
    <v>       1.00000000       0.16666667       0.07352415 </v>
    <v>       0.50000000       0.44444444       0.12254025 </v>
    <v>       0.08024159       0.39344262       0.18157424 </v>
    <v>       0.58024159       0.22677596       0.33345259 </v>
    <v>       0.08024159       0.06010929       0.48533095 </v>
    <v>       0.58024159       0.89344262       0.63720930 </v>
    <v>       0.08024159       0.72677596       0.78908766 </v>
    <v>       0.58024159       0.56010929       0.94096601 </v>
    <v>       0.08024159       0.72677596       0.18157424 </v>
    <v>       0.58024159       0.56010929       0.33345259 </v>
    <v>       0.08024159       0.39344262       0.48533095 </v>
    <v>       0.58024159       0.22677596       0.63720930 </v>
    <v>       0.08024159       0.06010929       0.78908766 </v>
    <v>       0.58024159       0.89344262       0.94096601 </v>
    <v>       0.08024159       0.06010929       0.18157424 </v>
    <v>       0.58024159       0.89344262       0.33345259 </v>
    <v>       0.08024159       0.72677596       0.48533095 </v>
    <v>       0.58024159       0.56010929       0.63720930 </v>
    <v>       0.08024159       0.39344262       0.78908766 </v>
    <v>       0.58024159       0.22677596       0.94096601 </v>
    <v>       0.08024159       0.56010929       0.25751342 </v>
    <v>       0.58024159       0.39344262       0.40939177 </v>
    <v>       0.08024159       0.22677596       0.56127013 </v>
    <v>       0.58024159       0.06010929       0.71314848 </v>
    <v>       0.08024159       0.89344262       0.86502683 </v>
    <v>       0.08024159       0.89344262       0.25751342 </v>
    <v>       0.58024159       0.72677596       0.40939177 </v>
    <v>       0.08024159       0.56010929       0.56127013 </v>
    <v>       0.58024159       0.39344262       0.71314848 </v>
    <v>       0.08024159       0.22677596       0.86502683 </v>
    <v>       0.08024159       0.22677596       0.25751342 </v>
    <v>       0.58024159       0.06010929       0.40939177 </v>
    <v>       0.08024159       0.89344262       0.56127013 </v>
    <v>       0.58024159       0.72677596       0.71314848 </v>
    <v>       0.08024159       0.56010929       0.86502683 </v>
   </varray>
  </structure>
  <varray name="primitive_index" >
   <v type="int" >        1 </v>
   <v type="int" >        5 </v>
   <v type="int" >        3 </v>
   <v type="int" >       10 </v>
   <v type="int" >        8 </v>
   <v type="int" >       12 </v>
   <v type="int" >       13 </v>
   <v type="int" >       32 </v>
   <v type="int" >       33 </v>
   <v type="int" >       34 </v>
   <v type="int" >       17 </v>
   <v type="int" >       18 </v>
   <v type="int" >       19 </v>
   <v type="int" >       20 </v>
   <v type="int" >       21 </v>
   <v type="int" >       40 </v>
   <v type="int" >       41 </v>
   <v type="int" >       42 </v>
   <v type="int" >       43 </v>
   <v type="int" >       44 </v>
   <v type="int" >       27 </v>
   <v type="int" >       28 </v>
   <v type="int" >       29 </v>
   <v type="int" >       48 </v>
   <v type="int" >       64 </v>
   <v type="int" >       65 </v>
   <v type="int" >       66 </v>
   <v type="int" >       52 </v>
   <v type="int" >       53 </v>
   <v type="int" >       54 </v>
   <v type="int" >       55 </v>
   <v type="int" >       71 </v>
   <v type="int" >       72 </v>
   <v type="int" >       73 </v>
   <v type="int" >       74 </v>
   <v type="int" >       60 </v>
   <v type="int" >       61 </v>
   <v type="int" >       62 </v>
   <v type="int" >       78 </v>
  </varray>
 </primitive_cell>
 <kpoints>
  <generation param="Gamma">
   <v type="int" name="divisions">       4        3        2 </v>
   <v name="usershift">      0.00000000       0.00000000       0.00000000 </v>
   <v name="genvec1">      0.25000000       0.00000000       0.00000000 </v>
   <v name="genvec2">      0.00000000       0.33333333       0.00000000 </v>
   <v name="genvec3">      0.00000000       0.00000000       0.50000000 </v>
   <v name="shift">      0.00000000       0.00000000       0.00000000 </v>
  </generation>
  <varray name="kpointlist" >
   <v>       0.00000000       0.00000000       0.00000000 </v>
   <v>       0.25000000       0.00000000       0.00000000 </v>
   <v>       0.50000000       0.00000000       0.00000000 </v>
   <v>       0.00000000       0.33333333       0.00000000 </v>
   <v>       0.25000000       0.33333333       0.00000000 </v>
   <v>       0.50000000       0.33333333       0.00000000 </v>
   <v>      -0.25000000       0.33333333       0.00000000 </v>
   <v>       0.00000000       0.00000000       0.50000000 </v>
   <v>       0.25000000       0.00000000       0.50000000 </v>
   <v>       0.50000000       0.00000000       0.50000000 </v>
   <v>       0.00000000       0.33333333       0.50000000 </v>
   <v>       0.25000000       0.33333333       0.50000000 </v>
   <v>       0.50000000       0.33333333       0.50000000 </v>
   <v>      -0.25000000       0.33333333       0.50000000 </v>
  </varray>
  <varray name="weights" >
   <v>       0.04166667 </v>
   <v>       0.08333333 </v>
   <v>       0.04166667 </v>
   <v>       0.08333333 </v>
   <v>       0.08333333 </v>
   <v>       0.08333333 </v>
   <v>       0.08333333 </v>
   <v>       0.04166667 </v>
   <v>       0.08333333 </v>
   <v>       0.04166667 </v>
   <v>       0.08333333 </v>
   <v>       0.08333333 </v>
   <v>       0.08333333 </v>
   <v>       0.08333333 </v>
  </varray>
 </kpoints>
 <parameters>
  <separator name="general" >
   <i type="string" name="SYSTEM">Si122 and Ge001 interface calculation</i>
   <i type="logical" name="LCOMPAT"> F  </i>
  </separator>
  <separator name="electronic" >
   <i type="string" name="PREC">normal</i>
   <i name="ENMAX">    700.00000000</i>
   <i name="ENAUG">    900.00000000</i>
   <i name="EDIFF">      0.00000010</i>
   <i type="int" name="IALGO">    38</i>
   <i type="int" name="IWAVPR">    10</i>
   <i type="int" name="NBANDS">   188</i>
   <i type="int" name="NBANDSLOW">    -1</i>
   <i type="int" name="NBANDSHIGH">    -1</i>
   <i name="NELECT">    312.00000000</i>
   <i type="int" name="TURBO">     0</i>
   <i type="int" name="IRESTART">     0</i>
   <i type="int" name="NREBOOT">     0</i>
   <i type="int" name="NMIN">     0</i>
   <i name="EREF">      0.00000000</i>
   <separator name="electronic smearing" >
    <i type="int" name="ISMEAR">     0</i>
    <i name="SIGMA">      0.01000000</i>
    <i name="KSPACING">      0.50000000</i>
    <i type="logical" name="KGAMMA"> T  </i>
    <i type="logical" name="KBLOWUP"> F  </i>
   </separator>
   <separator name="electronic projectors" >
    <i type="logical" name="LREAL"> T  </i>
    <v name="ROPT">     -0.00050000     -0.00050000</v>
    <i type="int" name="LMAXPAW">  -100</i>
    <i type="int" name="LMAXMIX">     6</i>
    <i type="logical" name="NLSPLINE"> F  </i>
   </separator>
   <separator name="electronic startup" >
    <i type="int" name="ISTART">     0</i>
    <i type="int" name="ICHARG">     2</i>
    <i type="int" name="INIWAV">     1</i>
   </separator>
   <separator name="electronic spin" >
    <i type="int" name="ISPIN">     2</i>
    <i type="logical" name="LNONCOLLINEAR"> F  </i>
    <v name="MAGMOM">      0.01282051      0.01282051      0.01282051      0.01282051      0.01282051      0.01282051      0.01282051      0.01282051      0.01282051      0.01282051      0.01282051      0.01282051      0.01282051      0.01282051      0.01282051      0.01282051      0.01282051      0.01282051      0.01282051      0.01282051
      0.01282051      0.01282051      0.01282051      0.01282051      0.01282051      0.01282051      0.01282051      0.01282051      0.01282051      0.01282051      0.01282051      0.01282051      0.01282051      0.01282051      0.01282051      0.01282051      0.01282051      0.01282051      0.01282051      0.01282051
      0.01282051      0.01282051      0.01282051      0.01282051      0.01282051      0.01282051      0.01282051      0.01282051      0.01282051      0.01282051      0.01282051      0.01282051      0.01282051      0.01282051      0.01282051      0.01282051      0.01282051      0.01282051      0.01282051      0.01282051
      0.01282051      0.01282051      0.01282051      0.01282051      0.01282051      0.01282051      0.01282051      0.01282051      0.01282051      0.01282051      0.01282051      0.01282051      0.01282051      0.01282051      0.01282051      0.01282051      0.01282051      0.01282051</v>
    <i name="NUPDOWN">      1.00000000</i>
    <i type="logical" name="LSORBIT"> F  </i>
    <v name="SAXIS">      0.00000000      0.00000000      1.00000000</v>
    <i type="logical" name="LSPIRAL"> F  </i>
    <v name="QSPIRAL">      0.00000000      0.00000000      0.00000000</v>
    <i type="logical" name="LZEROZ"> F  </i>
   </separator>
   <separator name="electronic exchange-correlation" >
    <i type="logical" name="LASPH"> T  </i>
   </separator>
   <separator name="electronic convergence" >
    <i type="int" name="NELM">   100</i>
    <i type="int" name="NELMDL">    -5</i>
    <i type="int" name="NELMIN">     2</i>
    <i name="ENINI">    700.00000000</i>
    <separator name="electronic convergence detail" >
     <i type="logical" name="LDIAG"> T  </i>
     <i type="logical" name="LSUBROT"> F  </i>
     <i name="WEIMIN">      0.00000000</i>
     <i name="EBREAK">      0.00000000</i>
     <i name="DEPER">      0.30000000</i>
     <i type="int" name="NRMM">     4</i>
     <i name="TIME">      0.40000000</i>
    </separator>
   </separator>
   <separator name="electronic mixer" >
    <i name="AMIX">      0.60000000</i>
    <i name="BMIX">      1.00000000</i>
    <i name="AMIN">      0.10000000</i>
    <i name="AMIX_MAG">      2.40000000</i>
    <i name="BMIX_MAG">      1.00000000</i>
    <separator name="electronic mixer details" >
     <i type="int" name="IMIX">     4</i>
     <i type="logical" name="MIXFIRST"> F  </i>
     <i type="int" name="MAXMIX">   -45</i>
     <i name="WC">    100.00000000</i>
     <i type="int" name="INIMIX">     1</i>
     <i type="int" name="MIXPRE">     1</i>
     <i type="int" name="MREMOVE">     5</i>
    </separator>
   </separator>
   <separator name="electronic dipolcorrection" >
    <i type="logical" name="LDIPOL"> F  </i>
    <i type="logical" name="LMONO"> F  </i>
    <i type="int" name="IDIPOL">     0</i>
    <i name="EPSILON">      1.00000000</i>
    <v name="DIPOL">   -100.00000000   -100.00000000   -100.00000000</v>
    <i name="EFIELD">      0.00000000</i>
    <i type="logical" name="LVACPOTAV"> F  </i>
   </separator>
  </separator>
  <separator name="grids" >
   <i type="int" name="NGX">    50</i>
   <i type="int" name="NGY">    80</i>
   <i type="int" name="NGZ">   126</i>
   <i type="int" name="NGXF">   100</i>
   <i type="int" name="NGYF">   160</i>
   <i type="int" name="NGZF">   252</i>
   <i type="logical" name="ADDGRID"> T  </i>
  </separator>
  <separator name="ionic" >
   <i type="int" name="NSW">     0</i>
   <i type="int" name="IBRION">    -1</i>
   <i type="int" name="MDALGO">     0</i>
   <i type="int" name="ISIF">     2</i>
   <i name="PSTRESS">      0.00000000</i>
   <i name="EDIFFG">      0.00000100</i>
   <i type="int" name="NFREE">     0</i>
   <i name="POTIM">      0.50000000</i>
   <i name="SMASS">     -3.00000000</i>
   <i name="SCALEE">      1.00000000</i>
  </separator>
  <separator name="ionic md" >
   <i name="TEBEG">      0.00010000</i>
   <i name="TEEND">      0.00010000</i>
   <i type="int" name="NBLOCK">     1</i>
   <i type="int" name="KBLOCK">     1</i>
   <i type="int" name="NPACO">   256</i>
   <i name="APACO">     10.00000000</i>
  </separator>
  <separator name="symmetry" >
   <i type="int" name="ISYM">     2</i>
   <i name="SYMPREC">      0.00001000</i>
  </separator>
  <separator name="dos" >
   <i type="int" name="LORBIT">     0</i>
   <v name="RWIGS">     -1.00000000     -1.00000000</v>
   <i type="int" name="NEDOS">   301</i>
   <i name="EMIN">     10.00000000</i>
   <i name="EMAX">    -10.00000000</i>
   <i name="EFERMI">      0.00000000</i>
  </separator>
  <separator name="writing" >
   <i type="int" name="NWRITE">     2</i>
   <i type="logical" name="LWAVE"> F  </i>
   <i type="logical" name="LDOWNSAMPLE"> F  </i>
   <i type="logical" name="LCHARG"> T  </i>
   <i type="logical" name="LPARD"> F  </i>
   <i type="logical" name="LVTOT"> F  </i>
   <i type="logical" name="LVHAR"> T  </i>
   <i type="logical" name="LELF"> F  </i>
   <i type="logical" name="LOPTICS"> F  </i>
   <v name="STM">      0.00000000      0.00000000      0.00000000      0.00000000      0.00000000      0.00000000      0.00000000</v>
  </separator>
  <separator name="performance" >
   <i type="int" name="NPAR">     1</i>
   <i type="int" name="NSIM">     4</i>
   <i type="int" name="NBLK">    -1</i>
   <i type="logical" name="LPLANE"> T  </i>
   <i type="logical" name="LSCALAPACK"> T  </i>
   <i type="logical" name="LSCAAWARE"> F  </i>
   <i type="logical" name="LSCALU"> F  </i>
   <i type="logical" name="LASYNC"> F  </i>
   <i type="logical" name="LORBITALREAL"> F  </i>
  </separator>
  <separator name="miscellaneous" >
   <i type="int" name="IDIOT">     3</i>
   <i type="int" name="PHON_NSTRUCT">    -1</i>
   <i type="logical" name="LMUSIC"> F  </i>
   <v name="POMASS">     28.08500000     72.61000000</v>
   <v name="DARWINR">      0.00000000      0.00000000</v>
   <v name="DARWINV">      1.00000000      1.00000000</v>
   <i type="logical" name="LCORR"> T  </i>
  </separator>
  <i type="logical" name="GGA_COMPAT"> T  </i>
  <i type="logical" name="LBERRY"> F  </i>
  <i type="int" name="ICORELEVEL">     0</i>
  <i type="logical" name="LDAU"> F  </i>
  <i type="int" name="I_CONSTRAINED_M">     0</i>
  <separator name="electronic exchange-correlation" >
   <i type="string" name="GGA    ">PE</i>
   <i type="string" name="XC_C">1</i>
   <i type="int" name="VOSKOWN">     0</i>
   <i type="logical" name="LHFCALC"> F  </i>
   <i type="string" name="PRECFOCK"></i>
   <i type="logical" name="LSYMGRAD"> F  </i>
   <i type="logical" name="LHFONE"> F  </i>
   <i type="logical" name="LRHFCALC"> F  </i>
   <i type="logical" name="LTHOMAS"> F  </i>
   <i type="logical" name="LMODELHF"> F  </i>
   <i type="logical" name="LFOCKACE"> F  </i>
   <i name="ENCUT4O">     -1.00000000</i>
   <i type="int" name="EXXOEP">     0</i>
   <i type="int" name="FOURORBIT">     0</i>
   <i name="AEXX">      0.00000000</i>
   <i name="HFALPHA">      0.00000000</i>
   <i name="MCALPHA">      0.00000000</i>
   <i name="ALDAX">      1.00000000</i>
   <i name="AGGAX">      1.00000000</i>
   <i name="AMGGAX">      1.00000000</i>
   <i name="ALDAC">      1.00000000</i>
   <i name="AGGAC">      1.00000000</i>
   <i name="AMGGAC">      1.00000000</i>
   <i type="int" name="NKREDX">     1</i>
   <i type="int" name="NKREDY">     1</i>
   <i type="int" name="NKREDZ">     1</i>
   <i type="logical" name="SHIFTRED"> F  </i>
   <i type="logical" name="ODDONLY"> F  </i>
   <i type="logical" name="EVENONLY"> F  </i>
   <i type="int" name="LMAXFOCK">     0</i>
   <i type="int" name="NMAXFOCKAE">     0</i>
   <i type="logical" name="LFOCKAEDFT"> F  </i>
   <i name="HFSCREEN">      0.00000000</i>
   <i name="HFSCREENC">      0.00000000</i>
   <i type="int" name="NBANDSGWLOW">     0</i>
  </separator>
  <separator name="vdW DFT" >
   <i type="logical" name="LUSE_VDW"> F  </i>
   <i type="int" name="IVDW_NL">    -1</i>
   <i type="logical" name="LSPIN_VDW"> F  </i>
   <i name="ZAB_VDW">     -0.84910000</i>
   <i name="GAMMA_VDW">      1.39626340</i>
   <i name="ALPHA_VDW">      0.00000000</i>
   <i name="PARAM1">      0.12340000</i>
   <i name="PARAM2">      1.00000000</i>
   <i name="BPARAM">      6.30000000</i>
   <i name="CPARAM">      0.00930000</i>
  </separator>
  <separator name="model GW" >
   <i type="int" name="MODEL_GW">     0</i>
   <i name="MODEL_EPS0">     12.91307200</i>
   <i name="MODEL_ALPHA">      1.00000000</i>
  </separator>
  <separator name="linear response parameters" >
   <i type="logical" name="LEPSILON"> F  </i>
   <i type="logical" name="LRPA"> F  </i>
   <i type="logical" name="LNABLA"> F  </i>
   <i type="logical" name="LVEL"> F  </i>
   <i name="CSHIFT">      0.10000000</i>
   <i name="OMEGAMAX">     -1.00000000</i>
   <i name="DEG_THRESHOLD">      0.00200000</i>
   <i name="RTIME">     -0.10000000</i>
   <i name="WPLASMAI">      0.00000000</i>
   <v name="DFIELD">      0.00000000      0.00000000      0.00000000</v>
   <v name="WPLASMA">      0.00000000      0.00000000      0.00000000      0.00000000      0.00000000      0.00000000      0.00000000      0.00000000      0.00000000</v>
  </separator>
  <separator name="orbital magnetization" >
   <i type="logical" name="NUCIND"> F  </i>
   <v name="MAGPOS">      0.00000000      0.00000000      0.00000000</v>
   <i type="logical" name="LNICSALL"> T  </i>
   <i type="logical" name="ORBITALMAG"> F  </i>
   <i type="logical" name="LMAGBLOCH"> F  </i>
   <i type="logical" name="LCHIMAG"> F  </i>
   <i type="logical" name="LGAUGE"> T  </i>
   <i type="int" name="MAGATOM">     0</i>
   <v name="MAGDIPOL">      0.00000000      0.00000000      0.00000000</v>
   <v name="AVECCONST">      0.00000000      0.00000000      0.00000000</v>
  </separator>
  <separator name="response functions" >
   <i type="logical" name="LALL_IN_ONE"> F  </i>
   <i type="int" name="IALL_IN_ONE">    -1</i>
   <i type="int" name="NBANDS_WAVE">    -1</i>
   <i type="logical" name="LFINITE_TEMPERATURE"> F  </i>
   <i type="logical" name="LADDER"> F  </i>
   <i type="logical" name="LRPAFORCE"> F  </i>
   <i type="logical" name="LFXC"> F  </i>
   <i type="logical" name="LHARTREE"> T  </i>
   <i type="int" name="IBSE">     0</i>
   <v type="int" name="KPOINT">    -1     0     0     0</v>
   <i type="logical" name="LTCTC"> F  </i>
   <i type="logical" name="LTCTE"> F  </i>
   <i type="logical" name="LTETE"> F  </i>
   <i type="logical" name="LTRIPLET"> F  </i>
   <i type="logical" name="LFXCEPS"> F  </i>
   <i type="logical" name="LFXHEG"> F  </i>
   <i type="int" name="NATURALO">     2</i>
   <i type="logical" name="LHOLEGF"> F  </i>
   <i type="logical" name="L2ORDER"> F  </i>
   <i type="logical" name="LDMP1"> F  </i>
   <i type="logical" name="LMP2LT"> F  </i>
   <i type="logical" name="LSMP2LT"> F  </i>
   <i type="logical" name="LGWLF"> F  </i>
   <i name="ENCUTGW">     -1.60000002</i>
   <i name="ENCUTGWSOFT">     -1.60000002</i>
   <i name="ENCUTLF">     -1.00000000</i>
   <i type="logical" name="ESF_SPLINES"> F  </i>
   <i name="ESF_CONV">      0.01000000</i>
   <i type="int" name="ESF_NINTER">    15</i>
   <i type="int" name="LMAXMP2">    -1</i>
   <i name="SCISSOR">      0.00000000</i>
   <i type="int" name="NOMEGA">     0</i>
   <i type="int" name="NOMEGAR">     0</i>
   <i type="int" name="NBANDSGW">    -1</i>
   <i type="int" name="NBANDSO">    -1</i>
   <i type="int" name="NBANDSV">    -1</i>
   <i type="int" name="NELMGW">     1</i>
   <i type="int" name="NELMHF">     1</i>
   <i type="int" name="DIM">     3</i>
   <i type="int" name="IESPILON">     4</i>
   <i type="int" name="ANTIRES">     0</i>
   <i name="OMEGAMAX">    -30.00000000</i>
   <i name="OMEGAMIN">    -30.00000000</i>
   <i name="OMEGATL">   -200.00000000</i>
   <i type="int" name="OMEGAGRID">     0</i>
   <i name="CSHIFT">     -0.10000000</i>
   <i type="logical" name="LSELFENERGY"> F  </i>
   <i type="logical" name="LSPECTRAL"> F  </i>
   <i type="logical" name="LSPECTRALGW"> F  </i>
   <i type="logical" name="LSINGLES"> F  </i>
   <i type="logical" name="LFERMIGW"> F  </i>
   <i type="logical" name="ODDONLYGW"> F  </i>
   <i type="logical" name="EVENONLYGW"> F  </i>
   <i type="int" name="NKREDLFX">     1</i>
   <i type="int" name="NKREDLFY">     1</i>
   <i type="int" name="NKREDLFZ">     1</i>
   <i type="int" name="MAXMEM">  2800</i>
   <i type="int" name="TELESCOPE">     0</i>
   <i type="int" name="NTAUPAR">    -1</i>
   <i type="int" name="NOMEGAPAR">    -1</i>
   <i name="DAMP_NEWTON">      0.80000001</i>
   <i name="LAMBDA">      1.00000000</i>
  </separator>
  <separator name="External order field" >
   <i name="OFIELD_KAPPA">      0.00000000</i>
   <v name="OFIELD_K">      0.00000000      0.00000000      0.00000000</v>
   <i name="OFIELD_Q6_NEAR">      0.00000000</i>
   <i name="OFIELD_Q6_FAR">      0.00000000</i>
   <i name="OFIELD_A">      0.00000000</i>
  </separator>
  <separator name="optional k-points parameters" >
   <i type="int" name="KPOINTS_OPT_MODE">     1</i>
   <i type="logical" name="LKPOINTS_OPT"> F  </i>
  </separator>
 </parameters>
 <atominfo>
  <atoms>      78 </atoms>
  <types>       2 </types>
  <array name="atoms" >
   <dimension dim="1">ion</dimension>
   <field type="string">element</field>
   <field type="int">atomtype</field>
   <set>
    <rc><c>Si</c><c>   1</c></rc>
    <rc><c>Si</c><c>   1</c></rc>
    <rc><c>Si</c><c>   1</c></rc>
    <rc><c>Si</c><c>   1</c></rc>
    <rc><c>Si</c><c>   1</c></rc>
    <rc><c>Si</c><c>   1</c></rc>
    <rc><c>Si</c><c>   1</c></rc>
    <rc><c>Si</c><c>   1</c></rc>
    <rc><c>Si</c><c>   1</c></rc>
    <rc><c>Si</c><c>   1</c></rc>
    <rc><c>Si</c><c>   1</c></rc>
    <rc><c>Si</c><c>   1</c></rc>
    <rc><c>Ge</c><c>   2</c></rc>
    <rc><c>Ge</c><c>   2</c></rc>
    <rc><c>Ge</c><c>   2</c></rc>
    <rc><c>Ge</c><c>   2</c></rc>
    <rc><c>Ge</c><c>   2</c></rc>
    <rc><c>Ge</c><c>   2</c></rc>
    <rc><c>Ge</c><c>   2</c></rc>
    <rc><c>Ge</c><c>   2</c></rc>
    <rc><c>Ge</c><c>   2</c></rc>
    <rc><c>Ge</c><c>   2</c></rc>
    <rc><c>Ge</c><c>   2</c></rc>
    <rc><c>Ge</c><c>   2</c></rc>
    <rc><c>Ge</c><c>   2</c></rc>
    <rc><c>Ge</c><c>   2</c></rc>
    <rc><c>Ge</c><c>   2</c></rc>
    <rc><c>Ge</c><c>   2</c></rc>
    <rc><c>Ge</c><c>   2</c></rc>
    <rc><c>Ge</c><c>   2</c></rc>
    <rc><c>Ge</c><c>   2</c></rc>
    <rc><c>Ge</c><c>   2</c></rc>
    <rc><c>Ge</c><c>   2</c></rc>
    <rc><c>Ge</c><c>   2</c></rc>
    <rc><c>Ge</c><c>   2</c></rc>
    <rc><c>Ge</c><c>   2</c></rc>
    <rc><c>Ge</c><c>   2</c></rc>
    <rc><c>Ge</c><c>   2</c></rc>
    <rc><c>Ge</c><c>   2</c></rc>
    <rc><c>Ge</c><c>   2</c></rc>
    <rc><c>Ge</c><c>   2</c></rc>
    <rc><c>Ge</c><c>   2</c></rc>
    <rc><c>Ge</c><c>   2</c></rc>
    <rc><c>Ge</c><c>   2</c></rc>
    <rc><c>Ge</c><c>   2</c></rc>
    <rc><c>Ge</c><c>   2</c></rc>
    <rc><c>Ge</c><c>   2</c></rc>
    <rc><c>Ge</c><c>   2</c></rc>
    <rc><c>Ge</c><c>   2</c></rc>
    <rc><c>Ge</c><c>   2</c></rc>
    <rc><c>Ge</c><c>   2</c></rc>
    <rc><c>Ge</c><c>   2</c></rc>
    <rc><c>Ge</c><c>   2</c></rc>
    <rc><c>Ge</c><c>   2</c></rc>
    <rc><c>Ge</c><c>   2</c></rc>
    <rc><c>Ge</c><c>   2</c></rc>
    <rc><c>Ge</c><c>   2</c></rc>
    <rc><c>Ge</c><c>   2</c></rc>
    <rc><c>Ge</c><c>   2</c></rc>
    <rc><c>Ge</c><c>   2</c></rc>
    <rc><c>Ge</c><c>   2</c></rc>
    <rc><c>Ge</c><c>   2</c></rc>
    <rc><c>Ge</c><c>   2</c></rc>
    <rc><c>Ge</c><c>   2</c></rc>
    <rc><c>Ge</c><c>   2</c></rc>
    <rc><c>Ge</c><c>   2</c></rc>
    <rc><c>Ge</c><c>   2</c></rc>
    <rc><c>Ge</c><c>   2</c></rc>
    <rc><c>Ge</c><c>   2</c></rc>
    <rc><c>Ge</c><c>   2</c></rc>
    <rc><c>Ge</c><c>   2</c></rc>
    <rc><c>Ge</c><c>   2</c></rc>
    <rc><c>Ge</c><c>   2</c></rc>
    <rc><c>Ge</c><c>   2</c></rc>
    <rc><c>Ge</c><c>   2</c></rc>
    <rc><c>Ge</c><c>   2</c></rc>
    <rc><c>Ge</c><c>   2</c></rc>
    <rc><c>Ge</c><c>   2</c></rc>
   </set>
  </array>
  <array name="atomtypes" >
   <dimension dim="1">type</dimension>
   <field type="int">atomspertype</field>
   <field type="string">element</field>
   <field>mass</field>
   <field>valence</field>
   <field type="string">pseudopotential</field>
   <set>
    <rc><c>  12</c><c>Si</c><c>     28.08500000</c><c>      4.00000000</c><c>  PAW_PBE Si 05Jan2001                  </c></rc>
    <rc><c>  66</c><c>Ge</c><c>     72.61000000</c><c>      4.00000000</c><c>  PAW_PBE Ge 05Jan2001                  </c></rc>
   </set>
  </array>
 </atominfo>
 <structure name="initialpos" >
  <crystal>
   <varray name="basis" >
    <v>       7.74989032       0.00000000       0.00000000 </v>
    <v>      -3.87494516      11.62483548       0.00000000 </v>
    <v>       0.00000000       0.00000000      18.63333333 </v>
   </varray>
   <i name="volume">   1678.69936005 </i>
   <varray name="rec_basis" >
    <v>       0.12903408       0.04301136       0.00000000 </v>
    <v>       0.00000000       0.08602272       0.00000000 </v>
    <v>       0.00000000       0.00000000       0.05366726 </v>
   </varray>
  </crystal>
  <varray name="positions" >
   <v>       0.00000000       0.00000000       0.00000000 </v>
   <v>       0.38888889       0.27777778       0.04901610 </v>
   <v>       0.77777778       0.55555556       0.09803220 </v>
   <v>       0.50000000       0.00000000       0.00000000 </v>
   <v>       0.88888889       0.27777778       0.04901610 </v>
   <v>       0.27777778       0.55555556       0.09803220 </v>
   <v>       0.69444444       0.88888889       0.02450805 </v>
   <v>       0.08333333       0.16666667       0.07352415 </v>
   <v>       0.47222222       0.44444444       0.12254025 </v>
   <v>       0.19444444       0.88888889       0.02450805 </v>
   <v>       0.58333333       0.16666667       0.07352415 </v>
   <v>       0.97222222       0.44444444       0.12254025 </v>
   <v>       0.23684211       0.39344262       0.18157424 </v>
   <v>       0.40350877       0.22677596       0.33345259 </v>
   <v>       0.57017544       0.06010929       0.48533095 </v>
   <v>       0.73684211       0.89344262       0.63720930 </v>
   <v>       0.90350877       0.72677596       0.78908766 </v>
   <v>       0.07017544       0.56010929       0.94096601 </v>
   <v>       0.90350877       0.72677596       0.18157424 </v>
   <v>       0.07017544       0.56010929       0.33345259 </v>
   <v>       0.23684211       0.39344262       0.48533095 </v>
   <v>       0.40350877       0.22677596       0.63720930 </v>
   <v>       0.57017544       0.06010929       0.78908766 </v>
   <v>       0.73684211       0.89344262       0.94096601 </v>
   <v>       0.57017544       0.06010929       0.18157424 </v>
   <v>       0.73684211       0.89344262       0.33345259 </v>
   <v>       0.90350877       0.72677596       0.48533095 </v>
   <v>       0.07017544       0.56010929       0.63720930 </v>
   <v>       0.23684211       0.39344262       0.78908766 </v>
   <v>       0.40350877       0.22677596       0.94096601 </v>
   <v>       0.73684211       0.39344262       0.18157424 </v>
   <v>       0.90350877       0.22677596       0.33345259 </v>
   <v>       0.07017544       0.06010929       0.48533095 </v>
   <v>       0.23684211       0.89344262       0.63720930 </v>
   <v>       0.40350877       0.72677596       0.78908766 </v>
   <v>       0.57017544       0.56010929       0.94096601 </v>
   <v>       0.40350877       0.72677596       0.18157424 </v>
   <v>       0.57017544       0.56010929       0.33345259 </v>
   <v>       0.73684211       0.39344262       0.48533095 </v>
   <v>       0.90350877       0.22677596       0.63720930 </v>
   <v>       0.07017544       0.06010929       0.78908766 </v>
   <v>       0.23684211       0.89344262       0.94096601 </v>
   <v>       0.07017544       0.06010929       0.18157424 </v>
   <v>       0.23684211       0.89344262       0.33345259 </v>
   <v>       0.40350877       0.72677596       0.48533095 </v>
   <v>       0.57017544       0.56010929       0.63720930 </v>
   <v>       0.73684211       0.39344262       0.78908766 </v>
   <v>       0.90350877       0.22677596       0.94096601 </v>
   <v>       0.32017544       0.56010929       0.25751342 </v>
   <v>       0.48684211       0.39344262       0.40939177 </v>
   <v>       0.65350877       0.22677596       0.56127013 </v>
   <v>       0.82017544       0.06010929       0.71314848 </v>
   <v>       0.98684211       0.89344262       0.86502683 </v>
   <v>       0.98684211       0.89344262       0.25751342 </v>
   <v>       0.15350877       0.72677596       0.40939177 </v>
   <v>       0.32017544       0.56010929       0.56127013 </v>
   <v>       0.48684211       0.39344262       0.71314848 </v>
   <v>       0.65350877       0.22677596       0.86502683 </v>
   <v>       0.65350877       0.22677596       0.25751342 </v>
   <v>       0.82017544       0.06010929       0.40939177 </v>
   <v>       0.98684211       0.89344262       0.56127013 </v>
   <v>       0.15350877       0.72677596       0.71314848 </v>
   <v>       0.32017544       0.56010929       0.86502683 </v>
   <v>       0.82017544       0.56010929       0.25751342 </v>
   <v>       0.98684211       0.39344262       0.40939177 </v>
   <v>       0.15350877       0.22677596       0.56127013 </v>
   <v>       0.32017544       0.06010929       0.71314848 </v>
   <v>       0.48684211       0.89344262       0.86502683 </v>
   <v>       0.48684211       0.89344262       0.25751342 </v>
   <v>       0.65350877       0.72677596       0.40939177 </v>
   <v>       0.82017544       0.56010929       0.56127013 </v>
   <v>       0.98684211       0.39344262       0.71314848 </v>
   <v>       0.15350877       0.22677596       0.86502683 </v>
   <v>       0.15350877       0.22677596       0.25751342 </v>
   <v>       0.32017544       0.06010929       0.40939177 </v>
   <v>       0.48684211       0.89344262       0.56127013 </v>
   <v>       0.65350877       0.72677596       0.71314848 </v>
   <v>       0.82017544       0.56010929       0.86502683 </v>
  </varray>
 </structure>
 <calculation>
  <scstep>
   <time name="dav">   55.55   56.01</time>
   <time name="total">   59.09   59.57</time>
   <energy>
    <i name="alphaZ">    604.90751195 </i>
    <i name="ewald">  -8379.62950545 </i>
    <i name="hartreedc">   -710.43559036 </i>
    <i name="XCdc">   -601.11884816 </i>
    <i name="pawpsdc">   6875.06741709 </i>
    <i name="pawaedc">  -5707.76819619 </i>
    <i name="eentropy">     -0.00115179 </i>
    <i name="bandstr">   1294.76717219 </i>
    <i name="atom">   8166.52953475 </i>
    <i name="e_fr_energy">   1542.31834404 </i>
    <i name="e_wo_entrp">   1542.31949582 </i>
    <i name="e_0_energy">   1542.31891993 </i>
   </energy>
  </scstep>
  <scstep>
   <time name="dav">   62.43   62.94</time>
   <time name="total">   62.43   62.94</time>
   <energy>
    <i name="e_fr_energy">   -151.28406755 </i>
    <i name="e_wo_entrp">   -151.28326025 </i>
    <i name="e_0_energy">   -151.28366390 </i>
   </energy>
  </scstep>
  <scstep>
   <time name="dav">   64.95   65.51</time>
   <time name="total">   64.96   65.52</time>
   <energy>
    <i name="e_fr_energy">   -319.23467671 </i>
    <i name="e_wo_entrp">   -319.23352246 </i>
    <i name="e_0_energy">   -319.23409959 </i>
   </energy>
  </scstep>
  <scstep>
   <time name="dav">   63.15   63.67</time>
   <time name="total">   63.15   63.68</time>
   <energy>
    <i name="e_fr_energy">   -325.22558421 </i>
    <i name="e_wo_entrp">   -325.22438568 </i>
    <i name="e_0_energy">   -325.22498494 </i>
   </energy>
  </scstep>
  <scstep>
   <time name="dav">   69.21   69.84</time>
   <time name="total">   72.50   73.15</time>
   <energy>
    <i name="e_fr_energy">   -325.45854260 </i>
    <i name="e_wo_entrp">   -325.45734098 </i>
    <i name="e_0_energy">   -325.45794179 </i>
   </energy>
  </scstep>
  <scstep>
   <time name="dav">   63.26   63.77</time>
   <time name="total">   70.08   70.63</time>
   <energy>
    <i name="e_fr_energy">   -318.32003568 </i>
    <i name="e_wo_entrp">   -318.31912578 </i>
    <i name="e_0_energy">   -318.31958073 </i>
   </energy>
  </scstep>
  <scstep>
   <time name="dav">   62.87   63.38</time>
   <time name="total">   69.69   70.24</time>
   <energy>
    <i name="e_fr_energy">   -318.70588800 </i>
    <i name="e_wo_entrp">   -318.70428423 </i>
    <i name="e_0_energy">   -318.70508612 </i>
   </energy>
  </scstep>
  <scstep>
   <time name="dav">   63.66   64.18</time>
   <time name="total">   70.49   71.06</time>
   <energy>
    <i name="e_fr_energy">   -317.59720300 </i>
    <i name="e_wo_entrp">   -317.59623169 </i>
    <i name="e_0_energy">   -317.59671735 </i>
   </energy>
  </scstep>
  <scstep>
   <time name="dav">   63.03   63.56</time>
   <time name="total">   69.88   70.45</time>
   <energy>
    <i name="e_fr_energy">   -317.57425439 </i>
    <i name="e_wo_entrp">   -317.57322056 </i>
    <i name="e_0_energy">   -317.57373747 </i>
   </energy>
  </scstep>
  <scstep>
   <time name="dav">   60.97   61.47</time>
   <time name="total">   67.77   68.31</time>
   <energy>
    <i name="e_fr_energy">   -317.57019120 </i>
    <i name="e_wo_entrp">   -317.56913722 </i>
    <i name="e_0_energy">   -317.56966421 </i>
   </energy>
  </scstep>
  <scstep>
   <time name="dav">   63.22   63.74</time>
   <time name="total">   70.03   70.59</time>
   <energy>
    <i name="e_fr_energy">   -317.57010692 </i>
    <i name="e_wo_entrp">   -317.56927168 </i>
    <i name="e_0_energy">   -317.56968930 </i>
   </energy>
  </scstep>
  <scstep>
   <time name="dav">   61.70   62.22</time>
   <time name="total">   68.54   69.10</time>
   <energy>
    <i name="e_fr_energy">   -317.57053720 </i>
    <i name="e_wo_entrp">   -317.56957267 </i>
    <i name="e_0_energy">   -317.57005494 </i>
   </energy>
  </scstep>
  <scstep>
   <time name="dav">   61.05   61.55</time>
   <time name="total">   67.90   68.43</time>
   <energy>
    <i name="e_fr_energy">   -317.57090952 </i>
    <i name="e_wo_entrp">   -317.56998528 </i>
    <i name="e_0_energy">   -317.57044740 </i>
   </energy>
  </scstep>
  <scstep>
   <time name="dav">   62.72   63.23</time>
   <time name="total">   69.55   70.09</time>
   <energy>
    <i name="e_fr_energy">   -317.57102760 </i>
    <i name="e_wo_entrp">   -317.57009282 </i>
    <i name="e_0_energy">   -317.57056021 </i>
   </energy>
  </scstep>
  <scstep>
   <time name="dav">   62.20   62.71</time>
   <time name="total">   69.00   69.56</time>
   <energy>
    <i name="e_fr_energy">   -317.57107629 </i>
    <i name="e_wo_entrp">   -317.57011368 </i>
    <i name="e_0_energy">   -317.57059498 </i>
   </energy>
  </scstep>
  <scstep>
   <time name="dav">   61.52   62.03</time>
   <time name="total">   68.34   68.90</time>
   <energy>
    <i name="e_fr_energy">   -317.57109258 </i>
    <i name="e_wo_entrp">   -317.57013783 </i>
    <i name="e_0_energy">   -317.57061520 </i>
   </energy>
  </scstep>
  <scstep>
   <time name="dav">   63.61   64.15</time>
   <time name="total">   70.45   71.03</time>
   <energy>
    <i name="e_fr_energy">   -317.57109798 </i>
    <i name="e_wo_entrp">   -317.57014765 </i>
    <i name="e_0_energy">   -317.57062281 </i>
   </energy>
  </scstep>
  <scstep>
   <time name="dav">   63.74   64.25</time>
   <time name="total">   70.57   71.12</time>
   <energy>
    <i name="e_fr_energy">   -317.57110208 </i>
    <i name="e_wo_entrp">   -317.57014684 </i>
    <i name="e_0_energy">   -317.57062446 </i>
   </energy>
  </scstep>
  <scstep>
   <time name="dav">   62.73   63.24</time>
   <time name="total">   69.55   70.10</time>
   <energy>
    <i name="e_fr_energy">   -317.57110544 </i>
    <i name="e_wo_entrp">   -317.57014827 </i>
    <i name="e_0_energy">   -317.57062686 </i>
   </energy>
  </scstep>
  <scstep>
   <time name="dav">   61.19   61.72</time>
   <time name="total">   68.02   68.59</time>
   <energy>
    <i name="e_fr_energy">   -317.57110607 </i>
    <i name="e_wo_entrp">   -317.57015074 </i>
    <i name="e_0_energy">   -317.57062841 </i>
   </energy>
  </scstep>
  <scstep>
   <time name="dav">   47.12   47.52</time>
   <time name="total">   53.98   54.42</time>
   <energy>
    <i name="e_fr_energy">   -317.57110619 </i>
    <i name="e_wo_entrp">   -317.57015065 </i>
    <i name="e_0_energy">   -317.57062842 </i>
   </energy>
  </scstep>
  <scstep>
   <time name="dav">   39.92   40.25</time>
   <time name="total">   43.49   43.84</time>
   <energy>
    <i name="alphaZ">    604.90751195 </i>
    <i name="ewald">  -8379.62950545 </i>
    <i name="hartreedc">   -835.47975530 </i>
    <i name="XCdc">   -579.02075427 </i>
    <i name="pawpsdc">  22178.05877487 </i>
    <i name="pawaedc"> -21025.82515671 </i>
    <i name="eentropy">     -0.00095591 </i>
    <i name="bandstr">   -447.11080006 </i>
    <i name="atom">   8166.52953475 </i>
    <i name="e_fr_energy">   -317.57110614 </i>
    <i name="e_wo_entrp">   -317.57015023 </i>
    <i name="e_0_energy">   -317.57062818 </i>
   </energy>
  </scstep>
  <structure>
   <crystal>
    <varray name="basis" >
     <v>       7.74989032       0.00000000       0.00000000 </v>
     <v>      -3.87494516      11.62483548       0.00000000 </v>
     <v>       0.00000000       0.00000000      18.63333333 </v>
    </varray>
    <i name="volume">   1678.69936005 </i>
    <varray name="rec_basis" >
     <v>       0.12903408       0.04301136       0.00000000 </v>
     <v>       0.00000000       0.08602272       0.00000000 </v>
     <v>       0.00000000       0.00000000       0.05366726 </v>
    </varray>
   </crystal>
   <varray name="positions" >
    <v>       0.00000000       0.00000000       0.00000000 </v>
    <v>       0.38888889       0.27777778       0.04901610 </v>
    <v>       0.77777778       0.55555556       0.09803220 </v>
    <v>       0.50000000       0.00000000       0.00000000 </v>
    <v>       0.88888889       0.27777778       0.04901610 </v>
    <v>       0.27777778       0.55555556       0.09803220 </v>
    <v>       0.69444444       0.88888889       0.02450805 </v>
    <v>       0.08333333       0.16666667       0.07352415 </v>
    <v>       0.47222222       0.44444444       0.12254025 </v>
    <v>       0.19444444       0.88888889       0.02450805 </v>
    <v>       0.58333333       0.16666667       0.07352415 </v>
    <v>       0.97222222       0.44444444       0.12254025 </v>
    <v>       0.23684211       0.39344262       0.18157424 </v>
    <v>       0.40350877       0.22677596       0.33345259 </v>
    <v>       0.57017544       0.06010929       0.48533095 </v>
    <v>       0.73684211       0.89344262       0.63720930 </v>
    <v>       0.90350877       0.72677596       0.78908766 </v>
    <v>       0.07017544       0.56010929       0.94096601 </v>
    <v>       0.90350877       0.72677596       0.18157424 </v>
    <v>       0.07017544       0.56010929       0.33345259 </v>
    <v>       0.23684211       0.39344262       0.48533095 </v>
    <v>       0.40350877       0.22677596       0.63720930 </v>
    <v>       0.57017544       0.06010929       0.78908766 </v>
    <v>       0.73684211       0.89344262       0.94096601 </v>
    <v>       0.57017544       0.06010929       0.18157424 </v>
    <v>       0.73684211       0.89344262       0.33345259 </v>
    <v>       0.90350877       0.72677596       0.48533095 </v>
    <v>       0.07017544       0.56010929       0.63720930 </v>
    <v>       0.23684211       0.39344262       0.78908766 </v>
    <v>       0.40350877       0.22677596       0.94096601 </v>
    <v>       0.73684211       0.39344262       0.18157424 </v>
    <v>       0.90350877       0.22677596       0.33345259 </v>
    <v>       0.07017544       0.06010929       0.48533095 </v>
    <v>       0.23684211       0.89344262       0.63720930 </v>
    <v>       0.40350877       0.72677596       0.78908766 </v>
    <v>       0.57017544       0.56010929       0.94096601 </v>
    <v>       0.40350877       0.72677596       0.18157424 </v>
    <v>       0.57017544       0.56010929       0.33345259 </v>
    <v>       0.73684211       0.39344262       0.48533095 </v>
    <v>       0.90350877       0.22677596       0.63720930 </v>
    <v>       0.07017544       0.06010929       0.78908766 </v>
    <v>       0.23684211       0.89344262       0.94096601 </v>
    <v>       0.07017544       0.06010929       0.18157424 </v>
    <v>       0.23684211       0.89344262       0.33345259 </v>
    <v>       0.40350877       0.72677596       0.48533095 </v>
    <v>       0.57017544       0.56010929       0.63720930 </v>
    <v>       0.73684211       0.39344262       0.78908766 </v>
    <v>       0.90350877       0.22677596       0.94096601 </v>
    <v>       0.32017544       0.56010929       0.25751342 </v>
    <v>       0.48684211       0.39344262       0.40939177 </v>
    <v>       0.65350877       0.22677596       0.56127013 </v>
    <v>       0.82017544       0.06010929       0.71314848 </v>
    <v>       0.98684211       0.89344262       0.86502683 </v>
    <v>       0.98684211       0.89344262       0.25751342 </v>
    <v>       0.15350877       0.72677596       0.40939177 </v>
    <v>       0.32017544       0.56010929       0.56127013 </v>
    <v>       0.48684211       0.39344262       0.71314848 </v>
    <v>       0.65350877       0.22677596       0.86502683 </v>
    <v>       0.65350877       0.22677596       0.25751342 </v>
    <v>       0.82017544       0.06010929       0.40939177 </v>
    <v>       0.98684211       0.89344262       0.56127013 </v>
    <v>       0.15350877       0.72677596       0.71314848 </v>
    <v>       0.32017544       0.56010929       0.86502683 </v>
    <v>       0.82017544       0.56010929       0.25751342 </v>
    <v>       0.98684211       0.39344262       0.40939177 </v>
    <v>       0.15350877       0.22677596       0.56127013 </v>
    <v>       0.32017544       0.06010929       0.71314848 </v>
    <v>       0.48684211       0.89344262       0.86502683 </v>
    <v>       0.48684211       0.89344262       0.25751342 </v>
    <v>       0.65350877       0.72677596       0.40939177 </v>
    <v>       0.82017544       0.56010929       0.56127013 </v>
    <v>       0.98684211       0.39344262       0.71314848 </v>
    <v>       0.15350877       0.22677596       0.86502683 </v>
    <v>       0.15350877       0.22677596       0.25751342 </v>
    <v>       0.32017544       0.06010929       0.40939177 </v>
    <v>       0.48684211       0.89344262       0.56127013 </v>
    <v>       0.65350877       0.72677596       0.71314848 </v>
    <v>       0.82017544       0.56010929       0.86502683 </v>
   </varray>
  </structure>
  <varray name="forces" >
   <v>       0.51056065       1.75438362       1.54485377 </v>
   <v>      -0.20261205       0.83590839       3.23482870 </v>
   <v>      -0.88724095       1.90928329      -1.51405606 </v>
   <v>       0.51056065       1.75438362       1.54485377 </v>
   <v>      -0.20261205       0.83590839       3.23482870 </v>
   <v>      -0.88724095       1.90928329      -1.51405606 </v>
   <v>      -6.92008392      -1.27681224      36.41841359 </v>
   <v>      -0.16360685      -0.46663589       0.04764254 </v>
   <v>       4.24673054       0.87029938      -3.40316995 </v>
   <v>      -6.92008392      -1.27681224      36.41841359 </v>
   <v>      -0.16360685      -0.46663589       0.04764254 </v>
   <v>       4.24673054       0.87029938      -3.40316995 </v>
   <v>      -3.42309180      -2.59680580       3.66634069 </v>
   <v>       0.04985216       0.27522618       0.09759133 </v>
   <v>       0.01793133      -0.03249375      -0.00167920 </v>
   <v>       0.03780571       0.00604787       0.01328076 </v>
   <v>       0.05065374      -0.06852679      -0.35978736 </v>
   <v>       0.27731161      -0.38439973       1.33280872 </v>
   <v>       0.13664930      -0.35454925      -1.40792945 </v>
   <v>       0.01799877      -0.12590672       0.13460031 </v>
   <v>       0.01022900       0.02154589      -0.02428741 </v>
   <v>       0.01000900      -0.03420639      -0.01869964 </v>
   <v>      -0.10953181       0.00618580      -0.03636384 </v>
   <v>       6.26304440      -0.17108896     -35.61909565 </v>
   <v>       0.20052896       0.33058247      -0.28856027 </v>
   <v>       0.02179033      -0.04457238       0.04351959 </v>
   <v>       0.00675323       0.01688554      -0.00237467 </v>
   <v>       0.00859192       0.00259622      -0.03751784 </v>
   <v>       0.04517384      -0.00297362      -0.20964667 </v>
   <v>       0.45656849      -0.75408745      -3.44493102 </v>
   <v>      -3.42309180      -2.59680580       3.66634069 </v>
   <v>       0.04985216       0.27522618       0.09759133 </v>
   <v>       0.01793133      -0.03249375      -0.00167920 </v>
   <v>       0.03780571       0.00604787       0.01328076 </v>
   <v>       0.05065374      -0.06852679      -0.35978736 </v>
   <v>       0.27731161      -0.38439973       1.33280872 </v>
   <v>       0.13664930      -0.35454925      -1.40792945 </v>
   <v>       0.01799877      -0.12590672       0.13460031 </v>
   <v>       0.01022900       0.02154589      -0.02428741 </v>
   <v>       0.01000900      -0.03420639      -0.01869964 </v>
   <v>      -0.10953181       0.00618580      -0.03636384 </v>
   <v>       6.26304440      -0.17108896     -35.61909565 </v>
   <v>       0.20052896       0.33058247      -0.28856027 </v>
   <v>       0.02179033      -0.04457238       0.04351959 </v>
   <v>       0.00675323       0.01688554      -0.00237467 </v>
   <v>       0.00859192       0.00259622      -0.03751784 </v>
   <v>       0.04517384      -0.00297362      -0.20964667 </v>
   <v>       0.45656849      -0.75408745      -3.44493102 </v>
   <v>      -0.10312641       0.46100219       0.85772217 </v>
   <v>      -0.01640110      -0.02869587       0.13729361 </v>
   <v>      -0.01459800       0.05564419       0.02204717 </v>
   <v>      -0.00161801      -0.00660827      -0.05024537 </v>
   <v>       0.15065456      -0.03857013      -1.28462556 </v>
   <v>      -0.25076438       0.03734573      -0.39807407 </v>
   <v>      -0.02834789      -0.09815515      -0.00533531 </v>
   <v>       0.00312282      -0.01176179       0.01350804 </v>
   <v>      -0.03798196       0.06257113      -0.03737505 </v>
   <v>      -0.00531719       0.20542461       0.33512848 </v>
   <v>      -0.10079195      -0.39882897       0.26386153 </v>
   <v>      -0.04583359       0.11121934      -0.03155535 </v>
   <v>      -0.01354602      -0.00679204      -0.00012250 </v>
   <v>      -0.04255645      -0.02383715      -0.04473259 </v>
   <v>      -0.15491005      -0.03584351       0.05672382 </v>
   <v>      -0.10312641       0.46100219       0.85772217 </v>
   <v>      -0.01640110      -0.02869587       0.13729361 </v>
   <v>      -0.01459800       0.05564419       0.02204717 </v>
   <v>      -0.00161801      -0.00660827      -0.05024537 </v>
   <v>       0.15065456      -0.03857013      -1.28462556 </v>
   <v>      -0.25076438       0.03734573      -0.39807407 </v>
   <v>      -0.02834789      -0.09815515      -0.00533531 </v>
   <v>       0.00312282      -0.01176179       0.01350804 </v>
   <v>      -0.03798196       0.06257113      -0.03737505 </v>
   <v>      -0.00531719       0.20542461       0.33512848 </v>
   <v>      -0.10079195      -0.39882897       0.26386153 </v>
   <v>      -0.04583359       0.11121934      -0.03155535 </v>
   <v>      -0.01354602      -0.00679204      -0.00012250 </v>
   <v>      -0.04255645      -0.02383715      -0.04473259 </v>
   <v>      -0.15491005      -0.03584351       0.05672382 </v>
  </varray>
  <varray name="stress" >
   <v>     102.94669063       3.25636051     -29.69951670 </v>
   <v>       3.25636212      87.22086954      -2.47480406 </v>
   <v>     -29.69953522      -2.47482504     219.46855312 </v>
  </varray>
  <energy>
   <i name="e_fr_energy">   -317.57110614 </i>
   <i name="e_wo_entrp">   -317.57015023 </i>
   <i name="e_0_energy">   -317.57062818 </i>
  </energy>
  <time name="totalsc"> 1545.96 1559.05</time>
  <eigenvalues>
   <array>
    <dimension dim="1">band</dimension>
    <dimension dim="2">kpoint</dimension>
    <dimension dim="3">spin</dimension>
    <field>eigene</field>
    <field>occ</field>
    <set>
     <set comment="spin 1">
      <set comment="kpoint 1">
       <r>   -9.8445    1.0000 </r>
       <r>   -9.1308    1.0000 </r>
       <r>   -8.7196    1.0000 </r>
       <r>   -8.4116    1.0000 </r>
       <r>   -8.3129    1.0000 </r>
       <r>   -7.9173    1.0000 </r>
       <r>   -7.8185    1.0000 </r>
       <r>   -7.7696    1.0000 </r>
       <r>   -7.7428    1.0000 </r>
       <r>   -7.5443    1.0000 </r>
       <r>   -7.4705    1.0000 </r>
       <r>   -7.3305    1.0000 </r>
       <r>   -7.0272    1.0000 </r>
       <r>   -6.9122    1.0000 </r>
       <r>   -6.7837    1.0000 </r>
       <r>   -6.6456    1.0000 </r>
       <r>   -6.6072    1.0000 </r>
       <r>   -6.5989    1.0000 </r>
       <r>   -6.5413    1.0000 </r>
       <r>   -6.5328    1.0000 </r>
       <r>   -6.5272    1.0000 </r>
       <r>   -6.4982    1.0000 </r>
       <r>   -6.4370    1.0000 </r>
       <r>   -6.4271    1.0000 </r>
       <r>   -6.3695    1.0000 </r>
       <r>   -6.2083    1.0000 </r>
       <r>   -6.1791    1.0000 </r>
       <r>   -5.7375    1.0000 </r>
       <r>   -5.5542    1.0000 </r>
       <r>   -5.5502    1.0000 </r>
       <r>   -5.3545    1.0000 </r>
       <r>   -5.3221    1.0000 </r>
       <r>   -5.0753    1.0000 </r>
       <r>   -4.9265    1.0000 </r>
       <r>   -4.8688    1.0000 </r>
       <r>   -4.7866    1.0000 </r>
       <r>   -4.7191    1.0000 </r>
       <r>   -4.7002    1.0000 </r>
       <r>   -4.6952    1.0000 </r>
       <r>   -4.6800    1.0000 </r>
       <r>   -4.6451    1.0000 </r>
       <r>   -4.6099    1.0000 </r>
       <r>   -4.5994    1.0000 </r>
       <r>   -4.5829    1.0000 </r>
       <r>   -4.0478    1.0000 </r>
       <r>   -3.9842    1.0000 </r>
       <r>   -3.9544    1.0000 </r>
       <r>   -3.6056    1.0000 </r>
       <r>   -3.5904    1.0000 </r>
       <r>   -3.5435    1.0000 </r>
       <r>   -3.4860    1.0000 </r>
       <r>   -3.3551    1.0000 </r>
       <r>   -3.2570    1.0000 </r>
       <r>   -3.2389    1.0000 </r>
       <r>   -3.0979    1.0000 </r>
       <r>   -3.0678    1.0000 </r>
       <r>   -2.9620    1.0000 </r>
       <r>   -2.8652    1.0000 </r>
       <r>   -2.7536    1.0000 </r>
       <r>   -2.7249    1.0000 </r>
       <r>   -2.7058    1.0000 </r>
       <r>   -2.5786    1.0000 </r>
       <r>   -2.5191    1.0000 </r>
       <r>   -2.4811    1.0000 </r>
       <r>   -2.3991    1.0000 </r>
       <r>   -2.2311    1.0000 </r>
       <r>   -2.1344    1.0000 </r>
       <r>   -1.9483    1.0000 </r>
       <r>   -1.7759    1.0000 </r>
       <r>   -1.4269    1.0000 </r>
       <r>   -1.4041    1.0000 </r>
       <r>   -1.0611    1.0000 </r>
       <r>   -0.9010    1.0000 </r>
       <r>   -0.7438    1.0000 </r>
       <r>   -0.4630    1.0000 </r>
       <r>   -0.4566    1.0000 </r>
       <r>   -0.2978    1.0000 </r>
       <r>   -0.1732    1.0000 </r>
       <r>   -0.1625    1.0000 </r>
       <r>   -0.0957    1.0000 </r>
       <r>   -0.0064    1.0000 </r>
       <r>    0.0024    1.0000 </r>
       <r>    0.2016    1.0000 </r>
       <r>    0.2159    1.0000 </r>
       <r>    0.2753    1.0000 </r>
       <r>    0.2879    1.0000 </r>
       <r>    0.3325    1.0000 </r>
       <r>    0.3510    1.0000 </r>
       <r>    0.3916    1.0000 </r>
       <r>    0.4731    1.0000 </r>
       <r>    0.5229    1.0000 </r>
       <r>    0.5333    1.0000 </r>
       <r>    0.6646    1.0000 </r>
       <r>    0.6682    1.0000 </r>
       <r>    0.6771    1.0000 </r>
       <r>    0.7215    1.0000 </r>
       <r>    0.7737    1.0000 </r>
       <r>    0.8161    1.0000 </r>
       <r>    0.8508    1.0000 </r>
       <r>    0.9202    1.0000 </r>
       <r>    0.9588    1.0000 </r>
       <r>    1.1325    1.0000 </r>
       <r>    1.1800    1.0000 </r>
       <r>    1.1870    1.0000 </r>
       <r>    1.2046    1.0000 </r>
       <r>    1.2838    1.0000 </r>
       <r>    1.3545    1.0000 </r>
       <r>    1.3584    1.0000 </r>
       <r>    1.3691    1.0000 </r>
       <r>    1.4707    1.0000 </r>
       <r>    1.5355    1.0000 </r>
       <r>    1.5732    1.0000 </r>
       <r>    1.6191    1.0000 </r>
       <r>    1.6580    1.0000 </r>
       <r>    1.7378    1.0000 </r>
       <r>    1.8126    1.0000 </r>
       <r>    1.9232    1.0000 </r>
       <r>    1.9370    1.0000 </r>
       <r>    1.9476    1.0000 </r>
       <r>    2.0026    1.0000 </r>
       <r>    2.0058    1.0000 </r>
       <r>    2.0266    1.0000 </r>
       <r>    2.0316    1.0000 </r>
       <r>    2.0515    1.0000 </r>
       <r>    2.1201    1.0000 </r>
       <r>    2.1512    1.0000 </r>
       <r>    2.1598    1.0000 </r>
       <r>    2.1766    1.0000 </r>
       <r>    2.2857    1.0000 </r>
       <r>    2.3447    1.0000 </r>
       <r>    2.3472    1.0000 </r>
       <r>    2.4446    1.0000 </r>
       <r>    2.4759    1.0000 </r>
       <r>    2.5151    1.0000 </r>
       <r>    2.5265    1.0000 </r>
       <r>    2.6146    1.0000 </r>
       <r>    2.6671    1.0000 </r>
       <r>    2.8731    1.0000 </r>
       <r>    2.9691    1.0000 </r>
       <r>    2.9975    1.0000 </r>
       <r>    2.9998    1.0000 </r>
       <r>    3.1736    1.0000 </r>
       <r>    3.2535    1.0000 </r>
       <r>    3.2883    1.0000 </r>
       <r>    3.2960    1.0000 </r>
       <r>    3.3487    1.0000 </r>
       <r>    3.3928    1.0000 </r>
       <r>    3.4234    1.0000 </r>
       <r>    3.4913    1.0000 </r>
       <r>    3.5511    1.0000 </r>
       <r>    3.6298    1.0000 </r>
       <r>    3.7064    1.0000 </r>
       <r>    3.7488    1.0000 </r>
       <r>    3.8756    1.0000 </r>
       <r>    3.9336    1.0000 </r>
       <r>    4.0172    1.0000 </r>
       <r>    4.0481    1.0000 </r>
       <r>    4.4107    0.0000 </r>
       <r>    4.4431    0.0000 </r>
       <r>    4.5620    0.0000 </r>
       <r>    4.6531    0.0000 </r>
       <r>    4.6648    0.0000 </r>
       <r>    4.8724    0.0000 </r>
       <r>    4.8838    0.0000 </r>
       <r>    5.1753    0.0000 </r>
       <r>    5.2204    0.0000 </r>
       <r>    5.2231    0.0000 </r>
       <r>    5.2763    0.0000 </r>
       <r>    5.3823    0.0000 </r>
       <r>    5.4708    0.0000 </r>
       <r>    5.4757    0.0000 </r>
       <r>    5.5093    0.0000 </r>
       <r>    5.5948    0.0000 </r>
       <r>    5.6110    0.0000 </r>
       <r>    5.6821    0.0000 </r>
       <r>    5.7066    0.0000 </r>
       <r>    5.7687    0.0000 </r>
       <r>    5.8061    0.0000 </r>
       <r>    5.8461    0.0000 </r>
       <r>    5.8936    0.0000 </r>
       <r>    5.9444    0.0000 </r>
       <r>    5.9445    0.0000 </r>
       <r>    6.0086    0.0000 </r>
       <r>    6.0154    0.0000 </r>
       <r>    6.1061    0.0000 </r>
       <r>    6.1103    0.0000 </r>
       <r>    6.1323    0.0000 </r>
       <r>    6.1649    0.0000 </r>
      </set>
      <set comment="kpoint 2">
       <r>   -9.7135    1.0000 </r>
       <r>   -9.0003    1.0000 </r>
       <r>   -8.7821    1.0000 </r>
       <r>   -8.5737    1.0000 </r>
       <r>   -8.1808    1.0000 </r>
       <r>   -8.1000    1.0000 </r>
       <r>   -7.9069    1.0000 </r>
       <r>   -7.7135    1.0000 </r>
       <r>   -7.5065    1.0000 </r>
       <r>   -7.4663    1.0000 </r>
       <r>   -7.4263    1.0000 </r>
       <r>   -7.3161    1.0000 </r>
       <r>   -7.2395    1.0000 </r>
       <r>   -7.1277    1.0000 </r>
       <r>   -7.1179    1.0000 </r>
       <r>   -6.9498    1.0000 </r>
       <r>   -6.9221    1.0000 </r>
       <r>   -6.7570    1.0000 </r>
       <r>   -6.6545    1.0000 </r>
       <r>   -6.5222    1.0000 </r>
       <r>   -6.5001    1.0000 </r>
       <r>   -6.3038    1.0000 </r>
       <r>   -6.2983    1.0000 </r>
       <r>   -6.2371    1.0000 </r>
       <r>   -6.0877    1.0000 </r>
       <r>   -5.9925    1.0000 </r>
       <r>   -5.9036    1.0000 </r>
       <r>   -5.8119    1.0000 </r>
       <r>   -5.7062    1.0000 </r>
       <r>   -5.6501    1.0000 </r>
       <r>   -5.4926    1.0000 </r>
       <r>   -5.4518    1.0000 </r>
       <r>   -5.3899    1.0000 </r>
       <r>   -5.3263    1.0000 </r>
       <r>   -5.2648    1.0000 </r>
       <r>   -5.2602    1.0000 </r>
       <r>   -4.8823    1.0000 </r>
       <r>   -4.7603    1.0000 </r>
       <r>   -4.7436    1.0000 </r>
       <r>   -4.5175    1.0000 </r>
       <r>   -4.2250    1.0000 </r>
       <r>   -4.0387    1.0000 </r>
       <r>   -4.0367    1.0000 </r>
       <r>   -3.9719    1.0000 </r>
       <r>   -3.8500    1.0000 </r>
       <r>   -3.7248    1.0000 </r>
       <r>   -3.6486    1.0000 </r>
       <r>   -3.6175    1.0000 </r>
       <r>   -3.5230    1.0000 </r>
       <r>   -3.4878    1.0000 </r>
       <r>   -3.4511    1.0000 </r>
       <r>   -3.4188    1.0000 </r>
       <r>   -3.3578    1.0000 </r>
       <r>   -3.2148    1.0000 </r>
       <r>   -3.1263    1.0000 </r>
       <r>   -2.9688    1.0000 </r>
       <r>   -2.9396    1.0000 </r>
       <r>   -2.8600    1.0000 </r>
       <r>   -2.7202    1.0000 </r>
       <r>   -2.5530    1.0000 </r>
       <r>   -2.5482    1.0000 </r>
       <r>   -2.4390    1.0000 </r>
       <r>   -2.3584    1.0000 </r>
       <r>   -2.1691    1.0000 </r>
       <r>   -1.9638    1.0000 </r>
       <r>   -1.7816    1.0000 </r>
       <r>   -1.7553    1.0000 </r>
       <r>   -1.6251    1.0000 </r>
       <r>   -1.5219    1.0000 </r>
       <r>   -1.4456    1.0000 </r>
       <r>   -1.3234    1.0000 </r>
       <r>   -1.2032    1.0000 </r>
       <r>   -1.0278    1.0000 </r>
       <r>   -0.8756    1.0000 </r>
       <r>   -0.7884    1.0000 </r>
       <r>   -0.5637    1.0000 </r>
       <r>   -0.4241    1.0000 </r>
       <r>   -0.3307    1.0000 </r>
       <r>   -0.2546    1.0000 </r>
       <r>   -0.2204    1.0000 </r>
       <r>   -0.1179    1.0000 </r>
       <r>   -0.0970    1.0000 </r>
       <r>    0.0009    1.0000 </r>
       <r>    0.0217    1.0000 </r>
       <r>    0.0712    1.0000 </r>
       <r>    0.1242    1.0000 </r>
       <r>    0.1263    1.0000 </r>
       <r>    0.2068    1.0000 </r>
       <r>    0.3403    1.0000 </r>
       <r>    0.4218    1.0000 </r>
       <r>    0.4261    1.0000 </r>
       <r>    0.4658    1.0000 </r>
       <r>    0.5577    1.0000 </r>
       <r>    0.6554    1.0000 </r>
       <r>    0.6603    1.0000 </r>
       <r>    0.7581    1.0000 </r>
       <r>    0.7634    1.0000 </r>
       <r>    0.8667    1.0000 </r>
       <r>    0.9444    1.0000 </r>
       <r>    0.9571    1.0000 </r>
       <r>    0.9706    1.0000 </r>
       <r>    1.0465    1.0000 </r>
       <r>    1.0757    1.0000 </r>
       <r>    1.1270    1.0000 </r>
       <r>    1.1551    1.0000 </r>
       <r>    1.2129    1.0000 </r>
       <r>    1.2434    1.0000 </r>
       <r>    1.2847    1.0000 </r>
       <r>    1.3418    1.0000 </r>
       <r>    1.3824    1.0000 </r>
       <r>    1.4407    1.0000 </r>
       <r>    1.4447    1.0000 </r>
       <r>    1.4569    1.0000 </r>
       <r>    1.5517    1.0000 </r>
       <r>    1.5522    1.0000 </r>
       <r>    1.6337    1.0000 </r>
       <r>    1.6849    1.0000 </r>
       <r>    1.6861    1.0000 </r>
       <r>    1.7196    1.0000 </r>
       <r>    1.7447    1.0000 </r>
       <r>    1.7879    1.0000 </r>
       <r>    1.8134    1.0000 </r>
       <r>    1.8657    1.0000 </r>
       <r>    1.9103    1.0000 </r>
       <r>    1.9557    1.0000 </r>
       <r>    1.9831    1.0000 </r>
       <r>    2.0448    1.0000 </r>
       <r>    2.1258    1.0000 </r>
       <r>    2.1395    1.0000 </r>
       <r>    2.2098    1.0000 </r>
       <r>    2.2351    1.0000 </r>
       <r>    2.2479    1.0000 </r>
       <r>    2.2919    1.0000 </r>
       <r>    2.4147    1.0000 </r>
       <r>    2.4648    1.0000 </r>
       <r>    2.4903    1.0000 </r>
       <r>    2.5541    1.0000 </r>
       <r>    2.6106    1.0000 </r>
       <r>    2.6168    1.0000 </r>
       <r>    2.6888    1.0000 </r>
       <r>    2.7228    1.0000 </r>
       <r>    2.7567    1.0000 </r>
       <r>    2.8332    1.0000 </r>
       <r>    2.9845    1.0000 </r>
       <r>    3.1029    1.0000 </r>
       <r>    3.2288    1.0000 </r>
       <r>    3.2700    1.0000 </r>
       <r>    3.3748    1.0000 </r>
       <r>    3.5541    1.0000 </r>
       <r>    3.5608    1.0000 </r>
       <r>    3.6492    1.0000 </r>
       <r>    3.7702    1.0000 </r>
       <r>    3.7912    1.0000 </r>
       <r>    3.9061    1.0000 </r>
       <r>    3.9686    1.0000 </r>
       <r>    4.1765    1.0000 </r>
       <r>    4.2458    0.0503 </r>
       <r>    4.3339    0.0000 </r>
       <r>    4.4477    0.0000 </r>
       <r>    4.5519    0.0000 </r>
       <r>    4.7116    0.0000 </r>
       <r>    4.7870    0.0000 </r>
       <r>    4.9186    0.0000 </r>
       <r>    4.9961    0.0000 </r>
       <r>    5.1328    0.0000 </r>
       <r>    5.2293    0.0000 </r>
       <r>    5.2998    0.0000 </r>
       <r>    5.3915    0.0000 </r>
       <r>    5.5008    0.0000 </r>
       <r>    5.5976    0.0000 </r>
       <r>    5.6117    0.0000 </r>
       <r>    5.7169    0.0000 </r>
       <r>    5.8353    0.0000 </r>
       <r>    5.8402    0.0000 </r>
       <r>    5.8817    0.0000 </r>
       <r>    5.9930    0.0000 </r>
       <r>    6.0701    0.0000 </r>
       <r>    6.1374    0.0000 </r>
       <r>    6.1425    0.0000 </r>
       <r>    6.2213    0.0000 </r>
       <r>    6.2381    0.0000 </r>
       <r>    6.2985    0.0000 </r>
       <r>    6.3392    0.0000 </r>
       <r>    6.3544    0.0000 </r>
       <r>    6.3651    0.0000 </r>
       <r>    6.4466    0.0000 </r>
       <r>    6.5123    0.0000 </r>
       <r>    6.5724    0.0000 </r>
      </set>
      <set comment="kpoint 3">
       <r>   -9.3348    1.0000 </r>
       <r>   -9.3348    1.0000 </r>
       <r>   -8.6272    1.0000 </r>
       <r>   -8.6272    1.0000 </r>
       <r>   -8.1442    1.0000 </r>
       <r>   -8.1442    1.0000 </r>
       <r>   -7.8037    1.0000 </r>
       <r>   -7.8037    1.0000 </r>
       <r>   -7.6468    1.0000 </r>
       <r>   -7.6468    1.0000 </r>
       <r>   -7.4333    1.0000 </r>
       <r>   -7.4333    1.0000 </r>
       <r>   -7.1383    1.0000 </r>
       <r>   -7.1383    1.0000 </r>
       <r>   -6.9980    1.0000 </r>
       <r>   -6.9980    1.0000 </r>
       <r>   -6.7818    1.0000 </r>
       <r>   -6.7818    1.0000 </r>
       <r>   -6.6469    1.0000 </r>
       <r>   -6.6469    1.0000 </r>
       <r>   -6.5432    1.0000 </r>
       <r>   -6.5432    1.0000 </r>
       <r>   -6.3577    1.0000 </r>
       <r>   -6.3577    1.0000 </r>
       <r>   -6.1685    1.0000 </r>
       <r>   -6.1685    1.0000 </r>
       <r>   -5.9496    1.0000 </r>
       <r>   -5.9496    1.0000 </r>
       <r>   -5.8209    1.0000 </r>
       <r>   -5.8209    1.0000 </r>
       <r>   -5.5300    1.0000 </r>
       <r>   -5.5300    1.0000 </r>
       <r>   -5.3470    1.0000 </r>
       <r>   -5.3470    1.0000 </r>
       <r>   -5.0329    1.0000 </r>
       <r>   -5.0329    1.0000 </r>
       <r>   -4.7842    1.0000 </r>
       <r>   -4.7842    1.0000 </r>
       <r>   -4.4452    1.0000 </r>
       <r>   -4.4452    1.0000 </r>
       <r>   -4.2224    1.0000 </r>
       <r>   -4.2224    1.0000 </r>
       <r>   -4.0419    1.0000 </r>
       <r>   -4.0419    1.0000 </r>
       <r>   -3.6323    1.0000 </r>
       <r>   -3.6323    1.0000 </r>
       <r>   -3.4629    1.0000 </r>
       <r>   -3.4629    1.0000 </r>
       <r>   -3.3617    1.0000 </r>
       <r>   -3.3617    1.0000 </r>
       <r>   -3.2791    1.0000 </r>
       <r>   -3.2791    1.0000 </r>
       <r>   -3.1476    1.0000 </r>
       <r>   -3.1476    1.0000 </r>
       <r>   -2.9348    1.0000 </r>
       <r>   -2.9348    1.0000 </r>
       <r>   -2.6609    1.0000 </r>
       <r>   -2.6609    1.0000 </r>
       <r>   -2.4944    1.0000 </r>
       <r>   -2.4944    1.0000 </r>
       <r>   -2.3223    1.0000 </r>
       <r>   -2.3223    1.0000 </r>
       <r>   -2.1037    1.0000 </r>
       <r>   -2.1037    1.0000 </r>
       <r>   -1.7885    1.0000 </r>
       <r>   -1.7885    1.0000 </r>
       <r>   -1.6536    1.0000 </r>
       <r>   -1.6536    1.0000 </r>
       <r>   -1.3844    1.0000 </r>
       <r>   -1.3844    1.0000 </r>
       <r>   -1.0807    1.0000 </r>
       <r>   -1.0807    1.0000 </r>
       <r>   -0.8495    1.0000 </r>
       <r>   -0.8495    1.0000 </r>
       <r>   -0.5494    1.0000 </r>
       <r>   -0.5494    1.0000 </r>
       <r>   -0.4160    1.0000 </r>
       <r>   -0.4160    1.0000 </r>
       <r>   -0.2665    1.0000 </r>
       <r>   -0.2665    1.0000 </r>
       <r>   -0.0958    1.0000 </r>
       <r>   -0.0958    1.0000 </r>
       <r>   -0.0577    1.0000 </r>
       <r>   -0.0577    1.0000 </r>
       <r>    0.0426    1.0000 </r>
       <r>    0.0426    1.0000 </r>
       <r>    0.1114    1.0000 </r>
       <r>    0.1114    1.0000 </r>
       <r>    0.1940    1.0000 </r>
       <r>    0.1940    1.0000 </r>
       <r>    0.2642    1.0000 </r>
       <r>    0.2642    1.0000 </r>
       <r>    0.3581    1.0000 </r>
       <r>    0.3581    1.0000 </r>
       <r>    0.4210    1.0000 </r>
       <r>    0.4210    1.0000 </r>
       <r>    0.4828    1.0000 </r>
       <r>    0.4828    1.0000 </r>
       <r>    0.6576    1.0000 </r>
       <r>    0.6576    1.0000 </r>
       <r>    0.7369    1.0000 </r>
       <r>    0.7369    1.0000 </r>
       <r>    0.8767    1.0000 </r>
       <r>    0.8767    1.0000 </r>
       <r>    1.0486    1.0000 </r>
       <r>    1.0486    1.0000 </r>
       <r>    1.1086    1.0000 </r>
       <r>    1.1086    1.0000 </r>
       <r>    1.2157    1.0000 </r>
       <r>    1.2157    1.0000 </r>
       <r>    1.3339    1.0000 </r>
       <r>    1.3339    1.0000 </r>
       <r>    1.4076    1.0000 </r>
       <r>    1.4076    1.0000 </r>
       <r>    1.5170    1.0000 </r>
       <r>    1.5170    1.0000 </r>
       <r>    1.5497    1.0000 </r>
       <r>    1.5497    1.0000 </r>
       <r>    1.5797    1.0000 </r>
       <r>    1.5797    1.0000 </r>
       <r>    1.6386    1.0000 </r>
       <r>    1.6386    1.0000 </r>
       <r>    1.7425    1.0000 </r>
       <r>    1.7425    1.0000 </r>
       <r>    1.8349    1.0000 </r>
       <r>    1.8349    1.0000 </r>
       <r>    1.9131    1.0000 </r>
       <r>    1.9131    1.0000 </r>
       <r>    2.0401    1.0000 </r>
       <r>    2.0401    1.0000 </r>
       <r>    2.2077    1.0000 </r>
       <r>    2.2077    1.0000 </r>
       <r>    2.2988    1.0000 </r>
       <r>    2.2988    1.0000 </r>
       <r>    2.4596    1.0000 </r>
       <r>    2.4596    1.0000 </r>
       <r>    2.5297    1.0000 </r>
       <r>    2.5297    1.0000 </r>
       <r>    2.6271    1.0000 </r>
       <r>    2.6271    1.0000 </r>
       <r>    2.7861    1.0000 </r>
       <r>    2.7861    1.0000 </r>
       <r>    2.9158    1.0000 </r>
       <r>    2.9158    1.0000 </r>
       <r>    3.0938    1.0000 </r>
       <r>    3.0938    1.0000 </r>
       <r>    3.1794    1.0000 </r>
       <r>    3.1794    1.0000 </r>
       <r>    3.3470    1.0000 </r>
       <r>    3.3470    1.0000 </r>
       <r>    3.7140    1.0000 </r>
       <r>    3.7140    1.0000 </r>
       <r>    3.9376    1.0000 </r>
       <r>    3.9376    1.0000 </r>
       <r>    4.2035    1.0000 </r>
       <r>    4.2035    1.0000 </r>
       <r>    4.2729    0.0000 </r>
       <r>    4.2729    0.0000 </r>
       <r>    4.5514    0.0000 </r>
       <r>    4.5514    0.0000 </r>
       <r>    4.7183    0.0000 </r>
       <r>    4.7183    0.0000 </r>
       <r>    5.0867    0.0000 </r>
       <r>    5.0867    0.0000 </r>
       <r>    5.3352    0.0000 </r>
       <r>    5.3352    0.0000 </r>
       <r>    5.5277    0.0000 </r>
       <r>    5.5277    0.0000 </r>
       <r>    5.7321    0.0000 </r>
       <r>    5.7321    0.0000 </r>
       <r>    5.8867    0.0000 </r>
       <r>    5.8867    0.0000 </r>
       <r>    6.0194    0.0000 </r>
       <r>    6.0194    0.0000 </r>
       <r>    6.1809    0.0000 </r>
       <r>    6.1809    0.0000 </r>
       <r>    6.2894    0.0000 </r>
       <r>    6.2894    0.0000 </r>
       <r>    6.3589    0.0000 </r>
       <r>    6.3589    0.0000 </r>
       <r>    6.3948    0.0000 </r>
       <r>    6.3948    0.0000 </r>
       <r>    6.4657    0.0000 </r>
       <r>    6.4657    0.0000 </r>
       <r>    6.5749    0.0000 </r>
       <r>    6.5814    0.0000 </r>
       <r>    6.6320    0.0000 </r>
       <r>    6.6816    0.0000 </r>
      </set>
      <set comment="kpoint 4">
       <r>   -9.8430    1.0000 </r>
       <r>   -9.1149    1.0000 </r>
       <r>   -8.6404    1.0000 </r>
       <r>   -8.4117    1.0000 </r>
       <r>   -8.3664    1.0000 </r>
       <r>   -8.1971    1.0000 </r>
       <r>   -8.0144    1.0000 </r>
       <r>   -7.7824    1.0000 </r>
       <r>   -7.6397    1.0000 </r>
       <r>   -7.4246    1.0000 </r>
       <r>   -7.1820    1.0000 </r>
       <r>   -7.1283    1.0000 </r>
       <r>   -6.9624    1.0000 </r>
       <r>   -6.9507    1.0000 </r>
       <r>   -6.8181    1.0000 </r>
       <r>   -6.7668    1.0000 </r>
       <r>   -6.7596    1.0000 </r>
       <r>   -6.6916    1.0000 </r>
       <r>   -6.6590    1.0000 </r>
       <r>   -6.5165    1.0000 </r>
       <r>   -6.4520    1.0000 </r>
       <r>   -6.4169    1.0000 </r>
       <r>   -6.2134    1.0000 </r>
       <r>   -6.1762    1.0000 </r>
       <r>   -6.1286    1.0000 </r>
       <r>   -6.0901    1.0000 </r>
       <r>   -6.0257    1.0000 </r>
       <r>   -5.8096    1.0000 </r>
       <r>   -5.7792    1.0000 </r>
       <r>   -5.6053    1.0000 </r>
       <r>   -5.5012    1.0000 </r>
       <r>   -5.4922    1.0000 </r>
       <r>   -5.4634    1.0000 </r>
       <r>   -5.3963    1.0000 </r>
       <r>   -5.3571    1.0000 </r>
       <r>   -5.1534    1.0000 </r>
       <r>   -5.0300    1.0000 </r>
       <r>   -4.9861    1.0000 </r>
       <r>   -4.8088    1.0000 </r>
       <r>   -4.5023    1.0000 </r>
       <r>   -4.3475    1.0000 </r>
       <r>   -4.2135    1.0000 </r>
       <r>   -3.9603    1.0000 </r>
       <r>   -3.9004    1.0000 </r>
       <r>   -3.8814    1.0000 </r>
       <r>   -3.8247    1.0000 </r>
       <r>   -3.6483    1.0000 </r>
       <r>   -3.5462    1.0000 </r>
       <r>   -3.4445    1.0000 </r>
       <r>   -3.4312    1.0000 </r>
       <r>   -3.3137    1.0000 </r>
       <r>   -3.3005    1.0000 </r>
       <r>   -3.2991    1.0000 </r>
       <r>   -3.2293    1.0000 </r>
       <r>   -3.1849    1.0000 </r>
       <r>   -3.1734    1.0000 </r>
       <r>   -3.1573    1.0000 </r>
       <r>   -3.0900    1.0000 </r>
       <r>   -2.9755    1.0000 </r>
       <r>   -2.8990    1.0000 </r>
       <r>   -2.7438    1.0000 </r>
       <r>   -2.5867    1.0000 </r>
       <r>   -2.5261    1.0000 </r>
       <r>   -2.5259    1.0000 </r>
       <r>   -2.4019    1.0000 </r>
       <r>   -2.2477    1.0000 </r>
       <r>   -2.1579    1.0000 </r>
       <r>   -1.9721    1.0000 </r>
       <r>   -1.7590    1.0000 </r>
       <r>   -1.5046    1.0000 </r>
       <r>   -1.4028    1.0000 </r>
       <r>   -1.1374    1.0000 </r>
       <r>   -0.8291    1.0000 </r>
       <r>   -0.5090    1.0000 </r>
       <r>   -0.4520    1.0000 </r>
       <r>   -0.3028    1.0000 </r>
       <r>   -0.2730    1.0000 </r>
       <r>   -0.1747    1.0000 </r>
       <r>   -0.0571    1.0000 </r>
       <r>   -0.0071    1.0000 </r>
       <r>    0.0377    1.0000 </r>
       <r>    0.1064    1.0000 </r>
       <r>    0.1187    1.0000 </r>
       <r>    0.1490    1.0000 </r>
       <r>    0.2526    1.0000 </r>
       <r>    0.2813    1.0000 </r>
       <r>    0.2833    1.0000 </r>
       <r>    0.3071    1.0000 </r>
       <r>    0.3843    1.0000 </r>
       <r>    0.4201    1.0000 </r>
       <r>    0.4451    1.0000 </r>
       <r>    0.4802    1.0000 </r>
       <r>    0.5798    1.0000 </r>
       <r>    0.5819    1.0000 </r>
       <r>    0.6755    1.0000 </r>
       <r>    0.7581    1.0000 </r>
       <r>    0.7876    1.0000 </r>
       <r>    0.8062    1.0000 </r>
       <r>    0.8469    1.0000 </r>
       <r>    0.9134    1.0000 </r>
       <r>    0.9228    1.0000 </r>
       <r>    0.9535    1.0000 </r>
       <r>    0.9784    1.0000 </r>
       <r>    1.0093    1.0000 </r>
       <r>    1.0497    1.0000 </r>
       <r>    1.1332    1.0000 </r>
       <r>    1.2736    1.0000 </r>
       <r>    1.2972    1.0000 </r>
       <r>    1.3467    1.0000 </r>
       <r>    1.4494    1.0000 </r>
       <r>    1.4917    1.0000 </r>
       <r>    1.5407    1.0000 </r>
       <r>    1.5667    1.0000 </r>
       <r>    1.6070    1.0000 </r>
       <r>    1.6873    1.0000 </r>
       <r>    1.7478    1.0000 </r>
       <r>    1.7727    1.0000 </r>
       <r>    1.8050    1.0000 </r>
       <r>    1.8178    1.0000 </r>
       <r>    1.8589    1.0000 </r>
       <r>    1.9306    1.0000 </r>
       <r>    2.0279    1.0000 </r>
       <r>    2.0807    1.0000 </r>
       <r>    2.1331    1.0000 </r>
       <r>    2.1723    1.0000 </r>
       <r>    2.2484    1.0000 </r>
       <r>    2.3562    1.0000 </r>
       <r>    2.3854    1.0000 </r>
       <r>    2.5206    1.0000 </r>
       <r>    2.5858    1.0000 </r>
       <r>    2.6587    1.0000 </r>
       <r>    2.6693    1.0000 </r>
       <r>    2.6910    1.0000 </r>
       <r>    2.7248    1.0000 </r>
       <r>    2.7305    1.0000 </r>
       <r>    2.7557    1.0000 </r>
       <r>    2.7943    1.0000 </r>
       <r>    2.8562    1.0000 </r>
       <r>    2.9079    1.0000 </r>
       <r>    2.9641    1.0000 </r>
       <r>    3.0458    1.0000 </r>
       <r>    3.0672    1.0000 </r>
       <r>    3.1177    1.0000 </r>
       <r>    3.1445    1.0000 </r>
       <r>    3.1795    1.0000 </r>
       <r>    3.3128    1.0000 </r>
       <r>    3.3577    1.0000 </r>
       <r>    3.3592    1.0000 </r>
       <r>    3.5223    1.0000 </r>
       <r>    3.5656    1.0000 </r>
       <r>    3.6057    1.0000 </r>
       <r>    3.7667    1.0000 </r>
       <r>    3.8559    1.0000 </r>
       <r>    3.8914    1.0000 </r>
       <r>    3.9996    1.0000 </r>
       <r>    4.0559    1.0000 </r>
       <r>    4.1102    1.0000 </r>
       <r>    4.4166    0.0000 </r>
       <r>    4.4651    0.0000 </r>
       <r>    4.6102    0.0000 </r>
       <r>    4.6644    0.0000 </r>
       <r>    4.6852    0.0000 </r>
       <r>    4.8117    0.0000 </r>
       <r>    4.9413    0.0000 </r>
       <r>    5.1327    0.0000 </r>
       <r>    5.2117    0.0000 </r>
       <r>    5.2444    0.0000 </r>
       <r>    5.3326    0.0000 </r>
       <r>    5.3438    0.0000 </r>
       <r>    5.4139    0.0000 </r>
       <r>    5.5271    0.0000 </r>
       <r>    5.5474    0.0000 </r>
       <r>    5.5604    0.0000 </r>
       <r>    5.6304    0.0000 </r>
       <r>    5.6781    0.0000 </r>
       <r>    5.6844    0.0000 </r>
       <r>    5.7442    0.0000 </r>
       <r>    5.7546    0.0000 </r>
       <r>    5.7900    0.0000 </r>
       <r>    5.8514    0.0000 </r>
       <r>    5.8684    0.0000 </r>
       <r>    5.9557    0.0000 </r>
       <r>    6.0152    0.0000 </r>
       <r>    6.0258    0.0000 </r>
       <r>    6.1130    0.0000 </r>
       <r>    6.1781    0.0000 </r>
       <r>    6.2110    0.0000 </r>
       <r>    6.2617    0.0000 </r>
      </set>
      <set comment="kpoint 5">
       <r>   -9.7119    1.0000 </r>
       <r>   -8.9822    1.0000 </r>
       <r>   -8.7830    1.0000 </r>
       <r>   -8.4521    1.0000 </r>
       <r>   -8.3091    1.0000 </r>
       <r>   -8.1159    1.0000 </r>
       <r>   -8.0484    1.0000 </r>
       <r>   -7.9591    1.0000 </r>
       <r>   -7.5756    1.0000 </r>
       <r>   -7.5303    1.0000 </r>
       <r>   -7.2600    1.0000 </r>
       <r>   -7.2489    1.0000 </r>
       <r>   -7.0615    1.0000 </r>
       <r>   -6.8657    1.0000 </r>
       <r>   -6.7873    1.0000 </r>
       <r>   -6.7327    1.0000 </r>
       <r>   -6.7122    1.0000 </r>
       <r>   -6.6204    1.0000 </r>
       <r>   -6.5929    1.0000 </r>
       <r>   -6.5905    1.0000 </r>
       <r>   -6.5367    1.0000 </r>
       <r>   -6.5003    1.0000 </r>
       <r>   -6.4632    1.0000 </r>
       <r>   -6.3597    1.0000 </r>
       <r>   -6.3522    1.0000 </r>
       <r>   -6.2405    1.0000 </r>
       <r>   -6.1323    1.0000 </r>
       <r>   -5.8379    1.0000 </r>
       <r>   -5.8045    1.0000 </r>
       <r>   -5.6971    1.0000 </r>
       <r>   -5.6107    1.0000 </r>
       <r>   -5.4584    1.0000 </r>
       <r>   -5.4213    1.0000 </r>
       <r>   -5.2855    1.0000 </r>
       <r>   -5.1079    1.0000 </r>
       <r>   -4.9867    1.0000 </r>
       <r>   -4.9649    1.0000 </r>
       <r>   -4.8488    1.0000 </r>
       <r>   -4.6899    1.0000 </r>
       <r>   -4.4426    1.0000 </r>
       <r>   -4.2683    1.0000 </r>
       <r>   -4.2342    1.0000 </r>
       <r>   -4.1808    1.0000 </r>
       <r>   -4.0881    1.0000 </r>
       <r>   -3.7445    1.0000 </r>
       <r>   -3.7052    1.0000 </r>
       <r>   -3.5675    1.0000 </r>
       <r>   -3.4991    1.0000 </r>
       <r>   -3.3973    1.0000 </r>
       <r>   -3.3844    1.0000 </r>
       <r>   -3.2938    1.0000 </r>
       <r>   -3.2825    1.0000 </r>
       <r>   -3.1393    1.0000 </r>
       <r>   -3.0451    1.0000 </r>
       <r>   -3.0097    1.0000 </r>
       <r>   -2.9253    1.0000 </r>
       <r>   -2.9218    1.0000 </r>
       <r>   -2.9055    1.0000 </r>
       <r>   -2.7369    1.0000 </r>
       <r>   -2.6625    1.0000 </r>
       <r>   -2.5301    1.0000 </r>
       <r>   -2.4485    1.0000 </r>
       <r>   -2.3977    1.0000 </r>
       <r>   -2.2803    1.0000 </r>
       <r>   -2.2040    1.0000 </r>
       <r>   -2.0287    1.0000 </r>
       <r>   -1.8907    1.0000 </r>
       <r>   -1.7106    1.0000 </r>
       <r>   -1.6926    1.0000 </r>
       <r>   -1.4492    1.0000 </r>
       <r>   -1.0752    1.0000 </r>
       <r>   -1.0162    1.0000 </r>
       <r>   -0.9379    1.0000 </r>
[...]
       <r>   -10.1877     0.0000     0.0000 </r>
       <r>   -10.1268     0.0000     0.0000 </r>
       <r>   -10.0659     0.0000     0.0000 </r>
       <r>   -10.0050     0.0000     0.0000 </r>
       <r>    -9.9441     0.0000     0.0000 </r>
       <r>    -9.8832     0.0000     0.0000 </r>
       <r>    -9.8223     3.3050     0.2012 </r>
       <r>    -9.7614     4.9067     0.5000 </r>
       <r>    -9.7006     1.1866     0.5722 </r>
       <r>    -9.6397    15.2370     1.5000 </r>
       <r>    -9.5788     0.0000     1.5000 </r>
       <r>    -9.5179     0.0000     1.5000 </r>
       <r>    -9.4570     0.0000     1.5000 </r>
       <r>    -9.3961     0.0000     1.5000 </r>
       <r>    -9.3352     0.0154     1.5009 </r>
       <r>    -9.2743    16.4081     2.5000 </r>
       <r>    -9.2134     0.0000     2.5000 </r>
       <r>    -9.1526     0.0000     2.5000 </r>
       <r>    -9.0917     7.7969     2.9747 </r>
       <r>    -9.0308     0.4146     3.0000 </r>
       <r>    -8.9699    13.2467     3.8066 </r>
       <r>    -8.9090     3.1769     4.0000 </r>
       <r>    -8.8481     0.0000     4.0000 </r>
       <r>    -8.7872     0.0058     4.0004 </r>
       <r>    -8.7263    17.2425     5.0502 </r>
       <r>    -8.6655     1.9318     5.1678 </r>
       <r>    -8.6046    18.8329     6.3145 </r>
       <r>    -8.5437    13.3117     7.1256 </r>
       <r>    -8.4828     0.6735     7.1667 </r>
       <r>    -8.4219     5.4749     7.5000 </r>
       <r>    -8.3610    11.5477     8.2032 </r>
       <r>    -8.3001     7.9200     8.6854 </r>
       <r>    -8.2392     2.4284     8.8333 </r>
       <r>    -8.1783     9.0840     9.3864 </r>
       <r>    -8.1175    18.3862    10.5059 </r>
       <r>    -8.0566    21.5397    11.8176 </r>
       <r>    -7.9957    10.2894    12.4441 </r>
       <r>    -7.9348     9.0879    12.9975 </r>
       <r>    -7.8739    12.2561    13.7437 </r>
       <r>    -7.8130     6.6153    14.1469 </r>
       <r>    -7.7521    25.1469    15.6781 </r>
       <r>    -7.6912     7.9302    16.1610 </r>
       <r>    -7.6303    14.9897    17.0737 </r>
       <r>    -7.5695     7.0559    17.5034 </r>
       <r>    -7.5086    20.3435    18.7421 </r>
       <r>    -7.4477    24.0013    20.2035 </r>
       <r>    -7.3868    17.1842    21.2504 </r>
       <r>    -7.3259    10.1795    21.8703 </r>
       <r>    -7.2650    12.7170    22.6448 </r>
       <r>    -7.2041    23.1563    24.0550 </r>
       <r>    -7.1432    20.2714    25.2893 </r>
       <r>    -7.0824    25.5126    26.8432 </r>
       <r>    -7.0215    16.0385    27.8197 </r>
       <r>    -6.9606     9.1274    28.3755 </r>
       <r>    -6.8997    24.1081    29.8434 </r>
       <r>    -6.8388    23.3614    31.2662 </r>
       <r>    -6.7779    18.2295    32.3761 </r>
       <r>    -6.7170    28.9101    34.1364 </r>
       <r>    -6.6561    26.7081    35.7626 </r>
       <r>    -6.5952    30.0713    37.5936 </r>
       <r>    -6.5344    27.6071    39.2746 </r>
       <r>    -6.4735    33.3608    41.3059 </r>
       <r>    -6.4126    31.3648    43.2161 </r>
       <r>    -6.3517    13.6297    44.0462 </r>
       <r>    -6.2908    22.3635    45.4079 </r>
       <r>    -6.2299    22.8374    46.7985 </r>
       <r>    -6.1690    24.6255    48.2979 </r>
       <r>    -6.1081    45.0930    51.0440 </r>
       <r>    -6.0473    23.0513    52.4477 </r>
       <r>    -5.9864    16.1266    53.4297 </r>
       <r>    -5.9255    17.8177    54.5145 </r>
       <r>    -5.8646    14.3642    55.3892 </r>
       <r>    -5.8037    19.1807    56.5573 </r>
       <r>    -5.7428    26.7502    58.1861 </r>
       <r>    -5.6819    14.1579    59.0488 </r>
       <r>    -5.6210    22.1367    60.3967 </r>
       <r>    -5.5601    11.4975    61.0968 </r>
       <r>    -5.4993    17.1720    62.1424 </r>
       <r>    -5.4384    29.4836    63.9376 </r>
       <r>    -5.3775    27.5868    65.6177 </r>
       <r>    -5.3166    20.5188    66.8673 </r>
       <r>    -5.2557    17.7785    67.9498 </r>
       <r>    -5.1948    19.7677    69.1537 </r>
       <r>    -5.1339    14.6247    70.0442 </r>
       <r>    -5.0730    10.1347    70.6613 </r>
       <r>    -5.0122     8.1442    71.1572 </r>
       <r>    -4.9513    14.7411    72.0548 </r>
       <r>    -4.8904     8.6680    72.5827 </r>
       <r>    -4.8295     9.1725    73.1412 </r>
       <r>    -4.7686    15.8932    74.1090 </r>
       <r>    -4.7077    20.7493    75.3729 </r>
       <r>    -4.6468    17.8933    76.4628 </r>
       <r>    -4.5859     9.3828    77.0341 </r>
       <r>    -4.5250     8.0833    77.5267 </r>
       <r>    -4.4642    14.3724    78.4018 </r>
       <r>    -4.4033    16.6763    79.4173 </r>
       <r>    -4.3424    14.1782    80.2806 </r>
       <r>    -4.2815    17.6788    81.3570 </r>
       <r>    -4.2206     6.9110    81.7783 </r>
       <r>    -4.1597    19.5487    82.9686 </r>
       <r>    -4.0988    23.7974    84.4176 </r>
       <r>    -4.0379    12.6987    85.1908 </r>
       <r>    -3.9771    31.2222    87.0918 </r>
       <r>    -3.9162    20.3738    88.3325 </r>
       <r>    -3.8553    13.7267    89.1685 </r>
       <r>    -3.7944    24.6022    90.6666 </r>
       <r>    -3.7335    11.4886    91.3662 </r>
       <r>    -3.6726    20.1715    92.5953 </r>
       <r>    -3.6117    14.5772    93.4830 </r>
       <r>    -3.5508    16.8145    94.5068 </r>
       <r>    -3.4899    33.7065    96.5592 </r>
       <r>    -3.4291    33.4081    98.5939 </r>
       <r>    -3.3682    38.3161   100.9275 </r>
       <r>    -3.3073    28.8789   102.6859 </r>
       <r>    -3.2464    35.9580   104.8753 </r>
       <r>    -3.1855    26.5481   106.4920 </r>
       <r>    -3.1246    32.6114   108.4777 </r>
       <r>    -3.0637    24.8963   109.9940 </r>
       <r>    -3.0028    21.6304   111.3110 </r>
       <r>    -2.9420    20.9497   112.5866 </r>
       <r>    -2.8811    28.7796   114.3390 </r>
       <r>    -2.8202    25.3902   115.8850 </r>
       <r>    -2.7593     8.6572   116.4122 </r>
       <r>    -2.6984    14.3823   117.2879 </r>
       <r>    -2.6375    21.9491   118.6246 </r>
       <r>    -2.5766     7.0145   119.0517 </r>
       <r>    -2.5157    22.2687   120.4077 </r>
       <r>    -2.4548    23.2912   121.8261 </r>
       <r>    -2.3940    18.5507   122.9562 </r>
       <r>    -2.3331    27.9093   124.6555 </r>
       <r>    -2.2722    23.5934   126.0921 </r>
       <r>    -2.2113    13.5506   126.9173 </r>
       <r>    -2.1504     9.7598   127.5117 </r>
       <r>    -2.0895    19.0533   128.6718 </r>
       <r>    -2.0286    10.1721   129.2914 </r>
       <r>    -1.9677    11.5347   129.9938 </r>
       <r>    -1.9069    18.3995   131.1141 </r>
       <r>    -1.8460    13.2227   131.9192 </r>
       <r>    -1.7851    19.3824   133.0996 </r>
       <r>    -1.7242    26.6380   134.7221 </r>
       <r>    -1.6633     9.8958   135.3247 </r>
       <r>    -1.6024    14.2462   136.1921 </r>
       <r>    -1.5415    13.1035   136.9900 </r>
       <r>    -1.4806    11.8666   137.7126 </r>
       <r>    -1.4197    20.2050   138.9429 </r>
       <r>    -1.3589    20.6838   140.2023 </r>
       <r>    -1.2980    17.8213   141.2874 </r>
       <r>    -1.2371     3.4728   141.4988 </r>
       <r>    -1.1762    10.5483   142.1411 </r>
       <r>    -1.1153     4.4463   142.4121 </r>
       <r>    -1.0544    14.7252   143.3087 </r>
       <r>    -0.9935    29.5032   145.1051 </r>
       <r>    -0.9326     7.9565   145.5897 </r>
       <r>    -0.8718     8.9544   146.1351 </r>
       <r>    -0.8109    16.3074   147.1280 </r>
       <r>    -0.7500    14.1336   147.9888 </r>
       <r>    -0.6891     4.9564   148.2910 </r>
       <r>    -0.6282     8.8373   148.8291 </r>
       <r>    -0.5673     9.4095   149.4020 </r>
       <r>    -0.5064    16.5196   150.4079 </r>
       <r>    -0.4455    17.8511   151.4948 </r>
       <r>    -0.3846    32.2637   153.4598 </r>
       <r>    -0.3238    15.5827   154.4091 </r>
       <r>    -0.2629    25.6530   155.9714 </r>
       <r>    -0.2020    25.6585   157.5337 </r>
       <r>    -0.1411    23.6961   158.9766 </r>
       <r>    -0.0802    52.7160   162.1866 </r>
       <r>    -0.0193    32.4314   164.1614 </r>
       <r>     0.0416    41.8791   166.7119 </r>
       <r>     0.1025    40.9708   169.2076 </r>
       <r>     0.1633    37.3825   171.4845 </r>
       <r>     0.2242    34.3304   173.5754 </r>
       <r>     0.2851    27.7330   175.2646 </r>
       <r>     0.3460    40.9692   177.7593 </r>
       <r>     0.4069    41.3152   180.2750 </r>
       <r>     0.4678    39.3927   182.6748 </r>
       <r>     0.5287    35.1105   184.8127 </r>
       <r>     0.5896    44.9200   187.5478 </r>
       <r>     0.6505    22.5234   188.9201 </r>
       <r>     0.7113    56.9968   192.3905 </r>
       <r>     0.7722    41.4649   194.9160 </r>
       <r>     0.8331    45.7202   197.6998 </r>
       <r>     0.8940    28.6080   199.4421 </r>
       <r>     0.9549    45.3496   202.2039 </r>
       <r>     1.0158    52.7234   205.4147 </r>
       <r>     1.0767    44.4155   208.1194 </r>
       <r>     1.1376    36.7157   210.3563 </r>
       <r>     1.1984    50.4030   213.4257 </r>
       <r>     1.2593    36.3395   215.6396 </r>
       <r>     1.3202    43.4781   218.2869 </r>
       <r>     1.3811    57.1769   221.7685 </r>
       <r>     1.4420    43.1365   224.3954 </r>
       <r>     1.5029    40.7989   226.8800 </r>
       <r>     1.5638    34.3426   228.9718 </r>
       <r>     1.6247    50.7008   232.0588 </r>
       <r>     1.6856    33.9459   234.1258 </r>
       <r>     1.7464    50.6810   237.2122 </r>
       <r>     1.8073    48.2743   240.1518 </r>
       <r>     1.8682    50.8998   243.2512 </r>
       <r>     1.9291    45.4288   246.0174 </r>
       <r>     1.9900    44.7716   248.7439 </r>
       <r>     2.0509    44.2175   251.4367 </r>
       <r>     2.1118    35.2134   253.5811 </r>
       <r>     2.1727    44.2158   256.2741 </r>
       <r>     2.2335    49.1105   259.2644 </r>
       <r>     2.2944    31.6763   261.1932 </r>
       <r>     2.3553    32.8444   263.1930 </r>
       <r>     2.4162    36.5380   265.4178 </r>
       <r>     2.4771    31.5185   267.3369 </r>
       <r>     2.5380    31.4531   269.2520 </r>
       <r>     2.5989    42.3302   271.8297 </r>
       <r>     2.6598    38.0262   274.1455 </r>
       <r>     2.7207    36.3406   276.3588 </r>
       <r>     2.7815    44.0362   279.0401 </r>
       <r>     2.8424    27.1657   280.6949 </r>
       <r>     2.9033    35.1217   282.8334 </r>
       <r>     2.9642    11.0288   283.5050 </r>
       <r>     3.0251    25.4893   285.0569 </r>
       <r>     3.0860    32.6037   287.0423 </r>
       <r>     3.1469    19.0954   288.2050 </r>
       <r>     3.2078    39.7827   290.6275 </r>
       <r>     3.2686    21.9540   291.9654 </r>
       <r>     3.3295    19.5838   293.1582 </r>
       <r>     3.3904    30.7067   295.0284 </r>
       <r>     3.4513    25.3317   296.5719 </r>
       <r>     3.5122    12.1858   297.3139 </r>
       <r>     3.5731    24.6168   298.8128 </r>
       <r>     3.6340    24.2334   300.2886 </r>
       <r>     3.6949    25.7124   301.8542 </r>
       <r>     3.7558    17.4056   302.9140 </r>
       <r>     3.8166    27.9486   304.6160 </r>
       <r>     3.8775    15.8798   305.5834 </r>
       <r>     3.9384    23.0634   306.9877 </r>
       <r>     3.9993    23.0262   308.3898 </r>
       <r>     4.0602    21.9588   309.7269 </r>
       <r>     4.1211    10.7327   310.3807 </r>
       <r>     4.1820     6.1978   310.7581 </r>
       <r>     4.2429    23.2444   312.1734 </r>
       <r>     4.3037    16.5601   313.1820 </r>
       <r>     4.3646    21.4387   314.4875 </r>
       <r>     4.4255     7.7776   314.9612 </r>
       <r>     4.4864    24.0124   316.4232 </r>
       <r>     4.5473    11.8481   317.1447 </r>
       <r>     4.6082    35.5034   319.3064 </r>
       <r>     4.6691    20.1636   320.5341 </r>
       <r>     4.7300    25.4268   322.0824 </r>
       <r>     4.7909    23.7942   323.5317 </r>
       <r>     4.8517    13.6693   324.3641 </r>
       <r>     4.9126     5.1789   324.6796 </r>
       <r>     4.9735    18.5475   325.8089 </r>
       <r>     5.0344     8.3177   326.3155 </r>
       <r>     5.0953    12.5723   327.0811 </r>
       <r>     5.1562    22.3123   328.4396 </r>
       <r>     5.2171    16.4395   329.4407 </r>
       <r>     5.2780    33.9832   331.5099 </r>
       <r>     5.3388    29.1910   333.2877 </r>
       <r>     5.3997    21.6988   334.6090 </r>
       <r>     5.4606    16.3853   335.6068 </r>
       <r>     5.5215    26.9779   337.2494 </r>
       <r>     5.5824    35.2288   339.3946 </r>
       <r>     5.6433    29.5184   341.1924 </r>
       <r>     5.7042    22.7519   342.5779 </r>
       <r>     5.7651    29.7533   344.3896 </r>
       <r>     5.8260    28.4801   346.1241 </r>
       <r>     5.8868    37.9366   348.4346 </r>
       <r>     5.9477    41.7683   350.9779 </r>
       <r>     6.0086    38.9947   353.3526 </r>
       <r>     6.0695    37.3692   355.6279 </r>
       <r>     6.1304    33.0739   357.6419 </r>
       <r>     6.1913    47.8626   360.5564 </r>
       <r>     6.2522    34.1985   362.6395 </r>
       <r>     6.3131    32.0572   364.5917 </r>
       <r>     6.3739    40.2751   367.0441 </r>
       <r>     6.4348    32.5160   369.0242 </r>
       <r>     6.4957    28.3942   370.7531 </r>
       <r>     6.5566    39.1693   373.1381 </r>
       <r>     6.6175    18.8849   374.2884 </r>
       <r>     6.6784    16.5202   375.2944 </r>
       <r>     6.7393     8.8537   375.8335 </r>
       <r>     6.8002     2.7349   376.0000 </r>
       <r>     6.8611     0.0000   376.0000 </r>
       <r>     6.9219     0.0000   376.0000 </r>
       <r>     6.9828     0.0000   376.0000 </r>
       <r>     7.0437     0.0000   376.0000 </r>
       <r>     7.1046     0.0000   376.0000 </r>
       <r>     7.1655     0.0000   376.0000 </r>
       <r>     7.2264     0.0000   376.0000 </r>
       <r>     7.2873     0.0000   376.0000 </r>
       <r>     7.3482     0.0000   376.0000 </r>
       <r>     7.4090     0.0000   376.0000 </r>
       <r>     7.4699     0.0000   376.0000 </r>
       <r>     7.5308     0.0000   376.0000 </r>
       <r>     7.5917     0.0000   376.0000 </r>
      </set>
     </set>
    </array>
   </total>
  </dos>
 </calculation>
 <structure name="finalpos" >
  <crystal>
   <varray name="basis" >
    <v>       7.74989032       0.00000000       0.00000000 </v>
    <v>      -3.87494516      11.62483548       0.00000000 </v>
    <v>       0.00000000       0.00000000      18.63333333 </v>
   </varray>
   <i name="volume">   1678.69936005 </i>
   <varray name="rec_basis" >
    <v>       0.12903408       0.04301136       0.00000000 </v>
    <v>       0.00000000       0.08602272       0.00000000 </v>
    <v>       0.00000000       0.00000000       0.05366726 </v>
   </varray>
  </crystal>
  <varray name="positions" >
   <v>       0.00000000       0.00000000       0.00000000 </v>
   <v>       0.38888889       0.27777778       0.04901610 </v>
   <v>       0.77777778       0.55555556       0.09803220 </v>
   <v>       0.50000000       0.00000000       0.00000000 </v>
   <v>       0.88888889       0.27777778       0.04901610 </v>
   <v>       0.27777778       0.55555556       0.09803220 </v>
   <v>       0.69444444       0.88888889       0.02450805 </v>
   <v>       0.08333333       0.16666667       0.07352415 </v>
   <v>       0.47222222       0.44444444       0.12254025 </v>
   <v>       0.19444444       0.88888889       0.02450805 </v>
   <v>       0.58333333       0.16666667       0.07352415 </v>
   <v>       0.97222222       0.44444444       0.12254025 </v>
   <v>       0.23684211       0.39344262       0.18157424 </v>
   <v>       0.40350877       0.22677596       0.33345259 </v>
   <v>       0.57017544       0.06010929       0.48533095 </v>
   <v>       0.73684211       0.89344262       0.63720930 </v>
   <v>       0.90350877       0.72677596       0.78908766 </v>
   <v>       0.07017544       0.56010929       0.94096601 </v>
   <v>       0.90350877       0.72677596       0.18157424 </v>
   <v>       0.07017544       0.56010929       0.33345259 </v>
   <v>       0.23684211       0.39344262       0.48533095 </v>
   <v>       0.40350877       0.22677596       0.63720930 </v>
   <v>       0.57017544       0.06010929       0.78908766 </v>
   <v>       0.73684211       0.89344262       0.94096601 </v>
   <v>       0.57017544       0.06010929       0.18157424 </v>
   <v>       0.73684211       0.89344262       0.33345259 </v>
   <v>       0.90350877       0.72677596       0.48533095 </v>
   <v>       0.07017544       0.56010929       0.63720930 </v>
   <v>       0.23684211       0.39344262       0.78908766 </v>
   <v>       0.40350877       0.22677596       0.94096601 </v>
   <v>       0.73684211       0.39344262       0.18157424 </v>
   <v>       0.90350877       0.22677596       0.33345259 </v>
   <v>       0.07017544       0.06010929       0.48533095 </v>
   <v>       0.23684211       0.89344262       0.63720930 </v>
   <v>       0.40350877       0.72677596       0.78908766 </v>
   <v>       0.57017544       0.56010929       0.94096601 </v>
   <v>       0.40350877       0.72677596       0.18157424 </v>
   <v>       0.57017544       0.56010929       0.33345259 </v>
   <v>       0.73684211       0.39344262       0.48533095 </v>
   <v>       0.90350877       0.22677596       0.63720930 </v>
   <v>       0.07017544       0.06010929       0.78908766 </v>
   <v>       0.23684211       0.89344262       0.94096601 </v>
   <v>       0.07017544       0.06010929       0.18157424 </v>
   <v>       0.23684211       0.89344262       0.33345259 </v>
   <v>       0.40350877       0.72677596       0.48533095 </v>
   <v>       0.57017544       0.56010929       0.63720930 </v>
   <v>       0.73684211       0.39344262       0.78908766 </v>
   <v>       0.90350877       0.22677596       0.94096601 </v>
   <v>       0.32017544       0.56010929       0.25751342 </v>
   <v>       0.48684211       0.39344262       0.40939177 </v>
   <v>       0.65350877       0.22677596       0.56127013 </v>
   <v>       0.82017544       0.06010929       0.71314848 </v>
   <v>       0.98684211       0.89344262       0.86502683 </v>
   <v>       0.98684211       0.89344262       0.25751342 </v>
   <v>       0.15350877       0.72677596       0.40939177 </v>
   <v>       0.32017544       0.56010929       0.56127013 </v>
   <v>       0.48684211       0.39344262       0.71314848 </v>
   <v>       0.65350877       0.22677596       0.86502683 </v>
   <v>       0.65350877       0.22677596       0.25751342 </v>
   <v>       0.82017544       0.06010929       0.40939177 </v>
   <v>       0.98684211       0.89344262       0.56127013 </v>
   <v>       0.15350877       0.72677596       0.71314848 </v>
   <v>       0.32017544       0.56010929       0.86502683 </v>
   <v>       0.82017544       0.56010929       0.25751342 </v>
   <v>       0.98684211       0.39344262       0.40939177 </v>
   <v>       0.15350877       0.22677596       0.56127013 </v>
   <v>       0.32017544       0.06010929       0.71314848 </v>
   <v>       0.48684211       0.89344262       0.86502683 </v>
   <v>       0.48684211       0.89344262       0.25751342 </v>
   <v>       0.65350877       0.72677596       0.40939177 </v>
   <v>       0.82017544       0.56010929       0.56127013 </v>
   <v>       0.98684211       0.39344262       0.71314848 </v>
   <v>       0.15350877       0.22677596       0.86502683 </v>
   <v>       0.15350877       0.22677596       0.25751342 </v>
   <v>       0.32017544       0.06010929       0.40939177 </v>
   <v>       0.48684211       0.89344262       0.56127013 </v>
   <v>       0.65350877       0.72677596       0.71314848 </v>
   <v>       0.82017544       0.56010929       0.86502683 </v>
  </varray>
 </structure>
</modeling>
