<?xml version="1.0" encoding="ISO-8859-1"?>
<modeling>
 <generator>
  <i name="program" type="string">vasp </i>
  <i name="version" type="string">6.4.3  </i>
  <i name="subversion" type="string">19Mar24 (build Oct 22 2024 11:23:12) complex                          parallel </i>
  <i name="platform" type="string">LinuxIFC </i>
  <i name="date" type="string">2025 04 30 </i>
  <i name="time" type="string">04:10:56 </i>
 </generator>
 <incar>
  <i type="string" name="SYSTEM">Si122 and Ge001 interface calculation</i>
  <i type="int" name="ISTART">     0</i>
  <i type="logical" name="ADDGRID"> T  </i>
  <i type="int" name="ISPIN">     2</i>
  <i name="AMIX">      0.60000000</i>
  <i type="int" name="ICHARG">     2</i>
  <i type="int" name="NELM">   100</i>
  <i name="EDIFF">      0.00000010</i>
  <i name="ENCUT">    700.00000000</i>
  <i name="ENAUG">    900.00000000</i>
  <i type="int" name="NBANDS">   188</i>
  <i name="NUPDOWN">      1.00000000</i>
  <i name="NELECT">    312.00000000</i>
  <i type="string" name="LREAL">AUTO</i>
  <i type="int" name="ISMEAR">     0</i>
  <i name="SIGMA">      0.01000000</i>
  <i type="int" name="LMAXMIX">     6</i>
  <i type="logical" name="LWAVE"> F  </i>
  <i type="logical" name="LVTOT"> F  </i>
  <i type="logical" name="LVHAR"> T  </i>
  <i type="logical" name="LASPH"> T  </i>
  <i type="logical" name="LMIXTAU"> T  </i>
 </incar>
 <primitive_cell>
  <structure name="primitive_cell" >
   <crystal>
    <varray name="basis" >
     <v>       3.87494516       0.00000000       0.00000000 </v>
     <v>       0.00000000      11.62483548       0.00000000 </v>
     <v>       0.00000000       0.00000000      18.63333333 </v>
    </varray>
    <i name="volume">    839.34968003 </i>
    <varray name="rec_basis" >
     <v>       0.25806817       0.00000000       0.00000000 </v>
     <v>       0.00000000       0.08602272       0.00000000 </v>
     <v>       0.00000000       0.00000000       0.05366726 </v>
    </varray>
   </crystal>
   <varray name="positions" >
    <v>       0.00000000       0.00000000       0.00000000 </v>
    <v>       0.50000000       0.27777778       0.04901610 </v>
    <v>       0.00000000       0.55555556       0.09803220 </v>
    <v>       0.50000000       0.88888889       0.02450805 </v>
    <v>       0.00000000       0.16666667       0.07352415 </v>
    <v>       0.50000000       0.44444444       0.12254025 </v>
    <v>       0.93183779       0.72131148       0.18157424 </v>
    <v>       0.43183779       0.55464481       0.33345259 </v>
    <v>       0.93183779       0.38797814       0.48533095 </v>
    <v>       0.43183779       0.22131148       0.63720930 </v>
    <v>       0.93183779       0.05464481       0.78908766 </v>
    <v>       0.43183779       0.88797814       0.94096601 </v>
    <v>       0.93183779       0.05464481       0.18157424 </v>
    <v>       0.43183779       0.88797814       0.33345259 </v>
    <v>       0.93183779       0.72131148       0.48533095 </v>
    <v>       0.43183779       0.55464481       0.63720930 </v>
    <v>       0.93183779       0.38797814       0.78908766 </v>
    <v>       0.43183779       0.22131148       0.94096601 </v>
    <v>       0.93183779       0.38797814       0.18157424 </v>
    <v>       0.43183779       0.22131148       0.33345259 </v>
    <v>       0.93183779       0.05464481       0.48533095 </v>
    <v>       0.43183779       0.88797814       0.63720930 </v>
    <v>       0.93183779       0.72131148       0.78908766 </v>
    <v>       0.43183779       0.55464481       0.94096601 </v>
    <v>       0.93183779       0.88797814       0.25751342 </v>
    <v>       0.43183779       0.72131148       0.40939177 </v>
    <v>       0.93183779       0.55464481       0.56127013 </v>
    <v>       0.43183779       0.38797814       0.71314848 </v>
    <v>       0.93183779       0.22131148       0.86502683 </v>
    <v>       0.93183779       0.22131148       0.25751342 </v>
    <v>       0.43183779       0.05464481       0.40939177 </v>
    <v>       0.93183779       0.88797814       0.56127013 </v>
    <v>       0.43183779       0.72131148       0.71314848 </v>
    <v>       0.93183779       0.55464481       0.86502683 </v>
    <v>       0.93183779       0.55464481       0.25751342 </v>
    <v>       0.43183779       0.38797814       0.40939177 </v>
    <v>       0.93183779       0.22131148       0.56127013 </v>
    <v>       0.43183779       0.05464481       0.71314848 </v>
    <v>       0.93183779       0.88797814       0.86502683 </v>
   </varray>
  </structure>
  <varray name="primitive_index" >
   <v type="int" >        1 </v>
   <v type="int" >        2 </v>
   <v type="int" >        3 </v>
   <v type="int" >        7 </v>
   <v type="int" >        8 </v>
   <v type="int" >        9 </v>
   <v type="int" >       13 </v>
   <v type="int" >       32 </v>
   <v type="int" >       15 </v>
   <v type="int" >       16 </v>
   <v type="int" >       35 </v>
   <v type="int" >       18 </v>
   <v type="int" >       37 </v>
   <v type="int" >       20 </v>
   <v type="int" >       21 </v>
   <v type="int" >       40 </v>
   <v type="int" >       23 </v>
   <v type="int" >       24 </v>
   <v type="int" >       25 </v>
   <v type="int" >       26 </v>
   <v type="int" >       45 </v>
   <v type="int" >       28 </v>
   <v type="int" >       29 </v>
   <v type="int" >       48 </v>
   <v type="int" >       49 </v>
   <v type="int" >       65 </v>
   <v type="int" >       66 </v>
   <v type="int" >       52 </v>
   <v type="int" >       68 </v>
   <v type="int" >       69 </v>
   <v type="int" >       70 </v>
   <v type="int" >       56 </v>
   <v type="int" >       72 </v>
   <v type="int" >       73 </v>
   <v type="int" >       74 </v>
   <v type="int" >       60 </v>
   <v type="int" >       76 </v>
   <v type="int" >       77 </v>
   <v type="int" >       63 </v>
  </varray>
 </primitive_cell>
 <kpoints>
  <generation param="Gamma">
   <v type="int" name="divisions">       4        3        2 </v>
   <v name="usershift">      0.00000000       0.00000000       0.00000000 </v>
   <v name="genvec1">      0.25000000      -0.00000000       0.00000000 </v>
   <v name="genvec2">      0.00000000       0.33333333       0.00000000 </v>
   <v name="genvec3">      0.00000000       0.00000000       0.50000000 </v>
   <v name="shift">      0.00000000       0.00000000       0.00000000 </v>
  </generation>
  <varray name="kpointlist" >
   <v>       0.00000000       0.00000000       0.00000000 </v>
   <v>       0.25000000      -0.00000000       0.00000000 </v>
   <v>       0.50000000      -0.00000000       0.00000000 </v>
   <v>       0.00000000       0.33333333       0.00000000 </v>
   <v>       0.25000000       0.33333333       0.00000000 </v>
   <v>       0.50000000       0.33333333       0.00000000 </v>
   <v>      -0.25000000       0.33333333       0.00000000 </v>
   <v>       0.00000000       0.00000000       0.50000000 </v>
   <v>       0.25000000      -0.00000000       0.50000000 </v>
   <v>       0.50000000      -0.00000000       0.50000000 </v>
   <v>       0.00000000       0.33333333       0.50000000 </v>
   <v>       0.25000000       0.33333333       0.50000000 </v>
   <v>       0.50000000       0.33333333       0.50000000 </v>
   <v>      -0.25000000       0.33333333       0.50000000 </v>
  </varray>
  <varray name="weights" >
   <v>       0.04166667 </v>
   <v>       0.08333333 </v>
   <v>       0.04166667 </v>
   <v>       0.08333333 </v>
   <v>       0.08333333 </v>
   <v>       0.08333333 </v>
   <v>       0.08333333 </v>
   <v>       0.04166667 </v>
   <v>       0.08333333 </v>
   <v>       0.04166667 </v>
   <v>       0.08333333 </v>
   <v>       0.08333333 </v>
   <v>       0.08333333 </v>
   <v>       0.08333333 </v>
  </varray>
 </kpoints>
 <parameters>
  <separator name="general" >
   <i type="string" name="SYSTEM">Si122 and Ge001 interface calculation</i>
   <i type="logical" name="LCOMPAT"> F  </i>
  </separator>
  <separator name="electronic" >
   <i type="string" name="PREC">normal</i>
   <i name="ENMAX">    700.00000000</i>
   <i name="ENAUG">    900.00000000</i>
   <i name="EDIFF">      0.00000010</i>
   <i type="int" name="IALGO">    38</i>
   <i type="int" name="IWAVPR">    10</i>
   <i type="int" name="NBANDS">   188</i>
   <i type="int" name="NBANDSLOW">    -1</i>
   <i type="int" name="NBANDSHIGH">    -1</i>
   <i name="NELECT">    312.00000000</i>
   <i type="int" name="TURBO">     0</i>
   <i type="int" name="IRESTART">     0</i>
   <i type="int" name="NREBOOT">     0</i>
   <i type="int" name="NMIN">     0</i>
   <i name="EREF">      0.00000000</i>
   <separator name="electronic smearing" >
    <i type="int" name="ISMEAR">     0</i>
    <i name="SIGMA">      0.01000000</i>
    <i name="KSPACING">      0.50000000</i>
    <i type="logical" name="KGAMMA"> T  </i>
    <i type="logical" name="KBLOWUP"> F  </i>
   </separator>
   <separator name="electronic projectors" >
    <i type="logical" name="LREAL"> T  </i>
    <v name="ROPT">     -0.00050000     -0.00050000</v>
    <i type="int" name="LMAXPAW">  -100</i>
    <i type="int" name="LMAXMIX">     6</i>
    <i type="logical" name="NLSPLINE"> F  </i>
   </separator>
   <separator name="electronic startup" >
    <i type="int" name="ISTART">     0</i>
    <i type="int" name="ICHARG">     2</i>
    <i type="int" name="INIWAV">     1</i>
   </separator>
   <separator name="electronic spin" >
    <i type="int" name="ISPIN">     2</i>
    <i type="logical" name="LNONCOLLINEAR"> F  </i>
    <v name="MAGMOM">      0.01282051      0.01282051      0.01282051      0.01282051      0.01282051      0.01282051      0.01282051      0.01282051      0.01282051      0.01282051      0.01282051      0.01282051      0.01282051      0.01282051      0.01282051      0.01282051      0.01282051      0.01282051      0.01282051      0.01282051
      0.01282051      0.01282051      0.01282051      0.01282051      0.01282051      0.01282051      0.01282051      0.01282051      0.01282051      0.01282051      0.01282051      0.01282051      0.01282051      0.01282051      0.01282051      0.01282051      0.01282051      0.01282051      0.01282051      0.01282051
      0.01282051      0.01282051      0.01282051      0.01282051      0.01282051      0.01282051      0.01282051      0.01282051      0.01282051      0.01282051      0.01282051      0.01282051      0.01282051      0.01282051      0.01282051      0.01282051      0.01282051      0.01282051      0.01282051      0.01282051
      0.01282051      0.01282051      0.01282051      0.01282051      0.01282051      0.01282051      0.01282051      0.01282051      0.01282051      0.01282051      0.01282051      0.01282051      0.01282051      0.01282051      0.01282051      0.01282051      0.01282051      0.01282051</v>
    <i name="NUPDOWN">      1.00000000</i>
    <i type="logical" name="LSORBIT"> F  </i>
    <v name="SAXIS">      0.00000000      0.00000000      1.00000000</v>
    <i type="logical" name="LSPIRAL"> F  </i>
    <v name="QSPIRAL">      0.00000000      0.00000000      0.00000000</v>
    <i type="logical" name="LZEROZ"> F  </i>
   </separator>
   <separator name="electronic exchange-correlation" >
    <i type="logical" name="LASPH"> T  </i>
   </separator>
   <separator name="electronic convergence" >
    <i type="int" name="NELM">   100</i>
    <i type="int" name="NELMDL">    -5</i>
    <i type="int" name="NELMIN">     2</i>
    <i name="ENINI">    700.00000000</i>
    <separator name="electronic convergence detail" >
     <i type="logical" name="LDIAG"> T  </i>
     <i type="logical" name="LSUBROT"> F  </i>
     <i name="WEIMIN">      0.00000000</i>
     <i name="EBREAK">      0.00000000</i>
     <i name="DEPER">      0.30000000</i>
     <i type="int" name="NRMM">     4</i>
     <i name="TIME">      0.40000000</i>
    </separator>
   </separator>
   <separator name="electronic mixer" >
    <i name="AMIX">      0.60000000</i>
    <i name="BMIX">      1.00000000</i>
    <i name="AMIN">      0.10000000</i>
    <i name="AMIX_MAG">      2.40000000</i>
    <i name="BMIX_MAG">      1.00000000</i>
    <separator name="electronic mixer details" >
     <i type="int" name="IMIX">     4</i>
     <i type="logical" name="MIXFIRST"> F  </i>
     <i type="int" name="MAXMIX">   -45</i>
     <i name="WC">    100.00000000</i>
     <i type="int" name="INIMIX">     1</i>
     <i type="int" name="MIXPRE">     1</i>
     <i type="int" name="MREMOVE">     5</i>
    </separator>
   </separator>
   <separator name="electronic dipolcorrection" >
    <i type="logical" name="LDIPOL"> F  </i>
    <i type="logical" name="LMONO"> F  </i>
    <i type="int" name="IDIPOL">     0</i>
    <i name="EPSILON">      1.00000000</i>
    <v name="DIPOL">   -100.00000000   -100.00000000   -100.00000000</v>
    <i name="EFIELD">      0.00000000</i>
    <i type="logical" name="LVACPOTAV"> F  </i>
   </separator>
  </separator>
  <separator name="grids" >
   <i type="int" name="NGX">    50</i>
   <i type="int" name="NGY">    80</i>
   <i type="int" name="NGZ">   126</i>
   <i type="int" name="NGXF">   100</i>
   <i type="int" name="NGYF">   160</i>
   <i type="int" name="NGZF">   252</i>
   <i type="logical" name="ADDGRID"> T  </i>
  </separator>
  <separator name="ionic" >
   <i type="int" name="NSW">     0</i>
   <i type="int" name="IBRION">    -1</i>
   <i type="int" name="MDALGO">     0</i>
   <i type="int" name="ISIF">     2</i>
   <i name="PSTRESS">      0.00000000</i>
   <i name="EDIFFG">      0.00000100</i>
   <i type="int" name="NFREE">     0</i>
   <i name="POTIM">      0.50000000</i>
   <i name="SMASS">     -3.00000000</i>
   <i name="SCALEE">      1.00000000</i>
  </separator>
  <separator name="ionic md" >
   <i name="TEBEG">      0.00010000</i>
   <i name="TEEND">      0.00010000</i>
   <i type="int" name="NBLOCK">     1</i>
   <i type="int" name="KBLOCK">     1</i>
   <i type="int" name="NPACO">   256</i>
   <i name="APACO">     10.00000000</i>
  </separator>
  <separator name="symmetry" >
   <i type="int" name="ISYM">     2</i>
   <i name="SYMPREC">      0.00001000</i>
  </separator>
  <separator name="dos" >
   <i type="int" name="LORBIT">     0</i>
   <v name="RWIGS">     -1.00000000     -1.00000000</v>
   <i type="int" name="NEDOS">   301</i>
   <i name="EMIN">     10.00000000</i>
   <i name="EMAX">    -10.00000000</i>
   <i name="EFERMI">      0.00000000</i>
  </separator>
  <separator name="writing" >
   <i type="int" name="NWRITE">     2</i>
   <i type="logical" name="LWAVE"> F  </i>
   <i type="logical" name="LDOWNSAMPLE"> F  </i>
   <i type="logical" name="LCHARG"> T  </i>
   <i type="logical" name="LPARD"> F  </i>
   <i type="logical" name="LVTOT"> F  </i>
   <i type="logical" name="LVHAR"> T  </i>
   <i type="logical" name="LELF"> F  </i>
   <i type="logical" name="LOPTICS"> F  </i>
   <v name="STM">      0.00000000      0.00000000      0.00000000      0.00000000      0.00000000      0.00000000      0.00000000</v>
  </separator>
  <separator name="performance" >
   <i type="int" name="NPAR">     1</i>
   <i type="int" name="NSIM">     4</i>
   <i type="int" name="NBLK">    -1</i>
   <i type="logical" name="LPLANE"> T  </i>
   <i type="logical" name="LSCALAPACK"> T  </i>
   <i type="logical" name="LSCAAWARE"> F  </i>
   <i type="logical" name="LSCALU"> F  </i>
   <i type="logical" name="LASYNC"> F  </i>
   <i type="logical" name="LORBITALREAL"> F  </i>
  </separator>
  <separator name="miscellaneous" >
   <i type="int" name="IDIOT">     3</i>
   <i type="int" name="PHON_NSTRUCT">    -1</i>
   <i type="logical" name="LMUSIC"> F  </i>
   <v name="POMASS">     28.08500000     72.61000000</v>
   <v name="DARWINR">      0.00000000      0.00000000</v>
   <v name="DARWINV">      1.00000000      1.00000000</v>
   <i type="logical" name="LCORR"> T  </i>
  </separator>
  <i type="logical" name="GGA_COMPAT"> T  </i>
  <i type="logical" name="LBERRY"> F  </i>
  <i type="int" name="ICORELEVEL">     0</i>
  <i type="logical" name="LDAU"> F  </i>
  <i type="int" name="I_CONSTRAINED_M">     0</i>
  <separator name="electronic exchange-correlation" >
   <i type="string" name="GGA    ">PE</i>
   <i type="string" name="XC_C">1</i>
   <i type="int" name="VOSKOWN">     0</i>
   <i type="logical" name="LHFCALC"> F  </i>
   <i type="string" name="PRECFOCK"></i>
   <i type="logical" name="LSYMGRAD"> F  </i>
   <i type="logical" name="LHFONE"> F  </i>
   <i type="logical" name="LRHFCALC"> F  </i>
   <i type="logical" name="LTHOMAS"> F  </i>
   <i type="logical" name="LMODELHF"> F  </i>
   <i type="logical" name="LFOCKACE"> F  </i>
   <i name="ENCUT4O">     -1.00000000</i>
   <i type="int" name="EXXOEP">     0</i>
   <i type="int" name="FOURORBIT">     0</i>
   <i name="AEXX">      0.00000000</i>
   <i name="HFALPHA">      0.00000000</i>
   <i name="MCALPHA">      0.00000000</i>
   <i name="ALDAX">      1.00000000</i>
   <i name="AGGAX">      1.00000000</i>
   <i name="AMGGAX">      1.00000000</i>
   <i name="ALDAC">      1.00000000</i>
   <i name="AGGAC">      1.00000000</i>
   <i name="AMGGAC">      1.00000000</i>
   <i type="int" name="NKREDX">     1</i>
   <i type="int" name="NKREDY">     1</i>
   <i type="int" name="NKREDZ">     1</i>
   <i type="logical" name="SHIFTRED"> F  </i>
   <i type="logical" name="ODDONLY"> F  </i>
   <i type="logical" name="EVENONLY"> F  </i>
   <i type="int" name="LMAXFOCK">     0</i>
   <i type="int" name="NMAXFOCKAE">     0</i>
   <i type="logical" name="LFOCKAEDFT"> F  </i>
   <i name="HFSCREEN">      0.00000000</i>
   <i name="HFSCREENC">      0.00000000</i>
   <i type="int" name="NBANDSGWLOW">     0</i>
  </separator>
  <separator name="vdW DFT" >
   <i type="logical" name="LUSE_VDW"> F  </i>
   <i type="int" name="IVDW_NL">    -1</i>
   <i type="logical" name="LSPIN_VDW"> F  </i>
   <i name="ZAB_VDW">     -0.84910000</i>
   <i name="GAMMA_VDW">      1.39626340</i>
   <i name="ALPHA_VDW">      0.00000000</i>
   <i name="PARAM1">      0.12340000</i>
   <i name="PARAM2">      1.00000000</i>
   <i name="BPARAM">      6.30000000</i>
   <i name="CPARAM">      0.00930000</i>
  </separator>
  <separator name="model GW" >
   <i type="int" name="MODEL_GW">     0</i>
   <i name="MODEL_EPS0">     12.91307200</i>
   <i name="MODEL_ALPHA">      1.00000000</i>
  </separator>
  <separator name="linear response parameters" >
   <i type="logical" name="LEPSILON"> F  </i>
   <i type="logical" name="LRPA"> F  </i>
   <i type="logical" name="LNABLA"> F  </i>
   <i type="logical" name="LVEL"> F  </i>
   <i name="CSHIFT">      0.10000000</i>
   <i name="OMEGAMAX">     -1.00000000</i>
   <i name="DEG_THRESHOLD">      0.00200000</i>
   <i name="RTIME">     -0.10000000</i>
   <i name="WPLASMAI">      0.00000000</i>
   <v name="DFIELD">      0.00000000      0.00000000      0.00000000</v>
   <v name="WPLASMA">      0.00000000      0.00000000      0.00000000      0.00000000      0.00000000      0.00000000      0.00000000      0.00000000      0.00000000</v>
  </separator>
  <separator name="orbital magnetization" >
   <i type="logical" name="NUCIND"> F  </i>
   <v name="MAGPOS">      0.00000000      0.00000000      0.00000000</v>
   <i type="logical" name="LNICSALL"> T  </i>
   <i type="logical" name="ORBITALMAG"> F  </i>
   <i type="logical" name="LMAGBLOCH"> F  </i>
   <i type="logical" name="LCHIMAG"> F  </i>
   <i type="logical" name="LGAUGE"> T  </i>
   <i type="int" name="MAGATOM">     0</i>
   <v name="MAGDIPOL">      0.00000000      0.00000000      0.00000000</v>
   <v name="AVECCONST">      0.00000000      0.00000000      0.00000000</v>
  </separator>
  <separator name="response functions" >
   <i type="logical" name="LALL_IN_ONE"> F  </i>
   <i type="int" name="IALL_IN_ONE">    -1</i>
   <i type="int" name="NBANDS_WAVE">    -1</i>
   <i type="logical" name="LFINITE_TEMPERATURE"> F  </i>
   <i type="logical" name="LADDER"> F  </i>
   <i type="logical" name="LRPAFORCE"> F  </i>
   <i type="logical" name="LFXC"> F  </i>
   <i type="logical" name="LHARTREE"> T  </i>
   <i type="int" name="IBSE">     0</i>
   <v type="int" name="KPOINT">    -1     0     0     0</v>
   <i type="logical" name="LTCTC"> F  </i>
   <i type="logical" name="LTCTE"> F  </i>
   <i type="logical" name="LTETE"> F  </i>
   <i type="logical" name="LTRIPLET"> F  </i>
   <i type="logical" name="LFXCEPS"> F  </i>
   <i type="logical" name="LFXHEG"> F  </i>
   <i type="int" name="NATURALO">     2</i>
   <i type="logical" name="LHOLEGF"> F  </i>
   <i type="logical" name="L2ORDER"> F  </i>
   <i type="logical" name="LDMP1"> F  </i>
   <i type="logical" name="LMP2LT"> F  </i>
   <i type="logical" name="LSMP2LT"> F  </i>
   <i type="logical" name="LGWLF"> F  </i>
   <i name="ENCUTGW">     -1.60000002</i>
   <i name="ENCUTGWSOFT">     -1.60000002</i>
   <i name="ENCUTLF">     -1.00000000</i>
   <i type="logical" name="ESF_SPLINES"> F  </i>
   <i name="ESF_CONV">      0.01000000</i>
   <i type="int" name="ESF_NINTER">    15</i>
   <i type="int" name="LMAXMP2">    -1</i>
   <i name="SCISSOR">      0.00000000</i>
   <i type="int" name="NOMEGA">     0</i>
   <i type="int" name="NOMEGAR">     0</i>
   <i type="int" name="NBANDSGW">    -1</i>
   <i type="int" name="NBANDSO">    -1</i>
   <i type="int" name="NBANDSV">    -1</i>
   <i type="int" name="NELMGW">     1</i>
   <i type="int" name="NELMHF">     1</i>
   <i type="int" name="DIM">     3</i>
   <i type="int" name="IESPILON">     4</i>
   <i type="int" name="ANTIRES">     0</i>
   <i name="OMEGAMAX">    -30.00000000</i>
   <i name="OMEGAMIN">    -30.00000000</i>
   <i name="OMEGATL">   -200.00000000</i>
   <i type="int" name="OMEGAGRID">     0</i>
   <i name="CSHIFT">     -0.10000000</i>
   <i type="logical" name="LSELFENERGY"> F  </i>
   <i type="logical" name="LSPECTRAL"> F  </i>
   <i type="logical" name="LSPECTRALGW"> F  </i>
   <i type="logical" name="LSINGLES"> F  </i>
   <i type="logical" name="LFERMIGW"> F  </i>
   <i type="logical" name="ODDONLYGW"> F  </i>
   <i type="logical" name="EVENONLYGW"> F  </i>
   <i type="int" name="NKREDLFX">     1</i>
   <i type="int" name="NKREDLFY">     1</i>
   <i type="int" name="NKREDLFZ">     1</i>
   <i type="int" name="MAXMEM">  2800</i>
   <i type="int" name="TELESCOPE">     0</i>
   <i type="int" name="NTAUPAR">    -1</i>
   <i type="int" name="NOMEGAPAR">    -1</i>
   <i name="DAMP_NEWTON">      0.80000001</i>
   <i name="LAMBDA">      1.00000000</i>
  </separator>
  <separator name="External order field" >
   <i name="OFIELD_KAPPA">      0.00000000</i>
   <v name="OFIELD_K">      0.00000000      0.00000000      0.00000000</v>
   <i name="OFIELD_Q6_NEAR">      0.00000000</i>
   <i name="OFIELD_Q6_FAR">      0.00000000</i>
   <i name="OFIELD_A">      0.00000000</i>
  </separator>
  <separator name="optional k-points parameters" >
   <i type="int" name="KPOINTS_OPT_MODE">     1</i>
   <i type="logical" name="LKPOINTS_OPT"> F  </i>
  </separator>
 </parameters>
 <atominfo>
  <atoms>      78 </atoms>
  <types>       2 </types>
  <array name="atoms" >
   <dimension dim="1">ion</dimension>
   <field type="string">element</field>
   <field type="int">atomtype</field>
   <set>
    <rc><c>Si</c><c>   1</c></rc>
    <rc><c>Si</c><c>   1</c></rc>
    <rc><c>Si</c><c>   1</c></rc>
    <rc><c>Si</c><c>   1</c></rc>
    <rc><c>Si</c><c>   1</c></rc>
    <rc><c>Si</c><c>   1</c></rc>
    <rc><c>Si</c><c>   1</c></rc>
    <rc><c>Si</c><c>   1</c></rc>
    <rc><c>Si</c><c>   1</c></rc>
    <rc><c>Si</c><c>   1</c></rc>
    <rc><c>Si</c><c>   1</c></rc>
    <rc><c>Si</c><c>   1</c></rc>
    <rc><c>Ge</c><c>   2</c></rc>
    <rc><c>Ge</c><c>   2</c></rc>
    <rc><c>Ge</c><c>   2</c></rc>
    <rc><c>Ge</c><c>   2</c></rc>
    <rc><c>Ge</c><c>   2</c></rc>
    <rc><c>Ge</c><c>   2</c></rc>
    <rc><c>Ge</c><c>   2</c></rc>
    <rc><c>Ge</c><c>   2</c></rc>
    <rc><c>Ge</c><c>   2</c></rc>
    <rc><c>Ge</c><c>   2</c></rc>
    <rc><c>Ge</c><c>   2</c></rc>
    <rc><c>Ge</c><c>   2</c></rc>
    <rc><c>Ge</c><c>   2</c></rc>
    <rc><c>Ge</c><c>   2</c></rc>
    <rc><c>Ge</c><c>   2</c></rc>
    <rc><c>Ge</c><c>   2</c></rc>
    <rc><c>Ge</c><c>   2</c></rc>
    <rc><c>Ge</c><c>   2</c></rc>
    <rc><c>Ge</c><c>   2</c></rc>
    <rc><c>Ge</c><c>   2</c></rc>
    <rc><c>Ge</c><c>   2</c></rc>
    <rc><c>Ge</c><c>   2</c></rc>
    <rc><c>Ge</c><c>   2</c></rc>
    <rc><c>Ge</c><c>   2</c></rc>
    <rc><c>Ge</c><c>   2</c></rc>
    <rc><c>Ge</c><c>   2</c></rc>
    <rc><c>Ge</c><c>   2</c></rc>
    <rc><c>Ge</c><c>   2</c></rc>
    <rc><c>Ge</c><c>   2</c></rc>
    <rc><c>Ge</c><c>   2</c></rc>
    <rc><c>Ge</c><c>   2</c></rc>
    <rc><c>Ge</c><c>   2</c></rc>
    <rc><c>Ge</c><c>   2</c></rc>
    <rc><c>Ge</c><c>   2</c></rc>
    <rc><c>Ge</c><c>   2</c></rc>
    <rc><c>Ge</c><c>   2</c></rc>
    <rc><c>Ge</c><c>   2</c></rc>
    <rc><c>Ge</c><c>   2</c></rc>
    <rc><c>Ge</c><c>   2</c></rc>
    <rc><c>Ge</c><c>   2</c></rc>
    <rc><c>Ge</c><c>   2</c></rc>
    <rc><c>Ge</c><c>   2</c></rc>
    <rc><c>Ge</c><c>   2</c></rc>
    <rc><c>Ge</c><c>   2</c></rc>
    <rc><c>Ge</c><c>   2</c></rc>
    <rc><c>Ge</c><c>   2</c></rc>
    <rc><c>Ge</c><c>   2</c></rc>
    <rc><c>Ge</c><c>   2</c></rc>
    <rc><c>Ge</c><c>   2</c></rc>
    <rc><c>Ge</c><c>   2</c></rc>
    <rc><c>Ge</c><c>   2</c></rc>
    <rc><c>Ge</c><c>   2</c></rc>
    <rc><c>Ge</c><c>   2</c></rc>
    <rc><c>Ge</c><c>   2</c></rc>
    <rc><c>Ge</c><c>   2</c></rc>
    <rc><c>Ge</c><c>   2</c></rc>
    <rc><c>Ge</c><c>   2</c></rc>
    <rc><c>Ge</c><c>   2</c></rc>
    <rc><c>Ge</c><c>   2</c></rc>
    <rc><c>Ge</c><c>   2</c></rc>
    <rc><c>Ge</c><c>   2</c></rc>
    <rc><c>Ge</c><c>   2</c></rc>
    <rc><c>Ge</c><c>   2</c></rc>
    <rc><c>Ge</c><c>   2</c></rc>
    <rc><c>Ge</c><c>   2</c></rc>
    <rc><c>Ge</c><c>   2</c></rc>
   </set>
  </array>
  <array name="atomtypes" >
   <dimension dim="1">type</dimension>
   <field type="int">atomspertype</field>
   <field type="string">element</field>
   <field>mass</field>
   <field>valence</field>
   <field type="string">pseudopotential</field>
   <set>
    <rc><c>  12</c><c>Si</c><c>     28.08500000</c><c>      4.00000000</c><c>  PAW_PBE Si 05Jan2001                  </c></rc>
    <rc><c>  66</c><c>Ge</c><c>     72.61000000</c><c>      4.00000000</c><c>  PAW_PBE Ge 05Jan2001                  </c></rc>
   </set>
  </array>
 </atominfo>
 <structure name="initialpos" >
  <crystal>
   <varray name="basis" >
    <v>       7.74989032       0.00000000       0.00000000 </v>
    <v>       3.87494516      11.62483548       0.00000000 </v>
    <v>       0.00000000       0.00000000      18.63333333 </v>
   </varray>
   <i name="volume">   1678.69936005 </i>
   <varray name="rec_basis" >
    <v>       0.12903408      -0.04301136       0.00000000 </v>
    <v>       0.00000000       0.08602272       0.00000000 </v>
    <v>       0.00000000       0.00000000       0.05366726 </v>
   </varray>
  </crystal>
  <varray name="positions" >
   <v>       0.00000000       0.00000000       0.00000000 </v>
   <v>       0.11111111       0.27777778       0.04901610 </v>
   <v>       0.22222222       0.55555556       0.09803220 </v>
   <v>       0.50000000       0.00000000       0.00000000 </v>
   <v>       0.61111111       0.27777778       0.04901610 </v>
   <v>       0.72222222       0.55555556       0.09803220 </v>
   <v>       0.80555556       0.88888889       0.02450805 </v>
   <v>       0.91666667       0.16666667       0.07352415 </v>
   <v>       0.02777778       0.44444444       0.12254025 </v>
   <v>       0.30555556       0.88888889       0.02450805 </v>
   <v>       0.41666667       0.16666667       0.07352415 </v>
   <v>       0.52777778       0.44444444       0.12254025 </v>
   <v>       0.10526316       0.72131148       0.18157424 </v>
   <v>       0.43859649       0.55464481       0.33345259 </v>
   <v>       0.77192983       0.38797814       0.48533095 </v>
   <v>       0.10526316       0.22131148       0.63720930 </v>
   <v>       0.43859649       0.05464481       0.78908766 </v>
   <v>       0.77192983       0.88797814       0.94096601 </v>
   <v>       0.43859649       0.05464481       0.18157424 </v>
   <v>       0.77192983       0.88797814       0.33345259 </v>
   <v>       0.10526316       0.72131148       0.48533095 </v>
   <v>       0.43859649       0.55464481       0.63720930 </v>
   <v>       0.77192983       0.38797814       0.78908766 </v>
   <v>       0.10526316       0.22131148       0.94096601 </v>
   <v>       0.77192983       0.38797814       0.18157424 </v>
   <v>       0.10526316       0.22131148       0.33345259 </v>
   <v>       0.43859649       0.05464481       0.48533095 </v>
   <v>       0.77192983       0.88797814       0.63720930 </v>
   <v>       0.10526316       0.72131148       0.78908766 </v>
   <v>       0.43859649       0.55464481       0.94096601 </v>
   <v>       0.60526316       0.72131148       0.18157424 </v>
   <v>       0.93859649       0.55464481       0.33345259 </v>
   <v>       0.27192983       0.38797814       0.48533095 </v>
   <v>       0.60526316       0.22131148       0.63720930 </v>
   <v>       0.93859649       0.05464481       0.78908766 </v>
   <v>       0.27192983       0.88797814       0.94096601 </v>
   <v>       0.93859649       0.05464481       0.18157424 </v>
   <v>       0.27192983       0.88797814       0.33345259 </v>
   <v>       0.60526316       0.72131148       0.48533095 </v>
   <v>       0.93859649       0.55464481       0.63720930 </v>
   <v>       0.27192983       0.38797814       0.78908766 </v>
   <v>       0.60526316       0.22131148       0.94096601 </v>
   <v>       0.27192983       0.38797814       0.18157424 </v>
   <v>       0.60526316       0.22131148       0.33345259 </v>
   <v>       0.93859649       0.05464481       0.48533095 </v>
   <v>       0.27192983       0.88797814       0.63720930 </v>
   <v>       0.60526316       0.72131148       0.78908766 </v>
   <v>       0.93859649       0.55464481       0.94096601 </v>
   <v>       0.02192983       0.88797814       0.25751342 </v>
   <v>       0.35526316       0.72131148       0.40939177 </v>
   <v>       0.68859649       0.55464481       0.56127013 </v>
   <v>       0.02192983       0.38797814       0.71314848 </v>
   <v>       0.35526316       0.22131148       0.86502683 </v>
   <v>       0.35526316       0.22131148       0.25751342 </v>
   <v>       0.68859649       0.05464481       0.40939177 </v>
   <v>       0.02192983       0.88797814       0.56127013 </v>
   <v>       0.35526316       0.72131148       0.71314848 </v>
   <v>       0.68859649       0.55464481       0.86502683 </v>
   <v>       0.68859649       0.55464481       0.25751342 </v>
   <v>       0.02192983       0.38797814       0.40939177 </v>
   <v>       0.35526316       0.22131148       0.56127013 </v>
   <v>       0.68859649       0.05464481       0.71314848 </v>
   <v>       0.02192983       0.88797814       0.86502683 </v>
   <v>       0.52192983       0.88797814       0.25751342 </v>
   <v>       0.85526316       0.72131148       0.40939177 </v>
   <v>       0.18859649       0.55464481       0.56127013 </v>
   <v>       0.52192983       0.38797814       0.71314848 </v>
   <v>       0.85526316       0.22131148       0.86502683 </v>
   <v>       0.85526316       0.22131148       0.25751342 </v>
   <v>       0.18859649       0.05464481       0.40939177 </v>
   <v>       0.52192983       0.88797814       0.56127013 </v>
   <v>       0.85526316       0.72131148       0.71314848 </v>
   <v>       0.18859649       0.55464481       0.86502683 </v>
   <v>       0.18859649       0.55464481       0.25751342 </v>
   <v>       0.52192983       0.38797814       0.40939177 </v>
   <v>       0.85526316       0.22131148       0.56127013 </v>
   <v>       0.18859649       0.05464481       0.71314848 </v>
   <v>       0.52192983       0.88797814       0.86502683 </v>
  </varray>
 </structure>
 <calculation>
  <scstep>
   <time name="dav">   52.35   52.75</time>
   <time name="total">   56.29   56.71</time>
   <energy>
    <i name="alphaZ">    604.90751195 </i>
    <i name="ewald">  -8384.35664720 </i>
    <i name="hartreedc">   -708.30715792 </i>
    <i name="XCdc">   -601.20344389 </i>
    <i name="pawpsdc">   6875.06741709 </i>
    <i name="pawaedc">  -5707.76819619 </i>
    <i name="eentropy">     -0.00102534 </i>
    <i name="bandstr">   1297.34579804 </i>
    <i name="atom">   8166.52953475 </i>
    <i name="e_fr_energy">   1542.21379129 </i>
    <i name="e_wo_entrp">   1542.21481664 </i>
    <i name="e_0_energy">   1542.21430396 </i>
   </energy>
  </scstep>
  <scstep>
   <time name="dav">   58.74   59.19</time>
   <time name="total">   58.74   59.21</time>
   <energy>
    <i name="e_fr_energy">   -150.72160169 </i>
    <i name="e_wo_entrp">   -150.72033990 </i>
    <i name="e_0_energy">   -150.72097080 </i>
   </energy>
  </scstep>
  <scstep>
   <time name="dav">   61.13   61.70</time>
   <time name="total">   61.13   61.71</time>
   <energy>
    <i name="e_fr_energy">   -319.24264040 </i>
    <i name="e_wo_entrp">   -319.24148095 </i>
    <i name="e_0_energy">   -319.24206067 </i>
   </energy>
  </scstep>
  <scstep>
   <time name="dav">   59.71   60.22</time>
   <time name="total">   59.71   60.23</time>
   <energy>
    <i name="e_fr_energy">   -325.31751648 </i>
    <i name="e_wo_entrp">   -325.31618198 </i>
    <i name="e_0_energy">   -325.31684923 </i>
   </energy>
  </scstep>
  <scstep>
   <time name="dav">   65.15   65.72</time>
   <time name="total">   68.36   68.95</time>
   <energy>
    <i name="e_fr_energy">   -325.54696781 </i>
    <i name="e_wo_entrp">   -325.54560164 </i>
    <i name="e_0_energy">   -325.54628472 </i>
   </energy>
  </scstep>
  <scstep>
   <time name="dav">   59.24   59.76</time>
   <time name="total">   66.40   66.96</time>
   <energy>
    <i name="e_fr_energy">   -318.50831297 </i>
    <i name="e_wo_entrp">   -318.50752822 </i>
    <i name="e_0_energy">   -318.50792059 </i>
   </energy>
  </scstep>
  <scstep>
   <time name="dav">   58.94   59.39</time>
   <time name="total">   66.06   66.55</time>
   <energy>
    <i name="e_fr_energy">   -318.93343014 </i>
    <i name="e_wo_entrp">   -318.93167772 </i>
    <i name="e_0_energy">   -318.93255393 </i>
   </energy>
  </scstep>
  <scstep>
   <time name="dav">   59.88   60.37</time>
   <time name="total">   67.03   67.56</time>
   <energy>
    <i name="e_fr_energy">   -317.75036499 </i>
    <i name="e_wo_entrp">   -317.74938197 </i>
    <i name="e_0_energy">   -317.74987348 </i>
   </energy>
  </scstep>
  <scstep>
   <time name="dav">   59.11   59.59</time>
   <time name="total">   66.28   66.79</time>
   <energy>
    <i name="e_fr_energy">   -317.73044556 </i>
    <i name="e_wo_entrp">   -317.72974924 </i>
    <i name="e_0_energy">   -317.73009740 </i>
   </energy>
  </scstep>
  <scstep>
   <time name="dav">   57.83   58.28</time>
   <time name="total">   65.01   65.50</time>
   <energy>
    <i name="e_fr_energy">   -317.72761783 </i>
    <i name="e_wo_entrp">   -317.72708936 </i>
    <i name="e_0_energy">   -317.72735360 </i>
   </energy>
  </scstep>
  <scstep>
   <time name="dav">   59.54   60.04</time>
   <time name="total">   66.65   67.19</time>
   <energy>
    <i name="e_fr_energy">   -317.72717439 </i>
    <i name="e_wo_entrp">   -317.72672992 </i>
    <i name="e_0_energy">   -317.72695215 </i>
   </energy>
  </scstep>
  <scstep>
   <time name="dav">   58.17   58.65</time>
   <time name="total">   65.29   65.83</time>
   <energy>
    <i name="e_fr_energy">   -317.72770032 </i>
    <i name="e_wo_entrp">   -317.72724948 </i>
    <i name="e_0_energy">   -317.72747490 </i>
   </energy>
  </scstep>
  <scstep>
   <time name="dav">   58.38   58.86</time>
   <time name="total">   65.57   66.10</time>
   <energy>
    <i name="e_fr_energy">   -317.72804407 </i>
    <i name="e_wo_entrp">   -317.72760174 </i>
    <i name="e_0_energy">   -317.72782290 </i>
   </energy>
  </scstep>
  <scstep>
   <time name="dav">   60.33   60.83</time>
   <time name="total">   67.53   68.07</time>
   <energy>
    <i name="e_fr_energy">   -317.72815609 </i>
    <i name="e_wo_entrp">   -317.72771522 </i>
    <i name="e_0_energy">   -317.72793566 </i>
   </energy>
  </scstep>
  <scstep>
   <time name="dav">   60.92   61.45</time>
   <time name="total">   68.12   68.68</time>
   <energy>
    <i name="e_fr_energy">   -317.72820469 </i>
    <i name="e_wo_entrp">   -317.72775855 </i>
    <i name="e_0_energy">   -317.72798162 </i>
   </energy>
  </scstep>
  <scstep>
   <time name="dav">   57.99   58.45</time>
   <time name="total">   65.13   65.66</time>
   <energy>
    <i name="e_fr_energy">   -317.72822253 </i>
    <i name="e_wo_entrp">   -317.72777716 </i>
    <i name="e_0_energy">   -317.72799985 </i>
   </energy>
  </scstep>
  <scstep>
   <time name="dav">   61.00   61.50</time>
   <time name="total">   68.16   68.70</time>
   <energy>
    <i name="e_fr_energy">   -317.72822743 </i>
    <i name="e_wo_entrp">   -317.72778296 </i>
    <i name="e_0_energy">   -317.72800520 </i>
   </energy>
  </scstep>
  <scstep>
   <time name="dav">   59.53   60.02</time>
   <time name="total">   66.70   67.23</time>
   <energy>
    <i name="e_fr_energy">   -317.72823221 </i>
    <i name="e_wo_entrp">   -317.72778708 </i>
    <i name="e_0_energy">   -317.72800964 </i>
   </energy>
  </scstep>
  <scstep>
   <time name="dav">   59.72   60.22</time>
   <time name="total">   66.83   67.37</time>
   <energy>
    <i name="e_fr_energy">   -317.72823569 </i>
    <i name="e_wo_entrp">   -317.72778990 </i>
    <i name="e_0_energy">   -317.72801279 </i>
   </energy>
  </scstep>
  <scstep>
   <time name="dav">   58.00   58.47</time>
   <time name="total">   65.20   65.72</time>
   <energy>
    <i name="e_fr_energy">   -317.72823624 </i>
    <i name="e_wo_entrp">   -317.72779055 </i>
    <i name="e_0_energy">   -317.72801340 </i>
   </energy>
  </scstep>
  <scstep>
   <time name="dav">   45.39   45.78</time>
   <time name="total">   49.33   49.75</time>
   <energy>
    <i name="alphaZ">    604.90751195 </i>
    <i name="ewald">  -8384.35664720 </i>
    <i name="hartreedc">   -832.79085910 </i>
    <i name="XCdc">   -579.17794450 </i>
    <i name="pawpsdc">  22051.83985246 </i>
    <i name="pawaedc"> -20899.52027310 </i>
    <i name="eentropy">     -0.00044570 </i>
    <i name="bandstr">   -445.15896590 </i>
    <i name="atom">   8166.52953475 </i>
    <i name="e_fr_energy">   -317.72823634 </i>
    <i name="e_wo_entrp">   -317.72779064 </i>
    <i name="e_0_energy">   -317.72801349 </i>
   </energy>
  </scstep>
  <structure>
   <crystal>
    <varray name="basis" >
     <v>       7.74989032       0.00000000       0.00000000 </v>
     <v>       3.87494516      11.62483548       0.00000000 </v>
     <v>       0.00000000       0.00000000      18.63333333 </v>
    </varray>
    <i name="volume">   1678.69936005 </i>
    <varray name="rec_basis" >
     <v>       0.12903408      -0.04301136       0.00000000 </v>
     <v>       0.00000000       0.08602272       0.00000000 </v>
     <v>       0.00000000       0.00000000       0.05366726 </v>
    </varray>
   </crystal>
   <varray name="positions" >
    <v>       0.00000000       0.00000000       0.00000000 </v>
    <v>       0.11111111       0.27777778       0.04901610 </v>
    <v>       0.22222222       0.55555556       0.09803220 </v>
    <v>       0.50000000       0.00000000       0.00000000 </v>
    <v>       0.61111111       0.27777778       0.04901610 </v>
    <v>       0.72222222       0.55555556       0.09803220 </v>
    <v>       0.80555556       0.88888889       0.02450805 </v>
    <v>       0.91666667       0.16666667       0.07352415 </v>
    <v>       0.02777778       0.44444444       0.12254025 </v>
    <v>       0.30555556       0.88888889       0.02450805 </v>
    <v>       0.41666667       0.16666667       0.07352415 </v>
    <v>       0.52777778       0.44444444       0.12254025 </v>
    <v>       0.10526316       0.72131148       0.18157424 </v>
    <v>       0.43859649       0.55464481       0.33345259 </v>
    <v>       0.77192983       0.38797814       0.48533095 </v>
    <v>       0.10526316       0.22131148       0.63720930 </v>
    <v>       0.43859649       0.05464481       0.78908766 </v>
    <v>       0.77192983       0.88797814       0.94096601 </v>
    <v>       0.43859649       0.05464481       0.18157424 </v>
    <v>       0.77192983       0.88797814       0.33345259 </v>
    <v>       0.10526316       0.72131148       0.48533095 </v>
    <v>       0.43859649       0.55464481       0.63720930 </v>
    <v>       0.77192983       0.38797814       0.78908766 </v>
    <v>       0.10526316       0.22131148       0.94096601 </v>
    <v>       0.77192983       0.38797814       0.18157424 </v>
    <v>       0.10526316       0.22131148       0.33345259 </v>
    <v>       0.43859649       0.05464481       0.48533095 </v>
    <v>       0.77192983       0.88797814       0.63720930 </v>
    <v>       0.10526316       0.72131148       0.78908766 </v>
    <v>       0.43859649       0.55464481       0.94096601 </v>
    <v>       0.60526316       0.72131148       0.18157424 </v>
    <v>       0.93859649       0.55464481       0.33345259 </v>
    <v>       0.27192983       0.38797814       0.48533095 </v>
    <v>       0.60526316       0.22131148       0.63720930 </v>
    <v>       0.93859649       0.05464481       0.78908766 </v>
    <v>       0.27192983       0.88797814       0.94096601 </v>
    <v>       0.93859649       0.05464481       0.18157424 </v>
    <v>       0.27192983       0.88797814       0.33345259 </v>
    <v>       0.60526316       0.72131148       0.48533095 </v>
    <v>       0.93859649       0.55464481       0.63720930 </v>
    <v>       0.27192983       0.38797814       0.78908766 </v>
    <v>       0.60526316       0.22131148       0.94096601 </v>
    <v>       0.27192983       0.38797814       0.18157424 </v>
    <v>       0.60526316       0.22131148       0.33345259 </v>
    <v>       0.93859649       0.05464481       0.48533095 </v>
    <v>       0.27192983       0.88797814       0.63720930 </v>
    <v>       0.60526316       0.72131148       0.78908766 </v>
    <v>       0.93859649       0.55464481       0.94096601 </v>
    <v>       0.02192983       0.88797814       0.25751342 </v>
    <v>       0.35526316       0.72131148       0.40939177 </v>
    <v>       0.68859649       0.55464481       0.56127013 </v>
    <v>       0.02192983       0.38797814       0.71314848 </v>
    <v>       0.35526316       0.22131148       0.86502683 </v>
    <v>       0.35526316       0.22131148       0.25751342 </v>
    <v>       0.68859649       0.05464481       0.40939177 </v>
    <v>       0.02192983       0.88797814       0.56127013 </v>
    <v>       0.35526316       0.72131148       0.71314848 </v>
    <v>       0.68859649       0.55464481       0.86502683 </v>
    <v>       0.68859649       0.55464481       0.25751342 </v>
    <v>       0.02192983       0.38797814       0.40939177 </v>
    <v>       0.35526316       0.22131148       0.56127013 </v>
    <v>       0.68859649       0.05464481       0.71314848 </v>
    <v>       0.02192983       0.88797814       0.86502683 </v>
    <v>       0.52192983       0.88797814       0.25751342 </v>
    <v>       0.85526316       0.72131148       0.40939177 </v>
    <v>       0.18859649       0.55464481       0.56127013 </v>
    <v>       0.52192983       0.38797814       0.71314848 </v>
    <v>       0.85526316       0.22131148       0.86502683 </v>
    <v>       0.85526316       0.22131148       0.25751342 </v>
    <v>       0.18859649       0.05464481       0.40939177 </v>
    <v>       0.52192983       0.88797814       0.56127013 </v>
    <v>       0.85526316       0.72131148       0.71314848 </v>
    <v>       0.18859649       0.55464481       0.86502683 </v>
    <v>       0.18859649       0.55464481       0.25751342 </v>
    <v>       0.52192983       0.38797814       0.40939177 </v>
    <v>       0.85526316       0.22131148       0.56127013 </v>
    <v>       0.18859649       0.05464481       0.71314848 </v>
    <v>       0.52192983       0.88797814       0.86502683 </v>
   </varray>
  </structure>
  <varray name="forces" >
   <v>      -0.18811294       1.48975866       1.24339020 </v>
   <v>       0.15406149       0.84162317       2.99548313 </v>
   <v>       0.77014786       1.72333708      -1.49386298 </v>
   <v>      -0.18811294       1.48975866       1.24339020 </v>
   <v>       0.15406149       0.84162317       2.99548313 </v>
   <v>       0.77014786       1.72333708      -1.49386298 </v>
   <v>       6.14487984       0.20178504      37.86685549 </v>
   <v>       0.13450073      -0.51038116       0.18517337 </v>
   <v>      -3.16948151       0.52211533      -2.66385911 </v>
   <v>       6.14487984       0.20178504      37.86685549 </v>
   <v>       0.13450073      -0.51038116       0.18517337 </v>
   <v>      -3.16948151       0.52211533      -2.66385911 </v>
   <v>      -0.12158000      -0.20192830      -1.24165862 </v>
   <v>      -0.02974281      -0.08068471       0.12856887 </v>
   <v>      -0.00883662       0.02024196      -0.00822824 </v>
   <v>      -0.00423584      -0.02139069      -0.00761256 </v>
   <v>       0.10112414      -0.01972213      -0.04296223 </v>
   <v>      -5.77900175      -1.36812038     -36.87892004 </v>
   <v>      -0.17431708       0.44478928      -0.47291150 </v>
   <v>      -0.01194614      -0.03478222       0.04773595 </v>
   <v>      -0.00115676       0.01374261      -0.01077884 </v>
   <v>      -0.00496226       0.01334903      -0.02663111 </v>
   <v>      -0.03087749       0.00422850      -0.22750206 </v>
   <v>      -0.37903506      -0.81074223      -3.21205005 </v>
   <v>       2.49695893      -2.20034628       2.80103229 </v>
   <v>      -0.02003481       0.26944133       0.10450239 </v>
   <v>      -0.02005504      -0.02522825       0.00004950 </v>
   <v>      -0.02922584       0.00173996       0.02455294 </v>
   <v>      -0.03121752      -0.05629480      -0.32536119 </v>
   <v>      -0.23466888      -0.38389286       1.34941614 </v>
   <v>      -0.12158000      -0.20192830      -1.24165862 </v>
   <v>      -0.02974281      -0.08068471       0.12856887 </v>
   <v>      -0.00883662       0.02024196      -0.00822824 </v>
   <v>      -0.00423584      -0.02139069      -0.00761256 </v>
   <v>       0.10112414      -0.01972213      -0.04296223 </v>
   <v>      -5.77900175      -1.36812038     -36.87892004 </v>
   <v>      -0.17431708       0.44478928      -0.47291150 </v>
   <v>      -0.01194614      -0.03478222       0.04773595 </v>
   <v>      -0.00115676       0.01374261      -0.01077884 </v>
   <v>      -0.00496226       0.01334903      -0.02663111 </v>
   <v>      -0.03087749       0.00422850      -0.22750206 </v>
   <v>      -0.37903506      -0.81074223      -3.21205005 </v>
   <v>       2.49695893      -2.20034628       2.80103229 </v>
   <v>      -0.02003481       0.26944133       0.10450239 </v>
   <v>      -0.02005504      -0.02522825       0.00004950 </v>
   <v>      -0.02922584       0.00173996       0.02455294 </v>
   <v>      -0.03121752      -0.05629480      -0.32536119 </v>
   <v>      -0.23466888      -0.38389286       1.34941614 </v>
   <v>       0.18855415       0.05234491      -0.42010160 </v>
   <v>       0.02650444      -0.09095643      -0.01967041 </v>
   <v>       0.01633767      -0.01432411       0.01598754 </v>
   <v>       0.02438491       0.05246383      -0.05627112 </v>
   <v>      -0.04727913       0.19004018       0.31319606 </v>
   <v>       0.07770157      -0.40524931       0.29400922 </v>
   <v>       0.03211615       0.10981290      -0.05025063 </v>
   <v>       0.01606712      -0.02819456      -0.00081487 </v>
   <v>       0.02358412      -0.04970341      -0.04004382 </v>
   <v>       0.11424206      -0.02511931       0.04472515 </v>
   <v>       0.08338759       0.40554541       0.88896779 </v>
   <v>       0.01292154      -0.00349746       0.14493341 </v>
   <v>       0.02159394       0.07354943       0.01818160 </v>
   <v>       0.00347326      -0.00523487      -0.03803101 </v>
   <v>      -0.15677404      -0.09411517      -1.22923904 </v>
   <v>       0.18855415       0.05234491      -0.42010160 </v>
   <v>       0.02650444      -0.09095643      -0.01967041 </v>
   <v>       0.01633767      -0.01432411       0.01598754 </v>
   <v>       0.02438491       0.05246383      -0.05627112 </v>
   <v>      -0.04727913       0.19004018       0.31319606 </v>
   <v>       0.07770157      -0.40524931       0.29400922 </v>
   <v>       0.03211615       0.10981290      -0.05025063 </v>
   <v>       0.01606712      -0.02819456      -0.00081487 </v>
   <v>       0.02358412      -0.04970341      -0.04004382 </v>
   <v>       0.11424206      -0.02511931       0.04472515 </v>
   <v>       0.08338759       0.40554541       0.88896779 </v>
   <v>       0.01292154      -0.00349746       0.14493341 </v>
   <v>       0.02159394       0.07354943       0.01818160 </v>
   <v>       0.00347326      -0.00523487      -0.03803101 </v>
   <v>      -0.15677404      -0.09411517      -1.22923904 </v>
  </varray>
  <varray name="stress" >
   <v>      97.82183918      -1.52570003      25.73069003 </v>
   <v>      -1.52570052      87.22103843       3.27808976 </v>
   <v>      25.73070549       3.27806780     220.54674748 </v>
  </varray>
  <energy>
   <i name="e_fr_energy">   -317.72823634 </i>
   <i name="e_wo_entrp">   -317.72779064 </i>
   <i name="e_0_energy">   -317.72801349 </i>
  </energy>
  <time name="totalsc"> 1433.61 1445.58</time>
  <eigenvalues>
   <array>
    <dimension dim="1">band</dimension>
    <dimension dim="2">kpoint</dimension>
    <dimension dim="3">spin</dimension>
    <field>eigene</field>
    <field>occ</field>
    <set>
     <set comment="spin 1">
      <set comment="kpoint 1">
       <r>   -9.7646    1.0000 </r>
       <r>   -9.0686    1.0000 </r>
       <r>   -8.7068    1.0000 </r>
       <r>   -8.3300    1.0000 </r>
       <r>   -8.3040    1.0000 </r>
       <r>   -7.9113    1.0000 </r>
       <r>   -7.8178    1.0000 </r>
       <r>   -7.7320    1.0000 </r>
       <r>   -7.6639    1.0000 </r>
       <r>   -7.5406    1.0000 </r>
       <r>   -7.4691    1.0000 </r>
       <r>   -7.3214    1.0000 </r>
       <r>   -7.0244    1.0000 </r>
       <r>   -6.8775    1.0000 </r>
       <r>   -6.7776    1.0000 </r>
       <r>   -6.6468    1.0000 </r>
       <r>   -6.6051    1.0000 </r>
       <r>   -6.5793    1.0000 </r>
       <r>   -6.5387    1.0000 </r>
       <r>   -6.5312    1.0000 </r>
       <r>   -6.5258    1.0000 </r>
       <r>   -6.4964    1.0000 </r>
       <r>   -6.4355    1.0000 </r>
       <r>   -6.4231    1.0000 </r>
       <r>   -6.3634    1.0000 </r>
       <r>   -6.1815    1.0000 </r>
       <r>   -6.1792    1.0000 </r>
       <r>   -5.7279    1.0000 </r>
       <r>   -5.5524    1.0000 </r>
       <r>   -5.5259    1.0000 </r>
       <r>   -5.3321    1.0000 </r>
       <r>   -5.2664    1.0000 </r>
       <r>   -5.0598    1.0000 </r>
       <r>   -4.9296    1.0000 </r>
       <r>   -4.9043    1.0000 </r>
       <r>   -4.7810    1.0000 </r>
       <r>   -4.7197    1.0000 </r>
       <r>   -4.6989    1.0000 </r>
       <r>   -4.6942    1.0000 </r>
       <r>   -4.6775    1.0000 </r>
       <r>   -4.6423    1.0000 </r>
       <r>   -4.6059    1.0000 </r>
       <r>   -4.5948    1.0000 </r>
       <r>   -4.5862    1.0000 </r>
       <r>   -4.0443    1.0000 </r>
       <r>   -3.9898    1.0000 </r>
       <r>   -3.9572    1.0000 </r>
       <r>   -3.6351    1.0000 </r>
       <r>   -3.6038    1.0000 </r>
       <r>   -3.5450    1.0000 </r>
       <r>   -3.4942    1.0000 </r>
       <r>   -3.3538    1.0000 </r>
       <r>   -3.2537    1.0000 </r>
       <r>   -3.2387    1.0000 </r>
       <r>   -3.1002    1.0000 </r>
       <r>   -3.0667    1.0000 </r>
       <r>   -2.9591    1.0000 </r>
       <r>   -2.8709    1.0000 </r>
       <r>   -2.7486    1.0000 </r>
       <r>   -2.7196    1.0000 </r>
       <r>   -2.7003    1.0000 </r>
       <r>   -2.5701    1.0000 </r>
       <r>   -2.5041    1.0000 </r>
       <r>   -2.4788    1.0000 </r>
       <r>   -2.3956    1.0000 </r>
       <r>   -2.2432    1.0000 </r>
       <r>   -2.1286    1.0000 </r>
       <r>   -1.9449    1.0000 </r>
       <r>   -1.7469    1.0000 </r>
       <r>   -1.4367    1.0000 </r>
       <r>   -1.3978    1.0000 </r>
       <r>   -1.0620    1.0000 </r>
       <r>   -0.8900    1.0000 </r>
       <r>   -0.7216    1.0000 </r>
       <r>   -0.4447    1.0000 </r>
       <r>   -0.4110    1.0000 </r>
       <r>   -0.2896    1.0000 </r>
       <r>   -0.1716    1.0000 </r>
       <r>   -0.1626    1.0000 </r>
       <r>   -0.0727    1.0000 </r>
       <r>   -0.0193    1.0000 </r>
       <r>    0.0102    1.0000 </r>
       <r>    0.1998    1.0000 </r>
       <r>    0.2143    1.0000 </r>
       <r>    0.2798    1.0000 </r>
       <r>    0.3067    1.0000 </r>
       <r>    0.3346    1.0000 </r>
       <r>    0.3499    1.0000 </r>
       <r>    0.3869    1.0000 </r>
       <r>    0.4744    1.0000 </r>
       <r>    0.5192    1.0000 </r>
       <r>    0.5414    1.0000 </r>
       <r>    0.6310    1.0000 </r>
       <r>    0.6638    1.0000 </r>
       <r>    0.6813    1.0000 </r>
       <r>    0.7253    1.0000 </r>
       <r>    0.7832    1.0000 </r>
       <r>    0.8095    1.0000 </r>
       <r>    0.8543    1.0000 </r>
       <r>    0.8959    1.0000 </r>
       <r>    0.9495    1.0000 </r>
       <r>    1.1532    1.0000 </r>
       <r>    1.1818    1.0000 </r>
       <r>    1.1871    1.0000 </r>
       <r>    1.2052    1.0000 </r>
       <r>    1.3027    1.0000 </r>
       <r>    1.3583    1.0000 </r>
       <r>    1.3599    1.0000 </r>
       <r>    1.3717    1.0000 </r>
       <r>    1.4849    1.0000 </r>
       <r>    1.5468    1.0000 </r>
       <r>    1.5884    1.0000 </r>
       <r>    1.6195    1.0000 </r>
       <r>    1.6577    1.0000 </r>
       <r>    1.7535    1.0000 </r>
       <r>    1.8291    1.0000 </r>
       <r>    1.9229    1.0000 </r>
       <r>    1.9476    1.0000 </r>
       <r>    1.9602    1.0000 </r>
       <r>    2.0001    1.0000 </r>
       <r>    2.0080    1.0000 </r>
       <r>    2.0301    1.0000 </r>
       <r>    2.0522    1.0000 </r>
       <r>    2.0683    1.0000 </r>
       <r>    2.1424    1.0000 </r>
       <r>    2.1579    1.0000 </r>
       <r>    2.1639    1.0000 </r>
       <r>    2.1809    1.0000 </r>
       <r>    2.2857    1.0000 </r>
       <r>    2.3550    1.0000 </r>
       <r>    2.3845    1.0000 </r>
       <r>    2.4494    1.0000 </r>
       <r>    2.4766    1.0000 </r>
       <r>    2.5013    1.0000 </r>
       <r>    2.5389    1.0000 </r>
       <r>    2.6270    1.0000 </r>
       <r>    2.6831    1.0000 </r>
       <r>    2.8964    1.0000 </r>
       <r>    2.9800    1.0000 </r>
       <r>    3.0031    1.0000 </r>
       <r>    3.0035    1.0000 </r>
       <r>    3.1754    1.0000 </r>
       <r>    3.2254    1.0000 </r>
       <r>    3.2920    1.0000 </r>
       <r>    3.2960    1.0000 </r>
       <r>    3.3583    1.0000 </r>
       <r>    3.3875    1.0000 </r>
       <r>    3.4401    1.0000 </r>
       <r>    3.4936    1.0000 </r>
       <r>    3.5537    1.0000 </r>
       <r>    3.6291    1.0000 </r>
       <r>    3.7353    1.0000 </r>
       <r>    3.7643    1.0000 </r>
       <r>    3.8793    1.0000 </r>
       <r>    3.9315    1.0000 </r>
       <r>    3.9969    1.0000 </r>
       <r>    4.0443    1.0000 </r>
       <r>    4.4058    0.0000 </r>
       <r>    4.4115    0.0000 </r>
       <r>    4.5279    0.0000 </r>
       <r>    4.6075    0.0000 </r>
       <r>    4.6655    0.0000 </r>
       <r>    4.8371    0.0000 </r>
       <r>    4.9057    0.0000 </r>
       <r>    5.1553    0.0000 </r>
       <r>    5.1840    0.0000 </r>
       <r>    5.2027    0.0000 </r>
       <r>    5.2787    0.0000 </r>
       <r>    5.3345    0.0000 </r>
       <r>    5.4507    0.0000 </r>
       <r>    5.4834    0.0000 </r>
       <r>    5.5162    0.0000 </r>
       <r>    5.5989    0.0000 </r>
       <r>    5.6110    0.0000 </r>
       <r>    5.6823    0.0000 </r>
       <r>    5.7136    0.0000 </r>
       <r>    5.7801    0.0000 </r>
       <r>    5.8115    0.0000 </r>
       <r>    5.8510    0.0000 </r>
       <r>    5.8843    0.0000 </r>
       <r>    5.9443    0.0000 </r>
       <r>    5.9626    0.0000 </r>
       <r>    5.9997    0.0000 </r>
       <r>    6.0129    0.0000 </r>
       <r>    6.1013    0.0000 </r>
       <r>    6.1029    0.0000 </r>
       <r>    6.1410    0.0000 </r>
       <r>    6.1772    0.0000 </r>
      </set>
      <set comment="kpoint 2">
       <r>   -9.6336    1.0000 </r>
       <r>   -8.9357    1.0000 </r>
       <r>   -8.7017    1.0000 </r>
       <r>   -8.5618    1.0000 </r>
       <r>   -8.1734    1.0000 </r>
       <r>   -8.0117    1.0000 </r>
       <r>   -7.9024    1.0000 </r>
       <r>   -7.7043    1.0000 </r>
       <r>   -7.5056    1.0000 </r>
       <r>   -7.4619    1.0000 </r>
       <r>   -7.4186    1.0000 </r>
       <r>   -7.3087    1.0000 </r>
       <r>   -7.2368    1.0000 </r>
       <r>   -7.1196    1.0000 </r>
       <r>   -7.1144    1.0000 </r>
       <r>   -6.9450    1.0000 </r>
       <r>   -6.9175    1.0000 </r>
       <r>   -6.7454    1.0000 </r>
       <r>   -6.6468    1.0000 </r>
       <r>   -6.5061    1.0000 </r>
       <r>   -6.4878    1.0000 </r>
       <r>   -6.2979    1.0000 </r>
       <r>   -6.2882    1.0000 </r>
       <r>   -6.2229    1.0000 </r>
       <r>   -6.0867    1.0000 </r>
       <r>   -5.9839    1.0000 </r>
       <r>   -5.8997    1.0000 </r>
       <r>   -5.8002    1.0000 </r>
       <r>   -5.7032    1.0000 </r>
       <r>   -5.6423    1.0000 </r>
       <r>   -5.4904    1.0000 </r>
       <r>   -5.4485    1.0000 </r>
       <r>   -5.3729    1.0000 </r>
       <r>   -5.3140    1.0000 </r>
       <r>   -5.2460    1.0000 </r>
       <r>   -5.2382    1.0000 </r>
       <r>   -4.8902    1.0000 </r>
       <r>   -4.7875    1.0000 </r>
       <r>   -4.7292    1.0000 </r>
       <r>   -4.5057    1.0000 </r>
       <r>   -4.2104    1.0000 </r>
       <r>   -4.0451    1.0000 </r>
       <r>   -4.0451    1.0000 </r>
       <r>   -3.9771    1.0000 </r>
       <r>   -3.8490    1.0000 </r>
       <r>   -3.7313    1.0000 </r>
       <r>   -3.6491    1.0000 </r>
       <r>   -3.6192    1.0000 </r>
       <r>   -3.5211    1.0000 </r>
       <r>   -3.4861    1.0000 </r>
       <r>   -3.4532    1.0000 </r>
       <r>   -3.4130    1.0000 </r>
       <r>   -3.3650    1.0000 </r>
       <r>   -3.2135    1.0000 </r>
       <r>   -3.1239    1.0000 </r>
       <r>   -2.9678    1.0000 </r>
       <r>   -2.9329    1.0000 </r>
       <r>   -2.8603    1.0000 </r>
       <r>   -2.7197    1.0000 </r>
       <r>   -2.5517    1.0000 </r>
       <r>   -2.5455    1.0000 </r>
       <r>   -2.4148    1.0000 </r>
       <r>   -2.3647    1.0000 </r>
       <r>   -2.1659    1.0000 </r>
       <r>   -1.9505    1.0000 </r>
       <r>   -1.7865    1.0000 </r>
       <r>   -1.7330    1.0000 </r>
       <r>   -1.6247    1.0000 </r>
       <r>   -1.4984    1.0000 </r>
       <r>   -1.4195    1.0000 </r>
       <r>   -1.3228    1.0000 </r>
       <r>   -1.1985    1.0000 </r>
       <r>   -1.0176    1.0000 </r>
       <r>   -0.8583    1.0000 </r>
       <r>   -0.7780    1.0000 </r>
       <r>   -0.5497    1.0000 </r>
       <r>   -0.3991    1.0000 </r>
       <r>   -0.3280    1.0000 </r>
       <r>   -0.2445    1.0000 </r>
       <r>   -0.2253    1.0000 </r>
       <r>   -0.1143    1.0000 </r>
       <r>   -0.0942    1.0000 </r>
       <r>    0.0028    1.0000 </r>
       <r>    0.0260    1.0000 </r>
       <r>    0.0742    1.0000 </r>
       <r>    0.1279    1.0000 </r>
       <r>    0.1349    1.0000 </r>
       <r>    0.2046    1.0000 </r>
       <r>    0.3342    1.0000 </r>
       <r>    0.4126    1.0000 </r>
       <r>    0.4239    1.0000 </r>
       <r>    0.4648    1.0000 </r>
       <r>    0.5529    1.0000 </r>
       <r>    0.6408    1.0000 </r>
       <r>    0.6587    1.0000 </r>
       <r>    0.7552    1.0000 </r>
       <r>    0.7671    1.0000 </r>
       <r>    0.8667    1.0000 </r>
       <r>    0.9369    1.0000 </r>
       <r>    0.9618    1.0000 </r>
       <r>    0.9715    1.0000 </r>
       <r>    1.0432    1.0000 </r>
       <r>    1.0780    1.0000 </r>
       <r>    1.1346    1.0000 </r>
       <r>    1.1568    1.0000 </r>
       <r>    1.2201    1.0000 </r>
       <r>    1.2351    1.0000 </r>
       <r>    1.2893    1.0000 </r>
       <r>    1.3488    1.0000 </r>
       <r>    1.3871    1.0000 </r>
       <r>    1.4440    1.0000 </r>
       <r>    1.4449    1.0000 </r>
       <r>    1.4570    1.0000 </r>
       <r>    1.5542    1.0000 </r>
       <r>    1.5658    1.0000 </r>
       <r>    1.6418    1.0000 </r>
       <r>    1.6847    1.0000 </r>
       <r>    1.6875    1.0000 </r>
       <r>    1.7284    1.0000 </r>
       <r>    1.7477    1.0000 </r>
       <r>    1.7911    1.0000 </r>
       <r>    1.8227    1.0000 </r>
       <r>    1.8682    1.0000 </r>
       <r>    1.9162    1.0000 </r>
       <r>    1.9629    1.0000 </r>
       <r>    1.9875    1.0000 </r>
       <r>    2.0457    1.0000 </r>
       <r>    2.1273    1.0000 </r>
       <r>    2.1385    1.0000 </r>
       <r>    2.2048    1.0000 </r>
       <r>    2.2449    1.0000 </r>
       <r>    2.2588    1.0000 </r>
       <r>    2.3117    1.0000 </r>
       <r>    2.4182    1.0000 </r>
       <r>    2.4722    1.0000 </r>
       <r>    2.5021    1.0000 </r>
       <r>    2.5596    1.0000 </r>
       <r>    2.6223    1.0000 </r>
       <r>    2.6233    1.0000 </r>
       <r>    2.6901    1.0000 </r>
       <r>    2.7459    1.0000 </r>
       <r>    2.7517    1.0000 </r>
       <r>    2.8447    1.0000 </r>
       <r>    2.9865    1.0000 </r>
       <r>    3.0986    1.0000 </r>
       <r>    3.2311    1.0000 </r>
       <r>    3.2638    1.0000 </r>
       <r>    3.3704    1.0000 </r>
       <r>    3.5491    1.0000 </r>
       <r>    3.5706    1.0000 </r>
       <r>    3.6521    1.0000 </r>
       <r>    3.7663    1.0000 </r>
       <r>    3.8130    1.0000 </r>
       <r>    3.9178    1.0000 </r>
       <r>    3.9680    1.0000 </r>
       <r>    4.1594    1.0000 </r>
       <r>    4.2507    0.0006 </r>
       <r>    4.3219    0.0000 </r>
       <r>    4.4369    0.0000 </r>
       <r>    4.5421    0.0000 </r>
       <r>    4.7069    0.0000 </r>
       <r>    4.7541    0.0000 </r>
       <r>    4.9000    0.0000 </r>
       <r>    5.0161    0.0000 </r>
       <r>    5.1430    0.0000 </r>
       <r>    5.2203    0.0000 </r>
       <r>    5.2861    0.0000 </r>
       <r>    5.3815    0.0000 </r>
       <r>    5.5024    0.0000 </r>
       <r>    5.5956    0.0000 </r>
       <r>    5.6154    0.0000 </r>
       <r>    5.6971    0.0000 </r>
       <r>    5.8350    0.0000 </r>
       <r>    5.8494    0.0000 </r>
       <r>    5.8810    0.0000 </r>
       <r>    5.9871    0.0000 </r>
       <r>    6.0718    0.0000 </r>
       <r>    6.1228    0.0000 </r>
       <r>    6.1523    0.0000 </r>
       <r>    6.2154    0.0000 </r>
       <r>    6.2325    0.0000 </r>
       <r>    6.2822    0.0000 </r>
       <r>    6.3391    0.0000 </r>
       <r>    6.3523    0.0000 </r>
       <r>    6.3746    0.0000 </r>
       <r>    6.4403    0.0000 </r>
       <r>    6.5197    0.0000 </r>
       <r>    6.5691    0.0000 </r>
      </set>
      <set comment="kpoint 3">
       <r>   -9.2548    1.0000 </r>
       <r>   -9.2548    1.0000 </r>
       <r>   -8.5548    1.0000 </r>
       <r>   -8.5548    1.0000 </r>
       <r>   -8.1351    1.0000 </r>
       <r>   -8.1351    1.0000 </r>
       <r>   -7.8003    1.0000 </r>
       <r>   -7.8003    1.0000 </r>
       <r>   -7.6393    1.0000 </r>
       <r>   -7.6393    1.0000 </r>
       <r>   -7.4280    1.0000 </r>
       <r>   -7.4280    1.0000 </r>
       <r>   -7.1276    1.0000 </r>
       <r>   -7.1276    1.0000 </r>
       <r>   -6.9885    1.0000 </r>
       <r>   -6.9885    1.0000 </r>
       <r>   -6.7779    1.0000 </r>
       <r>   -6.7779    1.0000 </r>
       <r>   -6.6424    1.0000 </r>
       <r>   -6.6424    1.0000 </r>
       <r>   -6.5389    1.0000 </r>
       <r>   -6.5389    1.0000 </r>
       <r>   -6.3448    1.0000 </r>
       <r>   -6.3448    1.0000 </r>
       <r>   -6.1682    1.0000 </r>
       <r>   -6.1682    1.0000 </r>
       <r>   -5.9378    1.0000 </r>
       <r>   -5.9378    1.0000 </r>
       <r>   -5.8187    1.0000 </r>
       <r>   -5.8187    1.0000 </r>
       <r>   -5.5209    1.0000 </r>
       <r>   -5.5209    1.0000 </r>
       <r>   -5.3283    1.0000 </r>
       <r>   -5.3283    1.0000 </r>
       <r>   -5.0321    1.0000 </r>
       <r>   -5.0321    1.0000 </r>
       <r>   -4.7731    1.0000 </r>
       <r>   -4.7731    1.0000 </r>
       <r>   -4.4782    1.0000 </r>
       <r>   -4.4782    1.0000 </r>
       <r>   -4.2057    1.0000 </r>
       <r>   -4.2057    1.0000 </r>
       <r>   -4.0407    1.0000 </r>
       <r>   -4.0407    1.0000 </r>
       <r>   -3.6273    1.0000 </r>
       <r>   -3.6273    1.0000 </r>
       <r>   -3.4506    1.0000 </r>
       <r>   -3.4506    1.0000 </r>
       <r>   -3.3562    1.0000 </r>
       <r>   -3.3562    1.0000 </r>
       <r>   -3.2760    1.0000 </r>
       <r>   -3.2760    1.0000 </r>
       <r>   -3.1415    1.0000 </r>
       <r>   -3.1415    1.0000 </r>
       <r>   -2.9211    1.0000 </r>
       <r>   -2.9211    1.0000 </r>
       <r>   -2.6566    1.0000 </r>
       <r>   -2.6566    1.0000 </r>
       <r>   -2.4937    1.0000 </r>
       <r>   -2.4937    1.0000 </r>
       <r>   -2.3094    1.0000 </r>
       <r>   -2.3094    1.0000 </r>
       <r>   -2.0978    1.0000 </r>
       <r>   -2.0978    1.0000 </r>
       <r>   -1.7835    1.0000 </r>
       <r>   -1.7835    1.0000 </r>
       <r>   -1.6479    1.0000 </r>
       <r>   -1.6479    1.0000 </r>
       <r>   -1.3757    1.0000 </r>
       <r>   -1.3757    1.0000 </r>
       <r>   -1.0762    1.0000 </r>
       <r>   -1.0762    1.0000 </r>
       <r>   -0.8390    1.0000 </r>
       <r>   -0.8390    1.0000 </r>
       <r>   -0.5353    1.0000 </r>
       <r>   -0.5353    1.0000 </r>
       <r>   -0.4019    1.0000 </r>
       <r>   -0.4019    1.0000 </r>
       <r>   -0.2698    1.0000 </r>
       <r>   -0.2698    1.0000 </r>
       <r>   -0.0969    1.0000 </r>
       <r>   -0.0969    1.0000 </r>
       <r>   -0.0579    1.0000 </r>
       <r>   -0.0579    1.0000 </r>
       <r>    0.0447    1.0000 </r>
       <r>    0.0447    1.0000 </r>
       <r>    0.1178    1.0000 </r>
       <r>    0.1178    1.0000 </r>
       <r>    0.1943    1.0000 </r>
       <r>    0.1943    1.0000 </r>
       <r>    0.2653    1.0000 </r>
       <r>    0.2653    1.0000 </r>
       <r>    0.3500    1.0000 </r>
       <r>    0.3500    1.0000 </r>
       <r>    0.4300    1.0000 </r>
       <r>    0.4300    1.0000 </r>
       <r>    0.4835    1.0000 </r>
       <r>    0.4835    1.0000 </r>
       <r>    0.6579    1.0000 </r>
       <r>    0.6579    1.0000 </r>
       <r>    0.7438    1.0000 </r>
       <r>    0.7438    1.0000 </r>
       <r>    0.8747    1.0000 </r>
       <r>    0.8747    1.0000 </r>
       <r>    1.0444    1.0000 </r>
       <r>    1.0444    1.0000 </r>
       <r>    1.1089    1.0000 </r>
       <r>    1.1089    1.0000 </r>
       <r>    1.2098    1.0000 </r>
       <r>    1.2098    1.0000 </r>
       <r>    1.3418    1.0000 </r>
       <r>    1.3418    1.0000 </r>
       <r>    1.4105    1.0000 </r>
       <r>    1.4105    1.0000 </r>
       <r>    1.5050    1.0000 </r>
       <r>    1.5050    1.0000 </r>
       <r>    1.5520    1.0000 </r>
       <r>    1.5520    1.0000 </r>
       <r>    1.5852    1.0000 </r>
       <r>    1.5852    1.0000 </r>
       <r>    1.6376    1.0000 </r>
       <r>    1.6376    1.0000 </r>
       <r>    1.7422    1.0000 </r>
       <r>    1.7422    1.0000 </r>
       <r>    1.8411    1.0000 </r>
       <r>    1.8411    1.0000 </r>
       <r>    1.9030    1.0000 </r>
       <r>    1.9030    1.0000 </r>
       <r>    2.0577    1.0000 </r>
       <r>    2.0577    1.0000 </r>
       <r>    2.2143    1.0000 </r>
       <r>    2.2143    1.0000 </r>
       <r>    2.3062    1.0000 </r>
       <r>    2.3062    1.0000 </r>
       <r>    2.4625    1.0000 </r>
       <r>    2.4625    1.0000 </r>
       <r>    2.5341    1.0000 </r>
       <r>    2.5341    1.0000 </r>
       <r>    2.6409    1.0000 </r>
       <r>    2.6409    1.0000 </r>
       <r>    2.7871    1.0000 </r>
       <r>    2.7871    1.0000 </r>
       <r>    2.9268    1.0000 </r>
       <r>    2.9268    1.0000 </r>
       <r>    3.0792    1.0000 </r>
       <r>    3.0792    1.0000 </r>
       <r>    3.1853    1.0000 </r>
       <r>    3.1853    1.0000 </r>
       <r>    3.3380    1.0000 </r>
       <r>    3.3380    1.0000 </r>
       <r>    3.7209    1.0000 </r>
       <r>    3.7209    1.0000 </r>
       <r>    3.9317    1.0000 </r>
       <r>    3.9317    1.0000 </r>
       <r>    4.2062    0.9988 </r>
       <r>    4.2062    0.9988 </r>
       <r>    4.2795    0.0000 </r>
       <r>    4.2795    0.0000 </r>
       <r>    4.5393    0.0000 </r>
       <r>    4.5393    0.0000 </r>
       <r>    4.7153    0.0000 </r>
       <r>    4.7153    0.0000 </r>
       <r>    5.0563    0.0000 </r>
       <r>    5.0563    0.0000 </r>
       <r>    5.3263    0.0000 </r>
       <r>    5.3263    0.0000 </r>
       <r>    5.5135    0.0000 </r>
       <r>    5.5135    0.0000 </r>
       <r>    5.7045    0.0000 </r>
       <r>    5.7045    0.0000 </r>
       <r>    5.8851    0.0000 </r>
       <r>    5.8851    0.0000 </r>
       <r>    6.0219    0.0000 </r>
       <r>    6.0219    0.0000 </r>
       <r>    6.1803    0.0000 </r>
       <r>    6.1803    0.0000 </r>
       <r>    6.2947    0.0000 </r>
       <r>    6.2947    0.0000 </r>
       <r>    6.3618    0.0000 </r>
       <r>    6.3618    0.0000 </r>
       <r>    6.4006    0.0000 </r>
       <r>    6.4006    0.0000 </r>
       <r>    6.4717    0.0000 </r>
       <r>    6.4717    0.0000 </r>
       <r>    6.5723    0.0000 </r>
       <r>    6.5739    0.0000 </r>
       <r>    6.6429    0.0000 </r>
       <r>    6.6458    0.0000 </r>
      </set>
      <set comment="kpoint 4">
       <r>   -9.7628    1.0000 </r>
       <r>   -9.0473    1.0000 </r>
       <r>   -8.6333    1.0000 </r>
       <r>   -8.3637    1.0000 </r>
       <r>   -8.3301    1.0000 </r>
       <r>   -8.1894    1.0000 </r>
       <r>   -8.0107    1.0000 </r>
       <r>   -7.6806    1.0000 </r>
       <r>   -7.6268    1.0000 </r>
       <r>   -7.4157    1.0000 </r>
       <r>   -7.1781    1.0000 </r>
       <r>   -7.1237    1.0000 </r>
       <r>   -6.9473    1.0000 </r>
       <r>   -6.9324    1.0000 </r>
       <r>   -6.8178    1.0000 </r>
       <r>   -6.7624    1.0000 </r>
       <r>   -6.7516    1.0000 </r>
       <r>   -6.6887    1.0000 </r>
       <r>   -6.6570    1.0000 </r>
       <r>   -6.5132    1.0000 </r>
       <r>   -6.4356    1.0000 </r>
       <r>   -6.4068    1.0000 </r>
       <r>   -6.1959    1.0000 </r>
       <r>   -6.1598    1.0000 </r>
       <r>   -6.1238    1.0000 </r>
       <r>   -6.0837    1.0000 </r>
       <r>   -6.0223    1.0000 </r>
       <r>   -5.7931    1.0000 </r>
       <r>   -5.7740    1.0000 </r>
       <r>   -5.5874    1.0000 </r>
       <r>   -5.5007    1.0000 </r>
       <r>   -5.4939    1.0000 </r>
       <r>   -5.4602    1.0000 </r>
       <r>   -5.3931    1.0000 </r>
       <r>   -5.3499    1.0000 </r>
       <r>   -5.1492    1.0000 </r>
       <r>   -5.0351    1.0000 </r>
       <r>   -4.9685    1.0000 </r>
       <r>   -4.8360    1.0000 </r>
       <r>   -4.4688    1.0000 </r>
       <r>   -4.3099    1.0000 </r>
       <r>   -4.2241    1.0000 </r>
       <r>   -3.9628    1.0000 </r>
       <r>   -3.9008    1.0000 </r>
       <r>   -3.8798    1.0000 </r>
       <r>   -3.8213    1.0000 </r>
       <r>   -3.6582    1.0000 </r>
       <r>   -3.5500    1.0000 </r>
       <r>   -3.4920    1.0000 </r>
       <r>   -3.4317    1.0000 </r>
       <r>   -3.3171    1.0000 </r>
       <r>   -3.3027    1.0000 </r>
       <r>   -3.2993    1.0000 </r>
       <r>   -3.2294    1.0000 </r>
       <r>   -3.1890    1.0000 </r>
       <r>   -3.1694    1.0000 </r>
       <r>   -3.1602    1.0000 </r>
       <r>   -3.0817    1.0000 </r>
       <r>   -2.9693    1.0000 </r>
       <r>   -2.8970    1.0000 </r>
       <r>   -2.7376    1.0000 </r>
       <r>   -2.5891    1.0000 </r>
       <r>   -2.5204    1.0000 </r>
       <r>   -2.5198    1.0000 </r>
       <r>   -2.4070    1.0000 </r>
       <r>   -2.2503    1.0000 </r>
       <r>   -2.1509    1.0000 </r>
       <r>   -1.9635    1.0000 </r>
       <r>   -1.7548    1.0000 </r>
       <r>   -1.5103    1.0000 </r>
       <r>   -1.3833    1.0000 </r>
       <r>   -1.1007    1.0000 </r>
       <r>   -0.8368    1.0000 </r>
       <r>   -0.4532    1.0000 </r>
       <r>   -0.4314    1.0000 </r>
       <r>   -0.2895    1.0000 </r>
       <r>   -0.2715    1.0000 </r>
       <r>   -0.1831    1.0000 </r>
       <r>   -0.0589    1.0000 </r>
       <r>    0.0074    1.0000 </r>
       <r>    0.0396    1.0000 </r>
       <r>    0.1009    1.0000 </r>
       <r>    0.1231    1.0000 </r>
       <r>    0.1447    1.0000 </r>
       <r>    0.2529    1.0000 </r>
       <r>    0.2917    1.0000 </r>
       <r>    0.3022    1.0000 </r>
       <r>    0.3089    1.0000 </r>
       <r>    0.3866    1.0000 </r>
       <r>    0.4190    1.0000 </r>
       <r>    0.4331    1.0000 </r>
       <r>    0.4802    1.0000 </r>
       <r>    0.5703    1.0000 </r>
       <r>    0.5796    1.0000 </r>
       <r>    0.6712    1.0000 </r>
       <r>    0.7584    1.0000 </r>
       <r>    0.7951    1.0000 </r>
       <r>    0.8077    1.0000 </r>
       <r>    0.8413    1.0000 </r>
       <r>    0.9217    1.0000 </r>
       <r>    0.9236    1.0000 </r>
       <r>    0.9544    1.0000 </r>
       <r>    0.9808    1.0000 </r>
       <r>    1.0048    1.0000 </r>
       <r>    1.0536    1.0000 </r>
       <r>    1.1421    1.0000 </r>
       <r>    1.2595    1.0000 </r>
       <r>    1.3033    1.0000 </r>
       <r>    1.3635    1.0000 </r>
       <r>    1.4517    1.0000 </r>
       <r>    1.4965    1.0000 </r>
       <r>    1.5441    1.0000 </r>
       <r>    1.5615    1.0000 </r>
       <r>    1.6188    1.0000 </r>
       <r>    1.6891    1.0000 </r>
       <r>    1.7542    1.0000 </r>
       <r>    1.7933    1.0000 </r>
       <r>    1.8155    1.0000 </r>
       <r>    1.8529    1.0000 </r>
       <r>    1.8796    1.0000 </r>
       <r>    1.9369    1.0000 </r>
       <r>    2.0383    1.0000 </r>
       <r>    2.0919    1.0000 </r>
       <r>    2.1467    1.0000 </r>
       <r>    2.1778    1.0000 </r>
       <r>    2.2513    1.0000 </r>
       <r>    2.3362    1.0000 </r>
       <r>    2.4029    1.0000 </r>
       <r>    2.5359    1.0000 </r>
       <r>    2.6019    1.0000 </r>
       <r>    2.6660    1.0000 </r>
       <r>    2.6754    1.0000 </r>
       <r>    2.6852    1.0000 </r>
       <r>    2.7363    1.0000 </r>
       <r>    2.7418    1.0000 </r>
       <r>    2.7582    1.0000 </r>
       <r>    2.7994    1.0000 </r>
       <r>    2.8663    1.0000 </r>
       <r>    2.9156    1.0000 </r>
       <r>    2.9611    1.0000 </r>
       <r>    3.0540    1.0000 </r>
       <r>    3.0947    1.0000 </r>
       <r>    3.1462    1.0000 </r>
       <r>    3.1543    1.0000 </r>
       <r>    3.1810    1.0000 </r>
       <r>    3.3133    1.0000 </r>
       <r>    3.3329    1.0000 </r>
       <r>    3.3557    1.0000 </r>
       <r>    3.5235    1.0000 </r>
       <r>    3.5528    1.0000 </r>
       <r>    3.6279    1.0000 </r>
       <r>    3.7714    1.0000 </r>
       <r>    3.8493    1.0000 </r>
       <r>    3.9078    1.0000 </r>
       <r>    3.9864    1.0000 </r>
       <r>    4.0551    1.0000 </r>
       <r>    4.1055    1.0000 </r>
       <r>    4.4135    0.0000 </r>
       <r>    4.4750    0.0000 </r>
       <r>    4.5556    0.0000 </r>
       <r>    4.6296    0.0000 </r>
       <r>    4.6732    0.0000 </r>
       <r>    4.7794    0.0000 </r>
       <r>    4.9456    0.0000 </r>
       <r>    5.1367    0.0000 </r>
       <r>    5.2170    0.0000 </r>
       <r>    5.2457    0.0000 </r>
       <r>    5.2695    0.0000 </r>
       <r>    5.3307    0.0000 </r>
       <r>    5.4080    0.0000 </r>
       <r>    5.5224    0.0000 </r>
       <r>    5.5473    0.0000 </r>
       <r>    5.5599    0.0000 </r>
       <r>    5.6187    0.0000 </r>
       <r>    5.6858    0.0000 </r>
       <r>    5.6860    0.0000 </r>
       <r>    5.7430    0.0000 </r>
       <r>    5.7459    0.0000 </r>
       <r>    5.8024    0.0000 </r>
       <r>    5.8538    0.0000 </r>
       <r>    5.8660    0.0000 </r>
       <r>    5.9570    0.0000 </r>
       <r>    6.0164    0.0000 </r>
       <r>    6.0243    0.0000 </r>
       <r>    6.1160    0.0000 </r>
       <r>    6.1651    0.0000 </r>
       <r>    6.2089    0.0000 </r>
       <r>    6.2597    0.0000 </r>
      </set>
      <set comment="kpoint 5">
       <r>   -9.6331    1.0000 </r>
       <r>   -8.9294    1.0000 </r>
       <r>   -8.7020    1.0000 </r>
       <r>   -8.5427    1.0000 </r>
       <r>   -8.1788    1.0000 </r>
       <r>   -8.0173    1.0000 </r>
       <r>   -7.9940    1.0000 </r>
       <r>   -7.7729    1.0000 </r>
       <r>   -7.5019    1.0000 </r>
       <r>   -7.4826    1.0000 </r>
       <r>   -7.3683    1.0000 </r>
       <r>   -7.2318    1.0000 </r>
       <r>   -7.2131    1.0000 </r>
       <r>   -7.0810    1.0000 </r>
       <r>   -7.0225    1.0000 </r>
       <r>   -6.9233    1.0000 </r>
       <r>   -6.8961    1.0000 </r>
       <r>   -6.7231    1.0000 </r>
       <r>   -6.6480    1.0000 </r>
       <r>   -6.5117    1.0000 </r>
       <r>   -6.5074    1.0000 </r>
       <r>   -6.2959    1.0000 </r>
       <r>   -6.2759    1.0000 </r>
       <r>   -6.1769    1.0000 </r>
       <r>   -6.1539    1.0000 </r>
       <r>   -6.0576    1.0000 </r>
       <r>   -6.0031    1.0000 </r>
       <r>   -5.8647    1.0000 </r>
       <r>   -5.7446    1.0000 </r>
       <r>   -5.6654    1.0000 </r>
       <r>   -5.5499    1.0000 </r>
       <r>   -5.4471    1.0000 </r>
       <r>   -5.3905    1.0000 </r>
       <r>   -5.2379    1.0000 </r>
       <r>   -5.2337    1.0000 </r>
       <r>   -5.1324    1.0000 </r>
       <r>   -4.9497    1.0000 </r>
       <r>   -4.7553    1.0000 </r>
       <r>   -4.6775    1.0000 </r>
       <r>   -4.4444    1.0000 </r>
       <r>   -4.2993    1.0000 </r>
       <r>   -4.1340    1.0000 </r>
       <r>   -4.1075    1.0000 </r>
       <r>   -4.0291    1.0000 </r>
       <r>   -3.8467    1.0000 </r>
       <r>   -3.7048    1.0000 </r>
       <r>   -3.6213    1.0000 </r>
       <r>   -3.5490    1.0000 </r>
       <r>   -3.4559    1.0000 </r>
       <r>   -3.4366    1.0000 </r>
       <r>   -3.3528    1.0000 </r>
       <r>   -3.3192    1.0000 </r>
       <r>   -3.2643    1.0000 </r>
       <r>   -3.1724    1.0000 </r>
       <r>   -3.1690    1.0000 </r>
       <r>   -3.0417    1.0000 </r>
       <r>   -2.9557    1.0000 </r>
       <r>   -2.9296    1.0000 </r>
       <r>   -2.7862    1.0000 </r>
       <r>   -2.5752    1.0000 </r>
       <r>   -2.5648    1.0000 </r>
       <r>   -2.3560    1.0000 </r>
       <r>   -2.3295    1.0000 </r>
       <r>   -2.1505    1.0000 </r>
       <r>   -1.9600    1.0000 </r>
       <r>   -1.8857    1.0000 </r>
       <r>   -1.7928    1.0000 </r>
       <r>   -1.6164    1.0000 </r>
       <r>   -1.5117    1.0000 </r>
       <r>   -1.3914    1.0000 </r>
       <r>   -1.3674    1.0000 </r>
       <r>   -1.1072    1.0000 </r>
       <r>   -1.0180    1.0000 </r>
       <r>   -0.9370    1.0000 </r>
       <r>   -0.7778    1.0000 </r>
       <r>   -0.5082    1.0000 </r>
       <r>   -0.3539    1.0000 </r>
       <r>   -0.3280    1.0000 </r>
       <r>   -0.2090    1.0000 </r>
       <r>   -0.1288    1.0000 </r>
       <r>   -0.1174    1.0000 </r>
[...]
       <r>   -10.1065     0.0000     0.0000 </r>
       <r>   -10.0459     0.0000     0.0000 </r>
       <r>    -9.9852     0.0000     0.0000 </r>
       <r>    -9.9246     0.0000     0.0000 </r>
       <r>    -9.8639     0.0000     0.0000 </r>
       <r>    -9.8032     0.0000     0.0000 </r>
       <r>    -9.7426     3.5803     0.2172 </r>
       <r>    -9.6819     4.6621     0.5000 </r>
       <r>    -9.6212     1.2526     0.5760 </r>
       <r>    -9.5606    15.2322     1.5000 </r>
       <r>    -9.4999     0.0000     1.5000 </r>
       <r>    -9.4393     0.0000     1.5000 </r>
       <r>    -9.3786     0.0000     1.5000 </r>
       <r>    -9.3179     0.0000     1.5000 </r>
       <r>    -9.2573     0.0091     1.5006 </r>
       <r>    -9.1966    16.4757     2.5000 </r>
       <r>    -9.1359     0.0000     2.5000 </r>
       <r>    -9.0753     0.0086     2.5005 </r>
       <r>    -9.0146     8.2136     2.9988 </r>
       <r>    -8.9540     0.0135     3.0000 </r>
       <r>    -8.8933    14.9717     3.9082 </r>
       <r>    -8.8326     1.5098     4.0000 </r>
       <r>    -8.7720     0.0000     4.0000 </r>
       <r>    -8.7113     1.0772     4.0653 </r>
       <r>    -8.6507    18.4659     5.1855 </r>
       <r>    -8.5900     5.1922     5.5005 </r>
       <r>    -8.5293    23.9410     6.9528 </r>
       <r>    -8.4687     3.5444     7.1680 </r>
       <r>    -8.4080     5.4728     7.5000 </r>
       <r>    -8.3473     5.2601     7.8191 </r>
       <r>    -8.2867    14.9736     8.7274 </r>
       <r>    -8.2260     1.7453     8.8333 </r>
       <r>    -8.1654    11.8062     9.5495 </r>
       <r>    -8.1047    15.6504    10.4989 </r>
       <r>    -8.0440     6.1396    10.8714 </r>
       <r>    -7.9834    27.4818    12.5385 </r>
       <r>    -7.9227     7.6008    13.0000 </r>
       <r>    -7.8621    12.7489    13.7737 </r>
       <r>    -7.8014     7.8437    14.2495 </r>
       <r>    -7.7407    15.9527    15.2173 </r>
       <r>    -7.6801     7.7365    15.6868 </r>
       <r>    -7.6194    23.1510    17.0911 </r>
       <r>    -7.5587     7.1802    17.5267 </r>
       <r>    -7.4981    22.9479    18.9188 </r>
       <r>    -7.4374    22.2132    20.2663 </r>
       <r>    -7.3768    16.2890    21.2549 </r>
       <r>    -7.3161    10.2326    21.8757 </r>
       <r>    -7.2554    12.1935    22.6153 </r>
       <r>    -7.1948    24.6437    24.1103 </r>
       <r>    -7.1341    20.0895    25.3290 </r>
       <r>    -7.0734    26.9713    26.9656 </r>
       <r>    -7.0128    15.6436    27.9146 </r>
       <r>    -6.9521     8.0365    28.4021 </r>
       <r>    -6.8915    23.1326    29.8054 </r>
       <r>    -6.8308    23.4689    31.2293 </r>
       <r>    -6.7701    21.5508    32.5367 </r>
       <r>    -6.7095    25.4786    34.0823 </r>
       <r>    -6.6488    28.7259    35.8251 </r>
       <r>    -6.5882    30.6456    37.6842 </r>
       <r>    -6.5275    28.2674    39.3990 </r>
       <r>    -6.4668    31.2258    41.2933 </r>
       <r>    -6.4062    28.6729    43.0326 </r>
       <r>    -6.3455    15.7307    43.9871 </r>
       <r>    -6.2848    22.7434    45.3667 </r>
       <r>    -6.2242    22.2824    46.7184 </r>
       <r>    -6.1635    21.6989    48.0347 </r>
       <r>    -6.1029    49.1025    51.0136 </r>
       <r>    -6.0422    24.0506    52.4726 </r>
       <r>    -5.9815    13.4108    53.2862 </r>
       <r>    -5.9209    19.9561    54.4968 </r>
       <r>    -5.8602    14.6203    55.3837 </r>
       <r>    -5.7995    15.8417    56.3451 </r>
       <r>    -5.7389    29.9163    58.1601 </r>
       <r>    -5.6782    12.7868    58.9362 </r>
       <r>    -5.6176    22.5999    60.3075 </r>
       <r>    -5.5569    12.8675    61.0881 </r>
       <r>    -5.4962    17.4504    62.1471 </r>
       <r>    -5.4356    25.0876    63.6690 </r>
       <r>    -5.3749    27.4711    65.3360 </r>
       <r>    -5.3143    20.6493    66.5886 </r>
       <r>    -5.2536    18.3289    67.7005 </r>
       <r>    -5.1929    22.2276    69.0492 </r>
       <r>    -5.1323    13.4725    69.8665 </r>
       <r>    -5.0716    11.6515    70.5733 </r>
       <r>    -5.0109     9.5771    71.1543 </r>
       <r>    -4.9503    14.1338    72.0117 </r>
       <r>    -4.8896    11.2952    72.6969 </r>
       <r>    -4.8290     9.3496    73.2642 </r>
       <r>    -4.7683    14.0306    74.1153 </r>
       <r>    -4.7076    21.6472    75.4284 </r>
       <r>    -4.6470    16.6964    76.4413 </r>
       <r>    -4.5863     9.1519    76.9966 </r>
       <r>    -4.5257     9.6717    77.5833 </r>
       <r>    -4.4650    10.0612    78.1937 </r>
       <r>    -4.4043    21.6322    79.5063 </r>
       <r>    -4.3437    10.2041    80.1254 </r>
       <r>    -4.2830    17.5609    81.1907 </r>
       <r>    -4.2223     9.2022    81.7489 </r>
       <r>    -4.1617    16.9810    82.7790 </r>
       <r>    -4.1010    26.7421    84.4012 </r>
       <r>    -4.0404    13.2110    85.2032 </r>
       <r>    -3.9797    31.6402    87.1226 </r>
       <r>    -3.9190    19.9477    88.3327 </r>
       <r>    -3.8584    13.3368    89.1418 </r>
       <r>    -3.7977    25.1184    90.6655 </r>
       <r>    -3.7370    10.5515    91.3061 </r>
       <r>    -3.6764    21.5017    92.6104 </r>
       <r>    -3.6157    14.6070    93.4970 </r>
       <r>    -3.5551    16.3034    94.4861 </r>
       <r>    -3.4944    31.7857    96.4143 </r>
       <r>    -3.4337    32.6997    98.3980 </r>
       <r>    -3.3731    39.8591   100.8161 </r>
       <r>    -3.3124    27.7145   102.4976 </r>
       <r>    -3.2518    35.5635   104.6549 </r>
       <r>    -3.1911    25.3048   106.1901 </r>
       <r>    -3.1304    33.9834   108.2517 </r>
       <r>    -3.0698    26.2964   109.8472 </r>
       <r>    -3.0091    16.9705   110.8767 </r>
       <r>    -2.9484    25.5381   112.4259 </r>
       <r>    -2.8878    31.2195   114.3198 </r>
       <r>    -2.8271    20.6613   115.5735 </r>
       <r>    -2.7665    13.1906   116.3743 </r>
       <r>    -2.7058    12.2029   117.1149 </r>
       <r>    -2.6451    21.4419   118.4156 </r>
       <r>    -2.5845     7.2671   118.8568 </r>
       <r>    -2.5238    21.0894   120.1364 </r>
       <r>    -2.4631    24.7862   121.6400 </r>
       <r>    -2.4025    13.9222   122.4846 </r>
       <r>    -2.3418    31.9144   124.4206 </r>
       <r>    -2.2812    22.1641   125.7651 </r>
       <r>    -2.2205    18.3607   126.8793 </r>
       <r>    -2.1598     8.2126   127.3777 </r>
       <r>    -2.0992    16.9271   128.4046 </r>
       <r>    -2.0385    13.0507   129.1963 </r>
       <r>    -1.9779     9.1528   129.7515 </r>
       <r>    -1.9172    21.6522   131.0650 </r>
       <r>    -1.8565     6.0077   131.4297 </r>
       <r>    -1.7959    19.5234   132.6141 </r>
       <r>    -1.7352    24.8664   134.1225 </r>
       <r>    -1.6745    13.3849   134.9346 </r>
       <r>    -1.6139    14.4921   135.8137 </r>
       <r>    -1.5532    13.3480   136.6237 </r>
       <r>    -1.4926    10.6449   137.2695 </r>
       <r>    -1.4319    21.2265   138.5571 </r>
       <r>    -1.3712    17.2615   139.6043 </r>
       <r>    -1.3106    22.7147   140.9822 </r>
       <r>    -1.2499     6.9567   141.4043 </r>
       <r>    -1.1893     4.8346   141.6975 </r>
       <r>    -1.1286    10.4768   142.3331 </r>
       <r>    -1.0679    10.5844   142.9754 </r>
       <r>    -1.0073    19.3012   144.1466 </r>
       <r>    -0.9466    19.6615   145.3394 </r>
       <r>    -0.8859     7.3284   145.7839 </r>
       <r>    -0.8253    16.2101   146.7673 </r>
       <r>    -0.7646     8.4047   147.2771 </r>
       <r>    -0.7040    15.6056   148.2238 </r>
       <r>    -0.6433     7.0948   148.6542 </r>
       <r>    -0.5826     8.9942   149.1998 </r>
       <r>    -0.5220    11.0667   149.8712 </r>
       <r>    -0.4613    14.6493   150.7603 </r>
       <r>    -0.4006    22.6221   152.1326 </r>
       <r>    -0.3400    27.0646   153.7749 </r>
       <r>    -0.2793    26.4735   155.3808 </r>
       <r>    -0.2187    30.4034   157.2251 </r>
       <r>    -0.1580    22.0731   158.5641 </r>
       <r>    -0.0973    45.2051   161.3064 </r>
       <r>    -0.0367    39.8763   163.7255 </r>
       <r>     0.0240    29.5827   165.5200 </r>
       <r>     0.0846    49.8053   168.5414 </r>
       <r>     0.1453    36.3103   170.7442 </r>
       <r>     0.2060    30.4807   172.5940 </r>
       <r>     0.2666    35.1475   174.7261 </r>
       <r>     0.3273    38.1663   177.0420 </r>
       <r>     0.3880    36.2768   179.2429 </r>
       <r>     0.4486    51.5873   182.3723 </r>
       <r>     0.5093    35.8207   184.5454 </r>
       <r>     0.5699    39.4362   186.9383 </r>
       <r>     0.6306    27.9321   188.6327 </r>
       <r>     0.6913    45.8690   191.4159 </r>
       <r>     0.7519    38.6711   193.7625 </r>
       <r>     0.8126    51.1454   196.8652 </r>
       <r>     0.8733    28.2386   198.5787 </r>
       <r>     0.9339    39.4008   200.9689 </r>
       <r>     0.9946    56.0776   204.3707 </r>
       <r>     1.0552    46.9249   207.2174 </r>
       <r>     1.1159    38.5544   209.5563 </r>
       <r>     1.1766    40.9169   212.0384 </r>
       <r>     1.2372    50.0537   215.0752 </r>
       <r>     1.2979    32.9692   217.0752 </r>
       <r>     1.3585    49.2817   220.0651 </r>
       <r>     1.4192    53.0319   223.2822 </r>
       <r>     1.4799    47.6469   226.1730 </r>
       <r>     1.5405    26.6067   227.7873 </r>
       <r>     1.6012    44.4996   230.4870 </r>
       <r>     1.6619    47.0981   233.3441 </r>
       <r>     1.7225    46.4470   236.1620 </r>
       <r>     1.7832    37.6058   238.4434 </r>
       <r>     1.8438    57.4523   241.9288 </r>
       <r>     1.9045    46.4229   244.7449 </r>
       <r>     1.9652    48.1546   247.6667 </r>
       <r>     2.0258    34.1156   249.7372 </r>
       <r>     2.0865    40.4700   252.1922 </r>
       <r>     2.1471    42.6256   254.7779 </r>
       <r>     2.2078    59.4600   258.3849 </r>
       <r>     2.2685    28.9568   260.1427 </r>
       <r>     2.3291    33.3089   262.1636 </r>
       <r>     2.3898    31.1107   264.0510 </r>
       <r>     2.4505    39.7982   266.4653 </r>
       <r>     2.5111    31.1170   268.3529 </r>
       <r>     2.5718    33.5381   270.3878 </r>
       <r>     2.6324    36.9314   272.6287 </r>
       <r>     2.6931    44.8316   275.3488 </r>
       <r>     2.7538    34.9835   277.4710 </r>
       <r>     2.8144    40.6255   279.9358 </r>
       <r>     2.8751    30.1644   281.7657 </r>
       <r>     2.9358    23.4274   283.1871 </r>
       <r>     2.9964    19.0550   284.3430 </r>
       <r>     3.0571    30.8182   286.2126 </r>
       <r>     3.1177    19.5195   287.3969 </r>
       <r>     3.1784    33.2960   289.4167 </r>
       <r>     3.2391    27.5288   291.0875 </r>
       <r>     3.2997    22.3331   292.4424 </r>
       <r>     3.3604    24.4891   293.9283 </r>
       <r>     3.4210    31.5575   295.8431 </r>
       <r>     3.4817    17.2369   296.8888 </r>
       <r>     3.5424    18.9363   298.0375 </r>
       <r>     3.6030    28.8685   299.7887 </r>
       <r>     3.6637    20.1831   301.0131 </r>
       <r>     3.7244    19.0233   302.1671 </r>
       <r>     3.7850    21.4166   303.4663 </r>
       <r>     3.8457    28.3899   305.1885 </r>
       <r>     3.9063    12.0447   305.9196 </r>
       <r>     3.9670    28.7320   307.6625 </r>
       <r>     4.0277    21.5820   308.9718 </r>
       <r>     4.0883    21.0532   310.2489 </r>
       <r>     4.1490     6.1148   310.6199 </r>
       <r>     4.2097    13.7297   311.4527 </r>
       <r>     4.2703    20.4275   312.6922 </r>
       <r>     4.3310    16.3092   313.6815 </r>
       <r>     4.3916    18.6455   314.8126 </r>
       <r>     4.4523    11.4562   315.5076 </r>
       <r>     4.5130    22.4922   316.8725 </r>
       <r>     4.5736    21.4492   318.1739 </r>
       <r>     4.6343    32.8732   320.1682 </r>
       <r>     4.6949    20.0512   321.3850 </r>
       <r>     4.7556    25.4759   322.9306 </r>
       <r>     4.8163    24.3450   324.4075 </r>
       <r>     4.8769     2.8409   324.5799 </r>
       <r>     4.9376    14.7432   325.4742 </r>
       <r>     4.9983     8.6605   325.9996 </r>
       <r>     5.0589    15.4538   326.9375 </r>
       <r>     5.1196    15.3588   327.8692 </r>
       <r>     5.1802    16.0960   328.8458 </r>
       <r>     5.2409    22.1569   330.1899 </r>
       <r>     5.3016    41.0847   332.6824 </r>
       <r>     5.3622    21.8634   334.0092 </r>
       <r>     5.4229    22.9316   335.4004 </r>
       <r>     5.4835    14.0454   336.2524 </r>
       <r>     5.5442    35.3275   338.3955 </r>
       <r>     5.6049    28.8588   340.1462 </r>
       <r>     5.6655    22.6518   341.5203 </r>
       <r>     5.7262    31.7105   343.4440 </r>
       <r>     5.7869    26.2159   345.0343 </r>
       <r>     5.8475    38.2225   347.3536 </r>
       <r>     5.9082    37.2892   349.6156 </r>
       <r>     5.9688    45.3165   352.3646 </r>
       <r>     6.0295    25.7124   353.9248 </r>
       <r>     6.0902    46.4913   356.7451 </r>
       <r>     6.1508    32.1896   358.6982 </r>
       <r>     6.2115    39.2024   361.0767 </r>
       <r>     6.2722    37.3059   363.3402 </r>
       <r>     6.3328    30.3324   365.1807 </r>
       <r>     6.3935    44.6026   367.8864 </r>
       <r>     6.4541    29.0726   369.6501 </r>
       <r>     6.5148    29.1627   371.4196 </r>
       <r>     6.5755    30.6866   373.2811 </r>
       <r>     6.6361    22.3690   374.6381 </r>
       <r>     6.6968    10.2731   375.2613 </r>
       <r>     6.7574     8.0611   375.7503 </r>
       <r>     6.8181     4.1160   376.0000 </r>
       <r>     6.8788     0.0000   376.0000 </r>
       <r>     6.9394     0.0000   376.0000 </r>
       <r>     7.0001     0.0000   376.0000 </r>
       <r>     7.0608     0.0000   376.0000 </r>
       <r>     7.1214     0.0000   376.0000 </r>
       <r>     7.1821     0.0000   376.0000 </r>
       <r>     7.2427     0.0000   376.0000 </r>
       <r>     7.3034     0.0000   376.0000 </r>
       <r>     7.3641     0.0000   376.0000 </r>
       <r>     7.4247     0.0000   376.0000 </r>
       <r>     7.4854     0.0000   376.0000 </r>
       <r>     7.5461     0.0000   376.0000 </r>
       <r>     7.6067     0.0000   376.0000 </r>
      </set>
     </set>
    </array>
   </total>
  </dos>
 </calculation>
 <structure name="finalpos" >
  <crystal>
   <varray name="basis" >
    <v>       7.74989032       0.00000000       0.00000000 </v>
    <v>       3.87494516      11.62483548       0.00000000 </v>
    <v>       0.00000000       0.00000000      18.63333333 </v>
   </varray>
   <i name="volume">   1678.69936005 </i>
   <varray name="rec_basis" >
    <v>       0.12903408      -0.04301136       0.00000000 </v>
    <v>       0.00000000       0.08602272       0.00000000 </v>
    <v>       0.00000000       0.00000000       0.05366726 </v>
   </varray>
  </crystal>
  <varray name="positions" >
   <v>       0.00000000       0.00000000       0.00000000 </v>
   <v>       0.11111111       0.27777778       0.04901610 </v>
   <v>       0.22222222       0.55555556       0.09803220 </v>
   <v>       0.50000000       0.00000000       0.00000000 </v>
   <v>       0.61111111       0.27777778       0.04901610 </v>
   <v>       0.72222222       0.55555556       0.09803220 </v>
   <v>       0.80555556       0.88888889       0.02450805 </v>
   <v>       0.91666667       0.16666667       0.07352415 </v>
   <v>       0.02777778       0.44444444       0.12254025 </v>
   <v>       0.30555556       0.88888889       0.02450805 </v>
   <v>       0.41666667       0.16666667       0.07352415 </v>
   <v>       0.52777778       0.44444444       0.12254025 </v>
   <v>       0.10526316       0.72131148       0.18157424 </v>
   <v>       0.43859649       0.55464481       0.33345259 </v>
   <v>       0.77192983       0.38797814       0.48533095 </v>
   <v>       0.10526316       0.22131148       0.63720930 </v>
   <v>       0.43859649       0.05464481       0.78908766 </v>
   <v>       0.77192983       0.88797814       0.94096601 </v>
   <v>       0.43859649       0.05464481       0.18157424 </v>
   <v>       0.77192983       0.88797814       0.33345259 </v>
   <v>       0.10526316       0.72131148       0.48533095 </v>
   <v>       0.43859649       0.55464481       0.63720930 </v>
   <v>       0.77192983       0.38797814       0.78908766 </v>
   <v>       0.10526316       0.22131148       0.94096601 </v>
   <v>       0.77192983       0.38797814       0.18157424 </v>
   <v>       0.10526316       0.22131148       0.33345259 </v>
   <v>       0.43859649       0.05464481       0.48533095 </v>
   <v>       0.77192983       0.88797814       0.63720930 </v>
   <v>       0.10526316       0.72131148       0.78908766 </v>
   <v>       0.43859649       0.55464481       0.94096601 </v>
   <v>       0.60526316       0.72131148       0.18157424 </v>
   <v>       0.93859649       0.55464481       0.33345259 </v>
   <v>       0.27192983       0.38797814       0.48533095 </v>
   <v>       0.60526316       0.22131148       0.63720930 </v>
   <v>       0.93859649       0.05464481       0.78908766 </v>
   <v>       0.27192983       0.88797814       0.94096601 </v>
   <v>       0.93859649       0.05464481       0.18157424 </v>
   <v>       0.27192983       0.88797814       0.33345259 </v>
   <v>       0.60526316       0.72131148       0.48533095 </v>
   <v>       0.93859649       0.55464481       0.63720930 </v>
   <v>       0.27192983       0.38797814       0.78908766 </v>
   <v>       0.60526316       0.22131148       0.94096601 </v>
   <v>       0.27192983       0.38797814       0.18157424 </v>
   <v>       0.60526316       0.22131148       0.33345259 </v>
   <v>       0.93859649       0.05464481       0.48533095 </v>
   <v>       0.27192983       0.88797814       0.63720930 </v>
   <v>       0.60526316       0.72131148       0.78908766 </v>
   <v>       0.93859649       0.55464481       0.94096601 </v>
   <v>       0.02192983       0.88797814       0.25751342 </v>
   <v>       0.35526316       0.72131148       0.40939177 </v>
   <v>       0.68859649       0.55464481       0.56127013 </v>
   <v>       0.02192983       0.38797814       0.71314848 </v>
   <v>       0.35526316       0.22131148       0.86502683 </v>
   <v>       0.35526316       0.22131148       0.25751342 </v>
   <v>       0.68859649       0.05464481       0.40939177 </v>
   <v>       0.02192983       0.88797814       0.56127013 </v>
   <v>       0.35526316       0.72131148       0.71314848 </v>
   <v>       0.68859649       0.55464481       0.86502683 </v>
   <v>       0.68859649       0.55464481       0.25751342 </v>
   <v>       0.02192983       0.38797814       0.40939177 </v>
   <v>       0.35526316       0.22131148       0.56127013 </v>
   <v>       0.68859649       0.05464481       0.71314848 </v>
   <v>       0.02192983       0.88797814       0.86502683 </v>
   <v>       0.52192983       0.88797814       0.25751342 </v>
   <v>       0.85526316       0.72131148       0.40939177 </v>
   <v>       0.18859649       0.55464481       0.56127013 </v>
   <v>       0.52192983       0.38797814       0.71314848 </v>
   <v>       0.85526316       0.22131148       0.86502683 </v>
   <v>       0.85526316       0.22131148       0.25751342 </v>
   <v>       0.18859649       0.05464481       0.40939177 </v>
   <v>       0.52192983       0.88797814       0.56127013 </v>
   <v>       0.85526316       0.72131148       0.71314848 </v>
   <v>       0.18859649       0.55464481       0.86502683 </v>
   <v>       0.18859649       0.55464481       0.25751342 </v>
   <v>       0.52192983       0.38797814       0.40939177 </v>
   <v>       0.85526316       0.22131148       0.56127013 </v>
   <v>       0.18859649       0.05464481       0.71314848 </v>
   <v>       0.52192983       0.88797814       0.86502683 </v>
  </varray>
 </structure>
</modeling>
