 120 120   0   0
  0.2190039E+02  0.7680595E-09  0.1629300E-08  0.2100086E-08  0.5000000E-15
  1.000000000000000E-004
  CAR 
 Si and Ge interface calculation         
      7.79472365     -8.58658276  301      4.75000649      1.00000000
     -8.587  0.0000E+00  0.0000E+00  0.0000E+00  0.0000E+00
     -8.532  0.0000E+00  0.0000E+00  0.0000E+00  0.0000E+00
     -8.477  0.0000E+00  0.0000E+00  0.0000E+00  0.0000E+00
     -8.423  0.0000E+00  0.0000E+00  0.0000E+00  0.0000E+00
     -8.368  0.0000E+00  0.0000E+00  0.0000E+00  0.0000E+00
     -8.314  0.0000E+00  0.0000E+00  0.0000E+00  0.0000E+00
     -8.259  0.0000E+00  0.0000E+00  0.0000E+00  0.0000E+00
     -8.204  0.0000E+00  0.0000E+00  0.0000E+00  0.0000E+00
     -8.150  0.0000E+00  0.0000E+00  0.0000E+00  0.0000E+00
     -8.095  0.0000E+00  0.0000E+00  0.0000E+00  0.0000E+00
     -8.041  0.0000E+00  0.0000E+00  0.0000E+00  0.0000E+00
     -7.986  0.0000E+00  0.0000E+00  0.0000E+00  0.0000E+00
     -7.931  0.0000E+00  0.0000E+00  0.0000E+00  0.0000E+00
     -7.877  0.2041E-05  0.1436E-07  0.1115E-06  0.7841E-09
     -7.822  0.4567E+01  0.4451E+01  0.2494E+00  0.2430E+00
     -7.768  0.1152E-01  0.1276E+00  0.2500E+00  0.2500E+00
     -7.713  0.1017E+02  0.9275E+01  0.8054E+00  0.7565E+00
     -7.658  0.8143E+01  0.9038E+01  0.1250E+01  0.1250E+01
     -7.604  0.5348E+01  0.1414E+01  0.1542E+01  0.1327E+01
     -7.549  0.1728E+02  0.2090E+02  0.2485E+01  0.2468E+01
     -7.494  0.4845E+01  0.5154E+01  0.2750E+01  0.2750E+01
     -7.440  0.8185E+01  0.7005E+01  0.3197E+01  0.3132E+01
     -7.385  0.1398E+02  0.1272E+02  0.3960E+01  0.3827E+01
     -7.331  0.1073E+02  0.1222E+02  0.4546E+01  0.4494E+01
     -7.276  0.2509E+02  0.2448E+02  0.5916E+01  0.5831E+01
     -7.221  0.2045E+02  0.1838E+02  0.7033E+01  0.6835E+01
     -7.167  0.1774E+02  0.2131E+02  0.8001E+01  0.7998E+01
     -7.112  0.1711E+02  0.1411E+02  0.8935E+01  0.8768E+01
     -7.058  0.2863E+02  0.3164E+02  0.1050E+02  0.1050E+02
     -7.003  0.1761E+02  0.1638E+02  0.1146E+02  0.1139E+02
     -6.948  0.2346E+02  0.2294E+02  0.1274E+02  0.1264E+02
     -6.894  0.2152E+02  0.2132E+02  0.1392E+02  0.1381E+02
     -6.839  0.1967E+02  0.2082E+02  0.1499E+02  0.1494E+02
     -6.785  0.1734E+02  0.1254E+02  0.1594E+02  0.1563E+02
     -6.730  0.2339E+02  0.2568E+02  0.1721E+02  0.1703E+02
     -6.675  0.2503E+02  0.2369E+02  0.1858E+02  0.1833E+02
     -6.621  0.2069E+02  0.2451E+02  0.1971E+02  0.1966E+02
     -6.566  0.1783E+02  0.1606E+02  0.2068E+02  0.2054E+02
     -6.512  0.5048E+02  0.4693E+02  0.2344E+02  0.2310E+02
     -6.457  0.1531E+02  0.2105E+02  0.2428E+02  0.2425E+02
     -6.402  0.4092E+02  0.3253E+02  0.2651E+02  0.2603E+02
     -6.348  0.3566E+02  0.3962E+02  0.2846E+02  0.2819E+02
     -6.293  0.4850E+02  0.4816E+02  0.3111E+02  0.3082E+02
     -6.239  0.2336E+02  0.2304E+02  0.3238E+02  0.3208E+02
     -6.184  0.3561E+02  0.3583E+02  0.3433E+02  0.3404E+02
     -6.129  0.4842E+02  0.4925E+02  0.3697E+02  0.3673E+02
     -6.075  0.2056E+02  0.1900E+02  0.3809E+02  0.3776E+02
     -6.020  0.2532E+02  0.2610E+02  0.3948E+02  0.3919E+02
     -5.966  0.2947E+02  0.3184E+02  0.4109E+02  0.4093E+02
     -5.911  0.3762E+02  0.3710E+02  0.4314E+02  0.4295E+02
     -5.856  0.4632E+02  0.4795E+02  0.4567E+02  0.4557E+02
     -5.802  0.1734E+02  0.1707E+02  0.4662E+02  0.4650E+02
     -5.747  0.4264E+02  0.4206E+02  0.4894E+02  0.4880E+02
     -5.693  0.4730E+02  0.4640E+02  0.5153E+02  0.5133E+02
     -5.638  0.4643E+02  0.4359E+02  0.5406E+02  0.5371E+02
     -5.583  0.3851E+02  0.4053E+02  0.5616E+02  0.5593E+02
     -5.529  0.3716E+02  0.3730E+02  0.5819E+02  0.5796E+02
     -5.474  0.3726E+02  0.3266E+02  0.6023E+02  0.5975E+02
     -5.420  0.3322E+02  0.4102E+02  0.6204E+02  0.6199E+02
     -5.365  0.3157E+02  0.2986E+02  0.6377E+02  0.6362E+02
     -5.310  0.5141E+02  0.4873E+02  0.6657E+02  0.6628E+02
     -5.256  0.2503E+02  0.2601E+02  0.6794E+02  0.6770E+02
     -5.201  0.4803E+02  0.4756E+02  0.7056E+02  0.7030E+02
     -5.147  0.6994E+02  0.6023E+02  0.7438E+02  0.7358E+02
     -5.092  0.4575E+02  0.5821E+02  0.7688E+02  0.7676E+02
     -5.037  0.4112E+02  0.4084E+02  0.7913E+02  0.7899E+02
     -4.983  0.3029E+02  0.2918E+02  0.8078E+02  0.8059E+02
     -4.928  0.4816E+02  0.4370E+02  0.8341E+02  0.8297E+02
     -4.873  0.3654E+02  0.4266E+02  0.8540E+02  0.8530E+02
     -4.819  0.3446E+02  0.2973E+02  0.8729E+02  0.8693E+02
     -4.764  0.5632E+02  0.5886E+02  0.9036E+02  0.9014E+02
     -4.710  0.1577E+02  0.1651E+02  0.9122E+02  0.9104E+02
     -4.655  0.3927E+02  0.3819E+02  0.9337E+02  0.9313E+02
     -4.600  0.4360E+02  0.4765E+02  0.9575E+02  0.9573E+02
     -4.546  0.1706E+02  0.9586E+01  0.9668E+02  0.9625E+02
     -4.491  0.5275E+02  0.5637E+02  0.9956E+02  0.9933E+02
     -4.437  0.2674E+02  0.2687E+02  0.1010E+03  0.1008E+03
     -4.382  0.4318E+02  0.3941E+02  0.1034E+03  0.1029E+03
     -4.327  0.2523E+02  0.3301E+02  0.1048E+03  0.1048E+03
     -4.273  0.3156E+02  0.2935E+02  0.1065E+03  0.1064E+03
     -4.218  0.2784E+02  0.2733E+02  0.1080E+03  0.1078E+03
     -4.164  0.1840E+02  0.1693E+02  0.1090E+03  0.1088E+03
     -4.109  0.1377E+02  0.1498E+02  0.1098E+03  0.1096E+03
     -4.054  0.1871E+02  0.1995E+02  0.1108E+03  0.1107E+03
     -4.000  0.1005E+02  0.7019E+01  0.1113E+03  0.1111E+03
     -3.945  0.3439E+02  0.3747E+02  0.1132E+03  0.1131E+03
     -3.891  0.1803E+02  0.1685E+02  0.1142E+03  0.1140E+03
     -3.836  0.1294E+01  0.4072E+01  0.1143E+03  0.1143E+03
     -3.781  0.2137E+02  0.1940E+02  0.1154E+03  0.1153E+03
     -3.727  0.2366E+02  0.2035E+02  0.1167E+03  0.1164E+03
     -3.672  0.1599E+02  0.1594E+02  0.1176E+03  0.1173E+03
     -3.618  0.3625E+02  0.3589E+02  0.1196E+03  0.1193E+03
     -3.563  0.7890E+01  0.1372E+02  0.1200E+03  0.1200E+03
     -3.508  0.1448E+02  0.1159E+02  0.1208E+03  0.1206E+03
     -3.454  0.2212E+02  0.2484E+02  0.1220E+03  0.1220E+03
     -3.399  0.1818E+02  0.1755E+02  0.1230E+03  0.1229E+03
     -3.345  0.1654E+02  0.1440E+02  0.1239E+03  0.1237E+03
     -3.290  0.2172E+02  0.2276E+02  0.1251E+03  0.1250E+03
     -3.235  0.9122E+01  0.6205E+01  0.1256E+03  0.1253E+03
     -3.181  0.4271E+02  0.4419E+02  0.1279E+03  0.1277E+03
     -3.126  0.1794E+02  0.1550E+02  0.1289E+03  0.1286E+03
     -3.072  0.2029E+02  0.2494E+02  0.1300E+03  0.1299E+03
     -3.017  0.4642E+01  0.5730E+01  0.1303E+03  0.1303E+03
     -2.962  0.2438E+02  0.2051E+02  0.1316E+03  0.1314E+03
     -2.908  0.2865E+02  0.2934E+02  0.1331E+03  0.1330E+03
     -2.853  0.2750E+02  0.2588E+02  0.1347E+03  0.1344E+03
     -2.799  0.3812E+02  0.3770E+02  0.1367E+03  0.1364E+03
     -2.744  0.3602E+02  0.3052E+02  0.1387E+03  0.1381E+03
     -2.689  0.5140E+02  0.5583E+02  0.1415E+03  0.1412E+03
     -2.635  0.4802E+02  0.4602E+02  0.1441E+03  0.1437E+03
     -2.580  0.5170E+02  0.5507E+02  0.1469E+03  0.1467E+03
     -2.525  0.6409E+02  0.5926E+02  0.1504E+03  0.1499E+03
     -2.471  0.5133E+02  0.5135E+02  0.1533E+03  0.1527E+03
     -2.416  0.7452E+02  0.7860E+02  0.1573E+03  0.1570E+03
     -2.362  0.5457E+02  0.5568E+02  0.1603E+03  0.1601E+03
     -2.307  0.3993E+02  0.3695E+02  0.1625E+03  0.1621E+03
     -2.252  0.5027E+02  0.5300E+02  0.1652E+03  0.1650E+03
     -2.198  0.4358E+02  0.3989E+02  0.1676E+03  0.1671E+03
     -2.143  0.4818E+02  0.5192E+02  0.1702E+03  0.1700E+03
     -2.089  0.6242E+02  0.5686E+02  0.1736E+03  0.1731E+03
     -2.034  0.3430E+02  0.4237E+02  0.1755E+03  0.1754E+03
     -1.979  0.6685E+02  0.5683E+02  0.1792E+03  0.1785E+03
     -1.925  0.1521E+02  0.2742E+02  0.1800E+03  0.1800E+03
     -1.870  0.1190E+02  0.1051E+02  0.1806E+03  0.1806E+03
     -1.816  0.2453E+02  0.2265E+02  0.1820E+03  0.1818E+03
     -1.761  0.2668E+02  0.2540E+02  0.1834E+03  0.1832E+03
     -1.706  0.3762E+02  0.3514E+02  0.1855E+03  0.1851E+03
     -1.652  0.4618E+02  0.4538E+02  0.1880E+03  0.1876E+03
     -1.597  0.6169E+02  0.6305E+02  0.1914E+03  0.1910E+03
     -1.543  0.2233E+02  0.2449E+02  0.1926E+03  0.1924E+03
     -1.488  0.1742E+02  0.1888E+02  0.1936E+03  0.1934E+03
     -1.433  0.2941E+02  0.2956E+02  0.1952E+03  0.1950E+03
     -1.379  0.3416E+02  0.3123E+02  0.1970E+03  0.1967E+03
     -1.324  0.1356E+02  0.1890E+02  0.1978E+03  0.1978E+03
     -1.270  0.3112E+02  0.3029E+02  0.1995E+03  0.1994E+03
     -1.215  0.5042E+01  0.5900E+01  0.1997E+03  0.1997E+03
     -1.160  0.8655E+01  0.7382E+01  0.2002E+03  0.2001E+03
     -1.106  0.1498E+02  0.1302E+02  0.2010E+03  0.2008E+03
     -1.051  0.2418E+02  0.2282E+02  0.2024E+03  0.2021E+03
     -0.997  0.3894E+02  0.4206E+02  0.2045E+03  0.2044E+03
     -0.942  0.1637E+02  0.1612E+02  0.2054E+03  0.2053E+03
     -0.887  0.1595E+02  0.1801E+02  0.2063E+03  0.2062E+03
     -0.833  0.8697E+01  0.7437E+01  0.2067E+03  0.2067E+03
     -0.778  0.1611E+02  0.1022E+02  0.2076E+03  0.2072E+03
     -0.724  0.1592E+02  0.2048E+02  0.2085E+03  0.2083E+03
     -0.669  0.2743E+02  0.2846E+02  0.2100E+03  0.2099E+03
     -0.614  0.2784E+02  0.2043E+02  0.2115E+03  0.2110E+03
     -0.560  0.4810E+02  0.4972E+02  0.2141E+03  0.2137E+03
     -0.505  0.4566E+02  0.4502E+02  0.2166E+03  0.2162E+03
     -0.451  0.1226E+02  0.1788E+02  0.2173E+03  0.2171E+03
     -0.396  0.2585E+02  0.1883E+02  0.2187E+03  0.2182E+03
     -0.341  0.2392E+02  0.3327E+02  0.2200E+03  0.2200E+03
     -0.287  0.1887E+01  0.3044E+00  0.2201E+03  0.2200E+03
     -0.232  0.1784E+02  0.1542E+02  0.2211E+03  0.2209E+03
     -0.178  0.3452E+02  0.3515E+02  0.2230E+03  0.2228E+03
     -0.123  0.1834E+01  0.4560E+01  0.2231E+03  0.2230E+03
     -0.068  0.8463E+01  0.8741E+01  0.2235E+03  0.2235E+03
     -0.014  0.2664E+02  0.2404E+02  0.2250E+03  0.2248E+03
      0.041  0.9543E+01  0.1259E+02  0.2255E+03  0.2255E+03
      0.096  0.4578E+01  0.4577E+01  0.2257E+03  0.2257E+03
      0.150  0.2143E+02  0.1684E+02  0.2269E+03  0.2267E+03
      0.205  0.4800E+02  0.4575E+02  0.2295E+03  0.2292E+03
      0.259  0.7840E+02  0.7033E+02  0.2338E+03  0.2330E+03
      0.314  0.3985E+02  0.5290E+02  0.2360E+03  0.2359E+03
      0.369  0.4305E+02  0.4142E+02  0.2383E+03  0.2382E+03
      0.423  0.3925E+02  0.3680E+02  0.2405E+03  0.2402E+03
      0.478  0.4259E+02  0.4701E+02  0.2428E+03  0.2427E+03
      0.532  0.5050E+02  0.4644E+02  0.2456E+03  0.2453E+03
      0.587  0.3321E+02  0.3390E+02  0.2474E+03  0.2471E+03
      0.642  0.7509E+02  0.7246E+02  0.2515E+03  0.2511E+03
      0.696  0.3334E+02  0.3485E+02  0.2533E+03  0.2530E+03
      0.751  0.1076E+03  0.1005E+03  0.2592E+03  0.2585E+03
      0.805  0.8921E+02  0.9334E+02  0.2641E+03  0.2636E+03
      0.860  0.5710E+02  0.5869E+02  0.2672E+03  0.2668E+03
      0.915  0.5528E+02  0.5607E+02  0.2702E+03  0.2698E+03
      0.969  0.5268E+02  0.5372E+02  0.2731E+03  0.2728E+03
      1.024  0.4383E+02  0.4574E+02  0.2755E+03  0.2753E+03
      1.078  0.1001E+03  0.9516E+02  0.2809E+03  0.2805E+03
      1.133  0.5320E+02  0.5525E+02  0.2838E+03  0.2835E+03
      1.188  0.7675E+02  0.6741E+02  0.2880E+03  0.2872E+03
      1.242  0.6824E+02  0.8025E+02  0.2917E+03  0.2915E+03
      1.297  0.7303E+02  0.6356E+02  0.2957E+03  0.2950E+03
      1.351  0.9315E+02  0.9747E+02  0.3008E+03  0.3003E+03
      1.406  0.6228E+02  0.6500E+02  0.3042E+03  0.3039E+03
      1.461  0.9159E+02  0.8009E+02  0.3092E+03  0.3083E+03
      1.515  0.4405E+02  0.5588E+02  0.3116E+03  0.3113E+03
      1.570  0.5581E+02  0.5578E+02  0.3147E+03  0.3143E+03
      1.624  0.8157E+02  0.7746E+02  0.3191E+03  0.3186E+03
      1.679  0.8243E+02  0.8557E+02  0.3236E+03  0.3233E+03
      1.734  0.7397E+02  0.7260E+02  0.3277E+03  0.3272E+03
      1.788  0.9575E+02  0.9394E+02  0.3329E+03  0.3323E+03
      1.843  0.9365E+02  0.8688E+02  0.3380E+03  0.3371E+03
      1.897  0.8789E+02  0.9656E+02  0.3428E+03  0.3424E+03
      1.952  0.8062E+02  0.7984E+02  0.3472E+03  0.3467E+03
      2.007  0.4551E+02  0.4741E+02  0.3497E+03  0.3493E+03
      2.061  0.6288E+02  0.6494E+02  0.3531E+03  0.3529E+03
      2.116  0.7312E+02  0.6509E+02  0.3571E+03  0.3564E+03
      2.170  0.5146E+02  0.5608E+02  0.3599E+03  0.3595E+03
      2.225  0.7955E+02  0.7888E+02  0.3643E+03  0.3638E+03
      2.280  0.6342E+02  0.6478E+02  0.3677E+03  0.3673E+03
      2.334  0.9820E+02  0.9625E+02  0.3731E+03  0.3726E+03
      2.389  0.5350E+02  0.5409E+02  0.3760E+03  0.3755E+03
      2.443  0.7594E+02  0.7593E+02  0.3802E+03  0.3797E+03
      2.498  0.7278E+02  0.6967E+02  0.3841E+03  0.3835E+03
      2.553  0.6911E+02  0.7480E+02  0.3879E+03  0.3876E+03
      2.607  0.7066E+02  0.6961E+02  0.3918E+03  0.3914E+03
      2.662  0.5512E+02  0.5253E+02  0.3948E+03  0.3942E+03
      2.717  0.7791E+02  0.8172E+02  0.3990E+03  0.3987E+03
      2.771  0.5972E+02  0.6132E+02  0.4023E+03  0.4020E+03
      2.826  0.4207E+02  0.4172E+02  0.4046E+03  0.4043E+03
      2.880  0.5575E+02  0.4925E+02  0.4076E+03  0.4070E+03
      2.935  0.8235E+02  0.8629E+02  0.4121E+03  0.4117E+03
      2.990  0.5259E+02  0.5422E+02  0.4150E+03  0.4147E+03
      3.044  0.4762E+02  0.3900E+02  0.4176E+03  0.4168E+03
      3.099  0.9444E+02  0.9904E+02  0.4228E+03  0.4222E+03
      3.153  0.5703E+02  0.5289E+02  0.4259E+03  0.4251E+03
      3.208  0.6983E+02  0.6973E+02  0.4297E+03  0.4289E+03
      3.263  0.8473E+02  0.8784E+02  0.4343E+03  0.4337E+03
      3.317  0.6260E+02  0.6388E+02  0.4377E+03  0.4372E+03
      3.372  0.6721E+02  0.6712E+02  0.4414E+03  0.4409E+03
      3.426  0.5948E+02  0.5851E+02  0.4447E+03  0.4441E+03
      3.481  0.5977E+02  0.6434E+02  0.4479E+03  0.4476E+03
      3.536  0.1980E+02  0.2155E+02  0.4490E+03  0.4487E+03
      3.590  0.6167E+02  0.5699E+02  0.4524E+03  0.4519E+03
      3.645  0.2504E+02  0.3183E+02  0.4537E+03  0.4536E+03
      3.699  0.3441E+02  0.2948E+02  0.4556E+03  0.4552E+03
      3.754  0.3169E+02  0.3530E+02  0.4574E+03  0.4571E+03
      3.809  0.3270E+02  0.2873E+02  0.4591E+03  0.4587E+03
      3.863  0.2053E+02  0.2826E+02  0.4603E+03  0.4602E+03
      3.918  0.3393E+02  0.2561E+02  0.4621E+03  0.4616E+03
      3.972  0.3555E+02  0.3246E+02  0.4641E+03  0.4634E+03
      4.027  0.2901E+02  0.3846E+02  0.4656E+03  0.4655E+03
      4.082  0.2610E+02  0.2707E+02  0.4671E+03  0.4670E+03
      4.136  0.2620E+02  0.1739E+02  0.4685E+03  0.4679E+03
      4.191  0.1472E+02  0.1764E+02  0.4693E+03  0.4689E+03
      4.245  0.2821E+02  0.2246E+02  0.4708E+03  0.4701E+03
      4.300  0.1299E+02  0.2274E+02  0.4715E+03  0.4714E+03
      4.355  0.1750E+02  0.2053E+02  0.4725E+03  0.4725E+03
      4.409  0.1432E+02  0.3294E+01  0.4733E+03  0.4727E+03
      4.464  0.2648E+02  0.1542E+02  0.4747E+03  0.4735E+03
      4.518  0.2301E+02  0.3219E+02  0.4760E+03  0.4753E+03
      4.573  0.1372E+02  0.1650E+02  0.4767E+03  0.4762E+03
      4.628  0.1256E+01  0.9847E+01  0.4768E+03  0.4767E+03
      4.682  0.2193E+02  0.7659E+01  0.4780E+03  0.4771E+03
      4.737  0.4069E+02  0.1970E+02  0.4802E+03  0.4782E+03
      4.791  0.4125E+02  0.4671E+02  0.4825E+03  0.4808E+03
      4.846  0.1419E+02  0.3601E+02  0.4832E+03  0.4827E+03
      4.901  0.3143E+02  0.1646E+02  0.4850E+03  0.4836E+03
      4.955  0.2676E+02  0.4093E+02  0.4864E+03  0.4859E+03
      5.010  0.3573E+02  0.1198E+02  0.4884E+03  0.4865E+03
      5.065  0.3592E+02  0.4810E+02  0.4903E+03  0.4891E+03
      5.119  0.2722E+02  0.3224E+02  0.4918E+03  0.4909E+03
      5.174  0.2999E+02  0.2608E+02  0.4935E+03  0.4923E+03
      5.228  0.3044E+02  0.3608E+02  0.4951E+03  0.4943E+03
      5.283  0.4780E+02  0.4118E+02  0.4977E+03  0.4965E+03
      5.338  0.2789E+02  0.3809E+02  0.4993E+03  0.4986E+03
      5.392  0.5651E+02  0.4867E+02  0.5023E+03  0.5013E+03
      5.447  0.2391E+02  0.3260E+02  0.5036E+03  0.5031E+03
      5.501  0.2719E+02  0.2781E+02  0.5051E+03  0.5046E+03
      5.556  0.5238E+02  0.5473E+02  0.5080E+03  0.5076E+03
      5.611  0.3797E+02  0.3596E+02  0.5101E+03  0.5095E+03
      5.665  0.6832E+02  0.5621E+02  0.5138E+03  0.5126E+03
      5.720  0.5453E+02  0.6025E+02  0.5168E+03  0.5159E+03
      5.774  0.3303E+02  0.4531E+02  0.5186E+03  0.5184E+03
      5.829  0.4758E+02  0.4327E+02  0.5212E+03  0.5207E+03
      5.884  0.6402E+02  0.5272E+02  0.5247E+03  0.5236E+03
      5.938  0.6036E+02  0.6482E+02  0.5280E+03  0.5271E+03
      5.993  0.3993E+02  0.4840E+02  0.5301E+03  0.5298E+03
      6.047  0.4522E+02  0.4472E+02  0.5326E+03  0.5322E+03
      6.102  0.5282E+02  0.4786E+02  0.5355E+03  0.5348E+03
      6.157  0.5529E+02  0.5714E+02  0.5385E+03  0.5380E+03
      6.211  0.6661E+02  0.7085E+02  0.5422E+03  0.5418E+03
      6.266  0.3744E+02  0.3677E+02  0.5442E+03  0.5438E+03
      6.320  0.1924E+02  0.2226E+02  0.5453E+03  0.5451E+03
      6.375  0.6143E+02  0.5305E+02  0.5486E+03  0.5480E+03
      6.430  0.6183E+02  0.6399E+02  0.5520E+03  0.5515E+03
      6.484  0.6151E+02  0.6358E+02  0.5553E+03  0.5549E+03
      6.539  0.6761E+02  0.6210E+02  0.5590E+03  0.5583E+03
      6.593  0.3328E+02  0.4251E+02  0.5609E+03  0.5606E+03
      6.648  0.3688E+02  0.3507E+02  0.5629E+03  0.5625E+03
      6.703  0.4439E+02  0.4719E+02  0.5653E+03  0.5651E+03
      6.757  0.5345E+02  0.4926E+02  0.5682E+03  0.5678E+03
      6.812  0.3609E+02  0.3421E+02  0.5702E+03  0.5697E+03
      6.866  0.5438E+02  0.5949E+02  0.5731E+03  0.5729E+03
      6.921  0.2475E+02  0.2844E+02  0.5745E+03  0.5745E+03
      6.976  0.1751E+01  0.6308E+00  0.5746E+03  0.5745E+03
      7.030  0.1329E+02  0.9928E+01  0.5753E+03  0.5751E+03
      7.085  0.1243E+02  0.1717E+02  0.5760E+03  0.5760E+03
      7.139  0.0000E+00  0.0000E+00  0.5760E+03  0.5760E+03
      7.194  0.0000E+00  0.0000E+00  0.5760E+03  0.5760E+03
      7.249  0.0000E+00  0.0000E+00  0.5760E+03  0.5760E+03
      7.303  0.0000E+00  0.0000E+00  0.5760E+03  0.5760E+03
      7.358  0.0000E+00  0.0000E+00  0.5760E+03  0.5760E+03
      7.412  0.0000E+00  0.0000E+00  0.5760E+03  0.5760E+03
      7.467  0.0000E+00  0.0000E+00  0.5760E+03  0.5760E+03
      7.522  0.0000E+00  0.0000E+00  0.5760E+03  0.5760E+03
      7.576  0.0000E+00  0.0000E+00  0.5760E+03  0.5760E+03
      7.631  0.0000E+00  0.0000E+00  0.5760E+03  0.5760E+03
      7.686  0.0000E+00  0.0000E+00  0.5760E+03  0.5760E+03
      7.740  0.0000E+00  0.0000E+00  0.5760E+03  0.5760E+03
      7.795  0.0000E+00  0.0000E+00  0.5760E+03  0.5760E+03
