       N       E                     dE             d eps       ncg     rms          rms(c)
DAV:   1     0.196603112621E+04    0.19660E+04   -0.21397E+05  6912   0.173E+03
DAV:   2    -0.360265331727E+03   -0.23263E+04   -0.22434E+04  8080   0.215E+02
DAV:   3    -0.576881022536E+03   -0.21662E+03   -0.20998E+03  8544   0.573E+01
DAV:   4    -0.584698550587E+03   -0.78175E+01   -0.76925E+01  8192   0.117E+01
DAV:   5    -0.584992410322E+03   -0.29386E+00   -0.29229E+00  9112   0.224E+00    0.316E+01
DAV:   6    -0.576012187433E+03    0.89802E+01   -0.14457E+01  8304   0.816E+00    0.144E+01
DAV:   7    -0.576241598305E+03   -0.22941E+00   -0.15190E+01  8456   0.920E+00    0.668E+00
DAV:   8    -0.575093896731E+03    0.11477E+01   -0.45600E+00  8448   0.544E+00    0.162E+00
DAV:   9    -0.575171720462E+03   -0.77824E-01   -0.14990E+00  8136   0.183E+00    0.138E+00
DAV:  10    -0.575149220513E+03    0.22500E-01   -0.31167E-01  8328   0.976E-01    0.889E-01
DAV:  11    -0.575143429107E+03    0.57914E-02   -0.79258E-02  8312   0.518E-01    0.564E-01
DAV:  12    -0.575142029405E+03    0.13997E-02   -0.26269E-02  8248   0.297E-01    0.333E-01
DAV:  13    -0.575141761302E+03    0.26810E-03   -0.79852E-03  7976   0.142E-01    0.190E-01
DAV:  14    -0.575141685993E+03    0.75309E-04   -0.24418E-03  7928   0.819E-02    0.910E-02
DAV:  15    -0.575141680724E+03    0.52691E-05   -0.95591E-04  7976   0.515E-02    0.591E-02
DAV:  16    -0.575141666928E+03    0.13795E-04   -0.32201E-04  8000   0.309E-02    0.396E-02
DAV:  17    -0.575141678681E+03   -0.11753E-04   -0.12374E-04  7800   0.157E-02    0.245E-02
DAV:  18    -0.575141686227E+03   -0.75457E-05   -0.52919E-05  8240   0.101E-02    0.151E-02
DAV:  19    -0.575141691547E+03   -0.53198E-05   -0.17975E-05  7992   0.557E-03    0.122E-02
DAV:  20    -0.575141696023E+03   -0.44766E-05   -0.96298E-06  8352   0.395E-03    0.787E-03
DAV:  21    -0.575141701720E+03   -0.56973E-05   -0.14848E-05  8096   0.418E-03    0.532E-03
DAV:  22    -0.575141704593E+03   -0.28721E-05   -0.66042E-06  8600   0.273E-03    0.451E-03
DAV:  23    -0.575141707403E+03   -0.28103E-05   -0.10605E-05  8128   0.330E-03    0.382E-03
DAV:  24    -0.575141709750E+03   -0.23470E-05   -0.16998E-05  8232   0.408E-03    0.311E-03
DAV:  25    -0.575141710640E+03   -0.89025E-06   -0.78689E-06  8624   0.282E-03    0.252E-03
DAV:  26    -0.575141711193E+03   -0.55334E-06   -0.37252E-06  8352   0.189E-03    0.204E-03
DAV:  27    -0.575141711636E+03   -0.44293E-06   -0.45634E-06  8152   0.206E-03    0.164E-03
DAV:  28    -0.575141711790E+03   -0.15334E-06   -0.41917E-06  8376   0.204E-03    0.155E-03
DAV:  29    -0.575141711995E+03   -0.20535E-06   -0.36461E-06  8224   0.187E-03    0.152E-03
DAV:  30    -0.575141712390E+03   -0.39484E-06   -0.25368E-06  8368   0.156E-03    0.826E-04
DAV:  31    -0.575141712594E+03   -0.20454E-06   -0.39823E-07  5864   0.710E-04    0.545E-04
DAV:  32    -0.575141712649E+03   -0.54259E-07   -0.49067E-08  3928   0.314E-04
   1 F= -.57514171E+03 E0= -.57514027E+03  d E =-.288373E-02  mag=     1.0000
