<?xml version="1.0" encoding="ISO-8859-1"?>
<modeling>
 <generator>
  <i name="program" type="string">vasp </i>
  <i name="version" type="string">6.4.3  </i>
  <i name="subversion" type="string">19Mar24 (build Oct 22 2024 11:23:12) complex                          parallel </i>
  <i name="platform" type="string">LinuxIFC </i>
  <i name="date" type="string">2025 06 08 </i>
  <i name="time" type="string">11:09:15 </i>
 </generator>
 <incar>
  <i type="string" name="SYSTEM">Si and Ge interface calculation</i>
  <i type="int" name="ISTART">     0</i>
  <i type="logical" name="ADDGRID"> T  </i>
  <i type="int" name="ISPIN">     2</i>
  <i name="AMIX">      0.60000000</i>
  <i type="int" name="ICHARG">     2</i>
  <i type="int" name="NELM">   100</i>
  <i name="EDIFF">      0.00000010</i>
  <i name="ENCUT">    700.00000000</i>
  <i name="ENAUG">    900.00000000</i>
  <i type="int" name="NBANDS">   288</i>
  <i name="NUPDOWN">      1.00000000</i>
  <i name="NELECT">    480.00000000</i>
  <i type="string" name="LREAL">AUTO</i>
  <i type="int" name="ISMEAR">     0</i>
  <i name="SIGMA">      0.01000000</i>
  <i type="int" name="LMAXMIX">     6</i>
  <i type="logical" name="LWAVE"> F  </i>
  <i type="logical" name="LVTOT"> F  </i>
  <i type="logical" name="LVHAR"> T  </i>
  <i type="logical" name="LASPH"> T  </i>
  <i type="logical" name="LMIXTAU"> T  </i>
 </incar>
 <primitive_cell>
  <structure name="primitive_cell" >
   <crystal>
    <varray name="basis" >
     <v>       7.68059444       0.00000000       0.00000000 </v>
     <v>       0.00000000      16.29299927       0.00000000 </v>
     <v>       0.00000000       0.00000000      21.00086403 </v>
    </varray>
    <i name="volume">   2628.04643725 </i>
    <varray name="rec_basis" >
     <v>       0.13019826       0.00000000       0.00000000 </v>
     <v>       0.00000000       0.06137605       0.00000000 </v>
     <v>       0.00000000       0.00000000       0.04761709 </v>
    </varray>
   </crystal>
   <varray name="positions" >
    <v>       0.97851729       0.98567820       0.00000000 </v>
    <v>       0.72851723       0.81901145       0.09143190 </v>
    <v>       0.47851718       0.65234476       0.18286380 </v>
    <v>       0.22851723       0.48567814       0.27429566 </v>
    <v>       0.97851718       0.31901139       0.36572757 </v>
    <v>       0.60116357       0.69016319       0.62755173 </v>
    <v>       0.10116363       0.19016326       0.89695972 </v>
    <v>       0.72851723       0.15234485       0.09143190 </v>
    <v>       0.47851718       0.98567814       0.18286380 </v>
    <v>       0.22851723       0.81901151       0.27429566 </v>
    <v>       0.97851718       0.65234476       0.36572757 </v>
    <v>       0.85116363       0.19016326       0.56019974 </v>
    <v>       0.97851729       0.65234494       0.00000000 </v>
    <v>       0.72851723       0.48567820       0.09143190 </v>
    <v>       0.47851718       0.31901151       0.18286380 </v>
    <v>       0.85116357       0.44016322       0.56019974 </v>
    <v>       0.97851718       0.98567814       0.36572757 </v>
    <v>       0.85116363       0.94016319       0.56019974 </v>
    <v>       0.60116363       0.69016326       0.89695972 </v>
    <v>       0.22851725       0.81901145       0.09143190 </v>
    <v>       0.60116357       0.94016319       0.89695972 </v>
    <v>       0.72851729       0.48567814       0.27429563 </v>
    <v>       0.47851718       0.31901139       0.36572757 </v>
    <v>       0.22851712       0.15234470       0.45715946 </v>
    <v>       0.60116363       0.44016326       0.89695972 </v>
    <v>       0.22851725       0.15234485       0.09143190 </v>
    <v>       0.97851723       0.98567814       0.18286380 </v>
    <v>       0.72851729       0.81901151       0.27429563 </v>
    <v>       0.47851718       0.65234476       0.36572757 </v>
    <v>       0.22851712       0.48567808       0.45715946 </v>
    <v>       0.35116363       0.19016326       0.82960773 </v>
    <v>       0.22851725       0.48567820       0.09143190 </v>
    <v>       0.97851723       0.31901151       0.18286380 </v>
    <v>       0.72851729       0.15234487       0.27429563 </v>
    <v>       0.47851718       0.98567814       0.36572757 </v>
    <v>       0.35116363       0.69016319       0.56019974 </v>
    <v>       0.72851735       0.23567820       0.00000000 </v>
    <v>       0.47851729       0.06901149       0.09143189 </v>
    <v>       0.22851726       0.90234476       0.18286380 </v>
    <v>       0.97851729       0.73567814       0.27429566 </v>
    <v>       0.72851723       0.56901145       0.36572757 </v>
    <v>       0.47851723       0.40234464       0.45715940 </v>
    <v>       0.72851735       0.56901163       0.00000000 </v>
    <v>       0.47851729       0.40234488       0.09143189 </v>
    <v>       0.22851726       0.23567820       0.18286380 </v>
    <v>       0.97851729       0.06901154       0.27429566 </v>
    <v>       0.72851723       0.90234482       0.36572757 </v>
    <v>       0.47851723       0.73567808       0.45715940 </v>
    <v>       0.72851735       0.90234494       0.00000000 </v>
    <v>       0.47851729       0.73567820       0.09143189 </v>
    <v>       0.22851726       0.56901151       0.18286380 </v>
    <v>       0.97851729       0.40234485       0.27429566 </v>
    <v>       0.72851723       0.23567812       0.36572757 </v>
    <v>       0.47851723       0.06901138       0.45715940 </v>
    <v>       0.22851729       0.23567820       0.00000000 </v>
    <v>       0.10116363       0.69016326       0.89695972 </v>
    <v>       0.72851718       0.90234476       0.18286380 </v>
    <v>       0.47851729       0.73567814       0.27429563 </v>
    <v>       0.35116363       0.19016326       0.56019974 </v>
    <v>       0.97851706       0.40234464       0.45715946 </v>
    <v>       0.22851729       0.56901163       0.00000000 </v>
    <v>       0.97851723       0.40234488       0.09143190 </v>
    <v>       0.72851718       0.23567820       0.18286380 </v>
    <v>       0.47851729       0.06901154       0.27429563 </v>
    <v>       0.22851718       0.90234482       0.36572757 </v>
    <v>       0.97851706       0.73567808       0.45715946 </v>
    <v>       0.22851729       0.90234494       0.00000000 </v>
    <v>       0.97851723       0.73567820       0.09143190 </v>
    <v>       0.72851718       0.56901151       0.18286380 </v>
    <v>       0.47851729       0.40234485       0.27429563 </v>
    <v>       0.22851718       0.23567812       0.36572757 </v>
    <v>       0.97851706       0.06901138       0.45715946 </v>
    <v>       0.22851712       0.81901139       0.45715946 </v>
    <v>       0.10116363       0.31516326       0.69490373 </v>
    <v>       0.85116363       0.94016331       0.82960773 </v>
    <v>       0.72851718       0.81901139       0.45715946 </v>
    <v>       0.60116363       0.56516326       0.69490373 </v>
    <v>       0.47851729       0.65234494       0.00000000 </v>
    <v>       0.22851718       0.56901145       0.36572757 </v>
    <v>       0.10116363       0.81516331       0.69490373 </v>
    <v>       0.85116363       0.44016326       0.82960773 </v>
    <v>       0.22851723       0.15234487       0.27429566 </v>
    <v>       0.60116363       0.06516326       0.69490373 </v>
    <v>       0.35116363       0.69016326       0.82960773 </v>
    <v>       0.72851718       0.15234470       0.45715946 </v>
    <v>       0.35116363       0.31516326       0.76225573 </v>
    <v>       0.10116363       0.94016319       0.89695972 </v>
    <v>       0.10116363       0.94016319       0.62755173 </v>
    <v>       0.85116363       0.56516326       0.76225573 </v>
    <v>       0.60116363       0.19016326       0.89695972 </v>
    <v>       0.60116363       0.19016326       0.62755173 </v>
    <v>       0.35116363       0.81516331       0.76225573 </v>
    <v>       0.10116363       0.44016326       0.89695972 </v>
    <v>       0.10116351       0.44016322       0.62755173 </v>
    <v>       0.85116363       0.06516326       0.76225573 </v>
    <v>       0.47851729       0.98567820       0.00000000 </v>
    <v>       0.35116363       0.94016326       0.56019974 </v>
    <v>       0.10116375       0.56516331       0.69490373 </v>
    <v>       0.85116363       0.19016337       0.82960773 </v>
    <v>       0.35116363       0.44016326       0.56019974 </v>
    <v>       0.10116363       0.06516326       0.69490373 </v>
    <v>       0.85116363       0.69016326       0.82960773 </v>
    <v>       0.85116363       0.69016326       0.56019974 </v>
    <v>       0.60116363       0.31516331       0.69490373 </v>
    <v>       0.35116363       0.94016331       0.82960773 </v>
    <v>       0.72851718       0.48567808       0.45715946 </v>
    <v>       0.60116363       0.81516326       0.69490373 </v>
    <v>       0.35116363       0.44016331       0.82960773 </v>
    <v>       0.60116369       0.94016326       0.62755173 </v>
    <v>       0.35116363       0.56516331       0.76225573 </v>
    <v>       0.97851729       0.31901154       0.00000000 </v>
    <v>       0.60116363       0.44016326       0.62755173 </v>
    <v>       0.35116363       0.06516326       0.76225573 </v>
    <v>       0.97851723       0.06901149       0.09143190 </v>
    <v>       0.10116363       0.69016319       0.62755173 </v>
    <v>       0.85116363       0.31516322       0.76225573 </v>
    <v>       0.97851723       0.65234476       0.18286380 </v>
    <v>       0.10116363       0.19016326       0.62755173 </v>
    <v>       0.85116363       0.81516331       0.76225573 </v>
    <v>       0.47851729       0.31901154       0.00000000 </v>
   </varray>
  </structure>
  <varray name="primitive_index" >
   <v type="int" >        1 </v>
   <v type="int" >        2 </v>
   <v type="int" >        3 </v>
   <v type="int" >        4 </v>
   <v type="int" >        5 </v>
   <v type="int" >        6 </v>
   <v type="int" >        7 </v>
   <v type="int" >        8 </v>
   <v type="int" >        9 </v>
   <v type="int" >       10 </v>
   <v type="int" >       11 </v>
   <v type="int" >       12 </v>
   <v type="int" >       13 </v>
   <v type="int" >       14 </v>
   <v type="int" >       15 </v>
   <v type="int" >       16 </v>
   <v type="int" >       17 </v>
   <v type="int" >       18 </v>
   <v type="int" >       19 </v>
   <v type="int" >       20 </v>
   <v type="int" >       21 </v>
   <v type="int" >       22 </v>
   <v type="int" >       23 </v>
   <v type="int" >       24 </v>
   <v type="int" >       25 </v>
   <v type="int" >       26 </v>
   <v type="int" >       27 </v>
   <v type="int" >       28 </v>
   <v type="int" >       29 </v>
   <v type="int" >       30 </v>
   <v type="int" >       31 </v>
   <v type="int" >       32 </v>
   <v type="int" >       33 </v>
   <v type="int" >       34 </v>
   <v type="int" >       35 </v>
   <v type="int" >       36 </v>
   <v type="int" >       37 </v>
   <v type="int" >       38 </v>
   <v type="int" >       39 </v>
   <v type="int" >       40 </v>
   <v type="int" >       41 </v>
   <v type="int" >       42 </v>
   <v type="int" >       43 </v>
   <v type="int" >       44 </v>
   <v type="int" >       45 </v>
   <v type="int" >       46 </v>
   <v type="int" >       47 </v>
   <v type="int" >       48 </v>
   <v type="int" >       49 </v>
   <v type="int" >       50 </v>
   <v type="int" >       51 </v>
   <v type="int" >       52 </v>
   <v type="int" >       53 </v>
   <v type="int" >       54 </v>
   <v type="int" >       55 </v>
   <v type="int" >       56 </v>
   <v type="int" >       57 </v>
   <v type="int" >       58 </v>
   <v type="int" >       59 </v>
   <v type="int" >       60 </v>
   <v type="int" >       61 </v>
   <v type="int" >       62 </v>
   <v type="int" >       63 </v>
   <v type="int" >       64 </v>
   <v type="int" >       65 </v>
   <v type="int" >       66 </v>
   <v type="int" >       67 </v>
   <v type="int" >       68 </v>
   <v type="int" >       69 </v>
   <v type="int" >       70 </v>
   <v type="int" >       71 </v>
   <v type="int" >       72 </v>
   <v type="int" >       73 </v>
   <v type="int" >       74 </v>
   <v type="int" >       75 </v>
   <v type="int" >       76 </v>
   <v type="int" >       77 </v>
   <v type="int" >       78 </v>
   <v type="int" >       79 </v>
   <v type="int" >       80 </v>
   <v type="int" >       81 </v>
   <v type="int" >       82 </v>
   <v type="int" >       83 </v>
   <v type="int" >       84 </v>
   <v type="int" >       85 </v>
   <v type="int" >       86 </v>
   <v type="int" >       87 </v>
   <v type="int" >       88 </v>
   <v type="int" >       89 </v>
   <v type="int" >       90 </v>
   <v type="int" >       91 </v>
   <v type="int" >       92 </v>
   <v type="int" >       93 </v>
   <v type="int" >       94 </v>
   <v type="int" >       95 </v>
   <v type="int" >       96 </v>
   <v type="int" >       97 </v>
   <v type="int" >       98 </v>
   <v type="int" >       99 </v>
   <v type="int" >      100 </v>
   <v type="int" >      101 </v>
   <v type="int" >      102 </v>
   <v type="int" >      103 </v>
   <v type="int" >      104 </v>
   <v type="int" >      105 </v>
   <v type="int" >      106 </v>
   <v type="int" >      107 </v>
   <v type="int" >      108 </v>
   <v type="int" >      109 </v>
   <v type="int" >      110 </v>
   <v type="int" >      111 </v>
   <v type="int" >      112 </v>
   <v type="int" >      113 </v>
   <v type="int" >      114 </v>
   <v type="int" >      115 </v>
   <v type="int" >      116 </v>
   <v type="int" >      117 </v>
   <v type="int" >      118 </v>
   <v type="int" >      119 </v>
   <v type="int" >      120 </v>
  </varray>
 </primitive_cell>
 <kpoints>
  <generation param="Gamma">
   <v type="int" name="divisions">       4        2        1 </v>
   <v name="usershift">      0.00000000       0.00000000       0.00000000 </v>
   <v name="genvec1">      0.25000000       0.00000000       0.00000000 </v>
   <v name="genvec2">      0.00000000       0.50000000       0.00000000 </v>
   <v name="genvec3">      0.00000000       0.00000000       1.00000000 </v>
   <v name="shift">      0.00000000       0.00000000       0.00000000 </v>
  </generation>
  <varray name="kpointlist" >
   <v>       0.00000000       0.00000000       0.00000000 </v>
   <v>       0.25000000       0.00000000       0.00000000 </v>
   <v>       0.50000000       0.00000000       0.00000000 </v>
   <v>       0.00000000       0.50000000       0.00000000 </v>
   <v>       0.25000000       0.50000000       0.00000000 </v>
   <v>       0.50000000       0.50000000       0.00000000 </v>
  </varray>
  <varray name="weights" >
   <v>       0.12500000 </v>
   <v>       0.25000000 </v>
   <v>       0.12500000 </v>
   <v>       0.12500000 </v>
   <v>       0.25000000 </v>
   <v>       0.12500000 </v>
  </varray>
 </kpoints>
 <parameters>
  <separator name="general" >
   <i type="string" name="SYSTEM">Si and Ge interface calculation</i>
   <i type="logical" name="LCOMPAT"> F  </i>
  </separator>
  <separator name="electronic" >
   <i type="string" name="PREC">normal</i>
   <i name="ENMAX">    700.00000000</i>
   <i name="ENAUG">    900.00000000</i>
   <i name="EDIFF">      0.00000010</i>
   <i type="int" name="IALGO">    38</i>
   <i type="int" name="IWAVPR">    10</i>
   <i type="int" name="NBANDS">   288</i>
   <i type="int" name="NBANDSLOW">    -1</i>
   <i type="int" name="NBANDSHIGH">    -1</i>
   <i name="NELECT">    480.00000000</i>
   <i type="int" name="TURBO">     0</i>
   <i type="int" name="IRESTART">     0</i>
   <i type="int" name="NREBOOT">     0</i>
   <i type="int" name="NMIN">     0</i>
   <i name="EREF">      0.00000000</i>
   <separator name="electronic smearing" >
    <i type="int" name="ISMEAR">     0</i>
    <i name="SIGMA">      0.01000000</i>
    <i name="KSPACING">      0.50000000</i>
    <i type="logical" name="KGAMMA"> T  </i>
    <i type="logical" name="KBLOWUP"> T  </i>
   </separator>
   <separator name="electronic projectors" >
    <i type="logical" name="LREAL"> T  </i>
    <v name="ROPT">     -0.00050000     -0.00050000</v>
    <i type="int" name="LMAXPAW">  -100</i>
    <i type="int" name="LMAXMIX">     6</i>
    <i type="logical" name="NLSPLINE"> F  </i>
   </separator>
   <separator name="electronic startup" >
    <i type="int" name="ISTART">     0</i>
    <i type="int" name="ICHARG">     2</i>
    <i type="int" name="INIWAV">     1</i>
   </separator>
   <separator name="electronic spin" >
    <i type="int" name="ISPIN">     2</i>
    <i type="logical" name="LNONCOLLINEAR"> F  </i>
    <v name="MAGMOM">      0.00833333      0.00833333      0.00833333      0.00833333      0.00833333      0.00833333      0.00833333      0.00833333      0.00833333      0.00833333      0.00833333      0.00833333      0.00833333      0.00833333      0.00833333      0.00833333      0.00833333      0.00833333      0.00833333      0.00833333
      0.00833333      0.00833333      0.00833333      0.00833333      0.00833333      0.00833333      0.00833333      0.00833333      0.00833333      0.00833333      0.00833333      0.00833333      0.00833333      0.00833333      0.00833333      0.00833333      0.00833333      0.00833333      0.00833333      0.00833333
      0.00833333      0.00833333      0.00833333      0.00833333      0.00833333      0.00833333      0.00833333      0.00833333      0.00833333      0.00833333      0.00833333      0.00833333      0.00833333      0.00833333      0.00833333      0.00833333      0.00833333      0.00833333      0.00833333      0.00833333
      0.00833333      0.00833333      0.00833333      0.00833333      0.00833333      0.00833333      0.00833333      0.00833333      0.00833333      0.00833333      0.00833333      0.00833333      0.00833333      0.00833333      0.00833333      0.00833333      0.00833333      0.00833333      0.00833333      0.00833333
      0.00833333      0.00833333      0.00833333      0.00833333      0.00833333      0.00833333      0.00833333      0.00833333      0.00833333      0.00833333      0.00833333      0.00833333      0.00833333      0.00833333      0.00833333      0.00833333      0.00833333      0.00833333      0.00833333      0.00833333
      0.00833333      0.00833333      0.00833333      0.00833333      0.00833333      0.00833333      0.00833333      0.00833333      0.00833333      0.00833333      0.00833333      0.00833333      0.00833333      0.00833333      0.00833333      0.00833333      0.00833333      0.00833333      0.00833333      0.00833333
</v>
    <i name="NUPDOWN">      1.00000000</i>
    <i type="logical" name="LSORBIT"> F  </i>
    <v name="SAXIS">      0.00000000      0.00000000      1.00000000</v>
    <i type="logical" name="LSPIRAL"> F  </i>
    <v name="QSPIRAL">      0.00000000      0.00000000      0.00000000</v>
    <i type="logical" name="LZEROZ"> F  </i>
   </separator>
   <separator name="electronic exchange-correlation" >
    <i type="logical" name="LASPH"> T  </i>
   </separator>
   <separator name="electronic convergence" >
    <i type="int" name="NELM">   100</i>
    <i type="int" name="NELMDL">    -5</i>
    <i type="int" name="NELMIN">     2</i>
    <i name="ENINI">    700.00000000</i>
    <separator name="electronic convergence detail" >
     <i type="logical" name="LDIAG"> T  </i>
     <i type="logical" name="LSUBROT"> F  </i>
     <i name="WEIMIN">      0.00000000</i>
     <i name="EBREAK">      0.00000000</i>
     <i name="DEPER">      0.30000000</i>
     <i type="int" name="NRMM">     4</i>
     <i name="TIME">      0.40000000</i>
    </separator>
   </separator>
   <separator name="electronic mixer" >
    <i name="AMIX">      0.60000000</i>
    <i name="BMIX">      1.00000000</i>
    <i name="AMIN">      0.10000000</i>
    <i name="AMIX_MAG">      2.40000000</i>
    <i name="BMIX_MAG">      1.00000000</i>
    <separator name="electronic mixer details" >
     <i type="int" name="IMIX">     4</i>
     <i type="logical" name="MIXFIRST"> F  </i>
     <i type="int" name="MAXMIX">   -45</i>
     <i name="WC">    100.00000000</i>
     <i type="int" name="INIMIX">     1</i>
     <i type="int" name="MIXPRE">     1</i>
     <i type="int" name="MREMOVE">     5</i>
    </separator>
   </separator>
   <separator name="electronic dipolcorrection" >
    <i type="logical" name="LDIPOL"> F  </i>
    <i type="logical" name="LMONO"> F  </i>
    <i type="int" name="IDIPOL">     0</i>
    <i name="EPSILON">      1.00000000</i>
    <v name="DIPOL">   -100.00000000   -100.00000000   -100.00000000</v>
    <i name="EFIELD">      0.00000000</i>
    <i type="logical" name="LVACPOTAV"> F  </i>
   </separator>
  </separator>
  <separator name="grids" >
   <i type="int" name="NGX">    50</i>
   <i type="int" name="NGY">   108</i>
   <i type="int" name="NGZ">   140</i>
   <i type="int" name="NGXF">   100</i>
   <i type="int" name="NGYF">   216</i>
   <i type="int" name="NGZF">   280</i>
   <i type="logical" name="ADDGRID"> T  </i>
  </separator>
  <separator name="ionic" >
   <i type="int" name="NSW">     0</i>
   <i type="int" name="IBRION">    -1</i>
   <i type="int" name="MDALGO">     0</i>
   <i type="int" name="ISIF">     2</i>
   <i name="PSTRESS">      0.00000000</i>
   <i name="EDIFFG">      0.00000100</i>
   <i type="int" name="NFREE">     0</i>
   <i name="POTIM">      0.50000000</i>
   <i name="SMASS">     -3.00000000</i>
   <i name="SCALEE">      1.00000000</i>
  </separator>
  <separator name="ionic md" >
   <i name="TEBEG">      0.00010000</i>
   <i name="TEEND">      0.00010000</i>
   <i type="int" name="NBLOCK">     1</i>
   <i type="int" name="KBLOCK">     1</i>
   <i type="int" name="NPACO">   256</i>
   <i name="APACO">     10.00000000</i>
  </separator>
  <separator name="symmetry" >
   <i type="int" name="ISYM">     2</i>
   <i name="SYMPREC">      0.00001000</i>
  </separator>
  <separator name="dos" >
   <i type="int" name="LORBIT">     0</i>
   <v name="RWIGS">     -1.00000000     -1.00000000</v>
   <i type="int" name="NEDOS">   301</i>
   <i name="EMIN">     10.00000000</i>
   <i name="EMAX">    -10.00000000</i>
   <i name="EFERMI">      0.00000000</i>
  </separator>
  <separator name="writing" >
   <i type="int" name="NWRITE">     2</i>
   <i type="logical" name="LWAVE"> F  </i>
   <i type="logical" name="LDOWNSAMPLE"> F  </i>
   <i type="logical" name="LCHARG"> T  </i>
   <i type="logical" name="LPARD"> F  </i>
   <i type="logical" name="LVTOT"> F  </i>
   <i type="logical" name="LVHAR"> T  </i>
   <i type="logical" name="LELF"> F  </i>
   <i type="logical" name="LOPTICS"> F  </i>
   <v name="STM">      0.00000000      0.00000000      0.00000000      0.00000000      0.00000000      0.00000000      0.00000000</v>
  </separator>
  <separator name="performance" >
   <i type="int" name="NPAR">     4</i>
   <i type="int" name="NSIM">     4</i>
   <i type="int" name="NBLK">    -1</i>
   <i type="logical" name="LPLANE"> T  </i>
   <i type="logical" name="LSCALAPACK"> T  </i>
   <i type="logical" name="LSCAAWARE"> F  </i>
   <i type="logical" name="LSCALU"> F  </i>
   <i type="logical" name="LASYNC"> F  </i>
   <i type="logical" name="LORBITALREAL"> F  </i>
  </separator>
  <separator name="miscellaneous" >
   <i type="int" name="IDIOT">     3</i>
   <i type="int" name="PHON_NSTRUCT">    -1</i>
   <i type="logical" name="LMUSIC"> F  </i>
   <v name="POMASS">     28.08500000     72.61000000</v>
   <v name="DARWINR">      0.00000000      0.00000000</v>
   <v name="DARWINV">      1.00000000      1.00000000</v>
   <i type="logical" name="LCORR"> T  </i>
  </separator>
  <i type="logical" name="GGA_COMPAT"> T  </i>
  <i type="logical" name="LBERRY"> F  </i>
  <i type="int" name="ICORELEVEL">     0</i>
  <i type="logical" name="LDAU"> F  </i>
  <i type="int" name="I_CONSTRAINED_M">     0</i>
  <separator name="electronic exchange-correlation" >
   <i type="string" name="GGA    ">PE</i>
   <i type="string" name="XC_C">1</i>
   <i type="int" name="VOSKOWN">     0</i>
   <i type="logical" name="LHFCALC"> F  </i>
   <i type="string" name="PRECFOCK"></i>
   <i type="logical" name="LSYMGRAD"> F  </i>
   <i type="logical" name="LHFONE"> F  </i>
   <i type="logical" name="LRHFCALC"> F  </i>
   <i type="logical" name="LTHOMAS"> F  </i>
   <i type="logical" name="LMODELHF"> F  </i>
   <i type="logical" name="LFOCKACE"> F  </i>
   <i name="ENCUT4O">     -1.00000000</i>
   <i type="int" name="EXXOEP">     0</i>
   <i type="int" name="FOURORBIT">     0</i>
   <i name="AEXX">      0.00000000</i>
   <i name="HFALPHA">      0.00000000</i>
   <i name="MCALPHA">      0.00000000</i>
   <i name="ALDAX">      1.00000000</i>
   <i name="AGGAX">      1.00000000</i>
   <i name="AMGGAX">      1.00000000</i>
   <i name="ALDAC">      1.00000000</i>
   <i name="AGGAC">      1.00000000</i>
   <i name="AMGGAC">      1.00000000</i>
   <i type="int" name="NKREDX">     1</i>
   <i type="int" name="NKREDY">     1</i>
   <i type="int" name="NKREDZ">     1</i>
   <i type="logical" name="SHIFTRED"> F  </i>
   <i type="logical" name="ODDONLY"> F  </i>
   <i type="logical" name="EVENONLY"> F  </i>
   <i type="int" name="LMAXFOCK">     0</i>
   <i type="int" name="NMAXFOCKAE">     0</i>
   <i type="logical" name="LFOCKAEDFT"> F  </i>
   <i name="HFSCREEN">      0.00000000</i>
   <i name="HFSCREENC">      0.00000000</i>
   <i type="int" name="NBANDSGWLOW">     0</i>
  </separator>
  <separator name="vdW DFT" >
   <i type="logical" name="LUSE_VDW"> F  </i>
   <i type="int" name="IVDW_NL">    -1</i>
   <i type="logical" name="LSPIN_VDW"> F  </i>
   <i name="ZAB_VDW">     -0.84910000</i>
   <i name="GAMMA_VDW">      1.39626340</i>
   <i name="ALPHA_VDW">      0.00000000</i>
   <i name="PARAM1">      0.12340000</i>
   <i name="PARAM2">      1.00000000</i>
   <i name="BPARAM">      6.30000000</i>
   <i name="CPARAM">      0.00930000</i>
  </separator>
  <separator name="model GW" >
   <i type="int" name="MODEL_GW">     0</i>
   <i name="MODEL_EPS0">     13.14023219</i>
   <i name="MODEL_ALPHA">      1.00000000</i>
  </separator>
  <separator name="linear response parameters" >
   <i type="logical" name="LEPSILON"> F  </i>
   <i type="logical" name="LRPA"> F  </i>
   <i type="logical" name="LNABLA"> F  </i>
   <i type="logical" name="LVEL"> F  </i>
   <i name="CSHIFT">      0.10000000</i>
   <i name="OMEGAMAX">     -1.00000000</i>
   <i name="DEG_THRESHOLD">      0.00200000</i>
   <i name="RTIME">     -0.10000000</i>
   <i name="WPLASMAI">      0.00000000</i>
   <v name="DFIELD">      0.00000000      0.00000000      0.00000000</v>
   <v name="WPLASMA">      0.00000000      0.00000000      0.00000000      0.00000000      0.00000000      0.00000000      0.00000000      0.00000000      0.00000000</v>
  </separator>
  <separator name="orbital magnetization" >
   <i type="logical" name="NUCIND"> F  </i>
   <v name="MAGPOS">      0.00000000      0.00000000      0.00000000</v>
   <i type="logical" name="LNICSALL"> T  </i>
   <i type="logical" name="ORBITALMAG"> F  </i>
   <i type="logical" name="LMAGBLOCH"> F  </i>
   <i type="logical" name="LCHIMAG"> F  </i>
   <i type="logical" name="LGAUGE"> T  </i>
   <i type="int" name="MAGATOM">     0</i>
   <v name="MAGDIPOL">      0.00000000      0.00000000      0.00000000</v>
   <v name="AVECCONST">      0.00000000      0.00000000      0.00000000</v>
  </separator>
  <separator name="response functions" >
   <i type="logical" name="LALL_IN_ONE"> F  </i>
   <i type="int" name="IALL_IN_ONE">    -1</i>
   <i type="int" name="NBANDS_WAVE">    -1</i>
   <i type="logical" name="LFINITE_TEMPERATURE"> F  </i>
   <i type="logical" name="LADDER"> F  </i>
   <i type="logical" name="LRPAFORCE"> F  </i>
   <i type="logical" name="LFXC"> F  </i>
   <i type="logical" name="LHARTREE"> T  </i>
   <i type="int" name="IBSE">     0</i>
   <v type="int" name="KPOINT">    -1     0     0     0</v>
   <i type="logical" name="LTCTC"> F  </i>
   <i type="logical" name="LTCTE"> F  </i>
   <i type="logical" name="LTETE"> F  </i>
   <i type="logical" name="LTRIPLET"> F  </i>
   <i type="logical" name="LFXCEPS"> F  </i>
   <i type="logical" name="LFXHEG"> F  </i>
   <i type="int" name="NATURALO">     2</i>
   <i type="logical" name="LHOLEGF"> F  </i>
   <i type="logical" name="L2ORDER"> F  </i>
   <i type="logical" name="LDMP1"> F  </i>
   <i type="logical" name="LMP2LT"> F  </i>
   <i type="logical" name="LSMP2LT"> F  </i>
   <i type="logical" name="LGWLF"> F  </i>
   <i name="ENCUTGW">     -1.60000002</i>
   <i name="ENCUTGWSOFT">     -1.60000002</i>
   <i name="ENCUTLF">     -1.00000000</i>
   <i type="logical" name="ESF_SPLINES"> F  </i>
   <i name="ESF_CONV">      0.01000000</i>
   <i type="int" name="ESF_NINTER">    15</i>
   <i type="int" name="LMAXMP2">    -1</i>
   <i name="SCISSOR">      0.00000000</i>
   <i type="int" name="NOMEGA">     0</i>
   <i type="int" name="NOMEGAR">     0</i>
   <i type="int" name="NBANDSGW">    -1</i>
   <i type="int" name="NBANDSO">    -1</i>
   <i type="int" name="NBANDSV">    -1</i>
   <i type="int" name="NELMGW">     1</i>
   <i type="int" name="NELMHF">     1</i>
   <i type="int" name="DIM">     3</i>
   <i type="int" name="IESPILON">     4</i>
   <i type="int" name="ANTIRES">     0</i>
   <i name="OMEGAMAX">    -30.00000000</i>
   <i name="OMEGAMIN">    -30.00000000</i>
   <i name="OMEGATL">   -200.00000000</i>
   <i type="int" name="OMEGAGRID">     0</i>
   <i name="CSHIFT">     -0.10000000</i>
   <i type="logical" name="LSELFENERGY"> F  </i>
   <i type="logical" name="LSPECTRAL"> F  </i>
   <i type="logical" name="LSPECTRALGW"> F  </i>
   <i type="logical" name="LSINGLES"> F  </i>
   <i type="logical" name="LFERMIGW"> F  </i>
   <i type="logical" name="ODDONLYGW"> F  </i>
   <i type="logical" name="EVENONLYGW"> F  </i>
   <i type="int" name="NKREDLFX">     1</i>
   <i type="int" name="NKREDLFY">     1</i>
   <i type="int" name="NKREDLFZ">     1</i>
   <i type="int" name="MAXMEM">  2800</i>
   <i type="int" name="TELESCOPE">     0</i>
   <i type="int" name="NTAUPAR">    -1</i>
   <i type="int" name="NOMEGAPAR">    -1</i>
   <i name="DAMP_NEWTON">      0.80000001</i>
   <i name="LAMBDA">      1.00000000</i>
  </separator>
  <separator name="External order field" >
   <i name="OFIELD_KAPPA">      0.00000000</i>
   <v name="OFIELD_K">      0.00000000      0.00000000      0.00000000</v>
   <i name="OFIELD_Q6_NEAR">      0.00000000</i>
   <i name="OFIELD_Q6_FAR">      0.00000000</i>
   <i name="OFIELD_A">      0.00000000</i>
  </separator>
  <separator name="optional k-points parameters" >
   <i type="int" name="KPOINTS_OPT_MODE">     1</i>
   <i type="logical" name="LKPOINTS_OPT"> F  </i>
  </separator>
 </parameters>
 <atominfo>
  <atoms>     120 </atoms>
  <types>       2 </types>
  <array name="atoms" >
   <dimension dim="1">ion</dimension>
   <field type="string">element</field>
   <field type="int">atomtype</field>
   <set>
    <rc><c>Si</c><c>   1</c></rc>
    <rc><c>Si</c><c>   1</c></rc>
    <rc><c>Si</c><c>   1</c></rc>
    <rc><c>Si</c><c>   1</c></rc>
    <rc><c>Si</c><c>   1</c></rc>
    <rc><c>Si</c><c>   1</c></rc>
    <rc><c>Si</c><c>   1</c></rc>
    <rc><c>Si</c><c>   1</c></rc>
    <rc><c>Si</c><c>   1</c></rc>
    <rc><c>Si</c><c>   1</c></rc>
    <rc><c>Si</c><c>   1</c></rc>
    <rc><c>Si</c><c>   1</c></rc>
    <rc><c>Si</c><c>   1</c></rc>
    <rc><c>Si</c><c>   1</c></rc>
    <rc><c>Si</c><c>   1</c></rc>
    <rc><c>Si</c><c>   1</c></rc>
    <rc><c>Si</c><c>   1</c></rc>
    <rc><c>Si</c><c>   1</c></rc>
    <rc><c>Si</c><c>   1</c></rc>
    <rc><c>Si</c><c>   1</c></rc>
    <rc><c>Si</c><c>   1</c></rc>
    <rc><c>Si</c><c>   1</c></rc>
    <rc><c>Si</c><c>   1</c></rc>
    <rc><c>Si</c><c>   1</c></rc>
    <rc><c>Si</c><c>   1</c></rc>
    <rc><c>Si</c><c>   1</c></rc>
    <rc><c>Si</c><c>   1</c></rc>
    <rc><c>Si</c><c>   1</c></rc>
    <rc><c>Si</c><c>   1</c></rc>
    <rc><c>Si</c><c>   1</c></rc>
    <rc><c>Si</c><c>   1</c></rc>
    <rc><c>Si</c><c>   1</c></rc>
    <rc><c>Si</c><c>   1</c></rc>
    <rc><c>Si</c><c>   1</c></rc>
    <rc><c>Si</c><c>   1</c></rc>
    <rc><c>Si</c><c>   1</c></rc>
    <rc><c>Si</c><c>   1</c></rc>
    <rc><c>Si</c><c>   1</c></rc>
    <rc><c>Si</c><c>   1</c></rc>
    <rc><c>Si</c><c>   1</c></rc>
    <rc><c>Si</c><c>   1</c></rc>
    <rc><c>Si</c><c>   1</c></rc>
    <rc><c>Si</c><c>   1</c></rc>
    <rc><c>Si</c><c>   1</c></rc>
    <rc><c>Si</c><c>   1</c></rc>
    <rc><c>Si</c><c>   1</c></rc>
    <rc><c>Si</c><c>   1</c></rc>
    <rc><c>Si</c><c>   1</c></rc>
    <rc><c>Si</c><c>   1</c></rc>
    <rc><c>Si</c><c>   1</c></rc>
    <rc><c>Si</c><c>   1</c></rc>
    <rc><c>Si</c><c>   1</c></rc>
    <rc><c>Si</c><c>   1</c></rc>
    <rc><c>Si</c><c>   1</c></rc>
    <rc><c>Si</c><c>   1</c></rc>
    <rc><c>Si</c><c>   1</c></rc>
    <rc><c>Si</c><c>   1</c></rc>
    <rc><c>Si</c><c>   1</c></rc>
    <rc><c>Si</c><c>   1</c></rc>
    <rc><c>Si</c><c>   1</c></rc>
    <rc><c>Si</c><c>   1</c></rc>
    <rc><c>Si</c><c>   1</c></rc>
    <rc><c>Si</c><c>   1</c></rc>
    <rc><c>Si</c><c>   1</c></rc>
    <rc><c>Si</c><c>   1</c></rc>
    <rc><c>Si</c><c>   1</c></rc>
    <rc><c>Si</c><c>   1</c></rc>
    <rc><c>Si</c><c>   1</c></rc>
    <rc><c>Si</c><c>   1</c></rc>
    <rc><c>Si</c><c>   1</c></rc>
    <rc><c>Si</c><c>   1</c></rc>
    <rc><c>Si</c><c>   1</c></rc>
    <rc><c>Ge</c><c>   2</c></rc>
    <rc><c>Ge</c><c>   2</c></rc>
    <rc><c>Ge</c><c>   2</c></rc>
    <rc><c>Ge</c><c>   2</c></rc>
    <rc><c>Ge</c><c>   2</c></rc>
    <rc><c>Ge</c><c>   2</c></rc>
    <rc><c>Ge</c><c>   2</c></rc>
    <rc><c>Ge</c><c>   2</c></rc>
    <rc><c>Ge</c><c>   2</c></rc>
    <rc><c>Ge</c><c>   2</c></rc>
    <rc><c>Ge</c><c>   2</c></rc>
    <rc><c>Ge</c><c>   2</c></rc>
    <rc><c>Ge</c><c>   2</c></rc>
    <rc><c>Ge</c><c>   2</c></rc>
    <rc><c>Ge</c><c>   2</c></rc>
    <rc><c>Ge</c><c>   2</c></rc>
    <rc><c>Ge</c><c>   2</c></rc>
    <rc><c>Ge</c><c>   2</c></rc>
    <rc><c>Ge</c><c>   2</c></rc>
    <rc><c>Ge</c><c>   2</c></rc>
    <rc><c>Ge</c><c>   2</c></rc>
    <rc><c>Ge</c><c>   2</c></rc>
    <rc><c>Ge</c><c>   2</c></rc>
    <rc><c>Ge</c><c>   2</c></rc>
    <rc><c>Ge</c><c>   2</c></rc>
    <rc><c>Ge</c><c>   2</c></rc>
    <rc><c>Ge</c><c>   2</c></rc>
    <rc><c>Ge</c><c>   2</c></rc>
    <rc><c>Ge</c><c>   2</c></rc>
    <rc><c>Ge</c><c>   2</c></rc>
    <rc><c>Ge</c><c>   2</c></rc>
    <rc><c>Ge</c><c>   2</c></rc>
    <rc><c>Ge</c><c>   2</c></rc>
    <rc><c>Ge</c><c>   2</c></rc>
    <rc><c>Ge</c><c>   2</c></rc>
    <rc><c>Ge</c><c>   2</c></rc>
    <rc><c>Ge</c><c>   2</c></rc>
    <rc><c>Ge</c><c>   2</c></rc>
    <rc><c>Ge</c><c>   2</c></rc>
    <rc><c>Ge</c><c>   2</c></rc>
    <rc><c>Ge</c><c>   2</c></rc>
    <rc><c>Ge</c><c>   2</c></rc>
    <rc><c>Ge</c><c>   2</c></rc>
    <rc><c>Ge</c><c>   2</c></rc>
    <rc><c>Ge</c><c>   2</c></rc>
    <rc><c>Ge</c><c>   2</c></rc>
    <rc><c>Ge</c><c>   2</c></rc>
    <rc><c>Ge</c><c>   2</c></rc>
   </set>
  </array>
  <array name="atomtypes" >
   <dimension dim="1">type</dimension>
   <field type="int">atomspertype</field>
   <field type="string">element</field>
   <field>mass</field>
   <field>valence</field>
   <field type="string">pseudopotential</field>
   <set>
    <rc><c>  72</c><c>Si</c><c>     28.08500000</c><c>      4.00000000</c><c>  PAW_PBE Si 05Jan2001                  </c></rc>
    <rc><c>  48</c><c>Ge</c><c>     72.61000000</c><c>      4.00000000</c><c>  PAW_PBE Ge 05Jan2001                  </c></rc>
   </set>
  </array>
 </atominfo>
 <structure name="initialpos" >
  <crystal>
   <varray name="basis" >
    <v>       7.68059444       0.00000000       0.00000000 </v>
    <v>       0.00000000      16.29299927       0.00000000 </v>
    <v>       0.00000000       0.00000000      21.00086403 </v>
   </varray>
   <i name="volume">   2628.04643725 </i>
   <varray name="rec_basis" >
    <v>       0.13019826       0.00000000       0.00000000 </v>
    <v>       0.00000000       0.06137605       0.00000000 </v>
    <v>       0.00000000       0.00000000       0.04761709 </v>
   </varray>
  </crystal>
  <varray name="positions" >
   <v>       0.97851729       0.98567820       0.00000000 </v>
   <v>       0.72851723       0.81901145       0.09143190 </v>
   <v>       0.47851718       0.65234476       0.18286380 </v>
   <v>       0.22851723       0.48567814       0.27429566 </v>
   <v>       0.97851718       0.31901139       0.36572757 </v>
   <v>       0.60116357       0.69016319       0.62755173 </v>
   <v>       0.10116363       0.19016326       0.89695972 </v>
   <v>       0.72851723       0.15234485       0.09143190 </v>
   <v>       0.47851718       0.98567814       0.18286380 </v>
   <v>       0.22851723       0.81901151       0.27429566 </v>
   <v>       0.97851718       0.65234476       0.36572757 </v>
   <v>       0.85116363       0.19016326       0.56019974 </v>
   <v>       0.97851729       0.65234494       0.00000000 </v>
   <v>       0.72851723       0.48567820       0.09143190 </v>
   <v>       0.47851718       0.31901151       0.18286380 </v>
   <v>       0.85116357       0.44016322       0.56019974 </v>
   <v>       0.97851718       0.98567814       0.36572757 </v>
   <v>       0.85116363       0.94016319       0.56019974 </v>
   <v>       0.60116363       0.69016326       0.89695972 </v>
   <v>       0.22851725       0.81901145       0.09143190 </v>
   <v>       0.60116357       0.94016319       0.89695972 </v>
   <v>       0.72851729       0.48567814       0.27429563 </v>
   <v>       0.47851718       0.31901139       0.36572757 </v>
   <v>       0.22851712       0.15234470       0.45715946 </v>
   <v>       0.60116363       0.44016326       0.89695972 </v>
   <v>       0.22851725       0.15234485       0.09143190 </v>
   <v>       0.97851723       0.98567814       0.18286380 </v>
   <v>       0.72851729       0.81901151       0.27429563 </v>
   <v>       0.47851718       0.65234476       0.36572757 </v>
   <v>       0.22851712       0.48567808       0.45715946 </v>
   <v>       0.35116363       0.19016326       0.82960773 </v>
   <v>       0.22851725       0.48567820       0.09143190 </v>
   <v>       0.97851723       0.31901151       0.18286380 </v>
   <v>       0.72851729       0.15234487       0.27429563 </v>
   <v>       0.47851718       0.98567814       0.36572757 </v>
   <v>       0.35116363       0.69016319       0.56019974 </v>
   <v>       0.72851735       0.23567820       0.00000000 </v>
   <v>       0.47851729       0.06901149       0.09143189 </v>
   <v>       0.22851726       0.90234476       0.18286380 </v>
   <v>       0.97851729       0.73567814       0.27429566 </v>
   <v>       0.72851723       0.56901145       0.36572757 </v>
   <v>       0.47851723       0.40234464       0.45715940 </v>
   <v>       0.72851735       0.56901163       0.00000000 </v>
   <v>       0.47851729       0.40234488       0.09143189 </v>
   <v>       0.22851726       0.23567820       0.18286380 </v>
   <v>       0.97851729       0.06901154       0.27429566 </v>
   <v>       0.72851723       0.90234482       0.36572757 </v>
   <v>       0.47851723       0.73567808       0.45715940 </v>
   <v>       0.72851735       0.90234494       0.00000000 </v>
   <v>       0.47851729       0.73567820       0.09143189 </v>
   <v>       0.22851726       0.56901151       0.18286380 </v>
   <v>       0.97851729       0.40234485       0.27429566 </v>
   <v>       0.72851723       0.23567812       0.36572757 </v>
   <v>       0.47851723       0.06901138       0.45715940 </v>
   <v>       0.22851729       0.23567820       0.00000000 </v>
   <v>       0.10116363       0.69016326       0.89695972 </v>
   <v>       0.72851718       0.90234476       0.18286380 </v>
   <v>       0.47851729       0.73567814       0.27429563 </v>
   <v>       0.35116363       0.19016326       0.56019974 </v>
   <v>       0.97851706       0.40234464       0.45715946 </v>
   <v>       0.22851729       0.56901163       0.00000000 </v>
   <v>       0.97851723       0.40234488       0.09143190 </v>
   <v>       0.72851718       0.23567820       0.18286380 </v>
   <v>       0.47851729       0.06901154       0.27429563 </v>
   <v>       0.22851718       0.90234482       0.36572757 </v>
   <v>       0.97851706       0.73567808       0.45715946 </v>
   <v>       0.22851729       0.90234494       0.00000000 </v>
   <v>       0.97851723       0.73567820       0.09143190 </v>
   <v>       0.72851718       0.56901151       0.18286380 </v>
   <v>       0.47851729       0.40234485       0.27429563 </v>
   <v>       0.22851718       0.23567812       0.36572757 </v>
   <v>       0.97851706       0.06901138       0.45715946 </v>
   <v>       0.22851712       0.81901139       0.45715946 </v>
   <v>       0.10116363       0.31516326       0.69490373 </v>
   <v>       0.85116363       0.94016331       0.82960773 </v>
   <v>       0.72851718       0.81901139       0.45715946 </v>
   <v>       0.60116363       0.56516326       0.69490373 </v>
   <v>       0.47851729       0.65234494       0.00000000 </v>
   <v>       0.22851718       0.56901145       0.36572757 </v>
   <v>       0.10116363       0.81516331       0.69490373 </v>
   <v>       0.85116363       0.44016326       0.82960773 </v>
   <v>       0.22851723       0.15234487       0.27429566 </v>
   <v>       0.60116363       0.06516326       0.69490373 </v>
   <v>       0.35116363       0.69016326       0.82960773 </v>
   <v>       0.72851718       0.15234470       0.45715946 </v>
   <v>       0.35116363       0.31516326       0.76225573 </v>
   <v>       0.10116363       0.94016319       0.89695972 </v>
   <v>       0.10116363       0.94016319       0.62755173 </v>
   <v>       0.85116363       0.56516326       0.76225573 </v>
   <v>       0.60116363       0.19016326       0.89695972 </v>
   <v>       0.60116363       0.19016326       0.62755173 </v>
   <v>       0.35116363       0.81516331       0.76225573 </v>
   <v>       0.10116363       0.44016326       0.89695972 </v>
   <v>       0.10116351       0.44016322       0.62755173 </v>
   <v>       0.85116363       0.06516326       0.76225573 </v>
   <v>       0.47851729       0.98567820       0.00000000 </v>
   <v>       0.35116363       0.94016326       0.56019974 </v>
   <v>       0.10116375       0.56516331       0.69490373 </v>
   <v>       0.85116363       0.19016337       0.82960773 </v>
   <v>       0.35116363       0.44016326       0.56019974 </v>
   <v>       0.10116363       0.06516326       0.69490373 </v>
   <v>       0.85116363       0.69016326       0.82960773 </v>
   <v>       0.85116363       0.69016326       0.56019974 </v>
   <v>       0.60116363       0.31516331       0.69490373 </v>
   <v>       0.35116363       0.94016331       0.82960773 </v>
   <v>       0.72851718       0.48567808       0.45715946 </v>
   <v>       0.60116363       0.81516326       0.69490373 </v>
   <v>       0.35116363       0.44016331       0.82960773 </v>
   <v>       0.60116369       0.94016326       0.62755173 </v>
   <v>       0.35116363       0.56516331       0.76225573 </v>
   <v>       0.97851729       0.31901154       0.00000000 </v>
   <v>       0.60116363       0.44016326       0.62755173 </v>
   <v>       0.35116363       0.06516326       0.76225573 </v>
   <v>       0.97851723       0.06901149       0.09143190 </v>
   <v>       0.10116363       0.69016319       0.62755173 </v>
   <v>       0.85116363       0.31516322       0.76225573 </v>
   <v>       0.97851723       0.65234476       0.18286380 </v>
   <v>       0.10116363       0.19016326       0.62755173 </v>
   <v>       0.85116363       0.81516331       0.76225573 </v>
   <v>       0.47851729       0.31901154       0.00000000 </v>
  </varray>
 </structure>
 <calculation>
  <scstep>
   <time name="dav">   18.02   18.17</time>
   <time name="total">   19.25   19.41</time>
   <energy>
    <i name="alphaZ">    529.58409355 </i>
    <i name="ewald"> -12736.13612467 </i>
    <i name="hartreedc">  -1248.51643975 </i>
    <i name="XCdc">  -1036.02817526 </i>
    <i name="pawpsdc">  10575.88222728 </i>
    <i name="pawaedc">  -8613.76247617 </i>
    <i name="eentropy">     -0.00188369 </i>
    <i name="bandstr">   2034.40932742 </i>
    <i name="atom">  12460.60057749 </i>
    <i name="e_fr_energy">   1966.03112621 </i>
    <i name="e_wo_entrp">   1966.03300990 </i>
    <i name="e_0_energy">   1966.03206805 </i>
   </energy>
  </scstep>
  <scstep>
   <time name="dav">   20.33   20.50</time>
   <time name="total">   20.33   20.51</time>
   <energy>
    <i name="e_fr_energy">   -360.26533173 </i>
    <i name="e_wo_entrp">   -360.26295589 </i>
    <i name="e_0_energy">   -360.26414381 </i>
   </energy>
  </scstep>
  <scstep>
   <time name="dav">   21.28   21.46</time>
   <time name="total">   21.28   21.46</time>
   <energy>
    <i name="e_fr_energy">   -576.88102254 </i>
    <i name="e_wo_entrp">   -576.87773514 </i>
    <i name="e_0_energy">   -576.87937884 </i>
   </energy>
  </scstep>
  <scstep>
   <time name="dav">   20.60   20.77</time>
   <time name="total">   20.60   20.77</time>
   <energy>
    <i name="e_fr_energy">   -584.69855059 </i>
    <i name="e_wo_entrp">   -584.69562570 </i>
    <i name="e_0_energy">   -584.69708815 </i>
   </energy>
  </scstep>
  <scstep>
   <time name="dav">   22.40   22.58</time>
   <time name="total">   23.47   23.67</time>
   <energy>
    <i name="e_fr_energy">   -584.99241032 </i>
    <i name="e_wo_entrp">   -584.98939483 </i>
    <i name="e_0_energy">   -584.99090258 </i>
   </energy>
  </scstep>
  <scstep>
   <time name="dav">   20.71   20.88</time>
   <time name="total">   22.96   23.15</time>
   <energy>
    <i name="e_fr_energy">   -576.01218743 </i>
    <i name="e_wo_entrp">   -576.01020216 </i>
    <i name="e_0_energy">   -576.01119480 </i>
   </energy>
  </scstep>
  <scstep>
   <time name="dav">   20.99   21.16</time>
   <time name="total">   23.23   23.43</time>
   <energy>
    <i name="e_fr_energy">   -576.24159831 </i>
    <i name="e_wo_entrp">   -576.23956093 </i>
    <i name="e_0_energy">   -576.24057962 </i>
   </energy>
  </scstep>
  <scstep>
   <time name="dav">   20.95   21.13</time>
   <time name="total">   23.21   23.40</time>
   <energy>
    <i name="e_fr_energy">   -575.09389673 </i>
    <i name="e_wo_entrp">   -575.09141647 </i>
    <i name="e_0_energy">   -575.09265660 </i>
   </energy>
  </scstep>
  <scstep>
   <time name="dav">   20.29   20.46</time>
   <time name="total">   22.55   22.73</time>
   <energy>
    <i name="e_fr_energy">   -575.17172046 </i>
    <i name="e_wo_entrp">   -575.16891365 </i>
    <i name="e_0_energy">   -575.17031706 </i>
   </energy>
  </scstep>
  <scstep>
   <time name="dav">   20.67   20.85</time>
   <time name="total">   22.92   23.12</time>
   <energy>
    <i name="e_fr_energy">   -575.14922051 </i>
    <i name="e_wo_entrp">   -575.14628159 </i>
    <i name="e_0_energy">   -575.14775105 </i>
   </energy>
  </scstep>
  <scstep>
   <time name="dav">   20.67   20.84</time>
   <time name="total">   22.92   23.11</time>
   <energy>
    <i name="e_fr_energy">   -575.14342911 </i>
    <i name="e_wo_entrp">   -575.14061541 </i>
    <i name="e_0_energy">   -575.14202226 </i>
   </energy>
  </scstep>
  <scstep>
   <time name="dav">   20.57   20.74</time>
   <time name="total">   22.82   23.01</time>
   <energy>
    <i name="e_fr_energy">   -575.14202940 </i>
    <i name="e_wo_entrp">   -575.13922686 </i>
    <i name="e_0_energy">   -575.14062813 </i>
   </energy>
  </scstep>
  <scstep>
   <time name="dav">   20.00   20.17</time>
   <time name="total">   22.26   22.44</time>
   <energy>
    <i name="e_fr_energy">   -575.14176130 </i>
    <i name="e_wo_entrp">   -575.13890567 </i>
    <i name="e_0_energy">   -575.14033349 </i>
   </energy>
  </scstep>
  <scstep>
   <time name="dav">   19.86   20.02</time>
   <time name="total">   22.11   22.29</time>
   <energy>
    <i name="e_fr_energy">   -575.14168599 </i>
    <i name="e_wo_entrp">   -575.13885136 </i>
    <i name="e_0_energy">   -575.14026868 </i>
   </energy>
  </scstep>
  <scstep>
   <time name="dav">   19.99   20.16</time>
   <time name="total">   22.25   22.43</time>
   <energy>
    <i name="e_fr_energy">   -575.14168072 </i>
    <i name="e_wo_entrp">   -575.13883100 </i>
    <i name="e_0_energy">   -575.14025586 </i>
   </energy>
  </scstep>
  <scstep>
   <time name="dav">   20.04   20.21</time>
   <time name="total">   22.29   22.48</time>
   <energy>
    <i name="e_fr_energy">   -575.14166693 </i>
    <i name="e_wo_entrp">   -575.13881083 </i>
    <i name="e_0_energy">   -575.14023888 </i>
   </energy>
  </scstep>
  <scstep>
   <time name="dav">   19.63   19.80</time>
   <time name="total">   21.89   22.06</time>
   <energy>
    <i name="e_fr_energy">   -575.14167868 </i>
    <i name="e_wo_entrp">   -575.13882076 </i>
    <i name="e_0_energy">   -575.14024972 </i>
   </energy>
  </scstep>
  <scstep>
   <time name="dav">   20.49   20.66</time>
   <time name="total">   22.74   22.93</time>
   <energy>
    <i name="e_fr_energy">   -575.14168623 </i>
    <i name="e_wo_entrp">   -575.13882626 </i>
    <i name="e_0_energy">   -575.14025624 </i>
   </energy>
  </scstep>
  <scstep>
   <time name="dav">   20.05   20.22</time>
   <time name="total">   22.31   22.49</time>
   <energy>
    <i name="e_fr_energy">   -575.14169155 </i>
    <i name="e_wo_entrp">   -575.13882412 </i>
    <i name="e_0_energy">   -575.14025783 </i>
   </energy>
  </scstep>
  <scstep>
   <time name="dav">   20.76   20.94</time>
   <time name="total">   23.02   23.21</time>
   <energy>
    <i name="e_fr_energy">   -575.14169602 </i>
    <i name="e_wo_entrp">   -575.13882714 </i>
    <i name="e_0_energy">   -575.14026158 </i>
   </energy>
  </scstep>
  <scstep>
   <time name="dav">   20.20   20.40</time>
   <time name="total">   22.47   22.68</time>
   <energy>
    <i name="e_fr_energy">   -575.14170172 </i>
    <i name="e_wo_entrp">   -575.13883013 </i>
    <i name="e_0_energy">   -575.14026593 </i>
   </energy>
  </scstep>
  <scstep>
   <time name="dav">   21.20   21.39</time>
   <time name="total">   23.45   23.66</time>
   <energy>
    <i name="e_fr_energy">   -575.14170459 </i>
    <i name="e_wo_entrp">   -575.13883002 </i>
    <i name="e_0_energy">   -575.14026731 </i>
   </energy>
  </scstep>
  <scstep>
   <time name="dav">   20.31   20.48</time>
   <time name="total">   22.56   22.74</time>
   <energy>
    <i name="e_fr_energy">   -575.14170740 </i>
    <i name="e_wo_entrp">   -575.13883054 </i>
    <i name="e_0_energy">   -575.14026897 </i>
   </energy>
  </scstep>
  <scstep>
   <time name="dav">   20.52   20.69</time>
   <time name="total">   22.78   22.97</time>
   <energy>
    <i name="e_fr_energy">   -575.14170975 </i>
    <i name="e_wo_entrp">   -575.13883008 </i>
    <i name="e_0_energy">   -575.14026992 </i>
   </energy>
  </scstep>
  <scstep>
   <time name="dav">   21.29   21.47</time>
   <time name="total">   23.55   23.74</time>
   <energy>
    <i name="e_fr_energy">   -575.14171064 </i>
    <i name="e_wo_entrp">   -575.13882911 </i>
    <i name="e_0_energy">   -575.14026988 </i>
   </energy>
  </scstep>
  <scstep>
   <time name="dav">   20.73   20.90</time>
   <time name="total">   23.00   23.18</time>
   <energy>
    <i name="e_fr_energy">   -575.14171119 </i>
    <i name="e_wo_entrp">   -575.13882887 </i>
    <i name="e_0_energy">   -575.14027003 </i>
   </energy>
  </scstep>
  <scstep>
   <time name="dav">   20.41   20.57</time>
   <time name="total">   22.67   22.85</time>
   <energy>
    <i name="e_fr_energy">   -575.14171164 </i>
    <i name="e_wo_entrp">   -575.13882861 </i>
    <i name="e_0_energy">   -575.14027012 </i>
   </energy>
  </scstep>
  <scstep>
   <time name="dav">   20.85   21.03</time>
   <time name="total">   23.12   23.31</time>
   <energy>
    <i name="e_fr_energy">   -575.14171179 </i>
    <i name="e_wo_entrp">   -575.13882861 </i>
    <i name="e_0_energy">   -575.14027020 </i>
   </energy>
  </scstep>
  <scstep>
   <time name="dav">   20.54   20.72</time>
   <time name="total">   22.81   23.00</time>
   <energy>
    <i name="e_fr_energy">   -575.14171200 </i>
    <i name="e_wo_entrp">   -575.13882872 </i>
    <i name="e_0_energy">   -575.14027036 </i>
   </energy>
  </scstep>
  <scstep>
   <time name="dav">   20.80   20.97</time>
   <time name="total">   23.05   23.25</time>
   <energy>
    <i name="e_fr_energy">   -575.14171239 </i>
    <i name="e_wo_entrp">   -575.13882885 </i>
    <i name="e_0_energy">   -575.14027062 </i>
   </energy>
  </scstep>
  <scstep>
   <time name="dav">   15.96   16.10</time>
   <time name="total">   18.23   18.38</time>
   <energy>
    <i name="e_fr_energy">   -575.14171259 </i>
    <i name="e_wo_entrp">   -575.13882894 </i>
    <i name="e_0_energy">   -575.14027077 </i>
   </energy>
  </scstep>
  <scstep>
   <time name="dav">   12.18   12.29</time>
   <time name="total">   13.38   13.49</time>
   <energy>
    <i name="alphaZ">    529.58409355 </i>
    <i name="ewald"> -12736.13612467 </i>
    <i name="hartreedc">  -1449.11429275 </i>
    <i name="XCdc">  -1002.69290540 </i>
    <i name="pawpsdc">  39247.26941414 </i>
    <i name="pawaedc"> -37300.30888587 </i>
    <i name="eentropy">     -0.00288373 </i>
    <i name="bandstr">   -324.34070542 </i>
    <i name="atom">  12460.60057749 </i>
    <i name="e_fr_energy">   -575.14171265 </i>
    <i name="e_wo_entrp">   -575.13882892 </i>
    <i name="e_0_energy">   -575.14027079 </i>
   </energy>
  </scstep>
  <structure>
   <crystal>
    <varray name="basis" >
     <v>       7.68059444       0.00000000       0.00000000 </v>
     <v>       0.00000000      16.29299927       0.00000000 </v>
     <v>       0.00000000       0.00000000      21.00086403 </v>
    </varray>
    <i name="volume">   2628.04643725 </i>
    <varray name="rec_basis" >
     <v>       0.13019826       0.00000000       0.00000000 </v>
     <v>       0.00000000       0.06137605       0.00000000 </v>
     <v>       0.00000000       0.00000000       0.04761709 </v>
    </varray>
   </crystal>
   <varray name="positions" >
    <v>       0.97851729       0.98567820       0.00000000 </v>
    <v>       0.72851723       0.81901145       0.09143190 </v>
    <v>       0.47851718       0.65234476       0.18286380 </v>
    <v>       0.22851723       0.48567814       0.27429566 </v>
    <v>       0.97851718       0.31901139       0.36572757 </v>
    <v>       0.60116357       0.69016319       0.62755173 </v>
    <v>       0.10116363       0.19016326       0.89695972 </v>
    <v>       0.72851723       0.15234485       0.09143190 </v>
    <v>       0.47851718       0.98567814       0.18286380 </v>
    <v>       0.22851723       0.81901151       0.27429566 </v>
    <v>       0.97851718       0.65234476       0.36572757 </v>
    <v>       0.85116363       0.19016326       0.56019974 </v>
    <v>       0.97851729       0.65234494       0.00000000 </v>
    <v>       0.72851723       0.48567820       0.09143190 </v>
    <v>       0.47851718       0.31901151       0.18286380 </v>
    <v>       0.85116357       0.44016322       0.56019974 </v>
    <v>       0.97851718       0.98567814       0.36572757 </v>
    <v>       0.85116363       0.94016319       0.56019974 </v>
    <v>       0.60116363       0.69016326       0.89695972 </v>
    <v>       0.22851725       0.81901145       0.09143190 </v>
    <v>       0.60116357       0.94016319       0.89695972 </v>
    <v>       0.72851729       0.48567814       0.27429563 </v>
    <v>       0.47851718       0.31901139       0.36572757 </v>
    <v>       0.22851712       0.15234470       0.45715946 </v>
    <v>       0.60116363       0.44016326       0.89695972 </v>
    <v>       0.22851725       0.15234485       0.09143190 </v>
    <v>       0.97851723       0.98567814       0.18286380 </v>
    <v>       0.72851729       0.81901151       0.27429563 </v>
    <v>       0.47851718       0.65234476       0.36572757 </v>
    <v>       0.22851712       0.48567808       0.45715946 </v>
    <v>       0.35116363       0.19016326       0.82960773 </v>
    <v>       0.22851725       0.48567820       0.09143190 </v>
    <v>       0.97851723       0.31901151       0.18286380 </v>
    <v>       0.72851729       0.15234487       0.27429563 </v>
    <v>       0.47851718       0.98567814       0.36572757 </v>
    <v>       0.35116363       0.69016319       0.56019974 </v>
    <v>       0.72851735       0.23567820       0.00000000 </v>
    <v>       0.47851729       0.06901149       0.09143189 </v>
    <v>       0.22851726       0.90234476       0.18286380 </v>
    <v>       0.97851729       0.73567814       0.27429566 </v>
    <v>       0.72851723       0.56901145       0.36572757 </v>
    <v>       0.47851723       0.40234464       0.45715940 </v>
    <v>       0.72851735       0.56901163       0.00000000 </v>
    <v>       0.47851729       0.40234488       0.09143189 </v>
    <v>       0.22851726       0.23567820       0.18286380 </v>
    <v>       0.97851729       0.06901154       0.27429566 </v>
    <v>       0.72851723       0.90234482       0.36572757 </v>
    <v>       0.47851723       0.73567808       0.45715940 </v>
    <v>       0.72851735       0.90234494       0.00000000 </v>
    <v>       0.47851729       0.73567820       0.09143189 </v>
    <v>       0.22851726       0.56901151       0.18286380 </v>
    <v>       0.97851729       0.40234485       0.27429566 </v>
    <v>       0.72851723       0.23567812       0.36572757 </v>
    <v>       0.47851723       0.06901138       0.45715940 </v>
    <v>       0.22851729       0.23567820       0.00000000 </v>
    <v>       0.10116363       0.69016326       0.89695972 </v>
    <v>       0.72851718       0.90234476       0.18286380 </v>
    <v>       0.47851729       0.73567814       0.27429563 </v>
    <v>       0.35116363       0.19016326       0.56019974 </v>
    <v>       0.97851706       0.40234464       0.45715946 </v>
    <v>       0.22851729       0.56901163       0.00000000 </v>
    <v>       0.97851723       0.40234488       0.09143190 </v>
    <v>       0.72851718       0.23567820       0.18286380 </v>
    <v>       0.47851729       0.06901154       0.27429563 </v>
    <v>       0.22851718       0.90234482       0.36572757 </v>
    <v>       0.97851706       0.73567808       0.45715946 </v>
    <v>       0.22851729       0.90234494       0.00000000 </v>
    <v>       0.97851723       0.73567820       0.09143190 </v>
    <v>       0.72851718       0.56901151       0.18286380 </v>
    <v>       0.47851729       0.40234485       0.27429563 </v>
    <v>       0.22851718       0.23567812       0.36572757 </v>
    <v>       0.97851706       0.06901138       0.45715946 </v>
    <v>       0.22851712       0.81901139       0.45715946 </v>
    <v>       0.10116363       0.31516326       0.69490373 </v>
    <v>       0.85116363       0.94016331       0.82960773 </v>
    <v>       0.72851718       0.81901139       0.45715946 </v>
    <v>       0.60116363       0.56516326       0.69490373 </v>
    <v>       0.47851729       0.65234494       0.00000000 </v>
    <v>       0.22851718       0.56901145       0.36572757 </v>
    <v>       0.10116363       0.81516331       0.69490373 </v>
    <v>       0.85116363       0.44016326       0.82960773 </v>
    <v>       0.22851723       0.15234487       0.27429566 </v>
    <v>       0.60116363       0.06516326       0.69490373 </v>
    <v>       0.35116363       0.69016326       0.82960773 </v>
    <v>       0.72851718       0.15234470       0.45715946 </v>
    <v>       0.35116363       0.31516326       0.76225573 </v>
    <v>       0.10116363       0.94016319       0.89695972 </v>
    <v>       0.10116363       0.94016319       0.62755173 </v>
    <v>       0.85116363       0.56516326       0.76225573 </v>
    <v>       0.60116363       0.19016326       0.89695972 </v>
    <v>       0.60116363       0.19016326       0.62755173 </v>
    <v>       0.35116363       0.81516331       0.76225573 </v>
    <v>       0.10116363       0.44016326       0.89695972 </v>
    <v>       0.10116351       0.44016322       0.62755173 </v>
    <v>       0.85116363       0.06516326       0.76225573 </v>
    <v>       0.47851729       0.98567820       0.00000000 </v>
    <v>       0.35116363       0.94016326       0.56019974 </v>
    <v>       0.10116375       0.56516331       0.69490373 </v>
    <v>       0.85116363       0.19016337       0.82960773 </v>
    <v>       0.35116363       0.44016326       0.56019974 </v>
    <v>       0.10116363       0.06516326       0.69490373 </v>
    <v>       0.85116363       0.69016326       0.82960773 </v>
    <v>       0.85116363       0.69016326       0.56019974 </v>
    <v>       0.60116363       0.31516331       0.69490373 </v>
    <v>       0.35116363       0.94016331       0.82960773 </v>
    <v>       0.72851718       0.48567808       0.45715946 </v>
    <v>       0.60116363       0.81516326       0.69490373 </v>
    <v>       0.35116363       0.44016331       0.82960773 </v>
    <v>       0.60116369       0.94016326       0.62755173 </v>
    <v>       0.35116363       0.56516331       0.76225573 </v>
    <v>       0.97851729       0.31901154       0.00000000 </v>
    <v>       0.60116363       0.44016326       0.62755173 </v>
    <v>       0.35116363       0.06516326       0.76225573 </v>
    <v>       0.97851723       0.06901149       0.09143190 </v>
    <v>       0.10116363       0.69016319       0.62755173 </v>
    <v>       0.85116363       0.31516322       0.76225573 </v>
    <v>       0.97851723       0.65234476       0.18286380 </v>
    <v>       0.10116363       0.19016326       0.62755173 </v>
    <v>       0.85116363       0.81516331       0.76225573 </v>
    <v>       0.47851729       0.31901154       0.00000000 </v>
   </varray>
  </structure>
  <varray name="forces" >
   <v>       0.17505843      -0.10542680      -0.26585589 </v>
   <v>       0.07552896      -0.30498090      -0.24355918 </v>
   <v>       0.02552706      -0.14881289      -0.04453650 </v>
   <v>       0.02006141      -0.43068768      -0.43021104 </v>
   <v>       0.07872527      -0.30874367       0.25245707 </v>
   <v>      -0.68758148       0.09889425      -0.30961714 </v>
   <v>       1.30060876      -0.13560632       0.43897749 </v>
   <v>      -0.43445166       0.15703410      -0.13920115 </v>
   <v>       0.02573113      -0.09502828      -0.04362568 </v>
   <v>       0.01560370      -0.08095767       0.03841821 </v>
   <v>      -0.43988610       0.16164262       0.14827615 </v>
   <v>      -0.47314766       0.24593999      -0.16917259 </v>
   <v>       0.73525881      -0.05232626      -0.34608135 </v>
   <v>       0.19656977      -0.11105869      -0.09218078 </v>
   <v>       0.01537286      -0.09035762      -0.03213456 </v>
   <v>       0.26302430      -0.14498409      -0.59311510 </v>
   <v>       0.18945728      -0.12145348       0.10150371 </v>
   <v>      -0.01006839       0.06913764      -1.70196998 </v>
   <v>      -0.49148400       0.25819429       0.17681518 </v>
   <v>       0.07524425      -0.30191345      -0.24583382 </v>
   <v>       0.25696260      -0.14059266       0.60784685 </v>
   <v>       0.00355625      -0.09117905       0.04920294 </v>
   <v>       0.06306683      -0.31547743       0.24871831 </v>
   <v>       0.73041582      -0.05994694       0.34956194 </v>
   <v>      -0.01485364       0.05765604       1.71150051 </v>
   <v>       0.55225624       0.18010212      -0.13160258 </v>
   <v>       0.00610272      -0.43747037       0.43975966 </v>
   <v>       0.02835012      -0.08912794       0.03885881 </v>
   <v>       0.54908264       0.15647075       0.13532342 </v>
   <v>       0.17973352      -0.10471654       0.27128718 </v>
   <v>      -0.69816741       0.10370695       0.29669679 </v>
   <v>       0.19691556      -0.11771893      -0.09863205 </v>
   <v>       0.03616535      -0.08802877      -0.02940558 </v>
   <v>       0.02341990      -0.14781193       0.05092353 </v>
   <v>       0.19695497      -0.12353253       0.10055581 </v>
   <v>       1.29906249      -0.13562706      -0.44404093 </v>
   <v>      -0.67815993      -0.57005727      -0.18706958 </v>
   <v>      -0.07904476       0.66824485       0.24397676 </v>
   <v>      -0.00758198       0.09168354      -0.05295717 </v>
   <v>      -0.01490027       0.46300077       0.51063763 </v>
   <v>      -0.07532345       0.67771904      -0.24959090 </v>
   <v>      -0.70977806      -0.62524684      -0.32030529 </v>
   <v>      -0.12812344      -0.93723363      -0.79208436 </v>
   <v>      -0.16954102       0.49529552       0.39061887 </v>
   <v>      -0.00016772       0.45184688      -0.51709121 </v>
   <v>      -0.47068043      -0.24379549       0.02073821 </v>
   <v>      -0.16765813       0.50139973      -0.39921013 </v>
   <v>      -0.85641314      -0.70034205       0.61059934 </v>
   <v>       0.24526139      -0.57182162      -0.18441947 </v>
   <v>      -0.03754588       0.54184726       0.36857593 </v>
   <v>       0.45484190      -0.24571672      -0.01807141 </v>
   <v>       0.00558851       0.09530018       0.05529332 </v>
   <v>      -0.03421556       0.55183302      -0.37265369 </v>
   <v>      -1.13362543      -0.80050238       0.75708990 </v>
   <v>      -0.85231949      -0.70467109      -0.60680645 </v>
   <v>      -0.66459023       0.07410343       0.64230503 </v>
   <v>       0.00515173       0.10206963      -0.05906919 </v>
   <v>       0.00047195       0.11898912       0.04836245 </v>
   <v>      -0.67679314       0.07590560      -0.62939719 </v>
   <v>       0.23178759      -0.56826576       0.19592630 </v>
   <v>      -1.12545242      -0.81282159      -0.74820710 </v>
   <v>      -0.20651466       0.48144129       0.40123076 </v>
   <v>      -0.02546494       0.13501523      -0.04977717 </v>
   <v>       0.45540394      -0.23622804       0.01594078 </v>
   <v>      -0.20509402       0.49052592      -0.39909191 </v>
   <v>      -0.67993389      -0.57036067       0.18576812 </v>
   <v>      -0.71804927      -0.63060523       0.31620561 </v>
   <v>      -0.06452231       0.52460103      -0.58905037 </v>
   <v>      -0.48215821      -0.22796843      -0.02613739 </v>
   <v>       0.00321957       0.09360576       0.04910280 </v>
   <v>      -0.06317923       0.52720215       0.58579434 </v>
   <v>      -0.12168199      -0.94114750       0.78720310 </v>
   <v>       0.56931730       0.80620670       1.07087110 </v>
   <v>      -0.29506724       0.02178717      -0.59986161 </v>
   <v>      -0.51108353      -0.00187211      -0.36063700 </v>
   <v>       0.59670915       0.93008277       1.09065631 </v>
   <v>       0.31823899       0.38114232      -0.87367553 </v>
   <v>       0.47089059       0.20804661      -0.33816742 </v>
   <v>      -0.06325020       0.31802349       0.18979663 </v>
   <v>       0.20650055       0.06720582      -0.53576575 </v>
   <v>      -0.49649738      -0.00831369      -0.15516431 </v>
   <v>       0.01338087      -0.13584239       0.02336710 </v>
   <v>      -0.23156586      -0.06538000      -0.54860750 </v>
   <v>       0.28213288      -0.10153495       0.44534517 </v>
   <v>       0.46396803       0.23192837       0.34447463 </v>
   <v>       0.22053190      -0.33345735       0.81926682 </v>
   <v>       0.01249830      -0.00417301       0.71994655 </v>
   <v>      -0.50234797      -0.00954705       0.14463545 </v>
   <v>      -0.26386477      -0.07492251       0.55252401 </v>
   <v>       0.14377004      -0.31792692       0.68539614 </v>
   <v>       0.26532104      -0.09866900      -0.45608128 </v>
   <v>      -0.30086294      -0.00017311       0.60523573 </v>
   <v>      -0.00406668       0.08425596       2.32345383 </v>
   <v>      -0.51204316      -0.00527837       0.35162076 </v>
   <v>       0.30249230      -0.01783869       0.59403058 </v>
   <v>       0.05957021       0.74085295      -0.24514160 </v>
   <v>      -0.01810764       0.08234398      -2.33720092 </v>
   <v>       0.32253486      -0.01208395      -0.58699204 </v>
   <v>       0.24440118       0.09880098       0.07080889 </v>
   <v>       0.00188446       0.01095607      -0.74468055 </v>
   <v>      -0.25972330      -0.05331024      -0.54752078 </v>
   <v>       0.24305569      -0.10840488       0.45910637 </v>
   <v>       0.13480962      -0.30861142      -0.69046431 </v>
   <v>      -0.26397970       0.01556091      -0.60254588 </v>
   <v>       0.45968592       0.00847032      -0.34786456 </v>
   <v>       0.03992986       0.76218680       0.24215126 </v>
   <v>       0.23383165      -0.31264044      -0.81420502 </v>
   <v>       0.51990911      -0.00384035      -0.15516289 </v>
   <v>       0.52383074      -0.00690594       0.14856058 </v>
   <v>      -0.25244066      -0.07292006       0.55633150 </v>
   <v>       0.58835425       0.78538640      -1.07341523 </v>
   <v>       0.45603594       0.00238706       0.34239146 </v>
   <v>       0.31377860       0.35879253       0.87059690 </v>
   <v>      -0.05931355       0.33559332      -0.18962174 </v>
   <v>       0.22953730       0.10220427      -0.07252311 </v>
   <v>       0.19378361       0.05530970       0.53713749 </v>
   <v>       0.00244664      -0.13123893      -0.04264008 </v>
   <v>       0.26023710      -0.11441174      -0.46638069 </v>
   <v>      -0.28367988       0.00653091       0.60721928 </v>
   <v>       0.60713559       0.90518527      -1.09089162 </v>
  </varray>
  <varray name="stress" >
   <v>      49.43632978      -9.64500037       0.01480588 </v>
   <v>      -9.64499867      18.85693887       0.06335951 </v>
   <v>       0.01480591       0.06335953      15.51672625 </v>
  </varray>
  <energy>
   <i name="e_fr_energy">   -575.14171265 </i>
   <i name="e_wo_entrp">   -575.13882892 </i>
   <i name="e_0_energy">   -575.14027079 </i>
  </energy>
  <time name="totalsc">  741.21  748.09</time>
  <eigenvalues>
   <array>
    <dimension dim="1">band</dimension>
    <dimension dim="2">kpoint</dimension>
    <dimension dim="3">spin</dimension>
    <field>eigene</field>
    <field>occ</field>
    <set>
     <set comment="spin 1">
      <set comment="kpoint 1">
       <r>   -7.8420    1.0000 </r>
       <r>   -7.5602    1.0000 </r>
       <r>   -7.5224    1.0000 </r>
       <r>   -7.3492    1.0000 </r>
       <r>   -7.2557    1.0000 </r>
       <r>   -7.1420    1.0000 </r>
       <r>   -7.0944    1.0000 </r>
       <r>   -7.0329    1.0000 </r>
       <r>   -6.8717    1.0000 </r>
       <r>   -6.6280    1.0000 </r>
       <r>   -6.5284    1.0000 </r>
       <r>   -6.4432    1.0000 </r>
       <r>   -6.3742    1.0000 </r>
       <r>   -6.2879    1.0000 </r>
       <r>   -6.2771    1.0000 </r>
       <r>   -6.1553    1.0000 </r>
       <r>   -6.0737    1.0000 </r>
       <r>   -5.9453    1.0000 </r>
       <r>   -5.9205    1.0000 </r>
       <r>   -5.7706    1.0000 </r>
       <r>   -5.7611    1.0000 </r>
       <r>   -5.7219    1.0000 </r>
       <r>   -5.6509    1.0000 </r>
       <r>   -5.5938    1.0000 </r>
       <r>   -5.5238    1.0000 </r>
       <r>   -5.5015    1.0000 </r>
       <r>   -5.4902    1.0000 </r>
       <r>   -5.4711    1.0000 </r>
       <r>   -5.4131    1.0000 </r>
       <r>   -5.3919    1.0000 </r>
       <r>   -5.3915    1.0000 </r>
       <r>   -5.3248    1.0000 </r>
       <r>   -5.3073    1.0000 </r>
       <r>   -5.2837    1.0000 </r>
       <r>   -5.2335    1.0000 </r>
       <r>   -5.1911    1.0000 </r>
       <r>   -5.1798    1.0000 </r>
       <r>   -5.1526    1.0000 </r>
       <r>   -5.1398    1.0000 </r>
       <r>   -5.0656    1.0000 </r>
       <r>   -5.0168    1.0000 </r>
       <r>   -4.9341    1.0000 </r>
       <r>   -4.9084    1.0000 </r>
       <r>   -4.8654    1.0000 </r>
       <r>   -4.8001    1.0000 </r>
       <r>   -4.7736    1.0000 </r>
       <r>   -4.5316    1.0000 </r>
       <r>   -4.5298    1.0000 </r>
       <r>   -4.4387    1.0000 </r>
       <r>   -4.4270    1.0000 </r>
       <r>   -4.1683    1.0000 </r>
       <r>   -4.1680    1.0000 </r>
       <r>   -4.1255    1.0000 </r>
       <r>   -4.1135    1.0000 </r>
       <r>   -4.0471    1.0000 </r>
       <r>   -3.9945    1.0000 </r>
       <r>   -3.9931    1.0000 </r>
       <r>   -3.7904    1.0000 </r>
       <r>   -3.7177    1.0000 </r>
       <r>   -3.6781    1.0000 </r>
       <r>   -3.6656    1.0000 </r>
       <r>   -3.6414    1.0000 </r>
       <r>   -3.3846    1.0000 </r>
       <r>   -3.3753    1.0000 </r>
       <r>   -3.3143    1.0000 </r>
       <r>   -3.1323    1.0000 </r>
       <r>   -3.1252    1.0000 </r>
       <r>   -2.9361    1.0000 </r>
       <r>   -2.8930    1.0000 </r>
       <r>   -2.8386    1.0000 </r>
       <r>   -2.7872    1.0000 </r>
       <r>   -2.7731    1.0000 </r>
       <r>   -2.7016    1.0000 </r>
       <r>   -2.6834    1.0000 </r>
       <r>   -2.6274    1.0000 </r>
       <r>   -2.6216    1.0000 </r>
       <r>   -2.5911    1.0000 </r>
       <r>   -2.5667    1.0000 </r>
       <r>   -2.5278    1.0000 </r>
       <r>   -2.4964    1.0000 </r>
       <r>   -2.4750    1.0000 </r>
       <r>   -2.4470    1.0000 </r>
       <r>   -2.4284    1.0000 </r>
       <r>   -2.3877    1.0000 </r>
       <r>   -2.3160    1.0000 </r>
       <r>   -2.3145    1.0000 </r>
       <r>   -2.3008    1.0000 </r>
       <r>   -2.2824    1.0000 </r>
       <r>   -2.2760    1.0000 </r>
       <r>   -2.2515    1.0000 </r>
       <r>   -2.2016    1.0000 </r>
       <r>   -2.1128    1.0000 </r>
       <r>   -2.0986    1.0000 </r>
       <r>   -2.0001    1.0000 </r>
       <r>   -1.9789    1.0000 </r>
       <r>   -1.9556    1.0000 </r>
       <r>   -1.8131    1.0000 </r>
       <r>   -1.7930    1.0000 </r>
       <r>   -1.6884    1.0000 </r>
       <r>   -1.6205    1.0000 </r>
       <r>   -1.5926    1.0000 </r>
       <r>   -1.4053    1.0000 </r>
       <r>   -1.2903    1.0000 </r>
       <r>   -1.2800    1.0000 </r>
       <r>   -1.0519    1.0000 </r>
       <r>   -0.9787    1.0000 </r>
       <r>   -0.8646    1.0000 </r>
       <r>   -0.5746    1.0000 </r>
       <r>   -0.5685    1.0000 </r>
       <r>   -0.4444    1.0000 </r>
       <r>   -0.2081    1.0000 </r>
       <r>   -0.1861    1.0000 </r>
       <r>    0.0690    1.0000 </r>
       <r>    0.2277    1.0000 </r>
       <r>    0.2522    1.0000 </r>
       <r>    0.2750    1.0000 </r>
       <r>    0.5017    1.0000 </r>
       <r>    0.5022    1.0000 </r>
       <r>    0.5533    1.0000 </r>
       <r>    0.5541    1.0000 </r>
       <r>    0.5708    1.0000 </r>
       <r>    0.5717    1.0000 </r>
       <r>    0.5875    1.0000 </r>
       <r>    0.7379    1.0000 </r>
       <r>    0.7381    1.0000 </r>
       <r>    0.7488    1.0000 </r>
       <r>    0.7494    1.0000 </r>
       <r>    0.8360    1.0000 </r>
       <r>    0.8885    1.0000 </r>
       <r>    0.8890    1.0000 </r>
       <r>    0.9226    1.0000 </r>
       <r>    1.0284    1.0000 </r>
       <r>    1.0289    1.0000 </r>
       <r>    1.0602    1.0000 </r>
       <r>    1.0616    1.0000 </r>
       <r>    1.1049    1.0000 </r>
       <r>    1.1054    1.0000 </r>
       <r>    1.1746    1.0000 </r>
       <r>    1.2071    1.0000 </r>
       <r>    1.2080    1.0000 </r>
       <r>    1.2141    1.0000 </r>
       <r>    1.2684    1.0000 </r>
       <r>    1.2737    1.0000 </r>
       <r>    1.2807    1.0000 </r>
       <r>    1.2942    1.0000 </r>
       <r>    1.3651    1.0000 </r>
       <r>    1.3656    1.0000 </r>
       <r>    1.4132    1.0000 </r>
       <r>    1.4142    1.0000 </r>
       <r>    1.4672    1.0000 </r>
       <r>    1.4677    1.0000 </r>
       <r>    1.5112    1.0000 </r>
       <r>    1.5120    1.0000 </r>
       <r>    1.6206    1.0000 </r>
       <r>    1.6449    1.0000 </r>
       <r>    1.6598    1.0000 </r>
       <r>    1.7068    1.0000 </r>
       <r>    1.7084    1.0000 </r>
       <r>    1.7567    1.0000 </r>
       <r>    1.7585    1.0000 </r>
       <r>    1.7913    1.0000 </r>
       <r>    1.7932    1.0000 </r>
       <r>    1.8536    1.0000 </r>
       <r>    1.8601    1.0000 </r>
       <r>    1.9024    1.0000 </r>
       <r>    1.9031    1.0000 </r>
       <r>    1.9326    1.0000 </r>
       <r>    2.0481    1.0000 </r>
       <r>    2.0493    1.0000 </r>
       <r>    2.0601    1.0000 </r>
       <r>    2.0797    1.0000 </r>
       <r>    2.1106    1.0000 </r>
       <r>    2.1255    1.0000 </r>
       <r>    2.1260    1.0000 </r>
       <r>    2.2097    1.0000 </r>
       <r>    2.2398    1.0000 </r>
       <r>    2.2650    1.0000 </r>
       <r>    2.2660    1.0000 </r>
       <r>    2.3270    1.0000 </r>
       <r>    2.3487    1.0000 </r>
       <r>    2.3856    1.0000 </r>
       <r>    2.3870    1.0000 </r>
       <r>    2.4174    1.0000 </r>
       <r>    2.4811    1.0000 </r>
       <r>    2.4985    1.0000 </r>
       <r>    2.5844    1.0000 </r>
       <r>    2.5880    1.0000 </r>
       <r>    2.6385    1.0000 </r>
       <r>    2.6502    1.0000 </r>
       <r>    2.6514    1.0000 </r>
       <r>    2.7566    1.0000 </r>
       <r>    2.7584    1.0000 </r>
       <r>    2.8140    1.0000 </r>
       <r>    2.8677    1.0000 </r>
       <r>    2.9058    1.0000 </r>
       <r>    2.9569    1.0000 </r>
       <r>    2.9718    1.0000 </r>
       <r>    2.9765    1.0000 </r>
       <r>    2.9917    1.0000 </r>
       <r>    3.0280    1.0000 </r>
       <r>    3.0347    1.0000 </r>
       <r>    3.0451    1.0000 </r>
       <r>    3.0480    1.0000 </r>
       <r>    3.1441    1.0000 </r>
       <r>    3.1471    1.0000 </r>
       <r>    3.1681    1.0000 </r>
       <r>    3.1803    1.0000 </r>
       <r>    3.1831    1.0000 </r>
       <r>    3.1924    1.0000 </r>
       <r>    3.1957    1.0000 </r>
       <r>    3.2066    1.0000 </r>
       <r>    3.2245    1.0000 </r>
       <r>    3.2491    1.0000 </r>
       <r>    3.2680    1.0000 </r>
       <r>    3.2701    1.0000 </r>
       <r>    3.2983    1.0000 </r>
       <r>    3.3292    1.0000 </r>
       <r>    3.3801    1.0000 </r>
       <r>    3.4085    1.0000 </r>
       <r>    3.4145    1.0000 </r>
       <r>    3.4277    1.0000 </r>
       <r>    3.4562    1.0000 </r>
       <r>    3.4649    1.0000 </r>
       <r>    3.4664    1.0000 </r>
       <r>    3.6178    1.0000 </r>
       <r>    3.6886    1.0000 </r>
       <r>    3.7106    1.0000 </r>
       <r>    3.8903    1.0000 </r>
       <r>    3.9120    1.0000 </r>
       <r>    3.9561    1.0000 </r>
       <r>    3.9958    1.0000 </r>
       <r>    4.0274    1.0000 </r>
       <r>    4.1868    1.0000 </r>
       <r>    4.1922    1.0000 </r>
       <r>    4.2162    1.0000 </r>
       <r>    4.2198    1.0000 </r>
       <r>    4.2981    1.0000 </r>
       <r>    4.4904    1.0000 </r>
       <r>    4.7056    1.0000 </r>
       <r>    4.7095    1.0000 </r>
       <r>    4.7261    0.9992 </r>
       <r>    4.7753    0.0001 </r>
       <r>    4.8566    0.0000 </r>
       <r>    4.8701    0.0000 </r>
       <r>    4.8773    0.0000 </r>
       <r>    4.9204    0.0000 </r>
       <r>    4.9235    0.0000 </r>
       <r>    5.0123    0.0000 </r>
       <r>    5.0722    0.0000 </r>
       <r>    5.2462    0.0000 </r>
       <r>    5.2481    0.0000 </r>
       <r>    5.2966    0.0000 </r>
       <r>    5.3170    0.0000 </r>
       <r>    5.3339    0.0000 </r>
       <r>    5.3571    0.0000 </r>
       <r>    5.3873    0.0000 </r>
       <r>    5.4412    0.0000 </r>
       <r>    5.4696    0.0000 </r>
       <r>    5.4723    0.0000 </r>
       <r>    5.5344    0.0000 </r>
       <r>    5.5686    0.0000 </r>
       <r>    5.6329    0.0000 </r>
       <r>    5.6658    0.0000 </r>
       <r>    5.6963    0.0000 </r>
       <r>    5.7004    0.0000 </r>
       <r>    5.8252    0.0000 </r>
       <r>    5.8419    0.0000 </r>
       <r>    5.9313    0.0000 </r>
       <r>    5.9355    0.0000 </r>
       <r>    6.0235    0.0000 </r>
       <r>    6.0310    0.0000 </r>
       <r>    6.0850    0.0000 </r>
       <r>    6.1180    0.0000 </r>
       <r>    6.1748    0.0000 </r>
       <r>    6.1778    0.0000 </r>
[...]
       <r>    -5.2011    47.5565    70.2961 </r>
       <r>    -5.1465    60.2297    73.5849 </r>
       <r>    -5.0919    58.2111    76.7636 </r>
       <r>    -5.0373    40.8423    78.9937 </r>
       <r>    -4.9827    29.1754    80.5869 </r>
       <r>    -4.9281    43.6953    82.9728 </r>
       <r>    -4.8735    42.6642    85.3025 </r>
       <r>    -4.8189    29.7328    86.9260 </r>
       <r>    -4.7643    58.8626    90.1402 </r>
       <r>    -4.7097    16.5136    91.0419 </r>
       <r>    -4.6551    38.1907    93.1273 </r>
       <r>    -4.6005    47.6459    95.7290 </r>
       <r>    -4.5459     9.5860    96.2524 </r>
       <r>    -4.4913    56.3710    99.3305 </r>
       <r>    -4.4367    26.8719   100.7979 </r>
       <r>    -4.3820    39.4061   102.9496 </r>
       <r>    -4.3274    33.0081   104.7520 </r>
       <r>    -4.2728    29.3466   106.3545 </r>
       <r>    -4.2182    27.3316   107.8469 </r>
       <r>    -4.1636    16.9326   108.7715 </r>
       <r>    -4.1090    14.9750   109.5892 </r>
       <r>    -4.0544    19.9456   110.6783 </r>
       <r>    -3.9998     7.0187   111.0616 </r>
       <r>    -3.9452    37.4724   113.1077 </r>
       <r>    -3.8906    16.8477   114.0277 </r>
       <r>    -3.8360     4.0718   114.2500 </r>
       <r>    -3.7814    19.3955   115.3091 </r>
       <r>    -3.7268    20.3528   116.4205 </r>
       <r>    -3.6722    15.9401   117.2909 </r>
       <r>    -3.6176    35.8944   119.2509 </r>
       <r>    -3.5630    13.7214   120.0001 </r>
       <r>    -3.5084    11.5926   120.6331 </r>
       <r>    -3.4538    24.8443   121.9898 </r>
       <r>    -3.3992    17.5452   122.9478 </r>
       <r>    -3.3446    14.4032   123.7343 </r>
       <r>    -3.2900    22.7583   124.9770 </r>
       <r>    -3.2354     6.2051   125.3158 </r>
       <r>    -3.1808    44.1915   127.7289 </r>
       <r>    -3.1261    15.4999   128.5752 </r>
       <r>    -3.0715    24.9423   129.9372 </r>
       <r>    -3.0169     5.7297   130.2500 </r>
       <r>    -2.9623    20.5091   131.3699 </r>
       <r>    -2.9077    29.3353   132.9718 </r>
       <r>    -2.8531    25.8768   134.3848 </r>
       <r>    -2.7985    37.6981   136.4433 </r>
       <r>    -2.7439    30.5184   138.1097 </r>
       <r>    -2.6893    55.8350   141.1586 </r>
       <r>    -2.6347    46.0218   143.6716 </r>
       <r>    -2.5801    55.0746   146.6789 </r>
       <r>    -2.5255    59.2642   149.9150 </r>
       <r>    -2.4709    51.3508   152.7190 </r>
       <r>    -2.4163    78.6033   157.0110 </r>
       <r>    -2.3617    55.6754   160.0512 </r>
       <r>    -2.3071    36.9548   162.0692 </r>
       <r>    -2.2525    53.0011   164.9632 </r>
       <r>    -2.1979    39.8886   167.1414 </r>
       <r>    -2.1433    51.9237   169.9767 </r>
       <r>    -2.0887    56.8605   173.0815 </r>
       <r>    -2.0341    42.3682   175.3950 </r>
       <r>    -1.9795    56.8268   178.4980 </r>
       <r>    -1.9249    27.4204   179.9952 </r>
       <r>    -1.8702    10.5099   180.5691 </r>
       <r>    -1.8156    22.6507   181.8060 </r>
       <r>    -1.7610    25.3952   183.1926 </r>
       <r>    -1.7064    35.1356   185.1112 </r>
       <r>    -1.6518    45.3821   187.5893 </r>
       <r>    -1.5972    63.0491   191.0321 </r>
       <r>    -1.5426    24.4861   192.3691 </r>
       <r>    -1.4880    18.8757   193.3998 </r>
       <r>    -1.4334    29.5611   195.0140 </r>
       <r>    -1.3788    31.2272   196.7191 </r>
       <r>    -1.3242    18.8955   197.7509 </r>
       <r>    -1.2696    30.2945   199.4051 </r>
       <r>    -1.2150     5.9003   199.7273 </r>
       <r>    -1.1604     7.3820   200.1304 </r>
       <r>    -1.1058    13.0231   200.8415 </r>
       <r>    -1.0512    22.8180   202.0875 </r>
       <r>    -0.9966    42.0607   204.3842 </r>
       <r>    -0.9420    16.1249   205.2647 </r>
       <r>    -0.8874    18.0090   206.2480 </r>
       <r>    -0.8328     7.4373   206.6542 </r>
       <r>    -0.7782    10.2182   207.2121 </r>
       <r>    -0.7236    20.4783   208.3303 </r>
       <r>    -0.6690    28.4613   209.8844 </r>
       <r>    -0.6143    20.4309   211.0001 </r>
       <r>    -0.5597    49.7177   213.7149 </r>
       <r>    -0.5051    45.0197   216.1732 </r>
       <r>    -0.4505    17.8760   217.1493 </r>
       <r>    -0.3959    18.8326   218.1776 </r>
       <r>    -0.3413    33.2712   219.9944 </r>
       <r>    -0.2867     0.3044   220.0110 </r>
       <r>    -0.2321    15.4240   220.8532 </r>
       <r>    -0.1775    35.1454   222.7723 </r>
       <r>    -0.1229     4.5598   223.0213 </r>
       <r>    -0.0683     8.7413   223.4987 </r>
       <r>    -0.0137    24.0405   224.8114 </r>
       <r>     0.0409    12.5930   225.4990 </r>
       <r>     0.0955     4.5771   225.7489 </r>
       <r>     0.1501    16.8353   226.6682 </r>
       <r>     0.2047    45.7485   229.1663 </r>
       <r>     0.2593    70.3299   233.0066 </r>
       <r>     0.3139    52.9004   235.8952 </r>
       <r>     0.3685    41.4163   238.1567 </r>
       <r>     0.4231    36.7969   240.1660 </r>
       <r>     0.4777    47.0097   242.7330 </r>
       <r>     0.5323    46.4401   245.2688 </r>
       <r>     0.5869    33.8961   247.1198 </r>
       <r>     0.6416    72.4578   251.0763 </r>
       <r>     0.6962    34.8505   252.9793 </r>
       <r>     0.7508   100.4600   258.4649 </r>
       <r>     0.8054    93.3372   263.5615 </r>
       <r>     0.8600    58.6947   266.7665 </r>
       <r>     0.9146    56.0698   269.8282 </r>
       <r>     0.9692    53.7213   272.7616 </r>
       <r>     1.0238    45.7404   275.2592 </r>
       <r>     1.0784    95.1638   280.4556 </r>
       <r>     1.1330    55.2495   283.4724 </r>
       <r>     1.1876    67.4144   287.1536 </r>
       <r>     1.2422    80.2519   291.5357 </r>
       <r>     1.2968    63.5646   295.0066 </r>
       <r>     1.3514    97.4684   300.3289 </r>
       <r>     1.4060    65.0034   303.8784 </r>
       <r>     1.4606    80.0915   308.2518 </r>
       <r>     1.5152    55.8788   311.3031 </r>
       <r>     1.5698    55.7838   314.3491 </r>
       <r>     1.6244    77.4638   318.5790 </r>
       <r>     1.6790    85.5679   323.2514 </r>
       <r>     1.7336    72.6002   327.2157 </r>
       <r>     1.7882    93.9436   332.3455 </r>
       <r>     1.8428    86.8752   337.0893 </r>
       <r>     1.8975    96.5571   342.3617 </r>
       <r>     1.9521    79.8357   346.7211 </r>
       <r>     2.0067    47.4114   349.3100 </r>
       <r>     2.0613    64.9392   352.8560 </r>
       <r>     2.1159    65.0897   356.4102 </r>
       <r>     2.1705    56.0811   359.4724 </r>
       <r>     2.2251    78.8762   363.7794 </r>
       <r>     2.2797    64.7850   367.3170 </r>
       <r>     2.3343    96.2513   372.5727 </r>
       <r>     2.3889    54.0928   375.5264 </r>
       <r>     2.4435    75.9258   379.6723 </r>
       <r>     2.4981    69.6674   383.4765 </r>
       <r>     2.5527    74.7998   387.5609 </r>
       <r>     2.6073    69.6091   391.3619 </r>
       <r>     2.6619    52.5347   394.2305 </r>
       <r>     2.7165    81.7196   398.6928 </r>
       <r>     2.7711    61.3247   402.0414 </r>
       <r>     2.8257    41.7159   404.3193 </r>
       <r>     2.8803    49.2477   407.0084 </r>
       <r>     2.9349    86.2857   411.7200 </r>
       <r>     2.9895    54.2214   414.6807 </r>
       <r>     3.0441    38.9999   416.8103 </r>
       <r>     3.0987    99.0364   422.2181 </r>
       <r>     3.1534    52.8924   425.1063 </r>
       <r>     3.2080    69.7336   428.9141 </r>
       <r>     3.2626    87.8395   433.7105 </r>
       <r>     3.3172    63.8802   437.1986 </r>
       <r>     3.3718    67.1240   440.8639 </r>
       <r>     3.4264    58.5051   444.0586 </r>
       <r>     3.4810    64.3389   447.5718 </r>
       <r>     3.5356    21.5535   448.7487 </r>
       <r>     3.5902    56.9944   451.8608 </r>
       <r>     3.6448    31.8310   453.5989 </r>
       <r>     3.6994    29.4806   455.2087 </r>
       <r>     3.7540    35.2973   457.1361 </r>
       <r>     3.8086    28.7344   458.7051 </r>
       <r>     3.8632    28.2630   460.2484 </r>
       <r>     3.9178    25.6086   461.6467 </r>
       <r>     3.9724    32.4624   463.4193 </r>
       <r>     4.0270    38.4631   465.5196 </r>
       <r>     4.0816    27.0698   466.9977 </r>
       <r>     4.1362    17.3908   467.9473 </r>
       <r>     4.1908    17.6428   468.9107 </r>
       <r>     4.2454    22.4592   470.1371 </r>
       <r>     4.3000    22.7416   471.3789 </r>
       <r>     4.3546    20.5309   472.4999 </r>
       <r>     4.4093     3.2943   472.6799 </r>
       <r>     4.4639    15.4200   473.5219 </r>
       <r>     4.5185    32.1945   475.2798 </r>
       <r>     4.5731    16.5010   476.1809 </r>
       <r>     4.6277     9.8471   476.7186 </r>
       <r>     4.6823     7.6589   477.1368 </r>
       <r>     4.7369    19.6987   478.2124 </r>
       <r>     4.7915    46.7121   480.7631 </r>
       <r>     4.8461    36.0106   482.7295 </r>
       <r>     4.9007    16.4572   483.6281 </r>
       <r>     4.9553    40.9295   485.8630 </r>
       <r>     5.0099    11.9785   486.5171 </r>
       <r>     5.0645    48.1041   489.1438 </r>
       <r>     5.1191    32.2377   490.9041 </r>
       <r>     5.1737    26.0817   492.3283 </r>
       <r>     5.2283    36.0814   494.2985 </r>
       <r>     5.2829    41.1778   496.5470 </r>
       <r>     5.3375    38.0949   498.6271 </r>
       <r>     5.3921    48.6695   501.2847 </r>
       <r>     5.4467    32.5989   503.0648 </r>
       <r>     5.5013    27.8052   504.5831 </r>
       <r>     5.5559    54.7305   507.5716 </r>
       <r>     5.6105    35.9579   509.5351 </r>
       <r>     5.6652    56.2086   512.6043 </r>
       <r>     5.7198    60.2532   515.8944 </r>
       <r>     5.7744    45.3060   518.3683 </r>
       <r>     5.8290    43.2672   520.7309 </r>
       <r>     5.8836    52.7235   523.6099 </r>
       <r>     5.9382    64.8248   527.1496 </r>
       <r>     5.9928    48.3962   529.7922 </r>
       <r>     6.0474    44.7241   532.2344 </r>
       <r>     6.1020    47.8636   534.8480 </r>
       <r>     6.1566    57.1395   537.9680 </r>
       <r>     6.2112    70.8537   541.8370 </r>
       <r>     6.2658    36.7717   543.8450 </r>
       <r>     6.3204    22.2621   545.0606 </r>
       <r>     6.3750    53.0460   547.9572 </r>
       <r>     6.4296    63.9887   551.4512 </r>
       <r>     6.4842    63.5797   554.9230 </r>
       <r>     6.5388    62.0980   558.3138 </r>
       <r>     6.5934    42.5075   560.6349 </r>
       <r>     6.6480    35.0705   562.5499 </r>
       <r>     6.7026    47.1872   565.1265 </r>
       <r>     6.7572    49.2556   567.8161 </r>
       <r>     6.8118    34.2087   569.6841 </r>
       <r>     6.8664    59.4889   572.9325 </r>
       <r>     6.9211    28.4446   574.4857 </r>
       <r>     6.9757     0.6308   574.5202 </r>
       <r>     7.0303     9.9276   575.0623 </r>
       <r>     7.0849    17.1733   576.0000 </r>
       <r>     7.1395     0.0000   576.0000 </r>
       <r>     7.1941     0.0000   576.0000 </r>
       <r>     7.2487     0.0000   576.0000 </r>
       <r>     7.3033     0.0000   576.0000 </r>
       <r>     7.3579     0.0000   576.0000 </r>
       <r>     7.4125     0.0000   576.0000 </r>
       <r>     7.4671     0.0000   576.0000 </r>
       <r>     7.5217     0.0000   576.0000 </r>
       <r>     7.5763     0.0000   576.0000 </r>
       <r>     7.6309     0.0000   576.0000 </r>
       <r>     7.6855     0.0000   576.0000 </r>
       <r>     7.7401     0.0000   576.0000 </r>
       <r>     7.7947     0.0000   576.0000 </r>
      </set>
     </set>
    </array>
   </total>
  </dos>
 </calculation>
 <structure name="finalpos" >
  <crystal>
   <varray name="basis" >
    <v>       7.68059444       0.00000000       0.00000000 </v>
    <v>       0.00000000      16.29299927       0.00000000 </v>
    <v>       0.00000000       0.00000000      21.00086403 </v>
   </varray>
   <i name="volume">   2628.04643725 </i>
   <varray name="rec_basis" >
    <v>       0.13019826       0.00000000       0.00000000 </v>
    <v>       0.00000000       0.06137605       0.00000000 </v>
    <v>       0.00000000       0.00000000       0.04761709 </v>
   </varray>
  </crystal>
  <varray name="positions" >
   <v>       0.97851729       0.98567820       0.00000000 </v>
   <v>       0.72851723       0.81901145       0.09143190 </v>
   <v>       0.47851718       0.65234476       0.18286380 </v>
   <v>       0.22851723       0.48567814       0.27429566 </v>
   <v>       0.97851718       0.31901139       0.36572757 </v>
   <v>       0.60116357       0.69016319       0.62755173 </v>
   <v>       0.10116363       0.19016326       0.89695972 </v>
   <v>       0.72851723       0.15234485       0.09143190 </v>
   <v>       0.47851718       0.98567814       0.18286380 </v>
   <v>       0.22851723       0.81901151       0.27429566 </v>
   <v>       0.97851718       0.65234476       0.36572757 </v>
   <v>       0.85116363       0.19016326       0.56019974 </v>
   <v>       0.97851729       0.65234494       0.00000000 </v>
   <v>       0.72851723       0.48567820       0.09143190 </v>
   <v>       0.47851718       0.31901151       0.18286380 </v>
   <v>       0.85116357       0.44016322       0.56019974 </v>
   <v>       0.97851718       0.98567814       0.36572757 </v>
   <v>       0.85116363       0.94016319       0.56019974 </v>
   <v>       0.60116363       0.69016326       0.89695972 </v>
   <v>       0.22851725       0.81901145       0.09143190 </v>
   <v>       0.60116357       0.94016319       0.89695972 </v>
   <v>       0.72851729       0.48567814       0.27429563 </v>
   <v>       0.47851718       0.31901139       0.36572757 </v>
   <v>       0.22851712       0.15234470       0.45715946 </v>
   <v>       0.60116363       0.44016326       0.89695972 </v>
   <v>       0.22851725       0.15234485       0.09143190 </v>
   <v>       0.97851723       0.98567814       0.18286380 </v>
   <v>       0.72851729       0.81901151       0.27429563 </v>
   <v>       0.47851718       0.65234476       0.36572757 </v>
   <v>       0.22851712       0.48567808       0.45715946 </v>
   <v>       0.35116363       0.19016326       0.82960773 </v>
   <v>       0.22851725       0.48567820       0.09143190 </v>
   <v>       0.97851723       0.31901151       0.18286380 </v>
   <v>       0.72851729       0.15234487       0.27429563 </v>
   <v>       0.47851718       0.98567814       0.36572757 </v>
   <v>       0.35116363       0.69016319       0.56019974 </v>
   <v>       0.72851735       0.23567820       0.00000000 </v>
   <v>       0.47851729       0.06901149       0.09143189 </v>
   <v>       0.22851726       0.90234476       0.18286380 </v>
   <v>       0.97851729       0.73567814       0.27429566 </v>
   <v>       0.72851723       0.56901145       0.36572757 </v>
   <v>       0.47851723       0.40234464       0.45715940 </v>
   <v>       0.72851735       0.56901163       0.00000000 </v>
   <v>       0.47851729       0.40234488       0.09143189 </v>
   <v>       0.22851726       0.23567820       0.18286380 </v>
   <v>       0.97851729       0.06901154       0.27429566 </v>
   <v>       0.72851723       0.90234482       0.36572757 </v>
   <v>       0.47851723       0.73567808       0.45715940 </v>
   <v>       0.72851735       0.90234494       0.00000000 </v>
   <v>       0.47851729       0.73567820       0.09143189 </v>
   <v>       0.22851726       0.56901151       0.18286380 </v>
   <v>       0.97851729       0.40234485       0.27429566 </v>
   <v>       0.72851723       0.23567812       0.36572757 </v>
   <v>       0.47851723       0.06901138       0.45715940 </v>
   <v>       0.22851729       0.23567820       0.00000000 </v>
   <v>       0.10116363       0.69016326       0.89695972 </v>
   <v>       0.72851718       0.90234476       0.18286380 </v>
   <v>       0.47851729       0.73567814       0.27429563 </v>
   <v>       0.35116363       0.19016326       0.56019974 </v>
   <v>       0.97851706       0.40234464       0.45715946 </v>
   <v>       0.22851729       0.56901163       0.00000000 </v>
   <v>       0.97851723       0.40234488       0.09143190 </v>
   <v>       0.72851718       0.23567820       0.18286380 </v>
   <v>       0.47851729       0.06901154       0.27429563 </v>
   <v>       0.22851718       0.90234482       0.36572757 </v>
   <v>       0.97851706       0.73567808       0.45715946 </v>
   <v>       0.22851729       0.90234494       0.00000000 </v>
   <v>       0.97851723       0.73567820       0.09143190 </v>
   <v>       0.72851718       0.56901151       0.18286380 </v>
   <v>       0.47851729       0.40234485       0.27429563 </v>
   <v>       0.22851718       0.23567812       0.36572757 </v>
   <v>       0.97851706       0.06901138       0.45715946 </v>
   <v>       0.22851712       0.81901139       0.45715946 </v>
   <v>       0.10116363       0.31516326       0.69490373 </v>
   <v>       0.85116363       0.94016331       0.82960773 </v>
   <v>       0.72851718       0.81901139       0.45715946 </v>
   <v>       0.60116363       0.56516326       0.69490373 </v>
   <v>       0.47851729       0.65234494       0.00000000 </v>
   <v>       0.22851718       0.56901145       0.36572757 </v>
   <v>       0.10116363       0.81516331       0.69490373 </v>
   <v>       0.85116363       0.44016326       0.82960773 </v>
   <v>       0.22851723       0.15234487       0.27429566 </v>
   <v>       0.60116363       0.06516326       0.69490373 </v>
   <v>       0.35116363       0.69016326       0.82960773 </v>
   <v>       0.72851718       0.15234470       0.45715946 </v>
   <v>       0.35116363       0.31516326       0.76225573 </v>
   <v>       0.10116363       0.94016319       0.89695972 </v>
   <v>       0.10116363       0.94016319       0.62755173 </v>
   <v>       0.85116363       0.56516326       0.76225573 </v>
   <v>       0.60116363       0.19016326       0.89695972 </v>
   <v>       0.60116363       0.19016326       0.62755173 </v>
   <v>       0.35116363       0.81516331       0.76225573 </v>
   <v>       0.10116363       0.44016326       0.89695972 </v>
   <v>       0.10116351       0.44016322       0.62755173 </v>
   <v>       0.85116363       0.06516326       0.76225573 </v>
   <v>       0.47851729       0.98567820       0.00000000 </v>
   <v>       0.35116363       0.94016326       0.56019974 </v>
   <v>       0.10116375       0.56516331       0.69490373 </v>
   <v>       0.85116363       0.19016337       0.82960773 </v>
   <v>       0.35116363       0.44016326       0.56019974 </v>
   <v>       0.10116363       0.06516326       0.69490373 </v>
   <v>       0.85116363       0.69016326       0.82960773 </v>
   <v>       0.85116363       0.69016326       0.56019974 </v>
   <v>       0.60116363       0.31516331       0.69490373 </v>
   <v>       0.35116363       0.94016331       0.82960773 </v>
   <v>       0.72851718       0.48567808       0.45715946 </v>
   <v>       0.60116363       0.81516326       0.69490373 </v>
   <v>       0.35116363       0.44016331       0.82960773 </v>
   <v>       0.60116369       0.94016326       0.62755173 </v>
   <v>       0.35116363       0.56516331       0.76225573 </v>
   <v>       0.97851729       0.31901154       0.00000000 </v>
   <v>       0.60116363       0.44016326       0.62755173 </v>
   <v>       0.35116363       0.06516326       0.76225573 </v>
   <v>       0.97851723       0.06901149       0.09143190 </v>
   <v>       0.10116363       0.69016319       0.62755173 </v>
   <v>       0.85116363       0.31516322       0.76225573 </v>
   <v>       0.97851723       0.65234476       0.18286380 </v>
   <v>       0.10116363       0.19016326       0.62755173 </v>
   <v>       0.85116363       0.81516331       0.76225573 </v>
   <v>       0.47851729       0.31901154       0.00000000 </v>
  </varray>
 </structure>
</modeling>
