 vasp.6.4.3 19Mar24 (build Oct 22 2024 11:23:12) complex                        
  
 executed on             LinuxIFC date 2025.04.30  09:34:56
 running   16 mpi-ranks, on    1 nodes
 distrk:  each k-point on   16 cores,    1 groups
 distr:  one band on NCORE=  16 cores,    1 groups


--------------------------------------------------------------------------------------------------------


 INCAR:
   SYSTEM = Si001 and Ge001 interface calculation
   ISTART = 0
   ICHARG = 2
   LWAVE = .FALSE.
   LREAL = AUTO
   ENCUT = 700
   ENAUG = 900
   ADDGRID = .TRUE.
   LMAXMIX = 6
   LASPH = .TRUE.
   LMIXTAU = .TRUE.
   NCORE = 16
   NELM = 100
   NBANDS = 106
   EDIFF = 1d-7
   AMIX = 0.6
   ISMEAR = 0
   SIGMA = 0.01
   NELECT = 176
   ISPIN = 2
   NUPDOWN = 1
   LVTOT = .FALSE.
   LVHAR = .TRUE.

 POTCAR:    PAW_PBE Si 05Jan2001                  
 POTCAR:    PAW_PBE Ge 05Jan2001                  
 -----------------------------------------------------------------------------
|                                                                             |
|           W    W    AA    RRRRR   N    N  II  N    N   GGGG   !!!           |
|           W    W   A  A   R    R  NN   N  II  NN   N  G    G  !!!           |
|           W    W  A    A  R    R  N N  N  II  N N  N  G       !!!           |
|           W WW W  AAAAAA  RRRRR   N  N N  II  N  N N  G  GGG   !            |
|           WW  WW  A    A  R   R   N   NN  II  N   NN  G    G                |
|           W    W  A    A  R    R  N    N  II  N    N   GGGG   !!!           |
|                                                                             |
|     You use a magnetic or noncollinear calculation, but did not specify     |
|     the initial magnetic moment with the MAGMOM tag. Note that a            |
|     default of 0.023 will be used for all atoms. This ferromagnetic         |
|     setup may break the symmetry of the crystal, in particular it may       |
|     rule out finding an antiferromagnetic solution. Thence, we              |
|     recommend setting the initial magnetic moment manually or verifying     |
|     carefully that this magnetic setup is desired.                          |
|                                                                             |
 -----------------------------------------------------------------------------

 -----------------------------------------------------------------------------
|                                                                             |
|           W    W    AA    RRRRR   N    N  II  N    N   GGGG   !!!           |
|           W    W   A  A   R    R  NN   N  II  NN   N  G    G  !!!           |
|           W    W  A    A  R    R  N N  N  II  N N  N  G       !!!           |
|           W WW W  AAAAAA  RRRRR   N  N N  II  N  N N  G  GGG   !            |
|           WW  WW  A    A  R   R   N   NN  II  N   NN  G    G                |
|           W    W  A    A  R    R  N    N  II  N    N   GGGG   !!!           |
|                                                                             |
|     For optimal performance we recommend to set                             |
|       NCORE = 2 up to number-of-cores-per-socket                            |
|     NCORE specifies how many cores store one orbital (NPAR=cpu/NCORE).      |
|     This setting can greatly improve the performance of VASP for DFT.       |
|     The default, NCORE=1 might be grossly inefficient on modern             |
|     multi-core architectures or massively parallel machines. Do your        |
|     own testing! More info at https://www.vasp.at/wiki/index.php/NCORE      |
|     Unfortunately you need to use the default for GW and RPA                |
|     calculations (for HF NCORE is supported but not extensively tested      |
|     yet).                                                                   |
|                                                                             |
 -----------------------------------------------------------------------------

 POTCAR:    PAW_PBE Si 05Jan2001                  
   VRHFIN =Si: s2p2                                                                                 
   LEXCH  = PE                                                                                      
   EATOM  =   103.0669 eV,    7.5752 Ry                                                             
                                                                                                    
   TITEL  = PAW_PBE Si 05Jan2001                                                                    
   LULTRA =        F    use ultrasoft PP ?                                                          
   IUNSCR =        1    unscreen: 0-lin 1-nonlin 2-no                                               
   RPACOR =    1.500    partial core radius                                                         
   POMASS =   28.085; ZVAL   =    4.000    mass and valenz                                          
   RCORE  =    1.900    outmost cutoff radius                                                       
   RWIGS  =    2.480; RWIGS  =    1.312    wigner-seitz radius (au A)                               
   ENMAX  =  245.345; ENMIN  =  184.009 eV                                                          
   ICORE  =        2    local potential                                                             
   LCOR   =        T    correct aug charges                                                         
   LPAW   =        T    paw PP                                                                      
   EAUG   =  322.069                                                                                
   DEXC   =    0.000                                                                                
   RMAX   =    1.950    core radius for proj-oper                                                   
   RAUG   =    1.300    factor for augmentation sphere                                              
   RDEP   =    1.993    radius for radial grids                                                     
   RDEPT  =    1.837    core radius for aug-charge                                                  
                                                                                                    
   Atomic configuration                                                                             
    6 entries                                                                                       
     n  l   j            E        occ.                                                              
     1  0  0.50     -1785.8828   2.0000                                                             
     2  0  0.50      -139.4969   2.0000                                                             
     2  1  1.50       -95.5546   6.0000                                                             
     3  0  0.50       -10.8127   2.0000                                                             
     3  1  0.50        -4.0811   2.0000                                                             
     3  2  1.50        -4.0817   0.0000                                                             
   Description                                                                                      
     l       E           TYP  RCUT    TYP  RCUT                                                     
     0    -10.8127223     23  1.900                                                                 
     0     -7.6451159     23  1.900                                                                 
     1     -4.0811372     23  1.900                                                                 
     1      2.4879257     23  1.900                                                                 
     2     -4.0817478      7  1.900                                                                 
  local pseudopotential read in
  partial core-charges read in
  partial kinetic energy density read in
  atomic valenz-charges read in
  non local Contribution for L=           0  read in
    real space projection operators read in
  non local Contribution for L=           0  read in
    real space projection operators read in
  non local Contribution for L=           1  read in
    real space projection operators read in
  non local Contribution for L=           1  read in
    real space projection operators read in
    PAW grid and wavefunctions read in
 
   number of l-projection  operators is LMAX  =           4
   number of lm-projection operators is LMMAX =           8
 
 POTCAR:    PAW_PBE Ge 05Jan2001                  
   VRHFIN =Ge: s2p2                                                                                 
   LEXCH  = PE                                                                                      
   EATOM  =   104.9960 eV,    7.7170 Ry                                                             
                                                                                                    
   TITEL  = PAW_PBE Ge 05Jan2001                                                                    
   LULTRA =        F    use ultrasoft PP ?                                                          
   IUNSCR =        1    unscreen: 0-lin 1-nonlin 2-no                                               
   RPACOR =    2.170    partial core radius                                                         
   POMASS =   72.610; ZVAL   =    4.000    mass and valenz                                          
   RCORE  =    2.300    outmost cutoff radius                                                       
   RWIGS  =    2.300; RWIGS  =    1.217    wigner-seitz radius (au A)                               
   ENMAX  =  173.807; ENMIN  =  130.355 eV                                                          
   ICORE  =        3    local potential                                                             
   LCOR   =        T    correct aug charges                                                         
   LPAW   =        T    paw PP                                                                      
   EAUG   =  385.843                                                                                
   DEXC   =    0.000                                                                                
   RMAX   =    2.342    core radius for proj-oper                                                   
   RAUG   =    1.300    factor for augmentation sphere                                              
   RDEP   =    2.318    radius for radial grids                                                     
   RDEPT  =    2.103    core radius for aug-charge                                                  
                                                                                                    
   Atomic configuration                                                                             
   10 entries                                                                                       
     n  l   j            E        occ.                                                              
     1  0  0.50    -10959.8463   2.0000                                                             
     2  0  0.50     -1371.6056   2.0000                                                             
     2  1  1.50     -1198.4791   6.0000                                                             
     3  0  0.50      -168.4733   2.0000                                                             
     3  1  1.50      -115.6019   6.0000                                                             
     3  2  2.50       -29.3106  10.0000                                                             
     4  0  0.50       -11.7309   2.0000                                                             
     4  1  0.50        -3.8952   2.0000                                                             
     4  2  1.50        -4.0817   0.0000                                                             
     4  3  2.50        -4.0817   0.0000                                                             
   Description                                                                                      
     l       E           TYP  RCUT    TYP  RCUT                                                     
     0    -11.7309493     23  2.300                                                                 
     0     -7.4578696     23  2.300                                                                 
     1     -3.8952261     23  2.300                                                                 
     1      6.1178114     23  2.300                                                                 
     2     -4.0817478     23  2.300                                                                 
     3     -1.3605826      7  2.300                                                                 
  local pseudopotential read in
  partial core-charges read in
  partial kinetic energy density read in
  atomic valenz-charges read in
  non local Contribution for L=           0  read in
    real space projection operators read in
  non local Contribution for L=           0  read in
    real space projection operators read in
  non local Contribution for L=           1  read in
    real space projection operators read in
  non local Contribution for L=           1  read in
    real space projection operators read in
  non local Contribution for L=           2  read in
    real space projection operators read in
    PAW grid and wavefunctions read in
 
   number of l-projection  operators is LMAX  =           5
   number of lm-projection operators is LMMAX =          13
 
 Optimization of the real space projectors (new method)

 maximal supplied QI-value         = 19.84
 optimisation between [QCUT,QGAM] = [ 13.49, 26.99] = [ 50.98,203.92] Ry 
 Optimized for a Real-space Cutoff    1.07 Angstroem

   l    n(q)    QCUT    max X(q) W(low)/X(q) W(high)/X(q)  e(spline) 
   0      9    13.493   159.560    0.22E-03    0.15E-03    0.72E-07
   0      9    13.493   115.863    0.21E-03    0.15E-03    0.71E-07
   1      8    13.493    88.339    0.15E-03    0.11E-03    0.13E-06
   1      8    13.493    48.592    0.15E-03    0.10E-03    0.13E-06
 Optimization of the real space projectors (new method)

 maximal supplied QI-value         = 16.25
 optimisation between [QCUT,QGAM] = [ 13.49, 26.98] = [ 50.95,203.80] Ry 
 Optimized for a Real-space Cutoff    1.25 Angstroem

   l    n(q)    QCUT    max X(q) W(low)/X(q) W(high)/X(q)  e(spline) 
   0     10    13.489    65.336    0.91E-04    0.11E-03    0.34E-06
   0     10    13.489    52.220    0.89E-04    0.11E-03    0.34E-06
   1     10    13.489    36.409    0.22E-03    0.27E-03    0.14E-06
   1     10    13.489    21.334    0.21E-03    0.27E-03    0.14E-06
   2      9    13.489     4.673    0.11E-03    0.12E-03    0.19E-06
  PAW_PBE Si 05Jan2001                  :
 energy of atom  1       EATOM= -103.0669
 kinetic energy error for atom=    0.0003 (will be added to EATOM!!)
  PAW_PBE Ge 05Jan2001                  :
 energy of atom  2       EATOM= -104.9960
 kinetic energy error for atom=    0.0001 (will be added to EATOM!!)
 
 
 POSCAR: fcc Si+fcc Ge
  positions in direct lattice
  No initial velocities read in


 exchange-correlation table for PE
   RHO(1)=    0.500       N(1)  =     2000
   RHO(2)=  100.500       N(2)  =     4000
 


--------------------------------------------------------------------------------------------------------


 ion  position               nearest neighbor table
   1  0.000  0.000  0.000-  13 2.37  18 2.37  38 2.43  44 2.49
   2  0.500  0.000  0.089-  14 2.37  19 2.37  18 2.37  13 2.37
   3  0.000  0.000  0.178-  15 2.37  20 2.37  19 2.37  14 2.37
   4  0.500  0.000  0.266-  15 2.37  16 2.37  20 2.37  21 2.37
   5  0.000  0.000  0.355-  17 2.37  22 2.37  21 2.37  16 2.37
   6  0.500  0.000  0.444-  17 2.37  22 2.37  33 2.43  39 2.49  23 2.92
   7  0.500  0.500  0.000-  13 2.37  18 2.37  44 2.43  38 2.49
   8  0.000  0.500  0.089-  14 2.37  19 2.37  18 2.37  13 2.37
   9  0.500  0.500  0.178-  15 2.37  20 2.37  19 2.37  14 2.37
  10  0.000  0.500  0.266-  15 2.37  16 2.37  20 2.37  21 2.37
  11  0.500  0.500  0.355-  17 2.37  22 2.37  21 2.37  16 2.37
  12  0.000  0.500  0.444-  17 2.37  22 2.37  39 2.43  33 2.49  28 2.92
  13  0.250  0.250  0.044-   1 2.37   7 2.37   2 2.37   8 2.37
  14  0.750  0.250  0.133-   2 2.37   8 2.37   3 2.37   9 2.37
  15  0.250  0.250  0.222-   3 2.37   9 2.37   4 2.37  10 2.37
  16  0.750  0.250  0.311-   4 2.37  10 2.37   5 2.37  11 2.37
  17  0.250  0.250  0.400-   5 2.37  11 2.37   6 2.37  12 2.37  33 2.88
  18  0.750  0.750  0.044-   1 2.37   7 2.37   2 2.37   8 2.37
  19  0.250  0.750  0.133-   2 2.37   8 2.37   3 2.37   9 2.37
  20  0.750  0.750  0.222-   3 2.37   9 2.37   4 2.37  10 2.37
  21  0.250  0.750  0.311-   4 2.37  10 2.37   5 2.37  11 2.37
  22  0.750  0.750  0.400-   5 2.37  11 2.37   6 2.37  12 2.37  39 2.88
  23  0.528  0.019  0.539-  33 2.40  39 2.40  34 2.40  40 2.40   6 2.92
  24  0.028  0.019  0.630-  34 2.40  35 2.40  40 2.40  41 2.40
  25  0.528  0.019  0.722-  35 2.40  41 2.40  36 2.40  42 2.40
  26  0.028  0.019  0.814-  36 2.40  37 2.40  42 2.40  43 2.40
  27  0.528  0.019  0.906-  37 2.40  38 2.40  43 2.40  44 2.40
  28  0.028  0.519  0.539-  33 2.40  39 2.40  34 2.40  40 2.40  12 2.92
  29  0.528  0.519  0.630-  34 2.40  35 2.40  40 2.40  41 2.40
  30  0.028  0.519  0.722-  35 2.40  41 2.40  36 2.40  42 2.40
  31  0.528  0.519  0.814-  36 2.40  37 2.40  42 2.40  43 2.40
  32  0.028  0.519  0.906-  37 2.40  38 2.40  43 2.40  44 2.40
  33  0.278  0.269  0.493-  23 2.40  28 2.40   6 2.43  12 2.49  17 2.88
  34  0.778  0.269  0.584-  24 2.40  29 2.40  28 2.40  23 2.40
  35  0.278  0.269  0.676-  25 2.40  30 2.40  29 2.40  24 2.40
  36  0.778  0.269  0.768-  25 2.40  26 2.40  30 2.40  31 2.40
  37  0.278  0.269  0.860-  26 2.40  27 2.40  31 2.40  32 2.40
  38  0.778  0.269  0.951-  27 2.40  32 2.40   1 2.43   7 2.49
  39  0.778  0.769  0.493-  23 2.40  28 2.40  12 2.43   6 2.49  22 2.88
  40  0.278  0.769  0.584-  24 2.40  29 2.40  28 2.40  23 2.40
  41  0.778  0.769  0.676-  25 2.40  30 2.40  29 2.40  24 2.40
  42  0.278  0.769  0.768-  25 2.40  26 2.40  30 2.40  31 2.40
  43  0.778  0.769  0.860-  26 2.40  27 2.40  31 2.40  32 2.40
  44  0.278  0.769  0.951-  27 2.40  32 2.40   7 2.43   1 2.49
 
  LATTYP: Found a simple tetragonal cell.
 ALAT       =     5.4800000000
 C/A-ratio  =     5.6295620438
  
  Lattice vectors:
  
 A1 = (   5.4800000000,   0.0000000000,   0.0000000000)
 A2 = (   0.0000000000,   5.4800000000,   0.0000000000)
 A3 = (   0.0000000000,   0.0000000000,  30.8500000000)


Analysis of symmetry for initial positions (statically):
=====================================================================
 Subroutine PRICEL returns following result:
 
  LATTYP: Found a simple tetragonal cell.
 ALAT       =     3.8749451609
 C/A-ratio  =     7.9614029926
  
  Lattice vectors:
  
 A1 = (   2.7400000000,  -2.7400000000,   0.0000000000)
 A2 = (   2.7400000000,   2.7400000000,   0.0000000000)
 A3 = (   0.0000000000,   0.0000000000,  30.8500000000)
 
   2 primitive cells build up your supercell.
 

 Routine SETGRP: Setting up the symmetry group for a 
 simple tetragonal supercell.


 Subroutine GETGRP returns: Found  1 space group operations
 (whereof  1 operations were pure point group operations)
 out of a pool of 16 trial point group operations.


The static configuration has the point symmetry C_1 .


Analysis of symmetry for dynamics (positions and initial velocities):
=====================================================================
 Subroutine PRICEL returns following result:
 
  LATTYP: Found a simple tetragonal cell.
 ALAT       =     3.8749451609
 C/A-ratio  =     7.9614029926
  
  Lattice vectors:
  
 A1 = (   2.7400000000,  -2.7400000000,   0.0000000000)
 A2 = (   2.7400000000,   2.7400000000,   0.0000000000)
 A3 = (   0.0000000000,   0.0000000000,  30.8500000000)
 
   2 primitive cells build up your supercell.
 

 Routine SETGRP: Setting up the symmetry group for a 
 simple tetragonal supercell.


 Subroutine GETGRP returns: Found  1 space group operations
 (whereof  1 operations were pure point group operations)
 out of a pool of 16 trial point group operations.


The dynamic configuration has the point symmetry C_1 .


Analysis of structural, dynamic, and magnetic symmetry:
=====================================================================
 Subroutine PRICEL returns following result:
 
  LATTYP: Found a simple tetragonal cell.
 ALAT       =     3.8749451609
 C/A-ratio  =     7.9614029926
  
  Lattice vectors:
  
 A1 = (   2.7400000000,  -2.7400000000,   0.0000000000)
 A2 = (   2.7400000000,   2.7400000000,   0.0000000000)
 A3 = (   0.0000000000,   0.0000000000,  30.8500000000)
 
   2 primitive cells build up your supercell.
 

 Routine SETGRP: Setting up the symmetry group for a 
 simple tetragonal supercell.


 Subroutine GETGRP returns: Found  1 space group operations
 (whereof  1 operations were pure point group operations)
 out of a pool of 16 trial point group operations.


The overall configuration has the point symmetry C_1 .


 Subroutine INISYM returns: Found  1 space group operations
 (whereof  1 operations are pure point group operations),
 and found     2 'primitive' translations


----------------------------------------------------------------------------------------

                                     Primitive cell                                     

  volume of cell :     463.2189

  direct lattice vectors                    reciprocal lattice vectors
     2.740000000 -2.740000000  0.000000000     0.182481752 -0.182481752  0.000000000
     2.740000000  2.740000000  0.000000000     0.182481752  0.182481752  0.000000000
     0.000000000  0.000000000 30.850000000     0.000000000  0.000000000  0.032414911

  length of vectors
     3.874945161  3.874945161 30.850000000     0.258068168  0.258068168  0.032414911

  position of ions in fractional coordinates (direct lattice)
     0.000000000  0.000000000  0.000000000
     0.500000000  0.500000000  0.088816856
     0.000000000  0.000000000  0.177633712
     0.500000000  0.500000000  0.266450567
     0.000000000  0.000000000  0.355267423
     0.500000000  0.500000000  0.444084279
     1.000000000  0.500000000  0.044408428
     0.500000000  0.000000000  0.133225284
     1.000000000  0.500000000  0.222042139
     0.500000000  0.000000000  0.310858995
     1.000000000  0.500000000  0.399675851
     0.509259259  0.546296297  0.538573744
     0.009259259  0.046296297  0.630307942
     0.509259259  0.546296297  0.722042139
     0.009259259  0.046296297  0.813776337
     0.509259259  0.546296297  0.905510535
     0.009259259  0.546296297  0.492706645
     0.509259259  0.046296297  0.584440843
     0.009259259  0.546296297  0.676175041
     0.509259259  0.046296297  0.767909238
     0.009259259  0.546296297  0.859643436
     0.509259259  0.046296297  0.951377634

  ion indices of the primitive-cell ions
   primitive index   ion index
                 1           1
                 2           2
                 3           3
                 4           4
                 5           5
                 6           6
                 7          13
                 8          14
                 9          15
                10          16
                11          17
                12          23
                13          24
                14          25
                15          26
                16          27
                17          39
                18          34
                19          41
                20          36
                21          43
                22          38

----------------------------------------------------------------------------------------

 
 
 KPOINTS: Automatic KPOINTS generated             

Automatic generation of k-mesh.
 Grid dimensions read from file:
 generate k-points for:    6    6    1

 Generating k-lattice:

  Cartesian coordinates                     Fractional coordinates (reciprocal lattice)
     0.030413625  0.000000000  0.000000000     0.166666667  0.000000000  0.000000000
     0.000000000  0.030413625  0.000000000     0.000000000  0.166666667  0.000000000
     0.000000000  0.000000000  0.032414911     0.000000000  0.000000000  1.000000000

  Length of vectors
     0.030413625  0.030413625  0.032414911

  Shift w.r.t. Gamma in fractional coordinates (k-lattice)
     0.000000000  0.000000000  0.000000000

 
 Subroutine IBZKPT returns following result:
 ===========================================
 
 Found     20 irreducible k-points:
 
 Following reciprocal coordinates:
            Coordinates               Weight
  0.000000  0.000000  0.000000      1.000000
  0.166667  0.000000  0.000000      2.000000
  0.000000  0.166667  0.000000      2.000000
  0.333333  0.000000  0.000000      2.000000
  0.000000  0.333333  0.000000      2.000000
  0.500000  0.000000  0.000000      1.000000
  0.000000  0.500000  0.000000      1.000000
  0.166667  0.166667  0.000000      2.000000
 -0.166667  0.166667  0.000000      2.000000
  0.333333  0.166667  0.000000      2.000000
 -0.166667  0.333333  0.000000      2.000000
 -0.333333  0.166667  0.000000      2.000000
  0.166667  0.333333  0.000000      2.000000
  0.500000  0.166667  0.000000      2.000000
 -0.166667  0.500000  0.000000      2.000000
  0.333333  0.333333  0.000000      2.000000
 -0.333333  0.333333  0.000000      2.000000
  0.500000  0.333333  0.000000      2.000000
 -0.333333  0.500000  0.000000      2.000000
  0.500000  0.500000  0.000000      1.000000
 
 Following cartesian coordinates:
            Coordinates               Weight
  0.000000  0.000000  0.000000      1.000000
  0.030414  0.000000  0.000000      2.000000
  0.000000  0.030414  0.000000      2.000000
  0.060827  0.000000  0.000000      2.000000
  0.000000  0.060827  0.000000      2.000000
  0.091241  0.000000  0.000000      1.000000
  0.000000  0.091241  0.000000      1.000000
  0.030414  0.030414  0.000000      2.000000
 -0.030414  0.030414  0.000000      2.000000
  0.060827  0.030414  0.000000      2.000000
 -0.030414  0.060827  0.000000      2.000000
 -0.060827  0.030414  0.000000      2.000000
  0.030414  0.060827  0.000000      2.000000
  0.091241  0.030414  0.000000      2.000000
 -0.030414  0.091241  0.000000      2.000000
  0.060827  0.060827  0.000000      2.000000
 -0.060827  0.060827  0.000000      2.000000
  0.091241  0.060827  0.000000      2.000000
 -0.060827  0.091241  0.000000      2.000000
  0.091241  0.091241  0.000000      1.000000
 


--------------------------------------------------------------------------------------------------------




 Dimension of arrays:
   k-points           NKPTS =     20   k-points in BZ     NKDIM =     20   number of bands    NBANDS=    106
   number of dos      NEDOS =    301   number of ions     NIONS =     44
   non local maximal  LDIM  =      5   non local SUM 2l+1 LMDIM =     13
   total plane-waves  NPLWV = 259200
   max r-space proj   IRMAX =   2317   max aug-charges    IRDMAX= 121835
   dimension x,y,z NGX =    36 NGY =   36 NGZ =  200
   dimension x,y,z NGXF=    72 NGYF=   72 NGZF=  400
   support grid    NGXF=   144 NGYF=  144 NGZF=  800
   ions per type =              22  22
   NGX,Y,Z   is equivalent  to a cutoff of  10.92, 10.92, 10.78 a.u.
   NGXF,Y,Z  is equivalent  to a cutoff of  21.84, 21.84, 21.56 a.u.

 SYSTEM =  Si001 and Ge001 interface calculation   
 POSCAR =  fcc Si+fcc Ge                           

 Startparameter for this run:
   NWRITE =      2    write-flag & timer
   PREC   = normal    normal or accurate (medium, high low for compatibility)
   ISTART =      0    job   : 0-new  1-cont  2-samecut
   ICHARG =      2    charge: 1-file 2-atom 10-const
   ISPIN  =      2    spin polarized calculation?
   LNONCOLLINEAR =      F non collinear calculations
   LSORBIT =      F    spin-orbit coupling
   INIWAV =      1    electr: 0-lowe 1-rand  2-diag
   LASPH  =      T    aspherical Exc in radial PAW
 Electronic Relaxation 1
   ENCUT  =  700.0 eV  51.45 Ry    7.17 a.u.  11.82 11.82 66.55*2*pi/ulx,y,z
   ENINI  =  700.0     initial cutoff
   ENAUG  =  900.0 eV  augmentation charge cutoff
   NELM   =    100;   NELMIN=  2; NELMDL= -5     # of ELM steps 
   EDIFF  = 0.1E-06   stopping-criterion for ELM
   LREAL  =      T    real-space projection
   NLSPLINE    = F    spline interpolate recip. space projectors
   LCOMPAT=      F    compatible to vasp.4.4
   GGA_COMPAT  = T    GGA compatible to vasp.4.4-vasp.4.6
   LMAXPAW     = -100 max onsite density
   LMAXMIX     =    6 max onsite mixed and CHGCAR
   VOSKOWN=      0    Vosko Wilk Nusair interpolation
   ROPT   =   -0.00050  -0.00050
 Ionic relaxation
   EDIFFG = 0.1E-05   stopping-criterion for IOM
   NSW    =      0    number of steps for IOM
   NBLOCK =      1;   KBLOCK =      1    inner block; outer block 
   IBRION =     -1    ionic relax: 0-MD 1-quasi-New 2-CG
   NFREE  =      0    steps in history (QN), initial steepest desc. (CG)
   ISIF   =      2    stress and relaxation
   IWAVPR =     10    prediction:  0-non 1-charg 2-wave 3-comb
   ISYM   =      2    0-nonsym 1-usesym 2-fastsym
   LCORR  =      T    Harris-Foulkes like correction to forces

   POTIM  = 0.5000    time-step for ionic-motion
   TEIN   =    0.0    initial temperature
   TEBEG  =    0.0;   TEEND  =   0.0 temperature during run
   SMASS  =  -3.00    Nose mass-parameter (am)
   estimated Nose-frequenzy (Omega)   =  0.10E-29 period in steps = 0.13E+47 mass=  -0.686E-27a.u.
   SCALEE = 1.0000    scale energy and forces
   NPACO  =    256;   APACO  = 10.0  distance and # of slots for P.C.
   PSTRESS=    0.0 pullay stress

  Mass of Ions in am
   POMASS =  28.09 72.61
  Ionic Valenz
   ZVAL   =   4.00  4.00
  Atomic Wigner-Seitz radii
   RWIGS  =  -1.00 -1.00
  virtual crystal weights 
   VCA    =   1.00  1.00
   NELECT =     176.0000    total number of electrons
   NUPDOWN=       1.0000    fix difference up-down

 DOS related values:
   EMIN   =  10.00;   EMAX   =-10.00  energy-range for DOS
   EFERMI =   0.00;   METHOD = LEGACY      
   ISMEAR =     0;   SIGMA  =   0.01  broadening in eV -4-tet -1-fermi 0-gaus

 Electronic relaxation 2 (details)
   IALGO  =     38    algorithm
   LDIAG  =      T    sub-space diagonalisation (order eigenvalues)
   LSUBROT=      F    optimize rotation matrix (better conditioning)
   TURBO    =      0    0=normal 1=particle mesh
   IRESTART =      0    0=no restart 2=restart with 2 vectors
   NREBOOT  =      0    no. of reboots
   NMIN     =      0    reboot dimension
   EREF     =   0.00    reference energy to select bands
   IMIX   =      4    mixing-type and parameters
     AMIX     =   0.60;   BMIX     =  1.00
     AMIX_MAG =   2.40;   BMIX_MAG =  1.00
     AMIN     =   0.10
     WC   =   100.;   INIMIX=   1;  MIXPRE=   1;  MAXMIX= -45

 Intra band minimization:
   WEIMIN = 0.0000     energy-eigenvalue tresh-hold
   EBREAK =  0.24E-09  absolut break condition
   DEPER  =   0.30     relativ break condition  

   TIME   =   0.40     timestep for ELM

  volume/ion in A,a.u.               =      21.06       142.09
  Fermi-wavevector in a.u.,A,eV,Ry     =   0.941110  1.778440 12.050512  0.885688
  Thomas-Fermi vector in A             =   2.068588
 
 Write flags
   LWAVE        =      F    write WAVECAR
   LDOWNSAMPLE  =      F    k-point downsampling of WAVECAR
   LCHARG       =      T    write CHGCAR
   LVTOT        =      F    write LOCPOT, total local potential
   LVHAR        =      T    write LOCPOT, Hartree potential only
   WRT_POTENTIAL=  hartree ionic  ! write potential to hdf5 file
   LELF         =      F    write electronic localiz. function (ELF)
   LORBIT       =      0    0 simple, 1 ext, 2 COOP (PROOUT), +10 PAW based schemes


 Dipole corrections
   LMONO      =      F    monopole corrections only (constant potential shift)
   LDIPOL     =      F    correct potential (dipole corrections)
   IDIPOL     =      0    1-x, 2-y, 3-z, 4-all directions 
   EPSILON    =  1.0000000 bulk dielectric constant
   LVACPOTAV  =      F  vacuum potentials using an averaging scheme for the charge density
   VACPOTFLAT =  0.1000000 required flatness to determine vacuum potential
 Exchange correlation treatment:
   GGA     = PE    functional components
   XC_C    = 1    coefficients multiplying the functional components
   LIBXC   =     F    Libxc                    
   VOSKOWN =     0    Vosko Wilk Nusair interpolation
   LHFCALC =     F    Hartree Fock is set to
   LHFONE  =     F    Hartree Fock one center treatment
   AEXX    =    0.0000 exact exchange contribution

 Parameters of functionals:
   PE:
     No parameter
 
 Van der Waals corrections
   IVDW    =     0    specifies the selected vdW correction

 Linear response parameters
   LEPSILON=     F    determine dielectric tensor
   LRPA    =     F    only Hartree local field effects (RPA)
   LNABLA  =     F    use nabla operator in PAW spheres
   LVEL    =     F    velocity operator in full k-point grid
   CSHIFT  =0.1000    complex shift for real part using Kramers Kronig
   OMEGAMAX=  -1.0    maximum frequency
   DEG_THRESHOLD= 0.2000000E-02 threshold for treating states as degnerate
   RTIME   =   -0.100 relaxation time in fs
  (WPLASMAI=    0.000 imaginary part of plasma frequency in eV, 0.658/RTIME)
   DFIELD  = 0.0000000 0.0000000 0.0000000 field for delta impulse in time
 
  Optional k-point grid parameters
   LKPOINTS_OPT  =     F    use optional k-point grid
   KPOINTS_OPT_MODE=     1    mode for optional k-point grid
 
 Orbital magnetization related:
   ORBITALMAG=     F  switch on orbital magnetization
   LCHIMAG   =     F  perturbation theory with respect to B field
   DQ        =  0.001000  dq finite difference perturbation B field
   LLRAUG    =     F  two centre corrections for induced B field
   LBONE     =     F  B-component reconstruction in AE one-centre
   LVGVCALC  =     T  calculate vGv susceptibility
   LVGVAPPL  =     F  apply vGv susceptibility instead of pGv for G=0

 Random number generation:
   RANDOM_GENERATOR = DEFAULT
   PCG_SEED         = not used


--------------------------------------------------------------------------------------------------------


 Static calculation
 charge density and potential will be updated during run
 spin polarized calculation
 Variant of blocked Davidson
 Davidson routine will perform the subspace rotation
 perform sub-space diagonalisation
    after iterative eigenvector-optimisation
 modified Broyden-mixing scheme, WC =      100.0
 initial mixing is a Kerker type mixing with AMIX =  0.6000 and BMIX =      1.0000
 Hartree-type preconditioning will be used
 using additional bands           18
 real space projection scheme for non local part
 use partial core corrections
 calculate Harris-corrections to forces 
   (improved forces if not selfconsistent)
 use gradient corrections 
 use of overlap-Matrix (Vanderbilt PP)
 Gauss-broadening in eV      SIGMA  =   0.01


--------------------------------------------------------------------------------------------------------


  energy-cutoff  :      700.00
  volume of cell :      926.44
      direct lattice vectors                 reciprocal lattice vectors
     5.480000000  0.000000000  0.000000000     0.182481752  0.000000000  0.000000000
     0.000000000  5.480000000  0.000000000     0.000000000  0.182481752  0.000000000
     0.000000000  0.000000000 30.850000000     0.000000000  0.000000000  0.032414911

  length of vectors
     5.480000000  5.480000000 30.850000000     0.182481752  0.182481752  0.032414911


 
 k-points in units of 2pi/SCALE and weight: Automatic KPOINTS generated             
   0.00000000  0.00000000  0.00000000       0.028
   0.03041363  0.00000000  0.00000000       0.056
   0.00000000  0.03041363  0.00000000       0.056
   0.06082725  0.00000000  0.00000000       0.056
   0.00000000  0.06082725  0.00000000       0.056
   0.09124088  0.00000000  0.00000000       0.028
   0.00000000  0.09124088  0.00000000       0.028
   0.03041363  0.03041363  0.00000000       0.056
  -0.03041363  0.03041363  0.00000000       0.056
   0.06082725  0.03041363  0.00000000       0.056
  -0.03041363  0.06082725  0.00000000       0.056
  -0.06082725  0.03041363  0.00000000       0.056
   0.03041363  0.06082725  0.00000000       0.056
   0.09124088  0.03041363  0.00000000       0.056
  -0.03041363  0.09124088  0.00000000       0.056
   0.06082725  0.06082725  0.00000000       0.056
  -0.06082725  0.06082725  0.00000000       0.056
   0.09124088  0.06082725  0.00000000       0.056
  -0.06082725  0.09124088  0.00000000       0.056
   0.09124088  0.09124088  0.00000000       0.028
 
 k-points in reciprocal lattice and weights: Automatic KPOINTS generated             
   0.00000000  0.00000000  0.00000000       0.028
   0.16666667  0.00000000  0.00000000       0.056
   0.00000000  0.16666667  0.00000000       0.056
   0.33333333  0.00000000  0.00000000       0.056
   0.00000000  0.33333333  0.00000000       0.056
   0.50000000  0.00000000  0.00000000       0.028
   0.00000000  0.50000000  0.00000000       0.028
   0.16666667  0.16666667  0.00000000       0.056
  -0.16666667  0.16666667  0.00000000       0.056
   0.33333333  0.16666667  0.00000000       0.056
  -0.16666667  0.33333333  0.00000000       0.056
  -0.33333333  0.16666667  0.00000000       0.056
   0.16666667  0.33333333  0.00000000       0.056
   0.50000000  0.16666667  0.00000000       0.056
  -0.16666667  0.50000000  0.00000000       0.056
   0.33333333  0.33333333  0.00000000       0.056
  -0.33333333  0.33333333  0.00000000       0.056
   0.50000000  0.33333333  0.00000000       0.056
  -0.33333333  0.50000000  0.00000000       0.056
   0.50000000  0.50000000  0.00000000       0.028
 
 position of ions in fractional coordinates (direct lattice) 
   0.00000000  0.00000000  0.00000000
   0.50000000  0.00000000  0.08881686
   0.00000000  0.00000000  0.17763371
   0.50000000  0.00000000  0.26645057
   0.00000000  0.00000000  0.35526742
   0.50000000  0.00000000  0.44408428
   0.50000000  0.50000000  0.00000000
   0.00000000  0.50000000  0.08881686
   0.50000000  0.50000000  0.17763371
   0.00000000  0.50000000  0.26645057
   0.50000000  0.50000000  0.35526742
   0.00000000  0.50000000  0.44408428
   0.25000000  0.25000000  0.04440843
   0.75000000  0.25000000  0.13322528
   0.25000000  0.25000000  0.22204214
   0.75000000  0.25000000  0.31085899
   0.25000000  0.25000000  0.39967585
   0.75000000  0.75000000  0.04440843
   0.25000000  0.75000000  0.13322528
   0.75000000  0.75000000  0.22204214
   0.25000000  0.75000000  0.31085899
   0.75000000  0.75000000  0.39967585
   0.52777778  0.01851852  0.53857374
   0.02777778  0.01851852  0.63030794
   0.52777778  0.01851852  0.72204214
   0.02777778  0.01851852  0.81377634
   0.52777778  0.01851852  0.90551053
   0.02777778  0.51851852  0.53857374
   0.52777778  0.51851852  0.63030794
   0.02777778  0.51851852  0.72204214
   0.52777778  0.51851852  0.81377634
   0.02777778  0.51851852  0.90551053
   0.27777778  0.26851852  0.49270664
   0.77777778  0.26851852  0.58444084
   0.27777778  0.26851852  0.67617504
   0.77777778  0.26851852  0.76790924
   0.27777778  0.26851852  0.85964344
   0.77777778  0.26851852  0.95137763
   0.77777778  0.76851852  0.49270664
   0.27777778  0.76851852  0.58444084
   0.77777778  0.76851852  0.67617504
   0.27777778  0.76851852  0.76790924
   0.77777778  0.76851852  0.85964344
   0.27777778  0.76851852  0.95137763
 
 position of ions in cartesian coordinates  (Angst):
   0.00000000  0.00000000  0.00000000
   2.74000000  0.00000000  2.74000001
   0.00000000  0.00000000  5.48000002
   2.74000000  0.00000000  8.21999999
   0.00000000  0.00000000 10.96000000
   2.74000000  0.00000000 13.70000001
   2.74000000  2.74000000  0.00000000
   0.00000000  2.74000000  2.74000001
   2.74000000  2.74000000  5.48000002
   0.00000000  2.74000000  8.21999999
   2.74000000  2.74000000 10.96000000
   0.00000000  2.74000000 13.70000001
   1.37000000  1.37000000  1.37000000
   4.11000000  1.37000000  4.11000001
   1.37000000  1.37000000  6.84999999
   4.11000000  1.37000000  9.59000000
   1.37000000  1.37000000 12.33000000
   4.11000000  4.11000000  1.37000000
   1.37000000  4.11000000  4.11000001
   4.11000000  4.11000000  6.84999999
   1.37000000  4.11000000  9.59000000
   4.11000000  4.11000000 12.33000000
   2.89222222  0.10148148 16.61500000
   0.15222222  0.10148148 19.44500001
   2.89222222  0.10148148 22.27499999
   0.15222222  0.10148148 25.10500000
   2.89222222  0.10148148 27.93500000
   0.15222222  2.84148148 16.61500000
   2.89222222  2.84148148 19.44500001
   0.15222222  2.84148148 22.27499999
   2.89222222  2.84148148 25.10500000
   0.15222222  2.84148148 27.93500000
   1.52222222  1.47148148 15.20000000
   4.26222222  1.47148148 18.03000001
   1.52222222  1.47148148 20.86000001
   4.26222222  1.47148148 23.68999999
   1.52222222  1.47148148 26.52000000
   4.26222222  1.47148148 29.35000001
   4.26222222  4.21148148 15.20000000
   1.52222222  4.21148148 18.03000001
   4.26222222  4.21148148 20.86000001
   1.52222222  4.21148148 23.68999999
   4.26222222  4.21148148 26.52000000
   1.52222222  4.21148148 29.35000001
 


--------------------------------------------------------------------------------------------------------


 k-point     1 :   0.0000 0.0000 0.0000  plane waves:   38977
 k-point     2 :   0.1667 0.0000 0.0000  plane waves:   38953
 k-point     3 :   0.0000 0.1667 0.0000  plane waves:   38953
 k-point     4 :   0.3333 0.0000 0.0000  plane waves:   38902
 k-point     5 :   0.0000 0.3333 0.0000  plane waves:   38902
 k-point     6 :   0.5000 0.0000 0.0000  plane waves:   38940
 k-point     7 :   0.0000 0.5000 0.0000  plane waves:   38940
 k-point     8 :   0.1667 0.1667 0.0000  plane waves:   38875
 k-point     9 :  -0.1667 0.1667 0.0000  plane waves:   38875
 k-point    10 :   0.3333 0.1667 0.0000  plane waves:   38931
 k-point    11 :  -0.1667 0.3333 0.0000  plane waves:   38931
 k-point    12 :  -0.3333 0.1667 0.0000  plane waves:   38931
 k-point    13 :   0.1667 0.3333 0.0000  plane waves:   38931
 k-point    14 :   0.5000 0.1667 0.0000  plane waves:   38976
 k-point    15 :  -0.1667 0.5000 0.0000  plane waves:   38976
 k-point    16 :   0.3333 0.3333 0.0000  plane waves:   39017
 k-point    17 :  -0.3333 0.3333 0.0000  plane waves:   39017
 k-point    18 :   0.5000 0.3333 0.0000  plane waves:   39010
 k-point    19 :  -0.3333 0.5000 0.0000  plane waves:   39010
 k-point    20 :   0.5000 0.5000 0.0000  plane waves:   39000

 maximum and minimum number of plane-waves per node :      2469     2402

 maximum number of plane-waves:     39017
 maximum index in each direction: 
   IXMAX=   12   IYMAX=   11   IZMAX=   66
   IXMIN=  -12   IYMIN=  -12   IZMIN=  -66


 real space projection operators:
  total allocation   :       6828.28 KBytes
  max/ min on nodes  :        576.70        339.41


 parallel 3D FFT for wavefunctions:
    minimum data exchange during FFTs selected (reduces bandwidth)
 parallel 3D FFT for charge:
    minimum data exchange during FFTs selected (reduces bandwidth)


 total amount of memory used by VASP MPI-rank0   233994. kBytes
=======================================================================

   base      :      30000. kBytes
   nonlr-proj:       2414. kBytes
   fftplans  :      19857. kBytes
   grid      :      13297. kBytes
   one-center:         48. kBytes
   wavefun   :     168378. kBytes
 
     INWAV:  cpu time      0.0000: real time      0.0002
 Broyden mixing: mesh for mixing (old mesh)
   NGX = 23   NGY = 23   NGZ =133
  (NGX  = 72   NGY  = 72   NGZ  =400)
  gives a total of  70357 points

 initial charge density was supplied:
 charge density of overlapping atoms calculated
 number of electron     176.0000000 magnetization       1.0000000
 keeping initial charge density in first step


--------------------------------------------------------------------------------------------------------


 Maximum index for non-local projection operator          328
 Maximum index for augmentation-charges         7624 (set IRDMAX)


--------------------------------------------------------------------------------------------------------


 First call to EWALD:  gamma=   0.182
 Maximum number of real-space cells 5x 5x 1
 Maximum number of reciprocal cells 2x 2x 8

    FEWALD:  cpu time      0.0023: real time      0.0023


--------------------------------------- Ionic step        1  -------------------------------------------




--------------------------------------- Iteration      1(   1)  ---------------------------------------


    POTLOK:  cpu time      0.1911: real time      0.1927
    SETDIJ:  cpu time      1.6223: real time      1.6296
     EDDAV:  cpu time     19.5809: real time     19.7474
       DOS:  cpu time      0.0023: real time      0.0023
    --------------------------------------------
      LOOP:  cpu time     21.3967: real time     21.5721

 eigenvalue-minimisations  :  8480
 total energy-change (2. order) : 0.7394807E+03  (-0.7882804E+04)
 number of electron     176.0000000 magnetization       1.0000000
 augmentation part      176.0000000 magnetization       1.0000000

 Free energy of the ion-electron system (eV)
  ---------------------------------------------------
  alpha Z        PSCENC =       234.88029429
  Ewald energy   TEWEN  =     -4911.04644276
  -Hartree energ DENC   =      -285.57575770
  -exchange      EXHF   =         0.00000000
  -V(xc)+E(xc)   XCENC  =      -369.08219460
  PAW double counting   =      3877.91595220    -3172.13693009
  entropy T*S    EENTRO =        -0.00062833
  eigenvalues    EBANDS =       787.15070173
  atomic energy  EATOM  =      4577.37573764
  Solvation  Ediel_sol  =         0.00000000
  ---------------------------------------------------
  free energy    TOTEN  =       739.48073238 eV

  energy without entropy =      739.48136071  energy(sigma->0) =      739.48104654


--------------------------------------------------------------------------------------------------------




--------------------------------------- Iteration      1(   2)  ---------------------------------------


     EDDAV:  cpu time     22.1096: real time     22.3205
       DOS:  cpu time      0.0022: real time      0.0022
    --------------------------------------------
      LOOP:  cpu time     22.1118: real time     22.3227

 eigenvalue-minimisations  :  9978
 total energy-change (2. order) :-0.8715909E+03  (-0.8394740E+03)
 number of electron     176.0000000 magnetization       1.0000000
 augmentation part      176.0000000 magnetization       1.0000000

 Free energy of the ion-electron system (eV)
  ---------------------------------------------------
  alpha Z        PSCENC =       234.88029429
  Ewald energy   TEWEN  =     -4911.04644276
  -Hartree energ DENC   =      -285.57575770
  -exchange      EXHF   =         0.00000000
  -V(xc)+E(xc)   XCENC  =      -369.08219460
  PAW double counting   =      3877.91595220    -3172.13693009
  entropy T*S    EENTRO =        -0.00021089
  eigenvalues    EBANDS =       -84.44064070
  atomic energy  EATOM  =      4577.37573764
  Solvation  Ediel_sol  =         0.00000000
  ---------------------------------------------------
  free energy    TOTEN  =      -132.11019261 eV

  energy without entropy =     -132.10998172  energy(sigma->0) =     -132.11008716


--------------------------------------------------------------------------------------------------------




--------------------------------------- Iteration      1(   3)  ---------------------------------------


     EDDAV:  cpu time     22.8116: real time     23.0328
       DOS:  cpu time      0.0023: real time      0.0023
    --------------------------------------------
      LOOP:  cpu time     22.8140: real time     23.0351

 eigenvalue-minimisations  : 10336
 total energy-change (2. order) :-0.7852874E+02  (-0.7618712E+02)
 number of electron     176.0000000 magnetization       1.0000000
 augmentation part      176.0000000 magnetization       1.0000000

 Free energy of the ion-electron system (eV)
  ---------------------------------------------------
  alpha Z        PSCENC =       234.88029429
  Ewald energy   TEWEN  =     -4911.04644276
  -Hartree energ DENC   =      -285.57575770
  -exchange      EXHF   =         0.00000000
  -V(xc)+E(xc)   XCENC  =      -369.08219460
  PAW double counting   =      3877.91595220    -3172.13693009
  entropy T*S    EENTRO =        -0.00065958
  eigenvalues    EBANDS =      -162.96892841
  atomic energy  EATOM  =      4577.37573764
  Solvation  Ediel_sol  =         0.00000000
  ---------------------------------------------------
  free energy    TOTEN  =      -210.63892901 eV

  energy without entropy =     -210.63826943  energy(sigma->0) =     -210.63859922


--------------------------------------------------------------------------------------------------------




--------------------------------------- Iteration      1(   4)  ---------------------------------------


     EDDAV:  cpu time     22.5577: real time     22.7763
       DOS:  cpu time      0.0023: real time      0.0024
    --------------------------------------------
      LOOP:  cpu time     22.5600: real time     22.7787

 eigenvalue-minimisations  : 10192
 total energy-change (2. order) :-0.2519164E+01  (-0.2492279E+01)
 number of electron     176.0000000 magnetization       1.0000000
 augmentation part      176.0000000 magnetization       1.0000000

 Free energy of the ion-electron system (eV)
  ---------------------------------------------------
  alpha Z        PSCENC =       234.88029429
  Ewald energy   TEWEN  =     -4911.04644276
  -Hartree energ DENC   =      -285.57575770
  -exchange      EXHF   =         0.00000000
  -V(xc)+E(xc)   XCENC  =      -369.08219460
  PAW double counting   =      3877.91595220    -3172.13693009
  entropy T*S    EENTRO =        -0.00102367
  eigenvalues    EBANDS =      -165.48772849
  atomic energy  EATOM  =      4577.37573764
  Solvation  Ediel_sol  =         0.00000000
  ---------------------------------------------------
  free energy    TOTEN  =      -213.15809318 eV

  energy without entropy =     -213.15706951  energy(sigma->0) =     -213.15758134


--------------------------------------------------------------------------------------------------------




--------------------------------------- Iteration      1(   5)  ---------------------------------------


     EDDAV:  cpu time     23.3047: real time     23.5312
       DOS:  cpu time      0.0023: real time      0.0023
    CHARGE:  cpu time      1.3246: real time      1.3326
    MIXING:  cpu time      0.0065: real time      0.0066
    --------------------------------------------
      LOOP:  cpu time     24.6382: real time     24.8728

 eigenvalue-minimisations  : 10640
 total energy-change (2. order) :-0.7791595E-01  (-0.7760665E-01)
 number of electron     175.9999999 magnetization       1.0000000
 augmentation part      -19.6642271 magnetization      -0.0736601

 Broyden mixing:
  rms(total) = 0.18637E+01    rms(broyden)= 0.18637E+01
  rms(prec ) = 0.18998E+01
  weight for this iteration     100.00

 Free energy of the ion-electron system (eV)
  ---------------------------------------------------
  alpha Z        PSCENC =       234.88029429
  Ewald energy   TEWEN  =     -4911.04644276
  -Hartree energ DENC   =      -285.57575770
  -exchange      EXHF   =         0.00000000
  -V(xc)+E(xc)   XCENC  =      -369.08219460
  PAW double counting   =      3877.91595220    -3172.13693009
  entropy T*S    EENTRO =        -0.00104735
  eigenvalues    EBANDS =      -165.56562075
  atomic energy  EATOM  =      4577.37573764
  Solvation  Ediel_sol  =         0.00000000
  ---------------------------------------------------
  free energy    TOTEN  =      -213.23600913 eV

  energy without entropy =     -213.23496177  energy(sigma->0) =     -213.23548545


--------------------------------------------------------------------------------------------------------




--------------------------------------- Iteration      1(   6)  ---------------------------------------


    POTLOK:  cpu time      0.1888: real time      0.1907
    SETDIJ:  cpu time      1.6290: real time      1.6362
     EDDAV:  cpu time     22.8269: real time     23.0220
       DOS:  cpu time      0.0024: real time      0.0024
    CHARGE:  cpu time      1.3227: real time      1.3298
    MIXING:  cpu time      0.0064: real time      0.0064
    --------------------------------------------
      LOOP:  cpu time     25.9762: real time     26.1876

 eigenvalue-minimisations  : 10328
 total energy-change (2. order) : 0.2776183E+01  (-0.3642309E+00)
 number of electron     175.9999999 magnetization       1.0000000
 augmentation part      -19.5511666 magnetization      -0.0866000

 Broyden mixing:
  rms(total) = 0.85841E+00    rms(broyden)= 0.85841E+00
  rms(prec ) = 0.89306E+00
  weight for this iteration     100.00

 eigenvalues of (default mixing * dielectric matrix)
  average eigenvalue GAMMA=   1.7585
  1.7585

 Free energy of the ion-electron system (eV)
  ---------------------------------------------------
  alpha Z        PSCENC =       234.88029429
  Ewald energy   TEWEN  =     -4911.04644276
  -Hartree energ DENC   =      -329.12323771
  -exchange      EXHF   =         0.00000000
  -V(xc)+E(xc)   XCENC  =      -361.99310413
  PAW double counting   =      8058.73134134    -7356.48823803
  entropy T*S    EENTRO =        -0.00045368
  eigenvalues    EBANDS =      -122.79572265
  atomic energy  EATOM  =      4577.37573764
  Solvation  Ediel_sol  =         0.00000000
  ---------------------------------------------------
  free energy    TOTEN  =      -210.45982567 eV

  energy without entropy =     -210.45937199  energy(sigma->0) =     -210.45959883


--------------------------------------------------------------------------------------------------------




--------------------------------------- Iteration      1(   7)  ---------------------------------------


    POTLOK:  cpu time      0.1891: real time      0.1907
    SETDIJ:  cpu time      1.6379: real time      1.6463
     EDDAV:  cpu time     24.1053: real time     24.3364
       DOS:  cpu time      0.0023: real time      0.0023
    CHARGE:  cpu time      1.3259: real time      1.3338
    MIXING:  cpu time      0.0064: real time      0.0064
    --------------------------------------------
      LOOP:  cpu time     27.2668: real time     27.5159

 eigenvalue-minimisations  : 11094
 total energy-change (2. order) :-0.1582121E+01  (-0.1007336E+01)
 number of electron     175.9999999 magnetization       1.0000000
 augmentation part      -19.3182580 magnetization      -0.0783660

 Broyden mixing:
  rms(total) = 0.43528E+00    rms(broyden)= 0.43528E+00
  rms(prec ) = 0.96707E+00
  weight for this iteration     100.00

 eigenvalues of (default mixing * dielectric matrix)
  average eigenvalue GAMMA=   1.1230
  1.8380  0.4080

 Free energy of the ion-electron system (eV)
  ---------------------------------------------------
  alpha Z        PSCENC =       234.88029429
  Ewald energy   TEWEN  =     -4911.04644276
  -Hartree energ DENC   =      -358.09919325
  -exchange      EXHF   =         0.00000000
  -V(xc)+E(xc)   XCENC  =      -356.55426868
  PAW double counting   =     12666.02064097   -11966.42076566
  entropy T*S    EENTRO =        -0.00046828
  eigenvalues    EBANDS =       -98.19748116
  atomic energy  EATOM  =      4577.37573764
  Solvation  Ediel_sol  =         0.00000000
  ---------------------------------------------------
  free energy    TOTEN  =      -212.04194689 eV

  energy without entropy =     -212.04147861  energy(sigma->0) =     -212.04171275


--------------------------------------------------------------------------------------------------------




--------------------------------------- Iteration      1(   8)  ---------------------------------------


    POTLOK:  cpu time      0.1873: real time      0.1891
    SETDIJ:  cpu time      1.6363: real time      1.6445
     EDDAV:  cpu time     27.2502: real time     27.5139
       DOS:  cpu time      0.0022: real time      0.0022
    CHARGE:  cpu time      1.3218: real time      1.3301
    MIXING:  cpu time      0.0068: real time      0.0068
    --------------------------------------------
      LOOP:  cpu time     30.4046: real time     30.6867

 eigenvalue-minimisations  : 12904
 total energy-change (2. order) : 0.1944525E+01  (-0.7955815E+00)
 number of electron     175.9999999 magnetization       1.0000000
 augmentation part      -19.3518147 magnetization      -0.0915310

 Broyden mixing:
  rms(total) = 0.16756E+00    rms(broyden)= 0.16756E+00
  rms(prec ) = 0.25792E+00
  weight for this iteration     100.00

 eigenvalues of (default mixing * dielectric matrix)
  average eigenvalue GAMMA=   0.9763
  1.9093  0.6562  0.3633

 Free energy of the ion-electron system (eV)
  ---------------------------------------------------
  alpha Z        PSCENC =       234.88029429
  Ewald energy   TEWEN  =     -4911.04644276
  -Hartree energ DENC   =      -362.30529149
  -exchange      EXHF   =         0.00000000
  -V(xc)+E(xc)   XCENC  =      -355.98559513
  PAW double counting   =     13541.53770237   -12842.22011880
  entropy T*S    EENTRO =        -0.00028876
  eigenvalues    EBANDS =       -92.33341911
  atomic energy  EATOM  =      4577.37573764
  Solvation  Ediel_sol  =         0.00000000
  ---------------------------------------------------
  free energy    TOTEN  =      -210.09742174 eV

  energy without entropy =     -210.09713298  energy(sigma->0) =     -210.09727736


--------------------------------------------------------------------------------------------------------




--------------------------------------- Iteration      1(   9)  ---------------------------------------


    POTLOK:  cpu time      0.1884: real time      0.1902
    SETDIJ:  cpu time      1.6375: real time      1.6448
     EDDAV:  cpu time     24.1349: real time     24.3369
       DOS:  cpu time      0.0023: real time      0.0024
    CHARGE:  cpu time      1.3205: real time      1.3272
    MIXING:  cpu time      0.0077: real time      0.0078
    --------------------------------------------
      LOOP:  cpu time     27.2912: real time     27.5093

 eigenvalue-minimisations  : 11120
 total energy-change (2. order) :-0.2677380E-01  (-0.2799701E+00)
 number of electron     175.9999999 magnetization       1.0000000
 augmentation part      -19.3503130 magnetization      -0.0754608

 Broyden mixing:
  rms(total) = 0.12525E+00    rms(broyden)= 0.12525E+00
  rms(prec ) = 0.14554E+00
  weight for this iteration     100.00

 eigenvalues of (default mixing * dielectric matrix)
  average eigenvalue GAMMA=   0.8950
  1.9014  0.8748  0.5533  0.2504

 Free energy of the ion-electron system (eV)
  ---------------------------------------------------
  alpha Z        PSCENC =       234.88029429
  Ewald energy   TEWEN  =     -4911.04644276
  -Hartree energ DENC   =      -361.81026448
  -exchange      EXHF   =         0.00000000
  -V(xc)+E(xc)   XCENC  =      -355.94617235
  PAW double counting   =     13937.98597491   -13238.69005604
  entropy T*S    EENTRO =        -0.00039426
  eigenvalues    EBANDS =       -92.87287250
  atomic energy  EATOM  =      4577.37573764
  Solvation  Ediel_sol  =         0.00000000
  ---------------------------------------------------
  free energy    TOTEN  =      -210.12419554 eV

  energy without entropy =     -210.12380128  energy(sigma->0) =     -210.12399841


--------------------------------------------------------------------------------------------------------




--------------------------------------- Iteration      1(  10)  ---------------------------------------


    POTLOK:  cpu time      0.1884: real time      0.1900
    SETDIJ:  cpu time      1.6355: real time      1.6428
     EDDAV:  cpu time     22.6762: real time     22.8662
       DOS:  cpu time      0.0023: real time      0.0023
    CHARGE:  cpu time      1.3212: real time      1.3283
    MIXING:  cpu time      0.0072: real time      0.0073
    --------------------------------------------
      LOOP:  cpu time     25.8308: real time     26.0369

 eigenvalue-minimisations  : 10280
 total energy-change (2. order) : 0.7083828E-02  (-0.4505104E-01)
 number of electron     175.9999999 magnetization       1.0000000
 augmentation part      -19.3700151 magnetization      -0.0740418

 Broyden mixing:
  rms(total) = 0.88003E-01    rms(broyden)= 0.88003E-01
  rms(prec ) = 0.89843E-01
  weight for this iteration     100.00

 eigenvalues of (default mixing * dielectric matrix)
  average eigenvalue GAMMA=   0.9252
  1.7946  1.0800  1.0800  0.3358  0.3358

 Free energy of the ion-electron system (eV)
  ---------------------------------------------------
  alpha Z        PSCENC =       234.88029429
  Ewald energy   TEWEN  =     -4911.04644276
  -Hartree energ DENC   =      -359.36179744
  -exchange      EXHF   =         0.00000000
  -V(xc)+E(xc)   XCENC  =      -356.15459546
  PAW double counting   =     14132.30603034   -13432.91919013
  entropy T*S    EENTRO =        -0.00041357
  eigenvalues    EBANDS =       -95.19673463
  atomic energy  EATOM  =      4577.37573764
  Solvation  Ediel_sol  =         0.00000000
  ---------------------------------------------------
  free energy    TOTEN  =      -210.11711171 eV

  energy without entropy =     -210.11669815  energy(sigma->0) =     -210.11690493


--------------------------------------------------------------------------------------------------------




--------------------------------------- Iteration      1(  11)  ---------------------------------------


    POTLOK:  cpu time      0.1878: real time      0.1895
    SETDIJ:  cpu time      1.6231: real time      1.6317
     EDDAV:  cpu time     22.6702: real time     22.8831
       DOS:  cpu time      0.0023: real time      0.0023
    CHARGE:  cpu time      1.3225: real time      1.3305
    MIXING:  cpu time      0.0073: real time      0.0073
    --------------------------------------------
      LOOP:  cpu time     25.8132: real time     26.0445

 eigenvalue-minimisations  : 10288
 total energy-change (2. order) :-0.6063326E-02  (-0.1479527E-01)
 number of electron     175.9999999 magnetization       1.0000000
 augmentation part      -19.3673008 magnetization      -0.0765470

 Broyden mixing:
  rms(total) = 0.43620E-01    rms(broyden)= 0.43620E-01
  rms(prec ) = 0.50638E-01
  weight for this iteration     100.00

 eigenvalues of (default mixing * dielectric matrix)
  average eigenvalue GAMMA=   0.8994
  1.7021  1.0572  1.0572  0.8468  0.3208  0.4125

 Free energy of the ion-electron system (eV)
  ---------------------------------------------------
  alpha Z        PSCENC =       234.88029429
  Ewald energy   TEWEN  =     -4911.04644276
  -Hartree energ DENC   =      -356.91533915
  -exchange      EXHF   =         0.00000000
  -V(xc)+E(xc)   XCENC  =      -356.44702376
  PAW double counting   =     14208.24196966   -13508.72154288
  entropy T*S    EENTRO =        -0.00049658
  eigenvalues    EBANDS =       -97.49033151
  atomic energy  EATOM  =      4577.37573764
  Solvation  Ediel_sol  =         0.00000000
  ---------------------------------------------------
  free energy    TOTEN  =      -210.12317504 eV

  energy without entropy =     -210.12267846  energy(sigma->0) =     -210.12292675


--------------------------------------------------------------------------------------------------------




--------------------------------------- Iteration      1(  12)  ---------------------------------------


    POTLOK:  cpu time      0.1883: real time      0.1900
    SETDIJ:  cpu time      1.6209: real time      1.6292
     EDDAV:  cpu time     22.7137: real time     22.9312
       DOS:  cpu time      0.0023: real time      0.0023
    CHARGE:  cpu time      1.3226: real time      1.3304
    MIXING:  cpu time      0.0073: real time      0.0073
    --------------------------------------------
      LOOP:  cpu time     25.8551: real time     26.0905

 eigenvalue-minimisations  : 10304
 total energy-change (2. order) : 0.2415348E-02  (-0.1963197E-02)
 number of electron     175.9999999 magnetization       1.0000000
 augmentation part      -19.3627187 magnetization      -0.0751790

 Broyden mixing:
  rms(total) = 0.32731E-01    rms(broyden)= 0.32731E-01
  rms(prec ) = 0.33108E-01
  weight for this iteration     100.00

 eigenvalues of (default mixing * dielectric matrix)
  average eigenvalue GAMMA=   0.9209
  1.6798  1.3699  1.0423  1.0423  0.5682  0.3215  0.4221

 Free energy of the ion-electron system (eV)
  ---------------------------------------------------
  alpha Z        PSCENC =       234.88029429
  Ewald energy   TEWEN  =     -4911.04644276
  -Hartree energ DENC   =      -356.80522403
  -exchange      EXHF   =         0.00000000
  -V(xc)+E(xc)   XCENC  =      -356.45606473
  PAW double counting   =     14132.89410512   -13433.36540445
  entropy T*S    EENTRO =        -0.00048574
  eigenvalues    EBANDS =       -97.59727505
  atomic energy  EATOM  =      4577.37573764
  Solvation  Ediel_sol  =         0.00000000
  ---------------------------------------------------
  free energy    TOTEN  =      -210.12075969 eV

  energy without entropy =     -210.12027396  energy(sigma->0) =     -210.12051683


--------------------------------------------------------------------------------------------------------




--------------------------------------- Iteration      1(  13)  ---------------------------------------


    POTLOK:  cpu time      0.1883: real time      0.1901
    SETDIJ:  cpu time      1.6211: real time      1.6291
     EDDAV:  cpu time     22.8631: real time     23.0813
       DOS:  cpu time      0.0023: real time      0.0023
    CHARGE:  cpu time      1.3195: real time      1.3273
    MIXING:  cpu time      0.0082: real time      0.0083
    --------------------------------------------
      LOOP:  cpu time     26.0025: real time     26.2384

 eigenvalue-minimisations  : 10392
 total energy-change (2. order) :-0.1121471E-02  (-0.5464989E-03)
 number of electron     175.9999999 magnetization       1.0000000
 augmentation part      -19.3664361 magnetization      -0.0767919

 Broyden mixing:
  rms(total) = 0.24943E-01    rms(broyden)= 0.24943E-01
  rms(prec ) = 0.25310E-01
  weight for this iteration     100.00

 eigenvalues of (default mixing * dielectric matrix)
  average eigenvalue GAMMA=   1.0432
  2.0661  1.7841  1.2901  1.2901  0.6931  0.3239  0.4039  0.4938

 Free energy of the ion-electron system (eV)
  ---------------------------------------------------
  alpha Z        PSCENC =       234.88029429
  Ewald energy   TEWEN  =     -4911.04644276
  -Hartree energ DENC   =      -356.68942210
  -exchange      EXHF   =         0.00000000
  -V(xc)+E(xc)   XCENC  =      -356.43359745
  PAW double counting   =     14113.69591888   -13414.17391159
  entropy T*S    EENTRO =        -0.00049430
  eigenvalues    EBANDS =       -97.72996378
  atomic energy  EATOM  =      4577.37573764
  Solvation  Ediel_sol  =         0.00000000
  ---------------------------------------------------
  free energy    TOTEN  =      -210.12188116 eV

  energy without entropy =     -210.12138687  energy(sigma->0) =     -210.12163401


--------------------------------------------------------------------------------------------------------




--------------------------------------- Iteration      1(  14)  ---------------------------------------


    POTLOK:  cpu time      0.1859: real time      0.1891
    SETDIJ:  cpu time      1.6199: real time      1.6279
     EDDAV:  cpu time     22.5446: real time     22.7560
       DOS:  cpu time      0.0023: real time      0.0023
    CHARGE:  cpu time      1.3231: real time      1.3308
    MIXING:  cpu time      0.0086: real time      0.0087
    --------------------------------------------
      LOOP:  cpu time     25.6844: real time     25.9148

 eigenvalue-minimisations  : 10200
 total energy-change (2. order) :-0.1189781E-02  (-0.2889143E-03)
 number of electron     175.9999999 magnetization       1.0000000
 augmentation part      -19.3689246 magnetization      -0.0751400

 Broyden mixing:
  rms(total) = 0.16935E-01    rms(broyden)= 0.16935E-01
  rms(prec ) = 0.18040E-01
  weight for this iteration     100.00

 eigenvalues of (default mixing * dielectric matrix)
  average eigenvalue GAMMA=   0.9923
  2.0778  1.5899  1.2259  1.2259  0.8002  0.8002  0.3233  0.4087  0.4783

 Free energy of the ion-electron system (eV)
  ---------------------------------------------------
  alpha Z        PSCENC =       234.88029429
  Ewald energy   TEWEN  =     -4911.04644276
  -Hartree energ DENC   =      -356.66712874
  -exchange      EXHF   =         0.00000000
  -V(xc)+E(xc)   XCENC  =      -356.41023095
  PAW double counting   =     14088.87369510   -13389.35924920
  entropy T*S    EENTRO =        -0.00049742
  eigenvalues    EBANDS =       -97.76924892
  atomic energy  EATOM  =      4577.37573764
  Solvation  Ediel_sol  =         0.00000000
  ---------------------------------------------------
  free energy    TOTEN  =      -210.12307094 eV

  energy without entropy =     -210.12257353  energy(sigma->0) =     -210.12282224


--------------------------------------------------------------------------------------------------------




--------------------------------------- Iteration      1(  15)  ---------------------------------------


    POTLOK:  cpu time      0.1884: real time      0.1901
    SETDIJ:  cpu time      1.6206: real time      1.6288
     EDDAV:  cpu time     23.0270: real time     23.2465
       DOS:  cpu time      0.0022: real time      0.0022
    CHARGE:  cpu time      1.3233: real time      1.3311
    MIXING:  cpu time      0.0086: real time      0.0087
    --------------------------------------------
      LOOP:  cpu time     26.1701: real time     26.4072

 eigenvalue-minimisations  : 10488
 total energy-change (2. order) :-0.5166234E-04  (-0.6880375E-04)
 number of electron     175.9999999 magnetization       1.0000000
 augmentation part      -19.3683803 magnetization      -0.0753319

 Broyden mixing:
  rms(total) = 0.15505E-01    rms(broyden)= 0.15505E-01
  rms(prec ) = 0.16141E-01
  weight for this iteration     100.00

 eigenvalues of (default mixing * dielectric matrix)
  average eigenvalue GAMMA=   0.9807
  1.8978  1.7410  1.7410  0.9893  0.9893  0.6728  0.3235  0.5669  0.4026  0.4825

 Free energy of the ion-electron system (eV)
  ---------------------------------------------------
  alpha Z        PSCENC =       234.88029429
  Ewald energy   TEWEN  =     -4911.04644276
  -Hartree energ DENC   =      -356.75343192
  -exchange      EXHF   =         0.00000000
  -V(xc)+E(xc)   XCENC  =      -356.41067533
  PAW double counting   =     14078.75281755   -13379.23827183
  entropy T*S    EENTRO =        -0.00049756
  eigenvalues    EBANDS =       -97.68265269
  atomic energy  EATOM  =      4577.37573764
  Solvation  Ediel_sol  =         0.00000000
  ---------------------------------------------------
  free energy    TOTEN  =      -210.12312261 eV

  energy without entropy =     -210.12262505  energy(sigma->0) =     -210.12287383


--------------------------------------------------------------------------------------------------------




--------------------------------------- Iteration      1(  16)  ---------------------------------------


    POTLOK:  cpu time      0.1874: real time      0.1893
    SETDIJ:  cpu time      1.6169: real time      1.6249
     EDDAV:  cpu time     22.8577: real time     23.0726
       DOS:  cpu time      0.0023: real time      0.0024
    CHARGE:  cpu time      1.3219: real time      1.3296
    MIXING:  cpu time      0.0091: real time      0.0092
    --------------------------------------------
      LOOP:  cpu time     25.9953: real time     26.2280

 eigenvalue-minimisations  : 10368
 total energy-change (2. order) :-0.1253099E-03  (-0.2406088E-04)
 number of electron     175.9999999 magnetization       1.0000000
 augmentation part      -19.3679846 magnetization      -0.0754116

 Broyden mixing:
  rms(total) = 0.12566E-01    rms(broyden)= 0.12566E-01
  rms(prec ) = 0.12803E-01
  weight for this iteration     100.00

 eigenvalues of (default mixing * dielectric matrix)
  average eigenvalue GAMMA=   1.0202
  1.8906  1.8906  1.8319  1.1861  1.1861  0.7485  0.7485  0.3234  0.5480  0.4073
  0.4615

 Free energy of the ion-electron system (eV)
  ---------------------------------------------------
  alpha Z        PSCENC =       234.88029429
  Ewald energy   TEWEN  =     -4911.04644276
  -Hartree energ DENC   =      -356.73352342
  -exchange      EXHF   =         0.00000000
  -V(xc)+E(xc)   XCENC  =      -356.42029767
  PAW double counting   =     14081.98698794   -13382.46798669
  entropy T*S    EENTRO =        -0.00049844
  eigenvalues    EBANDS =       -97.69751881
  atomic energy  EATOM  =      4577.37573764
  Solvation  Ediel_sol  =         0.00000000
  ---------------------------------------------------
  free energy    TOTEN  =      -210.12324792 eV

  energy without entropy =     -210.12274948  energy(sigma->0) =     -210.12299870


--------------------------------------------------------------------------------------------------------




--------------------------------------- Iteration      1(  17)  ---------------------------------------


    POTLOK:  cpu time      0.1870: real time      0.1888
    SETDIJ:  cpu time      1.6159: real time      1.6238
     EDDAV:  cpu time     23.4015: real time     23.6217
       DOS:  cpu time      0.0023: real time      0.0023
    CHARGE:  cpu time      1.3233: real time      1.3310
    MIXING:  cpu time      0.0086: real time      0.0087
    --------------------------------------------
      LOOP:  cpu time     26.5385: real time     26.7762

 eigenvalue-minimisations  : 10688
 total energy-change (2. order) :-0.3899472E-03  (-0.5660394E-04)
 number of electron     175.9999999 magnetization       1.0000000
 augmentation part      -19.3668122 magnetization      -0.0748079

 Broyden mixing:
  rms(total) = 0.89994E-02    rms(broyden)= 0.89994E-02
  rms(prec ) = 0.92535E-02
  weight for this iteration     100.00

 eigenvalues of (default mixing * dielectric matrix)
  average eigenvalue GAMMA=   1.1333
  3.2359  1.8238  1.8238  1.2389  1.2389  0.9349  0.9349  0.6493  0.3234  0.4067
  0.5291  0.4596

 Free energy of the ion-electron system (eV)
  ---------------------------------------------------
  alpha Z        PSCENC =       234.88029429
  Ewald energy   TEWEN  =     -4911.04644276
  -Hartree energ DENC   =      -356.65335167
  -exchange      EXHF   =         0.00000000
  -V(xc)+E(xc)   XCENC  =      -356.43911976
  PAW double counting   =     14108.22618111   -13408.69816892
  entropy T*S    EENTRO =        -0.00050260
  eigenvalues    EBANDS =       -97.76826520
  atomic energy  EATOM  =      4577.37573764
  Solvation  Ediel_sol  =         0.00000000
  ---------------------------------------------------
  free energy    TOTEN  =      -210.12363786 eV

  energy without entropy =     -210.12313526  energy(sigma->0) =     -210.12338656


--------------------------------------------------------------------------------------------------------




--------------------------------------- Iteration      1(  18)  ---------------------------------------


    POTLOK:  cpu time      0.1877: real time      0.1893
    SETDIJ:  cpu time      1.6175: real time      1.6256
     EDDAV:  cpu time     22.9604: real time     23.1756
       DOS:  cpu time      0.0023: real time      0.0023
    CHARGE:  cpu time      1.3195: real time      1.3273
    MIXING:  cpu time      0.0102: real time      0.0103
    --------------------------------------------
      LOOP:  cpu time     26.0976: real time     26.3303

 eigenvalue-minimisations  : 10448
 total energy-change (2. order) :-0.9660083E-03  (-0.1446820E-03)
 number of electron     175.9999999 magnetization       1.0000000
 augmentation part      -19.3651493 magnetization      -0.0747474

 Broyden mixing:
  rms(total) = 0.17461E-01    rms(broyden)= 0.17461E-01
  rms(prec ) = 0.18971E-01
  weight for this iteration     100.00

 eigenvalues of (default mixing * dielectric matrix)
  average eigenvalue GAMMA=   1.2598
  5.1353  1.8964  1.8964  1.5195  1.0876  1.0876  0.7529  0.7529  0.3234  0.5690
  0.4050  0.4879  0.4631

 Free energy of the ion-electron system (eV)
  ---------------------------------------------------
  alpha Z        PSCENC =       234.88029429
  Ewald energy   TEWEN  =     -4911.04644276
  -Hartree energ DENC   =      -356.59010056
  -exchange      EXHF   =         0.00000000
  -V(xc)+E(xc)   XCENC  =      -356.45437857
  PAW double counting   =     14161.59438407   -13462.05819155
  entropy T*S    EENTRO =        -0.00051552
  eigenvalues    EBANDS =       -97.82539092
  atomic energy  EATOM  =      4577.37573764
  Solvation  Ediel_sol  =         0.00000000
  ---------------------------------------------------
  free energy    TOTEN  =      -210.12460387 eV

  energy without entropy =     -210.12408835  energy(sigma->0) =     -210.12434611


--------------------------------------------------------------------------------------------------------




--------------------------------------- Iteration      1(  19)  ---------------------------------------


    POTLOK:  cpu time      0.1868: real time      0.1894
    SETDIJ:  cpu time      1.6248: real time      1.6333
     EDDAV:  cpu time     22.7036: real time     22.9183
       DOS:  cpu time      0.0023: real time      0.0023
    CHARGE:  cpu time      1.3214: real time      1.3291
    MIXING:  cpu time      0.0105: real time      0.0106
    --------------------------------------------
      LOOP:  cpu time     25.8493: real time     26.0829

 eigenvalue-minimisations  : 10296
 total energy-change (2. order) : 0.1023076E-03  (-0.6171140E-04)
 number of electron     175.9999999 magnetization       1.0000000
 augmentation part      -19.3640782 magnetization      -0.0747517

 Broyden mixing:
  rms(total) = 0.17208E-01    rms(broyden)= 0.17208E-01
  rms(prec ) = 0.17955E-01
  weight for this iteration     100.00

 eigenvalues of (default mixing * dielectric matrix)
  average eigenvalue GAMMA=   1.3777
  6.9056  1.8514  1.7670  1.7670  1.2186  1.2186  0.8394  0.8394  0.6575  0.3234
  0.5627  0.4064  0.4859  0.4453

 Free energy of the ion-electron system (eV)
  ---------------------------------------------------
  alpha Z        PSCENC =       234.88029429
  Ewald energy   TEWEN  =     -4911.04644276
  -Hartree energ DENC   =      -356.63918476
  -exchange      EXHF   =         0.00000000
  -V(xc)+E(xc)   XCENC  =      -356.44416462
  PAW double counting   =     14156.96918521   -13457.43720170
  entropy T*S    EENTRO =        -0.00052042
  eigenvalues    EBANDS =       -97.78220445
  atomic energy  EATOM  =      4577.37573764
  Solvation  Ediel_sol  =         0.00000000
  ---------------------------------------------------
  free energy    TOTEN  =      -210.12450157 eV

  energy without entropy =     -210.12398114  energy(sigma->0) =     -210.12424135


--------------------------------------------------------------------------------------------------------




--------------------------------------- Iteration      1(  20)  ---------------------------------------


    POTLOK:  cpu time      0.1879: real time      0.1897
    SETDIJ:  cpu time      1.6193: real time      1.6274
     EDDAV:  cpu time     24.0367: real time     24.2643
       DOS:  cpu time      0.0023: real time      0.0023
    CHARGE:  cpu time      1.3211: real time      1.3292
    MIXING:  cpu time      0.0099: real time      0.0099
    --------------------------------------------
[...]
     26      -2.6863      1.00000
     27      -2.6562      1.00000
     28      -2.3481      1.00000
     29      -2.2943      1.00000
     30      -2.1757      1.00000
     31      -2.1530      1.00000
     32      -2.1020      1.00000
     33      -2.0075      1.00000
     34      -2.0000      1.00000
     35      -1.9530      1.00000
     36      -1.7292      1.00000
     37      -1.6971      1.00000
     38      -1.5691      1.00000
     39      -1.4017      1.00000
     40      -1.2008      1.00000
     41      -1.1495      1.00000
     42      -1.1341      1.00000
     43      -1.0532      1.00000
     44       0.3200      1.00000
     45       0.6456      1.00000
     46       0.7701      1.00000
     47       0.8448      1.00000
     48       1.0514      1.00000
     49       1.0764      1.00000
     50       1.0970      1.00000
     51       1.2775      1.00000
     52       1.3944      1.00000
     53       1.8860      1.00000
     54       2.0030      1.00000
     55       2.0344      1.00000
     56       2.0658      1.00000
     57       2.2860      1.00000
     58       2.3196      1.00000
     59       2.3368      1.00000
     60       2.5414      1.00000
     61       2.6232      1.00000
     62       3.1169      1.00000
     63       3.1760      1.00000
     64       3.2054      1.00000
     65       3.3097      1.00000
     66       3.3333      1.00000
     67       3.3415      1.00000
     68       3.3650      1.00000
     69       3.4094      1.00000
     70       3.4481      1.00000
     71       3.4830      1.00000
     72       3.4934      1.00000
     73       3.5244      1.00000
     74       3.5346      1.00000
     75       3.5871      1.00000
     76       3.5873      1.00000
     77       3.5899      1.00000
     78       3.5941      1.00000
     79       3.6468      1.00000
     80       3.6700      1.00000
     81       3.6805      1.00000
     82       3.6995      1.00000
     83       3.7282      1.00000
     84       3.9180      1.00000
     85       4.0649      1.00000
     86       4.2344      1.00000
     87       4.5530      1.00000
     88       4.5909      1.00000
     89       4.6284      1.00000
     90       5.3942      0.00000
     91       5.8867      0.00000
     92       5.9394      0.00000
     93       6.0412      0.00000
     94       6.1987      0.00000
     95       6.3166      0.00000
     96       6.4231      0.00000
     97       6.4472      0.00000
     98       6.4826      0.00000
     99       6.5222      0.00000
    100       6.5815      0.00000
    101       6.8289      0.00000
    102       7.0216      0.00000
    103       7.0505      0.00000
    104       7.0571      0.00000
    105       7.0917      0.00000
    106       7.1133      0.00000


--------------------------------------------------------------------------------------------------------


 soft charge-density along one line, spin component           1
         0         1         2         3         4         5         6         7         8         9
 total charge-density along one line
 
 soft charge-density along one line, spin component           2
         0         1         2         3         4         5         6         7         8         9
 total charge-density along one line
 
 pseudopotential strength for first ion, spin component:           1
 18.569  25.908  -0.001  -0.000  -0.002  -0.003  -0.001  -0.003
 25.908  36.153  -0.002  -0.000  -0.003  -0.004  -0.001  -0.005
 -0.001  -0.002   4.198  -0.000  -0.000   7.825  -0.000  -0.000
 -0.000  -0.000  -0.000   4.198   0.000  -0.000   7.824   0.000
 -0.002  -0.003  -0.000   0.000   4.198  -0.000   0.000   7.825
 -0.003  -0.004   7.825  -0.000  -0.000  14.594  -0.000  -0.001
 -0.001  -0.001  -0.000   7.824   0.000  -0.000  14.593   0.001
 -0.003  -0.005  -0.000   0.000   7.825  -0.001   0.001  14.594
 pseudopotential strength for first ion, spin component:           2
 18.569  25.908  -0.001  -0.000  -0.002  -0.003  -0.001  -0.003
 25.908  36.152  -0.002  -0.000  -0.003  -0.004  -0.001  -0.005
 -0.001  -0.002   4.198  -0.000  -0.000   7.824  -0.000  -0.000
 -0.000  -0.000  -0.000   4.198   0.000  -0.000   7.824   0.000
 -0.002  -0.003  -0.000   0.000   4.198  -0.000   0.000   7.824
 -0.003  -0.004   7.824  -0.000  -0.000  14.593  -0.000  -0.001
 -0.001  -0.001  -0.000   7.824   0.000  -0.000  14.592   0.001
 -0.003  -0.005  -0.000   0.000   7.824  -0.001   0.001  14.593
 total augmentation occupancy for first ion, spin component:           1
  5.081  -1.828   0.102   0.163   0.007  -0.036  -0.050  -0.004
 -1.828   0.793  -0.064  -0.081  -0.013   0.019   0.021   0.003
  0.102  -0.064   2.661  -0.072   0.176  -0.574   0.024  -0.050
  0.163  -0.081  -0.072   2.730   0.002   0.024  -0.599   0.002
  0.007  -0.013   0.176   0.002   2.651  -0.050   0.002  -0.571
 -0.036   0.019  -0.574   0.024  -0.050   0.133  -0.007   0.013
 -0.050   0.021   0.024  -0.599   0.002  -0.007   0.140  -0.001
 -0.004   0.003  -0.050   0.002  -0.571   0.013  -0.001   0.132
 total augmentation occupancy for first ion, spin component:           2
  0.006  -0.003   0.000  -0.000   0.000  -0.000   0.000  -0.000
 -0.003   0.001  -0.000   0.000  -0.000   0.000  -0.000   0.000
  0.000  -0.000   0.005   0.001  -0.004  -0.001  -0.000   0.000
 -0.000   0.000   0.001   0.003   0.000  -0.000  -0.001  -0.000
  0.000  -0.000  -0.004   0.000   0.005   0.000  -0.000  -0.001
 -0.000   0.000  -0.001  -0.000   0.000   0.000   0.000  -0.000
  0.000  -0.000  -0.000  -0.001  -0.000   0.000   0.000   0.000
 -0.000   0.000   0.000  -0.000  -0.001  -0.000   0.000   0.000


------------------------ aborting loop because EDIFF is reached ----------------------------------------


    CHARGE:  cpu time      1.3204: real time      1.3284
    FORLOC:  cpu time      0.0244: real time      0.0245
    FORNL :  cpu time      5.5717: real time      5.6144
    STRESS:  cpu time     16.9907: real time     17.1228
    FORCOR:  cpu time      0.2079: real time      0.2092
    FORHAR:  cpu time      0.0399: real time      0.0403
    MIXING:  cpu time      0.0159: real time      0.0160
    OFIELD:  cpu time      0.0000: real time      0.0000

  FORCE on cell =-STRESS in cart. coord.  units (eV):
  Direction    XX          YY          ZZ          XY          YZ          ZX
  --------------------------------------------------------------------------------------
  Alpha Z   234.88029   234.88029   234.88029
  Ewald   -1678.59850 -1677.32439 -1555.14728  -130.40497     6.44002     9.71354
  Hartree   115.71935   115.79071   125.17838   -34.79684     2.56908     3.97026
  E(xc)    -585.02372  -585.04841  -584.90958     0.23953     0.05225     0.02343
  Local    -555.89139  -557.13627  -679.35973   160.68144    -8.31840   -13.68752
  n-local  1300.10497  1300.42162  1303.69803    -7.92839    -0.50396    -0.28223
  augment  -102.32723  -102.33058  -102.28997     0.17958     0.03817    -0.08109
  Kinetic  1297.88978  1297.54476  1294.86958     9.63959     1.02229     3.59033
  Fock        0.00000     0.00000     0.00000     0.00000     0.00000     0.00000
  -------------------------------------------------------------------------------------
  Total      26.75356    26.79772    36.91971    -2.39007     1.29945     3.24671
  in kB      46.26748    46.34386    63.84878    -4.13337     2.24726     5.61485
  external pressure =       52.15 kB  Pullay stress =        0.00 kB


 VOLUME and BASIS-vectors are now :
 -----------------------------------------------------------------------------
  energy-cutoff  :      700.00
  volume of cell :      926.44
      direct lattice vectors                 reciprocal lattice vectors
     5.480000000  0.000000000  0.000000000     0.182481752  0.000000000  0.000000000
     0.000000000  5.480000000  0.000000000     0.000000000  0.182481752  0.000000000
     0.000000000  0.000000000 30.850000000     0.000000000  0.000000000  0.032414911

  length of vectors
     5.480000000  5.480000000 30.850000000     0.182481752  0.182481752  0.032414911


 FORCES acting on ions
    electron-ion (+dipol)            ewald-force                    non-local-force                 convergence-correction
 -----------------------------------------------------------------------------------------------
   0.984E+00 0.299E+01 0.193E+02   -.699E+00 -.248E+01 -.188E+02   0.161E+00 -.458E+00 -.885E+00   0.935E-05 0.104E-04 0.423E-03
   0.213E-01 -.435E-02 0.135E+02   0.307E-01 0.474E-01 -.133E+02   0.267E-02 0.180E-01 -.126E+00   -.448E-07 0.102E-05 0.439E-03
   0.966E-02 0.131E-01 0.456E+01   -.306E-03 -.517E-03 -.444E+01   -.128E-02 -.570E-03 -.125E+00   0.131E-05 0.932E-06 0.401E-03
   0.702E-02 0.227E-01 -.436E+01   -.422E-03 -.593E-03 0.444E+01   -.136E-01 -.107E-01 -.819E-01   -.208E-06 0.113E-05 0.223E-03
   0.864E-01 0.131E+00 -.137E+02   0.404E-01 0.538E-01 0.134E+02   -.161E+00 -.148E+00 -.239E-01   0.140E-05 0.255E-05 -.170E-03
   0.108E+01 0.287E+01 -.144E+02   -.153E+01 -.304E+01 0.121E+02   0.321E+00 0.303E-01 0.100E+01   -.404E-05 0.142E-04 -.600E-03
   0.984E+00 0.299E+01 0.193E+02   -.699E+00 -.248E+01 -.188E+02   0.161E+00 -.458E+00 -.885E+00   0.822E-05 0.116E-04 0.423E-03
   0.213E-01 -.435E-02 0.135E+02   0.307E-01 0.474E-01 -.133E+02   0.267E-02 0.180E-01 -.126E+00   0.130E-05 0.989E-06 0.439E-03
   0.966E-02 0.131E-01 0.456E+01   -.306E-03 -.517E-03 -.444E+01   -.128E-02 -.570E-03 -.125E+00   0.724E-06 0.134E-05 0.400E-03
   0.702E-02 0.227E-01 -.436E+01   -.422E-03 -.593E-03 0.444E+01   -.136E-01 -.107E-01 -.819E-01   0.889E-06 0.949E-06 0.223E-03
   0.864E-01 0.131E+00 -.137E+02   0.404E-01 0.538E-01 0.134E+02   -.161E+00 -.148E+00 -.239E-01   -.747E-06 0.186E-05 -.169E-03
   0.108E+01 0.287E+01 -.144E+02   -.153E+01 -.304E+01 0.121E+02   0.321E+00 0.303E-01 0.100E+01   0.129E-05 0.851E-05 -.602E-03
   -.683E+00 -.544E+00 0.171E+02   0.323E+00 0.189E+00 -.170E+02   0.298E+00 0.289E+00 -.185E+00   -.908E-05 -.953E-05 0.429E-03
   -.663E-01 -.719E-01 0.902E+01   -.503E-02 -.304E-02 -.889E+01   0.625E-01 0.650E-01 -.130E+00   -.241E-05 -.206E-05 0.428E-03
   -.474E-02 -.311E-01 0.167E+00   -.878E-05 -.132E-04 -.984E-03   0.356E-02 0.252E-01 -.160E+00   -.378E-07 -.238E-05 0.335E-03
   0.310E-01 -.870E-01 -.905E+01   0.540E-02 0.387E-02 0.897E+01   -.413E-01 0.632E-01 0.155E+00   0.258E-06 -.254E-05 0.469E-04
   0.714E+00 0.114E+00 -.989E+01   -.576E+00 -.408E+00 0.988E+01   -.152E+00 0.217E+00 -.914E+00   0.282E-05 -.259E-05 -.358E-03
   -.683E+00 -.544E+00 0.171E+02   0.323E+00 0.189E+00 -.170E+02   0.298E+00 0.289E+00 -.185E+00   -.111E-04 -.106E-04 0.429E-03
   -.663E-01 -.719E-01 0.902E+01   -.503E-02 -.304E-02 -.889E+01   0.625E-01 0.650E-01 -.130E+00   -.797E-06 -.160E-05 0.428E-03
   -.474E-02 -.311E-01 0.167E+00   -.878E-05 -.132E-04 -.984E-03   0.356E-02 0.252E-01 -.160E+00   -.158E-05 -.630E-06 0.335E-03
   0.310E-01 -.870E-01 -.905E+01   0.540E-02 0.387E-02 0.897E+01   -.413E-01 0.632E-01 0.155E+00   0.463E-06 -.123E-05 0.472E-04
   0.714E+00 0.114E+00 -.989E+01   -.576E+00 -.408E+00 0.988E+01   -.152E+00 0.217E+00 -.914E+00   0.322E-05 -.468E-05 -.361E-03
   -.634E+00 -.208E+00 -.140E+02   0.533E+00 0.379E+00 0.141E+02   0.903E-01 -.135E+00 0.111E+01   -.282E-05 0.459E-05 -.522E-03
   -.198E-01 0.557E-01 -.344E+01   -.437E-02 -.315E-02 0.343E+01   0.253E-01 -.412E-01 0.704E-02   -.267E-06 0.164E-05 -.267E-03
   0.110E-02 0.209E-01 -.553E-01   0.534E-05 0.825E-05 0.683E-03   -.229E-02 -.208E-01 0.704E-01   0.201E-05 0.904E-06 -.127E-03
   0.466E-01 0.541E-01 0.353E+01   0.400E-02 0.240E-02 -.349E+01   -.511E-01 -.463E-01 0.270E-02   0.703E-06 0.184E-05 0.234E-04
   0.556E+00 0.435E+00 0.752E+01   -.301E+00 -.174E+00 -.745E+01   -.210E+00 -.205E+00 0.270E-01   0.582E-05 0.614E-05 0.186E-03
   -.634E+00 -.208E+00 -.140E+02   0.533E+00 0.379E+00 0.141E+02   0.903E-01 -.135E+00 0.111E+01   -.313E-06 0.811E-06 -.523E-03
   -.198E-01 0.557E-01 -.344E+01   -.437E-02 -.315E-02 0.343E+01   0.253E-01 -.412E-01 0.704E-02   0.119E-05 0.170E-05 -.267E-03
   0.110E-02 0.209E-01 -.553E-01   0.534E-05 0.825E-05 0.683E-03   -.229E-02 -.208E-01 0.704E-01   -.462E-06 0.102E-05 -.127E-03
   0.466E-01 0.541E-01 0.353E+01   0.400E-02 0.240E-02 -.349E+01   -.511E-01 -.463E-01 0.270E-02   0.149E-05 0.804E-06 0.231E-04
   0.556E+00 0.435E+00 0.752E+01   -.301E+00 -.174E+00 -.745E+01   -.210E+00 -.205E+00 0.270E-01   0.671E-05 0.678E-05 0.185E-03
   -.128E+01 -.293E+01 -.181E+02   0.157E+01 0.306E+01 0.176E+02   -.142E+00 0.252E-01 0.384E+00   0.171E-05 -.139E-04 -.678E-03
   0.878E-02 -.405E-01 -.500E+01   -.350E-01 -.465E-01 0.519E+01   0.761E-01 0.720E-01 0.277E+00   -.354E-05 -.448E-05 -.351E-03
   0.754E-02 -.857E-02 -.187E+01   0.318E-03 0.445E-03 0.175E+01   -.672E-05 -.710E-03 0.116E+00   -.188E-05 -.628E-06 -.209E-03
   -.146E-02 -.613E-02 0.169E+01   0.226E-03 0.384E-03 -.175E+01   -.286E-03 -.917E-02 0.399E-01   -.123E-06 -.426E-06 -.463E-04
   -.154E-01 -.717E-03 0.526E+01   -.260E-01 -.405E-01 -.526E+01   -.829E-02 -.205E-01 -.998E-02   -.140E-05 -.164E-06 0.104E-03
   -.957E+00 -.274E+01 0.113E+02   0.673E+00 0.246E+01 -.105E+02   -.147E+00 0.241E+00 0.420E+00   -.322E-05 -.668E-05 0.328E-03
   -.128E+01 -.293E+01 -.181E+02   0.157E+01 0.306E+01 0.176E+02   -.142E+00 0.252E-01 0.384E+00   -.193E-05 -.950E-05 -.676E-03
   0.877E-02 -.405E-01 -.500E+01   -.350E-01 -.465E-01 0.519E+01   0.761E-01 0.720E-01 0.277E+00   0.207E-05 0.661E-06 -.352E-03
   0.753E-02 -.857E-02 -.187E+01   0.318E-03 0.445E-03 0.175E+01   -.672E-05 -.710E-03 0.116E+00   -.400E-06 -.216E-05 -.208E-03
   -.146E-02 -.613E-02 0.169E+01   0.226E-03 0.384E-03 -.175E+01   -.286E-03 -.917E-02 0.399E-01   -.148E-05 -.118E-05 -.462E-04
   -.154E-01 -.716E-03 0.526E+01   -.260E-01 -.405E-01 -.526E+01   -.829E-02 -.205E-01 -.998E-02   0.479E-06 -.902E-06 0.104E-03
   -.957E+00 -.274E+01 0.113E+02   0.673E+00 0.246E+01 -.105E+02   -.147E+00 0.241E+00 0.420E+00   -.311E-05 -.848E-05 0.329E-03
 -----------------------------------------------------------------------------------------------
   -.233E+00 0.856E-01 -.182E+01   0.371E-13 -.124E-13 0.338E-12   0.220E+00 -.998E-01 0.194E+01   0.244E-05 -.403E-05 0.706E-04
 
 
 POSITION                                       TOTAL-FORCE (eV/Angst)
 -----------------------------------------------------------------------------------
      0.00000      0.00000      0.00000         0.445916      0.051351     -0.364969
      2.74000      0.00000      2.74000         0.054925      0.061292      0.014612
      0.00000      0.00000      5.48000         0.008355      0.012368     -0.002158
      2.74000      0.00000      8.22000        -0.006714      0.011755     -0.007192
      0.00000      0.00000     10.96000        -0.033730      0.037602     -0.324455
      2.74000      0.00000     13.70000        -0.137617     -0.135766     -1.222199
      2.74000      2.74000      0.00000         0.445916      0.051351     -0.364969
      0.00000      2.74000      2.74000         0.054925      0.061292      0.014612
      2.74000      2.74000      5.48000         0.008355      0.012368     -0.002158
      0.00000      2.74000      8.22000        -0.006714      0.011755     -0.007192
      2.74000      2.74000     10.96000        -0.033730      0.037602     -0.324455
      0.00000      2.74000     13.70000        -0.137617     -0.135766     -1.222199
      1.37000      1.37000      1.37000        -0.060773     -0.065977     -0.107777
      4.11000      1.37000      4.11000        -0.008536     -0.009640      0.004072
      1.37000      1.37000      6.85000        -0.000916     -0.005555      0.003758
      4.11000      1.37000      9.59000        -0.004529     -0.019558      0.073247
      1.37000      1.37000     12.33000        -0.013883     -0.076859     -0.923535
      4.11000      4.11000      1.37000        -0.060773     -0.065977     -0.107777
      1.37000      4.11000      4.11000        -0.008536     -0.009640      0.004072
      4.11000      4.11000      6.85000        -0.000916     -0.005555      0.003758
      1.37000      4.11000      9.59000        -0.004529     -0.019558      0.073247
      4.11000      4.11000     12.33000        -0.013883     -0.076859     -0.923535
      2.89222      0.10148     16.61500        -0.010790      0.036028      1.184976
      0.15222      0.10148     19.44500         0.001351      0.011679     -0.013656
      2.89222      0.10148     22.27500        -0.000901      0.000391      0.012700
      0.15222      0.10148     25.10500        -0.000209      0.010516      0.031218
      2.89222      0.10148     27.93500         0.045818      0.056637      0.101002
      0.15222      2.84148     16.61500        -0.010790      0.036028      1.184976
      2.89222      2.84148     19.44500         0.001351      0.011679     -0.013656
      0.15222      2.84148     22.27500        -0.000901      0.000391      0.012700
      2.89222      2.84148     25.10500        -0.000209      0.010516      0.031218
      0.15222      2.84148     27.93500         0.045818      0.056637      0.101002
      1.52222      1.47148     15.20000         0.145509      0.159217     -0.115179
      4.26222      1.47148     18.03000         0.050192     -0.014662      0.459578
      1.52222      1.47148     20.86000         0.008125     -0.008515     -0.002541
      4.26222      1.47148     23.69000        -0.001240     -0.014592     -0.018221
      1.52222      1.47148     26.52000        -0.049384     -0.061432     -0.007377
      4.26222      1.47148     29.35000        -0.430966     -0.036279      1.224094
      4.26222      4.21148     15.20000         0.145509      0.159217     -0.115179
      1.52222      4.21148     18.03000         0.050192     -0.014662      0.459578
      4.26222      4.21148     20.86000         0.008125     -0.008515     -0.002541
      1.52222      4.21148     23.69000        -0.001240     -0.014592     -0.018221
      4.26222      4.21148     26.52000        -0.049384     -0.061432     -0.007377
      1.52222      4.21148     29.35000        -0.430966     -0.036279      1.224094
 -----------------------------------------------------------------------------------
    total drift:                               -0.012259     -0.014271      0.127481


--------------------------------------------------------------------------------------------------------



  FREE ENERGIE OF THE ION-ELECTRON SYSTEM (eV)
  ---------------------------------------------------
  free  energy   TOTEN  =      -210.12429793 eV

  energy  without entropy=     -210.12377622  energy(sigma->0) =     -210.12403707
 


--------------------------------------------------------------------------------------------------------


    POTLOK:  cpu time      1.8038: real time      1.8134


--------------------------------------------------------------------------------------------------------


     LOOP+:  cpu time    744.5477: real time    751.5128
    4ORBIT:  cpu time      0.0000: real time      0.0000

 total amount of memory used by VASP MPI-rank0   233994. kBytes
=======================================================================

   base      :      30000. kBytes
   nonlr-proj:       2414. kBytes
   fftplans  :      19857. kBytes
   grid      :      13297. kBytes
   one-center:         48. kBytes
   wavefun   :     168378. kBytes
 
  
  
 General timing and accounting informations for this job:
 ========================================================
  
                  Total CPU time used (sec):      765.865
                            User time (sec):      760.828
                          System time (sec):        5.037
                         Elapsed time (sec):      774.113
  
                   Maximum memory used (kb):      460408.
                   Average memory used (kb):          N/A
  
                          Minor page faults:       158496
                          Major page faults:           29
                 Voluntary context switches:         1212
