 120 120   0   0
  0.1738714E+02  0.7680595E-09  0.1629300E-08  0.1667299E-08  0.5000000E-15
  1.000000000000000E-004
  CAR 
 Si and Ge interface calculation         
      9.99455450    -10.87120704  301      6.81965436      1.00000000
    -10.871  0.0000E+00  0.0000E+00  0.0000E+00  0.0000E+00
    -10.802  0.0000E+00  0.0000E+00  0.0000E+00  0.0000E+00
    -10.732  0.0000E+00  0.0000E+00  0.0000E+00  0.0000E+00
    -10.663  0.0000E+00  0.0000E+00  0.0000E+00  0.0000E+00
    -10.593  0.0000E+00  0.0000E+00  0.0000E+00  0.0000E+00
    -10.523  0.0000E+00  0.0000E+00  0.0000E+00  0.0000E+00
    -10.454  0.0000E+00  0.0000E+00  0.0000E+00  0.0000E+00
    -10.384  0.0000E+00  0.0000E+00  0.0000E+00  0.0000E+00
    -10.315  0.0000E+00  0.0000E+00  0.0000E+00  0.0000E+00
    -10.245  0.0000E+00  0.0000E+00  0.0000E+00  0.0000E+00
    -10.176  0.0000E+00  0.0000E+00  0.0000E+00  0.0000E+00
    -10.106  0.0000E+00  0.0000E+00  0.0000E+00  0.0000E+00
    -10.037  0.0000E+00  0.0000E+00  0.0000E+00  0.0000E+00
     -9.967  0.2299E-10  0.1556E-08  0.1599E-11  0.1082E-09
     -9.897  0.1435E+02  0.1437E+02  0.9978E+00  0.9997E+00
     -9.828  0.8158E-01  0.4742E+00  0.1006E+01  0.1033E+01
     -9.758  0.2867E+02  0.2828E+02  0.3000E+01  0.3000E+01
     -9.689  0.3991E-14  0.8794E-12  0.3000E+01  0.3000E+01
     -9.619  0.1378E+02  0.1426E+02  0.3959E+01  0.3992E+01
     -9.550  0.0000E+00  0.0000E+00  0.4000E+01  0.4000E+01
     -9.480  0.0000E+00  0.0000E+00  0.4000E+01  0.4000E+01
     -9.411  0.0000E+00  0.0000E+00  0.4000E+01  0.4000E+01
     -9.341  0.0000E+00  0.0000E+00  0.4000E+01  0.4000E+01
     -9.271  0.0000E+00  0.0000E+00  0.4000E+01  0.4000E+01
     -9.202  0.0000E+00  0.0000E+00  0.4000E+01  0.4000E+01
     -9.132  0.0000E+00  0.0000E+00  0.4000E+01  0.4000E+01
     -9.063  0.9058E+01  0.1051E+02  0.4630E+01  0.4731E+01
     -8.993  0.1442E+02  0.1523E+02  0.5633E+01  0.5791E+01
     -8.924  0.3402E+02  0.3176E+02  0.7999E+01  0.8000E+01
     -8.854  0.0000E+00  0.0000E+00  0.8000E+01  0.8000E+01
     -8.785  0.0000E+00  0.0000E+00  0.8000E+01  0.8000E+01
     -8.715  0.4226E+01  0.5182E+01  0.8294E+01  0.8360E+01
     -8.646  0.1015E+02  0.9196E+01  0.9000E+01  0.9000E+01
     -8.576  0.2872E+02  0.2875E+02  0.1100E+02  0.1100E+02
     -8.506  0.0000E+00  0.9079E-14  0.1100E+02  0.1100E+02
     -8.437  0.1306E+02  0.1387E+02  0.1191E+02  0.1196E+02
     -8.367  0.1319E+01  0.0000E+00  0.1200E+02  0.1200E+02
     -8.298  0.0000E+00  0.0000E+00  0.1200E+02  0.1200E+02
     -8.228  0.3894E-05  0.8826E-05  0.1200E+02  0.1200E+02
     -8.159  0.4260E+02  0.4287E+02  0.1496E+02  0.1498E+02
     -8.089  0.1438E+02  0.1438E+02  0.1600E+02  0.1600E+02
     -8.020  0.0000E+00  0.0000E+00  0.1600E+02  0.1600E+02
     -7.950  0.1292E-01  0.3777E-01  0.1600E+02  0.1600E+02
     -7.880  0.2874E+02  0.2872E+02  0.1800E+02  0.1800E+02
     -7.811  0.5331E-03  0.3220E-02  0.1800E+02  0.1800E+02
     -7.741  0.1440E+02  0.1440E+02  0.1900E+02  0.1900E+02
     -7.672  0.1436E+02  0.1435E+02  0.2000E+02  0.2000E+02
     -7.602  0.9023E-04  0.3604E-03  0.2000E+02  0.2000E+02
     -7.533  0.1438E+02  0.1438E+02  0.2100E+02  0.2100E+02
     -7.463  0.0000E+00  0.0000E+00  0.2100E+02  0.2100E+02
     -7.394  0.0000E+00  0.0000E+00  0.2100E+02  0.2100E+02
     -7.324  0.0000E+00  0.0000E+00  0.2100E+02  0.2100E+02
     -7.254  0.0000E+00  0.0000E+00  0.2100E+02  0.2100E+02
     -7.185  0.0000E+00  0.0000E+00  0.2100E+02  0.2100E+02
     -7.115  0.1838E+02  0.2029E+02  0.2228E+02  0.2241E+02
     -7.046  0.1038E+02  0.8469E+01  0.2300E+02  0.2300E+02
     -6.976  0.1330E-01  0.6547E-01  0.2300E+02  0.2300E+02
     -6.907  0.1436E+02  0.1431E+02  0.2400E+02  0.2400E+02
     -6.837  0.0000E+00  0.0000E+00  0.2400E+02  0.2400E+02
     -6.768  0.3214E-03  0.5815E-03  0.2400E+02  0.2400E+02
     -6.698  0.1438E+02  0.1438E+02  0.2500E+02  0.2500E+02
     -6.629  0.0000E+00  0.0000E+00  0.2500E+02  0.2500E+02
     -6.559  0.0000E+00  0.0000E+00  0.2500E+02  0.2500E+02
     -6.489  0.0000E+00  0.0000E+00  0.2500E+02  0.2500E+02
     -6.420  0.0000E+00  0.0000E+00  0.2500E+02  0.2500E+02
     -6.350  0.2967E-03  0.1192E-08  0.2500E+02  0.2500E+02
     -6.281  0.1683E+02  0.1220E+02  0.2617E+02  0.2585E+02
     -6.211  0.4474E+02  0.3426E+02  0.2928E+02  0.2824E+02
     -6.142  0.1031E+02  0.2531E+02  0.3000E+02  0.3000E+02
     -6.072  0.5925E-06  0.4004E-11  0.3000E+02  0.3000E+02
     -6.003  0.2464E+02  0.1457E+02  0.3171E+02  0.3101E+02
     -5.933  0.3964E+01  0.1408E+02  0.3200E+02  0.3200E+02
     -5.863  0.0000E+00  0.0000E+00  0.3200E+02  0.3200E+02
     -5.794  0.7681E+01  0.1832E+00  0.3253E+02  0.3201E+02
     -5.724  0.2107E+02  0.2857E+02  0.3400E+02  0.3400E+02
     -5.655  0.1438E+02  0.1429E+02  0.3500E+02  0.3499E+02
     -5.585  0.2487E-01  0.7607E-02  0.3500E+02  0.3500E+02
     -5.516  0.1790E+01  0.1798E+01  0.3513E+02  0.3513E+02
     -5.446  0.6664E+01  0.6188E+01  0.3559E+02  0.3556E+02
     -5.377  0.9446E+01  0.9634E+01  0.3625E+02  0.3623E+02
     -5.307  0.1354E+02  0.1345E+02  0.3719E+02  0.3716E+02
     -5.237  0.3123E+02  0.3266E+02  0.3936E+02  0.3943E+02
     -5.168  0.9436E+01  0.8695E+01  0.4003E+02  0.4004E+02
     -5.098  0.1765E+02  0.1755E+02  0.4126E+02  0.4126E+02
     -5.029  0.5788E+01  0.4671E+01  0.4166E+02  0.4159E+02
     -4.959  0.1193E+02  0.1293E+02  0.4249E+02  0.4249E+02
     -4.890  0.1560E+02  0.1582E+02  0.4357E+02  0.4359E+02
     -4.820  0.1075E+02  0.1051E+02  0.4432E+02  0.4432E+02
     -4.751  0.4749E+02  0.4780E+02  0.4763E+02  0.4765E+02
     -4.681  0.2005E+02  0.1795E+02  0.4904E+02  0.4892E+02
     -4.611  0.1325E+02  0.1388E+02  0.4996E+02  0.4988E+02
     -4.542  0.1302E+02  0.1342E+02  0.5087E+02  0.5082E+02
     -4.472  0.2450E+02  0.2471E+02  0.5257E+02  0.5254E+02
     -4.403  0.1799E+02  0.1789E+02  0.5383E+02  0.5379E+02
     -4.333  0.2605E+02  0.2593E+02  0.5564E+02  0.5559E+02
     -4.264  0.2444E+02  0.2468E+02  0.5735E+02  0.5732E+02
     -4.194  0.3022E+02  0.2974E+02  0.5945E+02  0.5939E+02
     -4.125  0.4486E+02  0.4566E+02  0.6257E+02  0.6256E+02
     -4.055  0.1961E+02  0.1939E+02  0.6394E+02  0.6391E+02
     -3.986  0.4782E+01  0.4852E+01  0.6428E+02  0.6426E+02
     -3.916  0.2851E+02  0.2804E+02  0.6626E+02  0.6621E+02
     -3.846  0.4157E+02  0.4273E+02  0.6917E+02  0.6919E+02
     -3.777  0.2321E+02  0.2216E+02  0.7078E+02  0.7073E+02
     -3.707  0.2231E+02  0.2231E+02  0.7234E+02  0.7230E+02
     -3.638  0.3249E+02  0.3299E+02  0.7460E+02  0.7459E+02
     -3.568  0.2270E+02  0.2133E+02  0.7618E+02  0.7608E+02
     -3.499  0.2257E+02  0.2269E+02  0.7776E+02  0.7767E+02
     -3.429  0.4751E+02  0.4755E+02  0.8107E+02  0.8098E+02
     -3.360  0.2942E+02  0.2996E+02  0.8314E+02  0.8309E+02
     -3.290  0.5208E+02  0.5243E+02  0.8677E+02  0.8673E+02
     -3.220  0.1212E+02  0.1248E+02  0.8763E+02  0.8763E+02
     -3.151  0.3051E+02  0.2953E+02  0.8975E+02  0.8968E+02
     -3.081  0.4042E+02  0.4104E+02  0.9257E+02  0.9254E+02
     -3.012  0.4095E+02  0.3942E+02  0.9542E+02  0.9528E+02
     -2.942  0.4605E+02  0.4790E+02  0.9862E+02  0.9862E+02
     -2.873  0.2658E+02  0.2670E+02  0.1005E+03  0.1005E+03
     -2.803  0.1309E+02  0.1180E+02  0.1014E+03  0.1013E+03
     -2.734  0.3045E+02  0.3140E+02  0.1035E+03  0.1035E+03
     -2.664  0.3181E+02  0.3067E+02  0.1057E+03  0.1056E+03
     -2.594  0.3141E+02  0.3111E+02  0.1079E+03  0.1078E+03
     -2.525  0.2672E+02  0.2809E+02  0.1098E+03  0.1098E+03
     -2.455  0.3570E+02  0.3540E+02  0.1123E+03  0.1122E+03
     -2.386  0.2173E+02  0.2148E+02  0.1138E+03  0.1137E+03
     -2.316  0.4302E+02  0.4077E+02  0.1168E+03  0.1166E+03
     -2.247  0.2935E+02  0.3263E+02  0.1188E+03  0.1188E+03
     -2.177  0.1920E+02  0.1804E+02  0.1202E+03  0.1201E+03
     -2.108  0.2623E+02  0.2686E+02  0.1220E+03  0.1220E+03
     -2.038  0.2319E+02  0.2268E+02  0.1236E+03  0.1236E+03
     -1.968  0.2950E+02  0.2824E+02  0.1257E+03  0.1255E+03
     -1.899  0.3384E+02  0.3217E+02  0.1281E+03  0.1278E+03
     -1.829  0.1344E+02  0.1654E+02  0.1290E+03  0.1290E+03
     -1.760  0.1331E+02  0.1324E+02  0.1299E+03  0.1299E+03
     -1.690  0.3504E+02  0.3439E+02  0.1324E+03  0.1323E+03
     -1.621  0.1646E+02  0.1769E+02  0.1335E+03  0.1335E+03
     -1.551  0.6360E+01  0.6122E+01  0.1339E+03  0.1339E+03
     -1.482  0.2646E+02  0.2467E+02  0.1358E+03  0.1356E+03
     -1.412  0.4009E+02  0.3751E+02  0.1386E+03  0.1383E+03
     -1.343  0.2690E+02  0.3144E+02  0.1405E+03  0.1405E+03
     -1.273  0.2357E+02  0.2224E+02  0.1421E+03  0.1420E+03
     -1.203  0.3239E+02  0.3060E+02  0.1444E+03  0.1441E+03
     -1.134  0.2753E+02  0.2864E+02  0.1463E+03  0.1461E+03
     -1.064  0.2705E+02  0.2909E+02  0.1482E+03  0.1482E+03
     -0.995  0.1417E+02  0.1337E+02  0.1492E+03  0.1491E+03
     -0.925  0.2330E+02  0.2331E+02  0.1508E+03  0.1507E+03
     -0.856  0.4767E+02  0.4514E+02  0.1541E+03  0.1539E+03
     -0.786  0.2189E+02  0.2414E+02  0.1557E+03  0.1555E+03
     -0.717  0.3413E+02  0.3077E+02  0.1580E+03  0.1577E+03
     -0.647  0.3192E+02  0.2760E+02  0.1603E+03  0.1596E+03
     -0.577  0.4077E+02  0.4807E+02  0.1631E+03  0.1630E+03
     -0.508  0.3663E+02  0.2673E+02  0.1657E+03  0.1649E+03
     -0.438  0.4097E+02  0.5062E+02  0.1685E+03  0.1684E+03
     -0.369  0.3044E+02  0.2654E+02  0.1707E+03  0.1702E+03
     -0.299  0.3469E+02  0.3753E+02  0.1731E+03  0.1728E+03
     -0.230  0.3084E+02  0.3257E+02  0.1752E+03  0.1751E+03
     -0.160  0.5757E+02  0.4657E+02  0.1792E+03  0.1784E+03
     -0.091  0.3738E+02  0.4642E+02  0.1818E+03  0.1816E+03
     -0.021  0.2866E+02  0.3005E+02  0.1838E+03  0.1837E+03
      0.049  0.3126E+02  0.3254E+02  0.1860E+03  0.1860E+03
      0.118  0.2818E+02  0.2357E+02  0.1880E+03  0.1876E+03
      0.188  0.2308E+02  0.2620E+02  0.1896E+03  0.1894E+03
      0.257  0.3992E+02  0.3117E+02  0.1924E+03  0.1916E+03
      0.327  0.3808E+02  0.4368E+02  0.1950E+03  0.1947E+03
      0.396  0.2395E+02  0.2356E+02  0.1967E+03  0.1963E+03
      0.466  0.3812E+02  0.4228E+02  0.1994E+03  0.1992E+03
      0.535  0.2919E+02  0.3050E+02  0.2014E+03  0.2014E+03
      0.605  0.3738E+02  0.3457E+02  0.2040E+03  0.2038E+03
      0.675  0.3552E+02  0.3767E+02  0.2065E+03  0.2064E+03
      0.744  0.3636E+02  0.3343E+02  0.2090E+03  0.2088E+03
      0.814  0.2506E+02  0.2789E+02  0.2108E+03  0.2107E+03
      0.883  0.3541E+02  0.3420E+02  0.2133E+03  0.2131E+03
      0.953  0.2342E+02  0.2451E+02  0.2149E+03  0.2148E+03
      1.022  0.3469E+02  0.3059E+02  0.2173E+03  0.2170E+03
      1.092  0.3323E+02  0.3489E+02  0.2196E+03  0.2194E+03
      1.161  0.7249E+02  0.7351E+02  0.2247E+03  0.2245E+03
      1.231  0.1797E+02  0.1582E+02  0.2259E+03  0.2257E+03
      1.300  0.4189E+02  0.4018E+02  0.2288E+03  0.2285E+03
      1.370  0.2792E+02  0.3115E+02  0.2308E+03  0.2306E+03
      1.440  0.4213E+02  0.3957E+02  0.2337E+03  0.2334E+03
      1.509  0.3481E+02  0.3511E+02  0.2361E+03  0.2358E+03
      1.579  0.4754E+02  0.3348E+02  0.2395E+03  0.2382E+03
      1.648  0.3913E+02  0.5662E+02  0.2422E+03  0.2421E+03
      1.718  0.3590E+02  0.3093E+02  0.2447E+03  0.2443E+03
      1.787  0.1704E+02  0.2208E+02  0.2459E+03  0.2458E+03
      1.857  0.3422E+02  0.2412E+02  0.2483E+03  0.2475E+03
      1.926  0.4218E+02  0.4900E+02  0.2512E+03  0.2509E+03
      1.996  0.3020E+02  0.2942E+02  0.2533E+03  0.2530E+03
      2.066  0.3769E+02  0.3676E+02  0.2559E+03  0.2555E+03
      2.135  0.4736E+02  0.4554E+02  0.2592E+03  0.2587E+03
      2.205  0.3637E+02  0.3890E+02  0.2618E+03  0.2614E+03
      2.274  0.3962E+02  0.4195E+02  0.2645E+03  0.2644E+03
      2.344  0.2188E+02  0.2359E+02  0.2661E+03  0.2660E+03
      2.413  0.4557E+02  0.3972E+02  0.2692E+03  0.2688E+03
      2.483  0.5936E+02  0.5665E+02  0.2734E+03  0.2727E+03
      2.552  0.3625E+02  0.4007E+02  0.2759E+03  0.2755E+03
      2.622  0.4698E+02  0.4588E+02  0.2792E+03  0.2787E+03
      2.692  0.4295E+02  0.4169E+02  0.2822E+03  0.2816E+03
      2.761  0.5649E+02  0.5690E+02  0.2861E+03  0.2856E+03
      2.831  0.6344E+02  0.6643E+02  0.2905E+03  0.2902E+03
      2.900  0.3186E+02  0.2978E+02  0.2928E+03  0.2923E+03
      2.970  0.4600E+02  0.4933E+02  0.2960E+03  0.2957E+03
      3.039  0.5375E+02  0.5350E+02  0.2997E+03  0.2995E+03
      3.109  0.6180E+02  0.6136E+02  0.3041E+03  0.3038E+03
      3.178  0.4068E+02  0.3637E+02  0.3069E+03  0.3063E+03
      3.248  0.5970E+02  0.6396E+02  0.3111E+03  0.3107E+03
      3.318  0.6746E+02  0.6724E+02  0.3158E+03  0.3154E+03
      3.387  0.5258E+02  0.4962E+02  0.3194E+03  0.3189E+03
      3.457  0.6770E+02  0.6536E+02  0.3241E+03  0.3234E+03
      3.526  0.4307E+02  0.4818E+02  0.3271E+03  0.3268E+03
      3.596  0.5447E+02  0.5116E+02  0.3309E+03  0.3304E+03
      3.665  0.4662E+02  0.5259E+02  0.3342E+03  0.3341E+03
      3.735  0.5866E+02  0.5327E+02  0.3383E+03  0.3378E+03
      3.804  0.5363E+02  0.5356E+02  0.3420E+03  0.3415E+03
      3.874  0.8188E+02  0.8444E+02  0.3477E+03  0.3474E+03
      3.943  0.5973E+02  0.5792E+02  0.3519E+03  0.3514E+03
      4.013  0.6282E+02  0.6496E+02  0.3563E+03  0.3560E+03
      4.083  0.4443E+02  0.4458E+02  0.3594E+03  0.3591E+03
      4.152  0.4596E+02  0.4526E+02  0.3626E+03  0.3622E+03
      4.222  0.6427E+02  0.6098E+02  0.3671E+03  0.3665E+03
      4.291  0.6607E+02  0.6729E+02  0.3717E+03  0.3712E+03
      4.361  0.3735E+02  0.4222E+02  0.3743E+03  0.3741E+03
      4.430  0.7250E+02  0.6742E+02  0.3794E+03  0.3788E+03
      4.500  0.5119E+02  0.5540E+02  0.3830E+03  0.3827E+03
      4.569  0.4356E+02  0.4334E+02  0.3860E+03  0.3857E+03
      4.639  0.4210E+02  0.4228E+02  0.3889E+03  0.3887E+03
      4.709  0.5863E+02  0.5237E+02  0.3930E+03  0.3923E+03
      4.778  0.4921E+02  0.5752E+02  0.3964E+03  0.3963E+03
      4.848  0.4665E+02  0.4084E+02  0.3997E+03  0.3992E+03
      4.917  0.4275E+02  0.3725E+02  0.4027E+03  0.4018E+03
      4.987  0.3545E+02  0.4482E+02  0.4052E+03  0.4049E+03
      5.056  0.2340E+02  0.2591E+02  0.4068E+03  0.4067E+03
      5.126  0.4184E+02  0.3659E+02  0.4097E+03  0.4093E+03
      5.195  0.4832E+02  0.4678E+02  0.4131E+03  0.4126E+03
      5.265  0.5846E+02  0.4776E+02  0.4171E+03  0.4159E+03
      5.335  0.5748E+02  0.6820E+02  0.4212E+03  0.4206E+03
      5.404  0.3074E+02  0.3033E+02  0.4233E+03  0.4227E+03
      5.474  0.3653E+02  0.2630E+02  0.4259E+03  0.4246E+03
      5.543  0.3575E+02  0.4346E+02  0.4284E+03  0.4276E+03
      5.613  0.4126E+02  0.4167E+02  0.4312E+03  0.4305E+03
      5.682  0.3639E+02  0.3646E+02  0.4338E+03  0.4331E+03
      5.752  0.3639E+02  0.3644E+02  0.4363E+03  0.4356E+03
      5.821  0.4022E+02  0.3239E+02  0.4391E+03  0.4379E+03
      5.891  0.7320E+02  0.6972E+02  0.4442E+03  0.4427E+03
      5.961  0.5065E+02  0.5402E+02  0.4477E+03  0.4465E+03
      6.030  0.1931E+02  0.3314E+02  0.4491E+03  0.4488E+03
      6.100  0.3533E+02  0.3078E+02  0.4516E+03  0.4510E+03
      6.169  0.5026E+02  0.4199E+02  0.4551E+03  0.4539E+03
      6.239  0.4471E+02  0.4043E+02  0.4582E+03  0.4567E+03
      6.308  0.1847E+02  0.2867E+02  0.4595E+03  0.4587E+03
      6.378  0.4280E+02  0.3101E+02  0.4625E+03  0.4609E+03
      6.447  0.5350E+02  0.5239E+02  0.4662E+03  0.4645E+03
      6.517  0.3428E+02  0.3949E+02  0.4686E+03  0.4673E+03
      6.586  0.3333E+02  0.2740E+02  0.4709E+03  0.4692E+03
      6.656  0.5898E+02  0.4024E+02  0.4751E+03  0.4720E+03
      6.726  0.2929E+02  0.6103E+02  0.4771E+03  0.4762E+03
      6.795  0.4139E+02  0.2326E+02  0.4800E+03  0.4779E+03
      6.865  0.6715E+02  0.3715E+02  0.4847E+03  0.4805E+03
      6.934  0.4079E+02  0.5973E+02  0.4875E+03  0.4846E+03
      7.004  0.4522E+02  0.5284E+02  0.4907E+03  0.4883E+03
      7.073  0.5407E+02  0.4378E+02  0.4945E+03  0.4914E+03
      7.143  0.5638E+02  0.5820E+02  0.4984E+03  0.4954E+03
      7.212  0.2847E+02  0.5227E+02  0.5004E+03  0.4991E+03
      7.282  0.3257E+02  0.4013E+02  0.5027E+03  0.5019E+03
      7.352  0.2860E+02  0.2782E+02  0.5047E+03  0.5038E+03
      7.421  0.3169E+02  0.2750E+02  0.5069E+03  0.5058E+03
      7.491  0.3057E+02  0.3590E+02  0.5090E+03  0.5083E+03
      7.560  0.6360E+02  0.5030E+02  0.5135E+03  0.5118E+03
      7.630  0.3323E+02  0.4958E+02  0.5158E+03  0.5152E+03
      7.699  0.4173E+02  0.3494E+02  0.5187E+03  0.5177E+03
      7.769  0.5232E+02  0.5540E+02  0.5224E+03  0.5215E+03
      7.838  0.4807E+02  0.5043E+02  0.5257E+03  0.5251E+03
      7.908  0.2513E+02  0.2741E+02  0.5275E+03  0.5270E+03
      7.978  0.4327E+02  0.4429E+02  0.5305E+03  0.5301E+03
      8.047  0.3566E+02  0.3708E+02  0.5330E+03  0.5327E+03
      8.117  0.4708E+02  0.4294E+02  0.5363E+03  0.5357E+03
      8.186  0.5898E+02  0.5945E+02  0.5404E+03  0.5398E+03
      8.256  0.4674E+02  0.5300E+02  0.5437E+03  0.5435E+03
      8.325  0.4042E+02  0.3726E+02  0.5465E+03  0.5461E+03
      8.395  0.5648E+02  0.5017E+02  0.5504E+03  0.5496E+03
      8.464  0.5251E+02  0.5643E+02  0.5541E+03  0.5535E+03
      8.534  0.5349E+02  0.5302E+02  0.5578E+03  0.5572E+03
      8.604  0.3904E+02  0.4302E+02  0.5605E+03  0.5602E+03
      8.673  0.6671E+02  0.6384E+02  0.5652E+03  0.5647E+03
      8.743  0.4230E+02  0.4249E+02  0.5681E+03  0.5677E+03
      8.812  0.3457E+02  0.3754E+02  0.5705E+03  0.5703E+03
      8.882  0.3706E+02  0.3942E+02  0.5731E+03  0.5730E+03
      8.951  0.3037E+02  0.3197E+02  0.5752E+03  0.5752E+03
      9.021  0.2274E+01  0.1590E+01  0.5754E+03  0.5754E+03
      9.090  0.8456E+01  0.9193E+01  0.5760E+03  0.5760E+03
      9.160  0.0000E+00  0.0000E+00  0.5760E+03  0.5760E+03
      9.229  0.0000E+00  0.0000E+00  0.5760E+03  0.5760E+03
      9.299  0.0000E+00  0.0000E+00  0.5760E+03  0.5760E+03
      9.369  0.0000E+00  0.0000E+00  0.5760E+03  0.5760E+03
      9.438  0.0000E+00  0.0000E+00  0.5760E+03  0.5760E+03
      9.508  0.0000E+00  0.0000E+00  0.5760E+03  0.5760E+03
      9.577  0.0000E+00  0.0000E+00  0.5760E+03  0.5760E+03
      9.647  0.0000E+00  0.0000E+00  0.5760E+03  0.5760E+03
      9.716  0.0000E+00  0.0000E+00  0.5760E+03  0.5760E+03
      9.786  0.0000E+00  0.0000E+00  0.5760E+03  0.5760E+03
      9.855  0.0000E+00  0.0000E+00  0.5760E+03  0.5760E+03
      9.925  0.0000E+00  0.0000E+00  0.5760E+03  0.5760E+03
      9.995  0.0000E+00  0.0000E+00  0.5760E+03  0.5760E+03
