 264 264   0   0
  0.2139018E+02  0.1946760E-08  0.1946760E-08  0.1490025E-08  0.5000000E-15
  1.000000000000000E-004
  CAR 
 Si and Ge interface calculation         
      9.63121130     -9.46235995  301      6.58032179      1.00000000
     -9.462  0.0000E+00  0.0000E+00  0.0000E+00  0.0000E+00
     -9.399  0.0000E+00  0.0000E+00  0.0000E+00  0.0000E+00
     -9.335  0.0000E+00  0.0000E+00  0.0000E+00  0.0000E+00
     -9.271  0.0000E+00  0.0000E+00  0.0000E+00  0.0000E+00
     -9.208  0.0000E+00  0.0000E+00  0.0000E+00  0.0000E+00
     -9.144  0.0000E+00  0.0000E+00  0.0000E+00  0.0000E+00
     -9.080  0.0000E+00  0.0000E+00  0.0000E+00  0.0000E+00
     -9.017  0.0000E+00  0.0000E+00  0.0000E+00  0.0000E+00
     -8.953  0.0000E+00  0.0000E+00  0.0000E+00  0.0000E+00
     -8.890  0.0000E+00  0.0000E+00  0.0000E+00  0.0000E+00
     -8.826  0.0000E+00  0.0000E+00  0.0000E+00  0.0000E+00
     -8.762  0.0000E+00  0.0000E+00  0.0000E+00  0.0000E+00
     -8.699  0.0000E+00  0.0000E+00  0.0000E+00  0.0000E+00
     -8.635  0.8920E-07  0.1381E-09  0.5677E-08  0.8792E-11
     -8.571  0.3203E+02  0.3368E+02  0.2039E+01  0.2144E+01
     -8.508  0.3079E+02  0.2917E+02  0.4000E+01  0.4000E+01
     -8.444  0.0000E+00  0.0000E+00  0.4000E+01  0.4000E+01
     -8.380  0.3784E-04  0.1167E-03  0.4000E+01  0.4000E+01
     -8.317  0.5085E+02  0.5476E+02  0.7236E+01  0.7485E+01
     -8.253  0.3892E+02  0.2792E+02  0.9714E+01  0.9267E+01
     -8.189  0.4498E+01  0.1146E+02  0.1000E+02  0.1000E+02
     -8.126  0.0000E+00  0.0000E+00  0.1000E+02  0.1000E+02
     -8.062  0.3854E-02  0.5253E-03  0.1000E+02  0.1000E+02
     -7.999  0.3142E+02  0.3142E+02  0.1200E+02  0.1200E+02
     -7.935  0.3140E+02  0.3137E+02  0.1400E+02  0.1400E+02
     -7.871  0.0000E+00  0.0000E+00  0.1400E+02  0.1400E+02
     -7.808  0.0000E+00  0.0000E+00  0.1400E+02  0.1400E+02
     -7.744  0.0000E+00  0.0000E+00  0.1400E+02  0.1400E+02
     -7.680  0.4997E-02  0.3784E-04  0.1400E+02  0.1400E+02
     -7.617  0.5662E+02  0.4790E+02  0.1760E+02  0.1705E+02
     -7.553  0.6202E+01  0.1495E+02  0.1800E+02  0.1800E+02
     -7.489  0.0000E+00  0.0000E+00  0.1800E+02  0.1800E+02
     -7.426  0.4077E+01  0.4106E+00  0.1826E+02  0.1803E+02
     -7.362  0.2747E+02  0.3102E+02  0.2001E+02  0.2000E+02
     -7.298  0.3190E+02  0.3188E+02  0.2204E+02  0.2203E+02
     -7.235  0.5531E+02  0.5481E+02  0.2556E+02  0.2552E+02
     -7.171  0.6935E+01  0.7575E+01  0.2600E+02  0.2600E+02
     -7.107  0.3137E+02  0.3068E+02  0.2800E+02  0.2795E+02
     -7.044  0.3471E+02  0.2333E+02  0.3021E+02  0.2944E+02
     -6.980  0.5956E+02  0.7164E+02  0.3400E+02  0.3400E+02
     -6.917  0.3062E+02  0.3043E+02  0.3595E+02  0.3594E+02
     -6.853  0.3219E+02  0.3238E+02  0.3800E+02  0.3800E+02
     -6.789  0.3141E+02  0.3014E+02  0.4000E+02  0.3992E+02
     -6.726  0.0000E+00  0.1270E+01  0.4000E+02  0.4000E+02
     -6.662  0.1106E+02  0.6863E+01  0.4070E+02  0.4044E+02
     -6.598  0.2036E+02  0.2456E+02  0.4200E+02  0.4200E+02
     -6.535  0.1497E+02  0.1688E+02  0.4295E+02  0.4307E+02
     -6.471  0.1645E+02  0.1454E+02  0.4400E+02  0.4400E+02
     -6.407  0.6611E-06  0.2192E-06  0.4400E+02  0.4400E+02
     -6.344  0.1523E+02  0.1479E+02  0.4497E+02  0.4494E+02
     -6.280  0.2479E+02  0.2744E+02  0.4655E+02  0.4669E+02
     -6.216  0.3041E+02  0.2841E+02  0.4848E+02  0.4850E+02
     -6.153  0.3169E+02  0.3145E+02  0.5050E+02  0.5050E+02
     -6.089  0.3318E+02  0.3625E+02  0.5262E+02  0.5281E+02
     -6.026  0.2143E+02  0.1800E+02  0.5398E+02  0.5395E+02
     -5.962  0.2548E+01  0.3145E+01  0.5414E+02  0.5415E+02
     -5.898  0.4277E+02  0.3442E+02  0.5687E+02  0.5634E+02
     -5.835  0.1782E+02  0.2601E+02  0.5800E+02  0.5800E+02
     -5.771  0.3168E+02  0.3631E+02  0.6002E+02  0.6031E+02
     -5.707  0.2389E+02  0.2568E+02  0.6154E+02  0.6195E+02
     -5.644  0.7272E+01  0.7290E+00  0.6200E+02  0.6200E+02
     -5.580  0.1688E+02  0.1502E+02  0.6307E+02  0.6296E+02
     -5.516  0.1454E+02  0.1641E+02  0.6400E+02  0.6400E+02
     -5.453  0.1562E+02  0.1574E+02  0.6499E+02  0.6500E+02
     -5.389  0.3986E+02  0.3855E+02  0.6753E+02  0.6746E+02
     -5.325  0.2849E+02  0.2901E+02  0.6934E+02  0.6930E+02
     -5.262  0.3338E+02  0.3208E+02  0.7147E+02  0.7134E+02
     -5.198  0.1457E+02  0.1379E+02  0.7240E+02  0.7222E+02
     -5.134  0.2527E+02  0.2724E+02  0.7400E+02  0.7395E+02
     -5.071  0.3089E+02  0.3140E+02  0.7597E+02  0.7595E+02
     -5.007  0.3736E+02  0.3273E+02  0.7835E+02  0.7804E+02
     -4.944  0.4570E+02  0.4941E+02  0.8126E+02  0.8118E+02
     -4.880  0.1864E+02  0.1862E+02  0.8245E+02  0.8237E+02
     -4.816  0.3944E+02  0.4040E+02  0.8496E+02  0.8494E+02
     -4.753  0.5521E+02  0.5374E+02  0.8847E+02  0.8836E+02
     -4.689  0.3888E+02  0.3772E+02  0.9095E+02  0.9077E+02
     -4.625  0.3090E+02  0.3406E+02  0.9292E+02  0.9294E+02
     -4.562  0.6269E+02  0.6113E+02  0.9691E+02  0.9683E+02
     -4.498  0.5478E+02  0.4996E+02  0.1004E+03  0.1000E+03
     -4.434  0.4463E+02  0.4796E+02  0.1032E+03  0.1031E+03
     -4.371  0.4641E+02  0.5066E+02  0.1062E+03  0.1063E+03
     -4.307  0.3660E+02  0.3361E+02  0.1085E+03  0.1084E+03
     -4.243  0.6470E+02  0.6571E+02  0.1126E+03  0.1126E+03
     -4.180  0.4819E+02  0.4751E+02  0.1157E+03  0.1156E+03
     -4.116  0.6341E+02  0.6280E+02  0.1197E+03  0.1196E+03
     -4.053  0.5401E+02  0.5308E+02  0.1232E+03  0.1230E+03
     -3.989  0.6892E+02  0.6625E+02  0.1276E+03  0.1272E+03
     -3.925  0.6291E+02  0.6896E+02  0.1316E+03  0.1316E+03
     -3.862  0.4987E+02  0.4651E+02  0.1348E+03  0.1346E+03
     -3.798  0.4358E+02  0.4665E+02  0.1375E+03  0.1376E+03
     -3.734  0.6086E+02  0.5952E+02  0.1414E+03  0.1413E+03
     -3.671  0.5500E+02  0.5432E+02  0.1449E+03  0.1448E+03
     -3.607  0.5230E+02  0.5312E+02  0.1482E+03  0.1482E+03
     -3.543  0.5195E+02  0.5083E+02  0.1515E+03  0.1514E+03
     -3.480  0.3893E+02  0.3995E+02  0.1540E+03  0.1540E+03
     -3.416  0.4575E+02  0.4800E+02  0.1569E+03  0.1570E+03
     -3.352  0.5236E+02  0.5124E+02  0.1603E+03  0.1603E+03
     -3.289  0.3920E+02  0.3445E+02  0.1628E+03  0.1625E+03
     -3.225  0.4886E+02  0.5234E+02  0.1659E+03  0.1658E+03
     -3.161  0.6071E+02  0.5899E+02  0.1697E+03  0.1696E+03
     -3.098  0.4709E+02  0.4511E+02  0.1727E+03  0.1724E+03
     -3.034  0.6154E+02  0.6356E+02  0.1767E+03  0.1765E+03
     -2.971  0.6130E+02  0.6149E+02  0.1806E+03  0.1804E+03
     -2.907  0.5262E+02  0.5311E+02  0.1839E+03  0.1838E+03
     -2.843  0.6173E+02  0.6005E+02  0.1878E+03  0.1876E+03
     -2.780  0.6112E+02  0.6196E+02  0.1917E+03  0.1915E+03
     -2.716  0.5490E+02  0.5578E+02  0.1952E+03  0.1951E+03
     -2.652  0.5867E+02  0.5973E+02  0.1990E+03  0.1989E+03
     -2.589  0.6967E+02  0.6963E+02  0.2034E+03  0.2033E+03
     -2.525  0.7047E+02  0.6971E+02  0.2079E+03  0.2078E+03
     -2.461  0.5071E+02  0.5224E+02  0.2111E+03  0.2111E+03
     -2.398  0.6453E+02  0.6456E+02  0.2152E+03  0.2152E+03
     -2.334  0.5328E+02  0.5059E+02  0.2186E+03  0.2184E+03
     -2.270  0.8245E+02  0.8275E+02  0.2239E+03  0.2237E+03
     -2.207  0.6393E+02  0.6471E+02  0.2279E+03  0.2278E+03
     -2.143  0.8647E+02  0.8117E+02  0.2334E+03  0.2330E+03
     -2.080  0.7838E+02  0.8132E+02  0.2384E+03  0.2382E+03
     -2.016  0.7111E+02  0.7311E+02  0.2430E+03  0.2428E+03
     -1.952  0.7138E+02  0.7314E+02  0.2475E+03  0.2475E+03
     -1.889  0.7581E+02  0.7449E+02  0.2523E+03  0.2522E+03
     -1.825  0.7808E+02  0.8186E+02  0.2573E+03  0.2574E+03
     -1.761  0.6581E+02  0.6167E+02  0.2615E+03  0.2614E+03
     -1.698  0.6321E+02  0.6459E+02  0.2655E+03  0.2655E+03
     -1.634  0.6628E+02  0.6895E+02  0.2697E+03  0.2699E+03
     -1.570  0.6160E+02  0.5829E+02  0.2737E+03  0.2736E+03
     -1.507  0.7268E+02  0.8013E+02  0.2783E+03  0.2787E+03
     -1.443  0.6583E+02  0.6216E+02  0.2825E+03  0.2826E+03
     -1.379  0.7538E+02  0.7626E+02  0.2873E+03  0.2875E+03
     -1.316  0.7621E+02  0.7564E+02  0.2921E+03  0.2923E+03
     -1.252  0.5891E+02  0.5613E+02  0.2959E+03  0.2959E+03
     -1.188  0.7439E+02  0.7049E+02  0.3006E+03  0.3004E+03
     -1.125  0.6213E+02  0.6339E+02  0.3046E+03  0.3044E+03
     -1.061  0.6817E+02  0.6760E+02  0.3089E+03  0.3087E+03
     -0.998  0.6437E+02  0.6479E+02  0.3130E+03  0.3128E+03
     -0.934  0.7014E+02  0.7064E+02  0.3175E+03  0.3173E+03
     -0.870  0.7197E+02  0.7201E+02  0.3221E+03  0.3219E+03
     -0.807  0.5624E+02  0.5727E+02  0.3257E+03  0.3256E+03
     -0.743  0.7354E+02  0.7169E+02  0.3303E+03  0.3301E+03
     -0.679  0.6777E+02  0.7151E+02  0.3347E+03  0.3347E+03
     -0.616  0.6700E+02  0.6643E+02  0.3389E+03  0.3389E+03
     -0.552  0.7210E+02  0.6946E+02  0.3435E+03  0.3433E+03
     -0.488  0.7059E+02  0.7062E+02  0.3480E+03  0.3478E+03
     -0.425  0.5861E+02  0.6249E+02  0.3517E+03  0.3518E+03
     -0.361  0.7700E+02  0.7691E+02  0.3566E+03  0.3567E+03
     -0.297  0.7470E+02  0.7035E+02  0.3614E+03  0.3612E+03
     -0.234  0.7525E+02  0.7616E+02  0.3662E+03  0.3660E+03
     -0.170  0.6675E+02  0.6690E+02  0.3704E+03  0.3703E+03
     -0.107  0.9863E+02  0.1032E+03  0.3767E+03  0.3769E+03
     -0.043  0.9074E+02  0.8798E+02  0.3825E+03  0.3825E+03
      0.021  0.9420E+02  0.9578E+02  0.3885E+03  0.3886E+03
      0.084  0.8815E+02  0.8112E+02  0.3941E+03  0.3937E+03
      0.148  0.8189E+02  0.8333E+02  0.3993E+03  0.3990E+03
      0.212  0.8903E+02  0.8955E+02  0.4050E+03  0.4047E+03
      0.275  0.9550E+02  0.9652E+02  0.4111E+03  0.4109E+03
      0.339  0.8703E+02  0.8664E+02  0.4166E+03  0.4164E+03
      0.403  0.8529E+02  0.8758E+02  0.4220E+03  0.4220E+03
      0.466  0.8478E+02  0.8380E+02  0.4274E+03  0.4273E+03
      0.530  0.8741E+02  0.8009E+02  0.4330E+03  0.4324E+03
      0.594  0.8420E+02  0.8897E+02  0.4384E+03  0.4381E+03
      0.657  0.8163E+02  0.8466E+02  0.4436E+03  0.4435E+03
      0.721  0.8163E+02  0.8086E+02  0.4488E+03  0.4486E+03
      0.785  0.8286E+02  0.8525E+02  0.4540E+03  0.4540E+03
      0.848  0.9238E+02  0.8975E+02  0.4599E+03  0.4598E+03
      0.912  0.8212E+02  0.8299E+02  0.4651E+03  0.4650E+03
      0.975  0.8121E+02  0.7830E+02  0.4703E+03  0.4700E+03
      1.039  0.8510E+02  0.8371E+02  0.4757E+03  0.4754E+03
      1.103  0.8454E+02  0.8707E+02  0.4811E+03  0.4809E+03
      1.166  0.6547E+02  0.6209E+02  0.4853E+03  0.4849E+03
      1.230  0.8402E+02  0.8665E+02  0.4906E+03  0.4904E+03
      1.294  0.7989E+02  0.7814E+02  0.4957E+03  0.4953E+03
      1.357  0.6823E+02  0.6857E+02  0.5001E+03  0.4997E+03
      1.421  0.9064E+02  0.9696E+02  0.5058E+03  0.5059E+03
      1.485  0.8539E+02  0.7784E+02  0.5113E+03  0.5108E+03
      1.548  0.8300E+02  0.7927E+02  0.5166E+03  0.5159E+03
      1.612  0.7695E+02  0.9210E+02  0.5215E+03  0.5218E+03
      1.676  0.8514E+02  0.7653E+02  0.5269E+03  0.5266E+03
      1.739  0.1049E+03  0.1018E+03  0.5336E+03  0.5331E+03
      1.803  0.8460E+02  0.8505E+02  0.5389E+03  0.5385E+03
      1.866  0.9160E+02  0.8812E+02  0.5448E+03  0.5441E+03
      1.930  0.9437E+02  0.9218E+02  0.5508E+03  0.5500E+03
      1.994  0.9985E+02  0.1076E+03  0.5571E+03  0.5569E+03
      2.057  0.9142E+02  0.8207E+02  0.5630E+03  0.5621E+03
      2.121  0.9639E+02  0.1107E+03  0.5691E+03  0.5691E+03
      2.185  0.1030E+03  0.9237E+02  0.5757E+03  0.5750E+03
      2.248  0.9843E+02  0.1024E+03  0.5819E+03  0.5815E+03
      2.312  0.1013E+03  0.1010E+03  0.5884E+03  0.5880E+03
      2.376  0.9957E+02  0.1019E+03  0.5947E+03  0.5944E+03
      2.439  0.1027E+03  0.9795E+02  0.6013E+03  0.6007E+03
      2.503  0.9349E+02  0.9919E+02  0.6072E+03  0.6070E+03
      2.567  0.1009E+03  0.1084E+03  0.6136E+03  0.6139E+03
      2.630  0.1071E+03  0.9983E+02  0.6204E+03  0.6203E+03
      2.694  0.1234E+03  0.1252E+03  0.6283E+03  0.6282E+03
      2.758  0.1299E+03  0.1224E+03  0.6366E+03  0.6360E+03
      2.821  0.1090E+03  0.1134E+03  0.6435E+03  0.6432E+03
      2.885  0.1259E+03  0.1252E+03  0.6515E+03  0.6512E+03
      2.948  0.1223E+03  0.1195E+03  0.6593E+03  0.6588E+03
      3.012  0.1285E+03  0.1262E+03  0.6675E+03  0.6669E+03
      3.076  0.1137E+03  0.1177E+03  0.6747E+03  0.6744E+03
      3.139  0.1171E+03  0.1157E+03  0.6822E+03  0.6817E+03
      3.203  0.1218E+03  0.1229E+03  0.6900E+03  0.6896E+03
      3.267  0.1127E+03  0.1166E+03  0.6971E+03  0.6970E+03
      3.330  0.1348E+03  0.1224E+03  0.7057E+03  0.7048E+03
      3.394  0.1022E+03  0.1146E+03  0.7122E+03  0.7121E+03
      3.458  0.1121E+03  0.1032E+03  0.7194E+03  0.7186E+03
      3.521  0.1134E+03  0.1148E+03  0.7266E+03  0.7260E+03
      3.585  0.1163E+03  0.1152E+03  0.7340E+03  0.7333E+03
      3.649  0.1156E+03  0.1165E+03  0.7413E+03  0.7407E+03
      3.712  0.1156E+03  0.1185E+03  0.7487E+03  0.7482E+03
      3.776  0.1144E+03  0.1116E+03  0.7560E+03  0.7554E+03
      3.839  0.1115E+03  0.1080E+03  0.7631E+03  0.7622E+03
      3.903  0.1145E+03  0.1205E+03  0.7704E+03  0.7699E+03
      3.967  0.1180E+03  0.1262E+03  0.7779E+03  0.7779E+03
      4.030  0.1192E+03  0.1058E+03  0.7855E+03  0.7847E+03
      4.094  0.1142E+03  0.1174E+03  0.7927E+03  0.7922E+03
      4.158  0.1185E+03  0.1144E+03  0.8003E+03  0.7994E+03
      4.221  0.1158E+03  0.1210E+03  0.8077E+03  0.8071E+03
      4.285  0.1216E+03  0.1172E+03  0.8154E+03  0.8146E+03
      4.349  0.1194E+03  0.1253E+03  0.8230E+03  0.8226E+03
      4.412  0.1030E+03  0.9491E+02  0.8296E+03  0.8286E+03
      4.476  0.1110E+03  0.1267E+03  0.8366E+03  0.8367E+03
      4.540  0.1092E+03  0.1062E+03  0.8436E+03  0.8435E+03
      4.603  0.1133E+03  0.1115E+03  0.8508E+03  0.8506E+03
      4.667  0.1151E+03  0.1109E+03  0.8581E+03  0.8576E+03
      4.731  0.1088E+03  0.1126E+03  0.8651E+03  0.8648E+03
      4.794  0.9064E+02  0.9653E+02  0.8708E+03  0.8709E+03
      4.858  0.1067E+03  0.9937E+02  0.8776E+03  0.8772E+03
      4.921  0.9666E+02  0.1034E+03  0.8838E+03  0.8838E+03
      4.985  0.9078E+02  0.8045E+02  0.8896E+03  0.8890E+03
      5.049  0.8482E+02  0.9625E+02  0.8949E+03  0.8951E+03
      5.112  0.9774E+02  0.8788E+02  0.9012E+03  0.9007E+03
      5.176  0.1128E+03  0.1166E+03  0.9084E+03  0.9081E+03
      5.240  0.1023E+03  0.1099E+03  0.9149E+03  0.9151E+03
      5.303  0.1075E+03  0.1094E+03  0.9217E+03  0.9221E+03
      5.367  0.9807E+02  0.9997E+02  0.9280E+03  0.9284E+03
      5.431  0.1064E+03  0.9082E+02  0.9347E+03  0.9342E+03
      5.494  0.9080E+02  0.9471E+02  0.9405E+03  0.9402E+03
      5.558  0.9898E+02  0.9853E+02  0.9468E+03  0.9465E+03
      5.622  0.1005E+03  0.9260E+02  0.9532E+03  0.9524E+03
      5.685  0.1128E+03  0.1116E+03  0.9604E+03  0.9595E+03
      5.749  0.9069E+02  0.8605E+02  0.9662E+03  0.9650E+03
      5.812  0.9381E+02  0.1008E+03  0.9721E+03  0.9714E+03
      5.876  0.9592E+02  0.9119E+02  0.9782E+03  0.9772E+03
      5.940  0.1045E+03  0.1105E+03  0.9849E+03  0.9843E+03
      6.003  0.1019E+03  0.9697E+02  0.9914E+03  0.9904E+03
      6.067  0.1092E+03  0.1005E+03  0.9983E+03  0.9968E+03
      6.131  0.1035E+03  0.1161E+03  0.1005E+04  0.1004E+04
      6.194  0.1019E+03  0.1006E+03  0.1011E+04  0.1011E+04
      6.258  0.1172E+03  0.1131E+03  0.1019E+04  0.1018E+04
      6.322  0.1100E+03  0.1144E+03  0.1026E+04  0.1025E+04
      6.385  0.1080E+03  0.1049E+03  0.1033E+04  0.1032E+04
      6.449  0.1007E+03  0.1100E+03  0.1039E+04  0.1039E+04
      6.513  0.1145E+03  0.1198E+03  0.1046E+04  0.1046E+04
      6.576  0.1165E+03  0.1288E+03  0.1054E+04  0.1055E+04
      6.640  0.1024E+03  0.1100E+03  0.1060E+04  0.1062E+04
      6.704  0.1208E+03  0.1102E+03  0.1068E+04  0.1069E+04
      6.767  0.1121E+03  0.1075E+03  0.1075E+04  0.1075E+04
      6.831  0.1111E+03  0.1305E+03  0.1082E+04  0.1084E+04
      6.894  0.1020E+03  0.1059E+03  0.1089E+04  0.1091E+04
      6.958  0.1234E+03  0.1191E+03  0.1097E+04  0.1098E+04
      7.022  0.1150E+03  0.1079E+03  0.1104E+04  0.1105E+04
      7.085  0.1264E+03  0.1182E+03  0.1112E+04  0.1112E+04
      7.149  0.1140E+03  0.1070E+03  0.1119E+04  0.1119E+04
      7.213  0.1274E+03  0.1257E+03  0.1127E+04  0.1127E+04
      7.276  0.1165E+03  0.9820E+02  0.1135E+04  0.1134E+04
      7.340  0.1283E+03  0.1216E+03  0.1143E+04  0.1141E+04
      7.404  0.1112E+03  0.1206E+03  0.1150E+04  0.1149E+04
      7.467  0.1241E+03  0.1220E+03  0.1158E+04  0.1157E+04
      7.531  0.1305E+03  0.1246E+03  0.1166E+04  0.1165E+04
      7.595  0.1167E+03  0.1281E+03  0.1174E+04  0.1173E+04
      7.658  0.1179E+03  0.1096E+03  0.1181E+04  0.1180E+04
      7.722  0.1314E+03  0.1309E+03  0.1190E+04  0.1188E+04
      7.785  0.1384E+03  0.1160E+03  0.1198E+04  0.1196E+04
      7.849  0.1275E+03  0.1319E+03  0.1207E+04  0.1204E+04
      7.913  0.1342E+03  0.1209E+03  0.1215E+04  0.1212E+04
      7.976  0.1282E+03  0.1373E+03  0.1223E+04  0.1220E+04
      8.040  0.1384E+03  0.1210E+03  0.1232E+04  0.1228E+04
      8.104  0.1243E+03  0.1362E+03  0.1240E+04  0.1237E+04
      8.167  0.1317E+03  0.1040E+03  0.1248E+04  0.1243E+04
      8.231  0.1173E+03  0.1240E+03  0.1256E+04  0.1251E+04
      8.295  0.9521E+02  0.1057E+03  0.1262E+04  0.1258E+04
      8.358  0.9006E+02  0.8117E+02  0.1268E+04  0.1263E+04
      8.422  0.5145E+02  0.4920E+02  0.1271E+04  0.1266E+04
      8.486  0.1771E+02  0.3734E+02  0.1272E+04  0.1269E+04
      8.549  0.0000E+00  0.1504E+02  0.1272E+04  0.1270E+04
      8.613  0.0000E+00  0.9757E+01  0.1272E+04  0.1270E+04
      8.677  0.0000E+00  0.6889E+01  0.1272E+04  0.1271E+04
      8.740  0.0000E+00  0.1297E+02  0.1272E+04  0.1272E+04
      8.804  0.0000E+00  0.7609E+01  0.1272E+04  0.1272E+04
      8.867  0.0000E+00  0.0000E+00  0.1272E+04  0.1272E+04
      8.931  0.0000E+00  0.0000E+00  0.1272E+04  0.1272E+04
      8.995  0.0000E+00  0.0000E+00  0.1272E+04  0.1272E+04
      9.058  0.0000E+00  0.0000E+00  0.1272E+04  0.1272E+04
      9.122  0.0000E+00  0.0000E+00  0.1272E+04  0.1272E+04
      9.186  0.0000E+00  0.0000E+00  0.1272E+04  0.1272E+04
      9.249  0.0000E+00  0.0000E+00  0.1272E+04  0.1272E+04
      9.313  0.0000E+00  0.0000E+00  0.1272E+04  0.1272E+04
      9.377  0.0000E+00  0.0000E+00  0.1272E+04  0.1272E+04
      9.440  0.0000E+00  0.0000E+00  0.1272E+04  0.1272E+04
      9.504  0.0000E+00  0.0000E+00  0.1272E+04  0.1272E+04
      9.568  0.0000E+00  0.0000E+00  0.1272E+04  0.1272E+04
      9.631  0.0000E+00  0.0000E+00  0.1272E+04  0.1272E+04
