       N       E                     dE             d eps       ncg     rms          rms(c)
DAV:   1     0.139951974119E+04    0.13995E+04   -0.16976E+05  9280   0.172E+03
DAV:   2    -0.718316670019E+03   -0.21178E+04   -0.20505E+04 10840   0.215E+02
DAV:   3    -0.943618868858E+03   -0.22530E+03   -0.21577E+03 11600   0.660E+01
DAV:   4    -0.954261581079E+03   -0.10643E+02   -0.10210E+02 11304   0.137E+01
DAV:   5    -0.954786218457E+03   -0.52464E+00   -0.51664E+00 12384   0.273E+00    0.666E+01
DAV:   6    -0.947544800537E+03    0.72414E+01   -0.23535E+02 10096   0.268E+01    0.296E+01
DAV:   7    -0.936412567603E+03    0.11132E+02   -0.76810E+01 13400   0.239E+01    0.262E+01
DAV:   8    -0.926729489355E+03    0.96831E+01   -0.12326E+02 11352   0.189E+01    0.754E+00
DAV:   9    -0.926874849990E+03   -0.14536E+00   -0.19580E+01 10536   0.766E+00    0.482E+00
DAV:  10    -0.926262873162E+03    0.61198E+00   -0.31653E+00 10560   0.266E+00    0.359E+00
DAV:  11    -0.926085610200E+03    0.17726E+00   -0.83092E-01 10912   0.147E+00    0.155E+00
DAV:  12    -0.926018566022E+03    0.67044E-01   -0.55809E-01 11312   0.120E+00    0.860E-01
DAV:  13    -0.925990835641E+03    0.27730E-01   -0.17956E-01 11264   0.806E-01    0.504E-01
DAV:  14    -0.925988063812E+03    0.27718E-02   -0.37646E-02 10432   0.311E-01    0.378E-01
DAV:  15    -0.925985770607E+03    0.22932E-02   -0.10554E-02 11032   0.144E-01    0.183E-01
DAV:  16    -0.925985510183E+03    0.26042E-03   -0.17796E-03 11064   0.722E-02    0.862E-02
DAV:  17    -0.925985399430E+03    0.11075E-03   -0.75533E-04 10920   0.397E-02    0.322E-02
DAV:  18    -0.925985404240E+03   -0.48096E-05   -0.12023E-04 11512   0.178E-02    0.148E-02
DAV:  19    -0.925985410442E+03   -0.62020E-05   -0.27741E-05 11496   0.860E-03    0.932E-03
DAV:  20    -0.925985408870E+03    0.15718E-05   -0.93824E-06 11272   0.543E-03    0.409E-03
DAV:  21    -0.925985408766E+03    0.10374E-06   -0.25514E-06 11648   0.214E-03    0.202E-03
DAV:  22    -0.925985409034E+03   -0.26774E-06   -0.42447E-07  8400   0.106E-03    0.114E-03
DAV:  23    -0.925985409045E+03   -0.11196E-07   -0.96495E-08  5632   0.575E-04
   1 F= -.92598541E+03 E0= -.92598427E+03  d E =-.228491E-02  mag=     1.0000
