Si and Ge interface calculation         
           1
    10.862000    0.000000    0.000000
     0.000000   16.293001    0.000000
     0.000000    0.000000   22.784737
   Si   Sn
    72    72
Direct configuration=     1
   0.00000000  0.99406773  0.00000000
   0.00000000  0.82740104  0.11918066
   0.00000000  0.66073430  0.23836134
   0.50000000  0.99406773  0.00000000
   0.50000000  0.82740104  0.11918066
   0.50000000  0.66073430  0.23836134
   0.00000000  0.32740107  0.00000000
   0.00000000  0.16073438  0.11918066
   0.00000000  0.99406767  0.23836134
   0.50000000  0.32740107  0.00000000
   0.50000000  0.16073438  0.11918066
   0.50000000  0.99406767  0.23836134
   0.00000000  0.66073447  0.00000000
   0.00000000  0.49406773  0.11918066
   0.00000000  0.32740104  0.23836134
   0.50000000  0.66073447  0.00000000
   0.50000000  0.49406773  0.11918066
   0.50000000  0.32740104  0.23836134
   0.12500000  0.07740106  0.05959034
   0.12500000  0.91073436  0.17877102
   0.12500000  0.74406767  0.29795170
   0.62500000  0.07740106  0.05959034
   0.62500000  0.91073436  0.17877102
   0.62500000  0.74406767  0.29795170
   0.12500000  0.41073438  0.05959034
   0.12500000  0.24406767  0.17877102
   0.12500000  0.07740095  0.29795170
   0.62500000  0.41073438  0.05959034
   0.62500000  0.24406767  0.17877102
   0.62500000  0.07740095  0.29795170
   0.12500000  0.74406779  0.05959034
   0.12500000  0.57740104  0.17877102
   0.12500000  0.41073433  0.29795170
   0.62500000  0.74406779  0.05959034
   0.62500000  0.57740104  0.17877102
   0.62500000  0.41073433  0.29795170
   0.25000000  0.16073438  0.00000000
   0.25000000  0.99406767  0.11918066
   0.25000000  0.82740098  0.23836134
   0.75000006  0.16073438  0.00000000
   0.75000006  0.99406767  0.11918066
   0.75000006  0.82740098  0.23836134
   0.25000000  0.49406773  0.00000000
   0.25000000  0.32740104  0.11918066
   0.25000000  0.16073433  0.23836134
   0.75000006  0.49406773  0.00000000
   0.75000006  0.32740104  0.11918066
   0.75000006  0.16073433  0.23836134
   0.25000000  0.82740110  0.00000000
   0.25000000  0.66073442  0.11918066
   0.25000000  0.49406773  0.23836134
   0.75000006  0.82740110  0.00000000
   0.75000006  0.66073442  0.11918066
   0.75000006  0.49406773  0.23836134
   0.37500003  0.24406773  0.05959034
   0.37500003  0.07740102  0.17877102
   0.37500003  0.91073430  0.29795170
   0.87500006  0.24406773  0.05959034
   0.87500006  0.07740102  0.17877102
   0.87500006  0.91073430  0.29795170
   0.37500003  0.57740116  0.05959034
   0.37500003  0.41073447  0.17877102
   0.37500003  0.24406771  0.29795170
   0.87500006  0.57740116  0.05959034
   0.87500006  0.41073447  0.17877102
   0.87500006  0.24406771  0.29795170
   0.37500003  0.91073436  0.05959034
   0.37500003  0.74406767  0.17877102
   0.37500003  0.57740092  0.29795170
   0.87500006  0.91073436  0.05959034
   0.87500006  0.74406767  0.17877102
   0.87500006  0.57740092  0.29795170
   0.21296297  0.50053906  0.39724165
   0.21296287  0.25053883  0.49793529
   0.21296287  0.00053883  0.59862906
   0.21296275  0.75053859  0.69932270
   0.21296275  0.50053859  0.80001634
   0.21296275  0.25053835  0.90071011
   0.54629636  0.16720569  0.39724165
   0.54629636  0.91720569  0.49793529
   0.54629624  0.66720551  0.59862900
   0.54629618  0.41720533  0.69932264
   0.54629612  0.16720533  0.80001634
   0.54629618  0.91720522  0.90071005
   0.87962973  0.83387232  0.39724165
   0.87962967  0.58387232  0.49793529
   0.87962961  0.33387208  0.59862900
   0.87962961  0.08387208  0.69932264
   0.87962955  0.83387196  0.80001634
   0.87962961  0.58387184  0.90071005
   0.21296297  0.00053906  0.39724165
   0.21296287  0.75053895  0.49793529
   0.21296287  0.50053883  0.59862906
   0.21296275  0.25053859  0.69932270
   0.21296275  0.00053859  0.80001634
   0.21296275  0.75053847  0.90071005
   0.54629636  0.66720569  0.39724165
   0.54629630  0.41720557  0.49793529
   0.54629624  0.16720557  0.59862906
   0.54629624  0.91720527  0.69932264
   0.54629618  0.66720522  0.80001634
   0.54629612  0.41720509  0.90071005
   0.87962979  0.33387244  0.39724165
   0.87962973  0.08387232  0.49793529
   0.87962967  0.83387220  0.59862906
   0.87962961  0.58387208  0.69932270
   0.87962949  0.33387208  0.80001634
   0.87962949  0.08387184  0.90071005
   0.29629624  0.16720581  0.39724168
   0.29629624  0.91720575  0.49793529
   0.29629615  0.66720557  0.59862906
   0.29629612  0.41720545  0.69932264
   0.29629603  0.16720533  0.80001634
   0.29629606  0.91720527  0.90071005
   0.62962961  0.83387232  0.39724168
   0.62962961  0.58387226  0.49793529
   0.62962955  0.33387208  0.59862906
   0.62962949  0.08387208  0.69932264
   0.62962943  0.83387196  0.80001634
   0.62962943  0.58387184  0.90071005
   0.96296298  0.50053895  0.39724168
   0.96296298  0.25053883  0.49793529
   0.96296292  0.00053883  0.59862906
   0.96296281  0.75053865  0.69932264
   0.96296281  0.50053859  0.80001634
   0.96296281  0.25053835  0.90071005
   0.29629630  0.66720569  0.39724165
   0.29629627  0.41720557  0.49793529
   0.29629624  0.16720545  0.59862906
   0.29629615  0.91720533  0.69932270
   0.29629609  0.66720527  0.80001634
   0.29629606  0.41720509  0.90071005
   0.62962967  0.33387232  0.39724165
   0.62962961  0.08387220  0.49793529
   0.62962961  0.83387208  0.59862906
   0.62962955  0.58387196  0.69932270
   0.62962949  0.33387184  0.80001634
   0.62962949  0.08387184  0.90071005
   0.96296298  0.00053906  0.39724165
   0.96296292  0.75053895  0.49793529
   0.96296292  0.50053883  0.59862906
   0.96296281  0.25053859  0.69932270
   0.96296275  0.00053859  0.80001634
   0.96296275  0.75053847  0.90071005
