  48  48   0   0
  0.1886566E+02  0.8001338E-09  0.9799598E-09  0.1154895E-08  0.5000000E-15
  1.000000000000000E-004
  CAR 
 Si and Ge interface calculation         
      8.75779369    -12.19180816  301      5.59617458      1.00000000
    -12.192  0.0000E+00  0.0000E+00  0.0000E+00  0.0000E+00
    -12.122  0.0000E+00  0.0000E+00  0.0000E+00  0.0000E+00
    -12.052  0.0000E+00  0.0000E+00  0.0000E+00  0.0000E+00
    -11.982  0.0000E+00  0.0000E+00  0.0000E+00  0.0000E+00
    -11.912  0.0000E+00  0.0000E+00  0.0000E+00  0.0000E+00
    -11.843  0.0000E+00  0.0000E+00  0.0000E+00  0.0000E+00
    -11.773  0.0000E+00  0.0000E+00  0.0000E+00  0.0000E+00
    -11.703  0.0000E+00  0.0000E+00  0.0000E+00  0.0000E+00
    -11.633  0.0000E+00  0.0000E+00  0.0000E+00  0.0000E+00
    -11.563  0.0000E+00  0.0000E+00  0.0000E+00  0.0000E+00
    -11.493  0.0000E+00  0.0000E+00  0.0000E+00  0.0000E+00
    -11.424  0.0000E+00  0.0000E+00  0.0000E+00  0.0000E+00
    -11.354  0.0000E+00  0.0000E+00  0.0000E+00  0.0000E+00
    -11.284  0.1308E-09  0.0000E+00  0.9133E-11  0.0000E+00
    -11.214  0.3711E+01  0.1012E+01  0.2591E+00  0.7065E-01
    -11.144  0.2295E+02  0.1768E+02  0.1869E+01  0.1305E+01
    -11.074  0.1603E+02  0.2423E+02  0.3000E+01  0.3000E+01
    -11.005  0.4603E+01  0.3686E+00  0.3321E+01  0.3026E+01
    -10.935  0.2394E+02  0.2827E+02  0.5000E+01  0.5000E+01
    -10.865  0.2960E-04  0.7500E-10  0.5000E+01  0.5000E+01
    -10.795  0.2861E+02  0.2479E+02  0.6998E+01  0.6731E+01
    -10.725  0.1428E+02  0.1437E+02  0.7997E+01  0.7751E+01
    -10.656  0.0000E+00  0.3541E+01  0.8000E+01  0.8000E+01
    -10.586  0.0000E+00  0.0000E+00  0.8000E+01  0.8000E+01
    -10.516  0.0000E+00  0.0000E+00  0.8000E+01  0.8000E+01
    -10.446  0.0000E+00  0.0000E+00  0.8000E+01  0.8000E+01
    -10.376  0.0000E+00  0.0000E+00  0.8000E+01  0.8000E+01
    -10.306  0.0000E+00  0.0000E+00  0.8000E+01  0.8000E+01
    -10.237  0.0000E+00  0.0000E+00  0.8000E+01  0.8000E+01
    -10.167  0.0000E+00  0.0000E+00  0.8000E+01  0.8000E+01
    -10.097  0.0000E+00  0.0000E+00  0.8000E+01  0.8000E+01
    -10.027  0.0000E+00  0.0000E+00  0.8000E+01  0.8000E+01
     -9.957  0.0000E+00  0.0000E+00  0.8000E+01  0.8000E+01
     -9.887  0.0000E+00  0.0000E+00  0.8000E+01  0.8000E+01
     -9.818  0.0000E+00  0.0000E+00  0.8000E+01  0.8000E+01
     -9.748  0.0000E+00  0.0000E+00  0.8000E+01  0.8000E+01
     -9.678  0.0000E+00  0.0000E+00  0.8000E+01  0.8000E+01
     -9.608  0.3107E-08  0.0000E+00  0.8000E+01  0.8000E+01
     -9.538  0.4634E+01  0.1811E+01  0.8324E+01  0.8126E+01
     -9.468  0.1034E+02  0.7533E+01  0.9056E+01  0.8653E+01
     -9.399  0.1579E+02  0.1620E+02  0.1017E+02  0.9784E+01
     -9.329  0.7038E+01  0.7628E+01  0.1067E+02  0.1034E+02
     -9.259  0.5465E+01  0.9519E+01  0.1105E+02  0.1100E+02
     -9.189  0.1809E+02  0.1490E+02  0.1232E+02  0.1204E+02
     -9.119  0.9796E+01  0.1143E+02  0.1300E+02  0.1284E+02
     -9.049  0.0000E+00  0.2023E+01  0.1300E+02  0.1300E+02
     -8.980  0.2723E+01  0.1366E-01  0.1319E+02  0.1300E+02
     -8.910  0.2583E+02  0.2580E+02  0.1499E+02  0.1480E+02
     -8.840  0.6874E+01  0.3767E+01  0.1548E+02  0.1507E+02
     -8.770  0.7358E+01  0.1334E+02  0.1600E+02  0.1600E+02
     -8.700  0.0000E+00  0.0000E+00  0.1600E+02  0.1600E+02
     -8.630  0.0000E+00  0.0000E+00  0.1600E+02  0.1600E+02
     -8.561  0.0000E+00  0.0000E+00  0.1600E+02  0.1600E+02
     -8.491  0.0000E+00  0.0000E+00  0.1600E+02  0.1600E+02
     -8.421  0.0000E+00  0.0000E+00  0.1600E+02  0.1600E+02
     -8.351  0.0000E+00  0.0000E+00  0.1600E+02  0.1600E+02
     -8.281  0.0000E+00  0.0000E+00  0.1600E+02  0.1600E+02
     -8.211  0.1702E+00  0.7605E-03  0.1601E+02  0.1600E+02
     -8.142  0.2217E+01  0.2385E+01  0.1617E+02  0.1617E+02
     -8.072  0.4654E+01  0.3014E+01  0.1649E+02  0.1638E+02
     -8.002  0.3898E+01  0.4171E+01  0.1676E+02  0.1667E+02
     -7.932  0.3380E+01  0.4604E+01  0.1700E+02  0.1699E+02
     -7.862  0.1540E+01  0.6588E+00  0.1711E+02  0.1704E+02
     -7.792  0.3404E+01  0.4259E+01  0.1735E+02  0.1733E+02
     -7.723  0.1725E+02  0.1478E+02  0.1855E+02  0.1837E+02
     -7.653  0.1004E+02  0.7979E+01  0.1926E+02  0.1893E+02
     -7.583  0.5868E+01  0.1049E+02  0.1967E+02  0.1966E+02
     -7.513  0.1798E+01  0.6698E-01  0.1979E+02  0.1967E+02
     -7.443  0.7755E+01  0.9479E+01  0.2033E+02  0.2033E+02
     -7.373  0.9377E+01  0.7380E+01  0.2099E+02  0.2085E+02
     -7.304  0.3274E+01  0.3784E+01  0.2123E+02  0.2111E+02
     -7.234  0.4284E+01  0.3701E+01  0.2153E+02  0.2137E+02
     -7.164  0.1117E+02  0.9311E+01  0.2231E+02  0.2202E+02
     -7.094  0.9534E+01  0.1312E+02  0.2300E+02  0.2295E+02
     -7.024  0.5294E+01  0.3354E+01  0.2337E+02  0.2318E+02
     -6.954  0.7912E+01  0.8899E+01  0.2392E+02  0.2380E+02
     -6.885  0.1096E+01  0.2808E+01  0.2400E+02  0.2400E+02
     -6.815  0.0000E+00  0.0000E+00  0.2400E+02  0.2400E+02
     -6.745  0.0000E+00  0.0000E+00  0.2400E+02  0.2400E+02
     -6.675  0.0000E+00  0.0000E+00  0.2400E+02  0.2400E+02
     -6.605  0.1480E-01  0.2882E-06  0.2400E+02  0.2400E+02
     -6.535  0.1576E+01  0.1591E+01  0.2411E+02  0.2411E+02
     -6.466  0.6828E+01  0.5167E+01  0.2459E+02  0.2447E+02
     -6.396  0.5028E+01  0.2128E+01  0.2494E+02  0.2462E+02
     -6.326  0.8712E+01  0.1258E+02  0.2555E+02  0.2550E+02
     -6.256  0.1044E+02  0.9012E+01  0.2628E+02  0.2613E+02
     -6.186  0.6372E+01  0.8423E+01  0.2672E+02  0.2672E+02
     -6.116  0.6356E+01  0.6364E+01  0.2717E+02  0.2717E+02
     -6.047  0.7994E+01  0.1763E+01  0.2772E+02  0.2729E+02
     -5.977  0.9401E+01  0.1370E+02  0.2840E+02  0.2825E+02
     -5.907  0.1963E+02  0.1598E+02  0.2977E+02  0.2936E+02
     -5.837  0.1118E+02  0.1053E+02  0.3057E+02  0.3011E+02
     -5.767  0.1256E+02  0.1451E+02  0.3144E+02  0.3112E+02
     -5.697  0.1244E+02  0.1572E+02  0.3231E+02  0.3222E+02
     -5.628  0.1153E+02  0.9559E+01  0.3312E+02  0.3289E+02
     -5.558  0.1675E+02  0.1663E+02  0.3429E+02  0.3406E+02
     -5.488  0.1574E+02  0.1898E+02  0.3539E+02  0.3539E+02
     -5.418  0.1023E+02  0.9488E+01  0.3610E+02  0.3605E+02
     -5.348  0.5848E+01  0.4706E+01  0.3651E+02  0.3638E+02
     -5.278  0.6610E+01  0.3192E+01  0.3697E+02  0.3661E+02
     -5.209  0.1732E+02  0.1811E+02  0.3818E+02  0.3788E+02
     -5.139  0.7685E+01  0.8845E+01  0.3873E+02  0.3850E+02
     -5.069  0.5384E+01  0.7077E+01  0.3910E+02  0.3900E+02
     -4.999  0.1187E+02  0.8173E+01  0.3994E+02  0.3957E+02
     -4.929  0.6216E+01  0.8693E+01  0.4038E+02  0.4018E+02
     -4.859  0.2238E+02  0.1507E+02  0.4195E+02  0.4123E+02
     -4.790  0.1433E+02  0.2085E+02  0.4297E+02  0.4269E+02
     -4.720  0.2888E+01  0.4498E+01  0.4318E+02  0.4300E+02
     -4.650  0.1855E+02  0.1012E+02  0.4447E+02  0.4371E+02
     -4.580  0.1391E+02  0.2463E+02  0.4544E+02  0.4544E+02
     -4.510  0.5236E+01  0.3366E+01  0.4581E+02  0.4568E+02
     -4.440  0.9136E+01  0.5759E+01  0.4645E+02  0.4608E+02
     -4.371  0.5940E+01  0.8364E+01  0.4686E+02  0.4667E+02
     -4.301  0.4342E+01  0.7116E+01  0.4717E+02  0.4717E+02
     -4.231  0.3120E+01  0.1592E+01  0.4738E+02  0.4728E+02
     -4.161  0.9468E+01  0.1031E+02  0.4805E+02  0.4800E+02
     -4.091  0.3320E+01  0.3947E+01  0.4828E+02  0.4828E+02
     -4.021  0.3999E+01  0.1905E+01  0.4856E+02  0.4841E+02
     -3.952  0.1425E+02  0.1423E+02  0.4955E+02  0.4940E+02
     -3.882  0.1776E+02  0.1636E+02  0.5079E+02  0.5055E+02
     -3.812  0.1015E+02  0.1363E+02  0.5150E+02  0.5150E+02
     -3.742  0.1725E+02  0.1152E+02  0.5271E+02  0.5230E+02
     -3.672  0.3345E+02  0.3554E+02  0.5504E+02  0.5480E+02
     -3.602  0.8418E+01  0.8273E+01  0.5563E+02  0.5538E+02
     -3.533  0.1840E+02  0.1875E+02  0.5692E+02  0.5669E+02
     -3.463  0.1108E+02  0.1095E+02  0.5769E+02  0.5746E+02
     -3.393  0.9070E+01  0.7491E+01  0.5832E+02  0.5798E+02
     -3.323  0.8862E+01  0.1323E+02  0.5895E+02  0.5890E+02
     -3.253  0.2375E+01  0.2859E+01  0.5911E+02  0.5911E+02
     -3.183  0.6378E+01  0.5043E+01  0.5956E+02  0.5946E+02
     -3.114  0.7887E+01  0.9236E+01  0.6011E+02  0.6011E+02
     -3.044  0.6364E+01  0.6176E+01  0.6056E+02  0.6054E+02
     -2.974  0.3795E+01  0.1304E+01  0.6082E+02  0.6065E+02
     -2.904  0.6237E+01  0.3138E+01  0.6127E+02  0.6087E+02
     -2.834  0.1698E+02  0.1634E+02  0.6245E+02  0.6201E+02
     -2.764  0.4558E+01  0.1094E+02  0.6278E+02  0.6277E+02
     -2.695  0.2781E+02  0.1695E+02  0.6472E+02  0.6396E+02
     -2.625  0.7187E+01  0.1793E+02  0.6522E+02  0.6521E+02
     -2.555  0.8462E+01  0.5906E+01  0.6582E+02  0.6563E+02
     -2.485  0.2986E+02  0.2692E+02  0.6790E+02  0.6751E+02
     -2.415  0.5513E+01  0.1040E+02  0.6829E+02  0.6824E+02
     -2.345  0.6819E+01  0.2359E+01  0.6876E+02  0.6841E+02
     -2.276  0.1579E+02  0.2003E+02  0.6986E+02  0.6981E+02
     -2.206  0.1260E+02  0.1129E+02  0.7074E+02  0.7060E+02
     -2.136  0.1350E+02  0.1438E+02  0.7169E+02  0.7161E+02
     -2.066  0.1401E+02  0.1280E+02  0.7266E+02  0.7251E+02
     -1.996  0.9547E+01  0.1091E+02  0.7333E+02  0.7329E+02
     -1.927  0.7944E+01  0.5972E+01  0.7389E+02  0.7372E+02
     -1.857  0.6338E+01  0.6896E+01  0.7433E+02  0.7420E+02
     -1.787  0.2659E+01  0.1978E+01  0.7452E+02  0.7434E+02
     -1.717  0.9283E+01  0.8912E+01  0.7517E+02  0.7497E+02
     -1.647  0.9504E+01  0.1070E+02  0.7583E+02  0.7571E+02
     -1.577  0.1703E+02  0.1666E+02  0.7702E+02  0.7688E+02
     -1.508  0.1721E+02  0.1302E+02  0.7822E+02  0.7781E+02
     -1.438  0.2386E+02  0.2038E+02  0.7989E+02  0.7924E+02
     -1.368  0.1516E+02  0.2023E+02  0.8095E+02  0.8065E+02
     -1.298  0.9952E+01  0.9097E+01  0.8165E+02  0.8129E+02
     -1.228  0.2266E+02  0.2580E+02  0.8323E+02  0.8310E+02
     -1.158  0.1031E+02  0.1005E+02  0.8395E+02  0.8380E+02
     -1.089  0.9623E+01  0.8754E+01  0.8463E+02  0.8441E+02
     -1.019  0.2119E+02  0.1552E+02  0.8611E+02  0.8550E+02
     -0.949  0.2073E+02  0.2314E+02  0.8756E+02  0.8711E+02
     -0.879  0.2060E+02  0.2611E+02  0.8900E+02  0.8894E+02
     -0.809  0.1505E+02  0.8379E+01  0.9005E+02  0.8953E+02
     -0.739  0.2083E+02  0.2452E+02  0.9151E+02  0.9124E+02
     -0.670  0.1677E+02  0.1312E+02  0.9268E+02  0.9216E+02
     -0.600  0.1797E+02  0.2057E+02  0.9394E+02  0.9360E+02
     -0.530  0.2384E+02  0.2410E+02  0.9561E+02  0.9528E+02
     -0.460  0.7512E+01  0.1101E+02  0.9615E+02  0.9605E+02
     -0.390  0.1080E+02  0.9529E+01  0.9690E+02  0.9672E+02
     -0.320  0.2223E+02  0.1955E+02  0.9845E+02  0.9809E+02
     -0.251  0.1964E+02  0.2094E+02  0.9983E+02  0.9955E+02
     -0.181  0.1676E+02  0.1907E+02  0.1010E+03  0.1009E+03
     -0.111  0.1723E+02  0.1206E+02  0.1022E+03  0.1017E+03
     -0.041  0.2116E+02  0.2046E+02  0.1037E+03  0.1032E+03
      0.029  0.2200E+02  0.2640E+02  0.1052E+03  0.1050E+03
      0.099  0.7135E+01  0.6138E+01  0.1057E+03  0.1055E+03
      0.168  0.5779E+01  0.9353E+01  0.1061E+03  0.1061E+03
      0.238  0.9481E+01  0.4883E+01  0.1068E+03  0.1065E+03
      0.308  0.1637E+02  0.2031E+02  0.1079E+03  0.1079E+03
      0.378  0.6207E+01  0.3262E+01  0.1084E+03  0.1081E+03
      0.448  0.1219E+02  0.1258E+02  0.1092E+03  0.1090E+03
      0.518  0.5608E+01  0.5079E+01  0.1096E+03  0.1093E+03
      0.587  0.1538E+02  0.1561E+02  0.1107E+03  0.1104E+03
      0.657  0.3246E+02  0.2904E+02  0.1130E+03  0.1125E+03
      0.727  0.2234E+02  0.2328E+02  0.1145E+03  0.1141E+03
      0.797  0.1161E+02  0.1163E+02  0.1153E+03  0.1149E+03
      0.867  0.2199E+02  0.2420E+02  0.1169E+03  0.1166E+03
      0.937  0.7790E+01  0.8163E+01  0.1174E+03  0.1172E+03
      1.006  0.1372E+02  0.1262E+02  0.1184E+03  0.1181E+03
      1.076  0.1277E+02  0.1437E+02  0.1193E+03  0.1191E+03
      1.146  0.1976E+02  0.1948E+02  0.1207E+03  0.1204E+03
      1.216  0.7824E+01  0.8522E+01  0.1212E+03  0.1210E+03
      1.286  0.2008E+02  0.1669E+02  0.1226E+03  0.1222E+03
      1.356  0.1595E+02  0.1792E+02  0.1237E+03  0.1235E+03
      1.425  0.1929E+02  0.1991E+02  0.1251E+03  0.1249E+03
      1.495  0.9999E+01  0.1038E+02  0.1258E+03  0.1256E+03
      1.565  0.1016E+02  0.6739E+01  0.1265E+03  0.1261E+03
      1.635  0.2608E+02  0.2534E+02  0.1283E+03  0.1278E+03
      1.705  0.2891E+02  0.2302E+02  0.1303E+03  0.1294E+03
      1.775  0.7878E+01  0.1920E+02  0.1309E+03  0.1308E+03
      1.844  0.7344E+01  0.8500E+01  0.1314E+03  0.1314E+03
      1.914  0.2590E+02  0.2195E+02  0.1332E+03  0.1329E+03
      1.984  0.2148E+02  0.2257E+02  0.1347E+03  0.1345E+03
      2.054  0.1478E+02  0.1559E+02  0.1358E+03  0.1356E+03
      2.124  0.1563E+02  0.9158E+01  0.1369E+03  0.1363E+03
      2.194  0.2124E+02  0.2782E+02  0.1383E+03  0.1382E+03
      2.263  0.1220E+02  0.1301E+02  0.1392E+03  0.1391E+03
      2.333  0.2180E+02  0.1588E+02  0.1407E+03  0.1402E+03
      2.403  0.3130E+02  0.2666E+02  0.1429E+03  0.1421E+03
      2.473  0.1617E+02  0.2166E+02  0.1440E+03  0.1436E+03
      2.543  0.2226E+02  0.2489E+02  0.1456E+03  0.1454E+03
      2.613  0.1649E+02  0.1680E+02  0.1467E+03  0.1466E+03
      2.682  0.1479E+02  0.1740E+02  0.1478E+03  0.1478E+03
      2.752  0.1672E+02  0.1252E+02  0.1489E+03  0.1487E+03
      2.822  0.1683E+02  0.1593E+02  0.1501E+03  0.1498E+03
      2.892  0.6980E+01  0.1002E+02  0.1506E+03  0.1505E+03
      2.962  0.1581E+02  0.1348E+02  0.1517E+03  0.1514E+03
      3.032  0.1887E+02  0.1722E+02  0.1530E+03  0.1526E+03
      3.101  0.9483E+01  0.9854E+01  0.1537E+03  0.1533E+03
      3.171  0.1385E+02  0.1841E+02  0.1547E+03  0.1546E+03
      3.241  0.8882E+01  0.9020E+01  0.1553E+03  0.1552E+03
      3.311  0.1037E+02  0.4264E+01  0.1560E+03  0.1555E+03
      3.381  0.2594E+02  0.2436E+02  0.1579E+03  0.1572E+03
      3.451  0.1333E+02  0.1836E+02  0.1588E+03  0.1585E+03
      3.520  0.1658E+02  0.1555E+02  0.1599E+03  0.1596E+03
      3.590  0.3170E+02  0.3152E+02  0.1622E+03  0.1618E+03
      3.660  0.9644E+01  0.1210E+02  0.1628E+03  0.1626E+03
      3.730  0.8323E+01  0.7484E+01  0.1634E+03  0.1632E+03
      3.800  0.2580E+02  0.2216E+02  0.1652E+03  0.1647E+03
      3.870  0.2786E+02  0.3188E+02  0.1672E+03  0.1670E+03
      3.939  0.1567E+02  0.1294E+02  0.1683E+03  0.1679E+03
      4.009  0.2521E+02  0.2749E+02  0.1700E+03  0.1698E+03
      4.079  0.1492E+02  0.1354E+02  0.1711E+03  0.1708E+03
      4.149  0.2421E+02  0.2196E+02  0.1728E+03  0.1723E+03
      4.219  0.2797E+02  0.2510E+02  0.1747E+03  0.1740E+03
      4.289  0.1070E+02  0.2061E+02  0.1755E+03  0.1755E+03
      4.358  0.9193E+01  0.6399E+01  0.1761E+03  0.1759E+03
      4.428  0.1049E+02  0.9204E+01  0.1769E+03  0.1766E+03
      4.498  0.2406E+02  0.1780E+02  0.1786E+03  0.1778E+03
      4.568  0.8025E+01  0.1578E+02  0.1791E+03  0.1789E+03
      4.638  0.2179E+02  0.1772E+02  0.1806E+03  0.1802E+03
      4.708  0.1464E+02  0.1273E+02  0.1817E+03  0.1811E+03
      4.777  0.1011E+02  0.1569E+02  0.1824E+03  0.1822E+03
      4.847  0.5764E+01  0.7766E+01  0.1828E+03  0.1827E+03
      4.917  0.6015E+01  0.4513E+01  0.1832E+03  0.1831E+03
      4.987  0.5850E+01  0.3990E+01  0.1836E+03  0.1833E+03
      5.057  0.3016E+02  0.2782E+02  0.1857E+03  0.1853E+03
      5.127  0.1326E+02  0.9158E+01  0.1866E+03  0.1859E+03
      5.196  0.5864E+01  0.1612E+02  0.1871E+03  0.1871E+03
      5.266  0.1259E+02  0.1012E+02  0.1879E+03  0.1878E+03
      5.336  0.1339E+02  0.5919E+01  0.1889E+03  0.1882E+03
      5.406  0.4189E+01  0.1251E+02  0.1892E+03  0.1891E+03
      5.476  0.8467E+01  0.8414E+01  0.1898E+03  0.1896E+03
      5.546  0.1237E+02  0.9240E+01  0.1906E+03  0.1903E+03
      5.615  0.1168E+02  0.1621E+02  0.1914E+03  0.1914E+03
      5.685  0.2010E+02  0.1620E+02  0.1929E+03  0.1926E+03
      5.755  0.2010E+02  0.1383E+02  0.1943E+03  0.1935E+03
      5.825  0.2064E+02  0.2534E+02  0.1957E+03  0.1953E+03
      5.895  0.2233E+02  0.2135E+02  0.1973E+03  0.1968E+03
      5.965  0.2734E+02  0.2189E+02  0.1992E+03  0.1983E+03
      6.034  0.2965E+02  0.3137E+02  0.2012E+03  0.2005E+03
      6.104  0.2540E+02  0.2017E+02  0.2030E+03  0.2019E+03
      6.174  0.1985E+02  0.3281E+02  0.2044E+03  0.2042E+03
      6.244  0.2227E+02  0.2215E+02  0.2060E+03  0.2058E+03
      6.314  0.7860E+01  0.5903E+01  0.2065E+03  0.2062E+03
      6.384  0.2367E+02  0.1882E+02  0.2082E+03  0.2075E+03
      6.453  0.1508E+02  0.1563E+02  0.2092E+03  0.2086E+03
      6.523  0.2341E+02  0.2549E+02  0.2109E+03  0.2104E+03
      6.593  0.2242E+02  0.1970E+02  0.2125E+03  0.2118E+03
      6.663  0.2978E+02  0.3341E+02  0.2145E+03  0.2142E+03
      6.733  0.1668E+02  0.1164E+02  0.2157E+03  0.2150E+03
      6.802  0.2440E+02  0.2840E+02  0.2174E+03  0.2170E+03
      6.872  0.1616E+02  0.1552E+02  0.2186E+03  0.2180E+03
      6.942  0.2200E+02  0.2220E+02  0.2201E+03  0.2196E+03
      7.012  0.1178E+02  0.1331E+02  0.2209E+03  0.2205E+03
      7.082  0.1943E+02  0.1709E+02  0.2223E+03  0.2217E+03
      7.152  0.3641E+02  0.2943E+02  0.2248E+03  0.2238E+03
      7.221  0.1336E+02  0.2840E+02  0.2258E+03  0.2258E+03
      7.291  0.2134E+02  0.1618E+02  0.2273E+03  0.2269E+03
      7.361  0.2079E+02  0.1738E+02  0.2287E+03  0.2281E+03
      7.431  0.2015E+02  0.2003E+02  0.2302E+03  0.2295E+03
      7.501  0.9146E+01  0.1226E+02  0.2308E+03  0.2304E+03
      7.571  0.8932E+01  0.1522E+02  0.2314E+03  0.2314E+03
      7.640  0.1004E+01  0.3112E-03  0.2315E+03  0.2314E+03
      7.710  0.3769E+01  0.3977E+01  0.2318E+03  0.2317E+03
      7.780  0.1391E+01  0.7960E+00  0.2319E+03  0.2318E+03
      7.850  0.1791E+01  0.3182E+01  0.2320E+03  0.2320E+03
      7.920  0.0000E+00  0.0000E+00  0.2320E+03  0.2320E+03
      7.990  0.0000E+00  0.0000E+00  0.2320E+03  0.2320E+03
      8.059  0.0000E+00  0.0000E+00  0.2320E+03  0.2320E+03
      8.129  0.0000E+00  0.0000E+00  0.2320E+03  0.2320E+03
      8.199  0.0000E+00  0.0000E+00  0.2320E+03  0.2320E+03
      8.269  0.0000E+00  0.0000E+00  0.2320E+03  0.2320E+03
      8.339  0.0000E+00  0.0000E+00  0.2320E+03  0.2320E+03
      8.409  0.0000E+00  0.0000E+00  0.2320E+03  0.2320E+03
      8.478  0.0000E+00  0.0000E+00  0.2320E+03  0.2320E+03
      8.548  0.0000E+00  0.0000E+00  0.2320E+03  0.2320E+03
      8.618  0.0000E+00  0.0000E+00  0.2320E+03  0.2320E+03
      8.688  0.0000E+00  0.0000E+00  0.2320E+03  0.2320E+03
      8.758  0.0000E+00  0.0000E+00  0.2320E+03  0.2320E+03
