Si and Ge interface calculation         
           1
     8.001338    0.000000    0.000000
     0.000000    9.799598    0.000000
     0.000000    0.000000   11.548946
   Ge
    48
Direct configuration=     1
   0.04445780  0.94072294  0.00000000
   0.29445782  0.60738951  0.09999999
   0.54445779  0.27405614  0.19999994
   0.79445773  0.94072282  0.29999992
   0.04445779  0.60738933  0.39999995
   0.29445791  0.27405584  0.49999997
   0.54445779  0.19072293  0.00000000
   0.79445785  0.85738951  0.09999999
   0.04445779  0.52405614  0.19999991
   0.29445779  0.19072276  0.29999989
   0.54445779  0.85738933  0.39999995
   0.79445779  0.52405584  0.49999997
   0.54445779  0.94072294  0.00000000
   0.79445779  0.60738957  0.09999999
   0.04445779  0.27405614  0.19999994
   0.29445779  0.94072282  0.29999989
   0.54445779  0.60738933  0.39999995
   0.79445779  0.27405584  0.50000000
   0.04445780  0.19072296  0.00000000
   0.29445779  0.85738957  0.09999999
   0.54445779  0.52405620  0.19999994
   0.79445779  0.19072282  0.29999992
   0.04445779  0.85738945  0.39999983
   0.29445791  0.52405584  0.49999988
   0.04445780  0.05927708  0.50000000
   0.29445782  0.39261049  0.60000002
   0.54445779  0.72594386  0.69999999
   0.79445773  0.05927718  0.79999989
   0.04445779  0.39261067  0.89999992
   0.29445791  0.72594416  0.99999994
   0.54445779  0.80927706  0.50000000
   0.79445779  0.14261043  0.60000002
   0.04445779  0.47594392  0.69999993
   0.29445779  0.80927718  0.79999989
   0.54445779  0.14261055  0.89999980
   0.79445791  0.47594428  0.99999982
   0.54445779  0.05927708  0.50000000
   0.79445779  0.39261046  0.60000002
   0.04445779  0.72594386  0.69999999
   0.29445779  0.05927718  0.79999989
   0.54445779  0.39261067  0.89999992
   0.79445779  0.72594416  0.99999994
   0.04445779  0.80927706  0.50000000
   0.29445782  0.14261043  0.60000002
   0.54445779  0.47594392  0.69999999
   0.79445773  0.80927718  0.79999989
   0.04445779  0.14261055  0.89999980
   0.29445791  0.47594428  0.99999982
